Membrane in water
40155
    1TCq1    O1    1   0.670   2.438  10.899  0.2506  0.0042  0.2595
    1TCq1    C1    2   0.621   2.466  11.021  0.2001 -0.3514  0.1601
    1TCq1    O2    3   0.529   2.404  11.073 -0.2083 -0.1265 -0.8011
    1TCq1    C2    4   0.729   2.519  11.103 -0.5113  0.8366 -0.1313
    1TCq1    C3    5   0.859   2.542  11.050  0.5009 -0.3997  0.0256
    1TCq1    C4    6   0.931   2.642  11.113  0.2230  0.1812 -0.3786
    1TCq1    C5    7   0.881   2.704  11.224 -0.5515 -0.4519 -0.4076
    1TCq1    C6    8   0.766   2.665  11.284 -0.2731  0.4035 -0.1886
    1TCq1    C7    9   0.683   2.577  11.216  0.4827 -0.0909  0.9978
    1TCq1    C8   10   0.757   2.699  11.429 -0.7380  0.2951 -0.0149
    1TCq1    O4   11   0.856   2.748  11.488 -0.5001  0.3298  0.1690
    1TCq1    C9   12   1.058   2.678  11.056  0.7163  0.6524  0.0931
    1TCq1    O5   13   1.107   2.595  10.979 -0.2579 -0.3098  0.6435
    1TCq1    O6   14   1.116   2.783  11.084 -0.3678  0.5382 -0.0530
    1TCq1    H1   15   0.735   2.505  10.871 -0.3042  0.3704 -0.1419
    1TCq1    H2   16   0.907   2.483  10.972 -1.7761  1.7736 -3.0302
    1TCq1    H3   17   0.933   2.790  11.264 -1.3050 -0.5390  0.7489
    1TCq1    H4   18   0.585   2.556  11.257 -0.7459  0.1506 -1.7667
    2MPD2     C   19   0.502   2.673  11.882  0.3120 -0.5067  0.2326
    2MPD2    C1   20   0.624   2.731  11.855  0.0437  0.2917  0.2145
    2MPD2    C2   21   0.685   2.718  11.727 -0.1069 -0.7747  0.6575
    2MPD2    C3   22   0.613   2.659  11.625 -0.1439 -0.7199  0.0851
    2MPD2    C4   23   0.485   2.607  11.663 -0.0699  0.3983 -0.4568
    2MPD2    C5   24   0.436   2.605  11.789  0.4468  0.7315 -0.0480
    2MPD2     H   25   0.782   2.762  11.708 -0.8510  1.4547  2.0433
    2MPD2    H1   26   0.420   2.555  11.594  0.0704 -2.6487  1.7217
    2MPD2    H2   27   0.459   2.668  11.982  2.3545  2.5726  1.2728
    2MPD2    H3   28   0.344   2.554  11.814 -0.4748  0.8425 -3.2651
    2MPD2     N   29   0.646   2.649  11.490  0.7033 -0.4656 -0.1092
    2MPD2    H5   30   0.570   2.606  11.438 -0.5712  2.1764 -0.4343
    2MPD2    N1   31   0.708   2.787  11.959  0.2916 -0.1876  0.2919
    2MPD2    H7   32   0.796   2.825  11.925 -0.7502 -0.5780 -2.7711
    3TCq1    O1   33   0.625   3.711  10.349  0.2642 -0.1479 -0.7434
    3TCq1    C1   34   0.747   3.767  10.318 -0.2872 -0.4402  0.0565
    3TCq1    O2   35   0.772   3.819  10.214 -0.0070 -0.5319 -0.2173
    3TCq1    C2   36   0.802   3.825  10.438 -0.4199  0.1564 -0.8044
    3TCq1    C3   37   0.932   3.871  10.436 -0.2473  1.0675 -0.1197
    3TCq1    C4   38   0.976   3.947  10.534  0.5909 -0.1447  0.0524
    3TCq1    C5   39   0.897   3.961  10.644  0.7736  0.9599 -0.1288
    3TCq1    C6   40   0.773   3.901  10.655 -0.0010  0.6898  0.0814
    3TCq1    C7   41   0.729   3.825  10.552  0.1906 -0.1430 -0.6067
    3TCq1    C8   42   0.700   3.909  10.774  0.5840  0.4467 -0.2612
    3TCq1    O4   43   0.609   3.828  10.778 -0.0584  0.6332  0.4779
    3TCq1    C9   44   1.107   4.020  10.536 -0.2190 -0.9111 -0.0992
    3TCq1    O5   45   1.123   4.102  10.632 -0.0597 -0.3762  0.2316
    3TCq1    O6   46   1.185   4.007  10.434 -0.2565  0.0349 -0.5489
    3TCq1    H1   47   0.630   3.669  10.437 -1.1420 -0.0238 -0.6164
    3TCq1    H2   48   0.991   3.859  10.346 -0.3248 -0.1789 -0.0025
    3TCq1    H3   49   0.942   3.994  10.737 -1.5661 -1.0233  1.7067
    3TCq1    H4   50   0.626   3.790  10.550  0.3073 -0.6234  1.0822
    4MPD2     C   51   0.545   4.144  11.199 -0.2509 -0.2713  0.6443
    4MPD2    C1   52   0.592   4.237  11.110 -0.8685 -0.8298  0.4851
    4MPD2    C2   53   0.640   4.203  10.987 -0.2158  0.0867 -0.0744
    4MPD2    C3   54   0.651   4.067  10.949 -0.5187 -0.2520 -0.5350
    4MPD2    C4   55   0.617   3.972  11.045  0.2646  0.1150 -0.0303
    4MPD2    C5   56   0.563   4.012  11.159 -0.1802 -0.1301 -0.9234
    4MPD2     H   57   0.655   4.279  10.911 -0.3539  0.7754  0.5771
    4MPD2    H1   58   0.633   3.868  11.020  0.5014  0.3916 -1.0493
    4MPD2    H2   59   0.527   4.172  11.302 -0.6967  0.1702  0.4469
    4MPD2    H3   60   0.531   3.934  11.228 -0.0602  2.3991  1.9947
    4MPD2     N   61   0.704   4.038  10.824 -0.1338 -0.4251  0.0635
    4MPD2    H5   62   0.750   4.115  10.774 -2.2739  0.8190  0.0213
    4MPD2    N1   63   0.594   4.374  11.134  1.2627 -0.0377 -0.3028
    4MPD2    H7   64   0.625   4.428  11.053 -2.6132 -0.5758 -2.1716
    5TCq1    O1   65   0.556   1.590   9.661 -1.0341 -0.1841  0.5799
    5TCq1    C1   66   0.541   1.454   9.669  0.2054  0.4542 -0.0973
    5TCq1    O2   67   0.585   1.382   9.759  1.0552 -0.3570 -0.6916
    5TCq1    C2   68   0.463   1.401   9.559 -0.4056 -1.2626 -0.5633
    5TCq1    C3   69   0.384   1.476   9.473  0.3432  0.7644 -0.5060
    5TCq1    C4   70   0.308   1.407   9.385 -0.4633 -0.1468 -0.4452
    5TCq1    C5   71   0.299   1.269   9.381 -0.4756  1.0080 -1.0505
    5TCq1    C6   72   0.375   1.196   9.468 -0.3886 -0.6636 -0.7645
    5TCq1    C7   73   0.463   1.264   9.548  0.3482 -0.0081  0.5228
    5TCq1    C8   74   0.369   1.050   9.459 -0.4260  0.6229  0.0565
    5TCq1    O4   75   0.320   0.999   9.357  0.0285  0.4862 -0.4236
    5TCq1    C9   76   0.233   1.485   9.285  0.3028  0.2349  0.4350
    5TCq1    O5   77   0.235   1.606   9.303  0.0943 -0.1101 -0.1116
    5TCq1    O6   78   0.182   1.418   9.190  0.1565  0.1238  0.0899
    5TCq1    H1   79   0.514   1.641   9.589  1.6633 -0.0241 -0.8505
    5TCq1    H2   80   0.387   1.584   9.471 -0.5692  0.8895  5.2907
    5TCq1    H3   81   0.225   1.225   9.315 -1.4777  1.2824 -0.1140
    5TCq1    H4   82   0.542   1.211   9.600  2.1061 -0.0646 -2.2011
    6MPD2     C   83   0.373   0.749   9.514 -0.3882  0.5849  0.2904
    6MPD2    C1   84   0.442   0.850   9.587  0.1595  0.1962  0.6398
    6MPD2    C2   85   0.541   0.816   9.685  0.2256  0.4936  0.7470
    6MPD2    C3   86   0.557   0.687   9.719  0.1863  0.3950  0.2957
    6MPD2    C4   87   0.476   0.592   9.663 -0.1696 -0.2105 -0.9074
    6MPD2    C5   88   0.387   0.622   9.561  0.1580  0.3110 -0.4184
    6MPD2     H   89   0.620   0.883   9.716  1.0540 -0.0098 -0.2777
    6MPD2    H1   90   0.477   0.489   9.698 -0.2310  0.4147  0.9819
    6MPD2    H2   91   0.304   0.774   9.434  0.1386 -0.6437 -0.5456
    6MPD2    H3   92   0.346   0.539   9.503  0.0284  0.1995 -0.1667
    6MPD2     N   93   0.662   0.650   9.816  0.1776 -0.1853 -0.0643
    6MPD2    H5   94   0.716   0.726   9.853  0.5587 -0.2726 -0.4348
    6MPD2    N1   95   0.432   0.987   9.564 -0.8400 -0.3384 -0.4363
    6MPD2    H7   96   0.481   1.042   9.634 -3.3632  0.3053  0.8494
    7TCq1    O1   97   3.118   0.535  12.914 -0.1658  0.2950  0.0037
    7TCq1    C1   98   3.252   0.528  12.931  0.1441 -0.4606  0.6418
    7TCq1    O2   99   3.335   0.614  12.947 -0.0814  0.2383  0.1890
    7TCq1    C2  100   3.297   0.396  12.901  1.0334  0.1457 -0.3608
    7TCq1    C3  101   3.213   0.311  12.829  0.2107 -0.0173  0.1475
    7TCq1    C4  102   3.231   0.175  12.840  0.2453  0.9591 -0.2635
    7TCq1    C5  103   3.329   0.122  12.917 -0.2086 -0.1770  0.7891
    7TCq1    C6  104   3.410   0.205  12.989 -0.0793 -0.2766  0.4050
    7TCq1    C7  105   3.388   0.341  12.988 -0.7268 -0.2534  0.2648
    7TCq1    C8  106   3.525   0.146  13.055 -0.1935  0.9839  0.0629
    7TCq1    O4  107   3.521   0.023  13.068 -0.0226 -0.0652  0.8374
    7TCq1    C9  108   3.160   0.085  12.751  0.1183 -0.2449  1.0810
    7TCq1    O5  109   3.112   0.123  12.640  0.4028 -1.2987  0.1856
    7TCq1    O6  110   3.156   4.686  12.795 -0.2840 -0.3506  0.3824
    7TCq1    H1  111   3.083   0.443  12.914 -0.9363  0.5977 -1.3832
    7TCq1    H2  112   3.134   0.351  12.766  1.3105  0.6532 -0.7859
    7TCq1    H3  113   3.357   0.018  12.903  0.3146  0.2611 -1.3494
    7TCq1    H4  114   3.430   0.410  13.061  1.8326 -0.1309 -1.3135
    8MPD2     C  115   3.939   0.144  13.378  0.0489 -0.3745 -0.1364
    8MPD2    C1  116   3.853   0.041  13.356 -0.1079 -0.5547 -0.1993
    8MPD2    C2  117   3.743   0.063  13.275 -0.6171  0.3775  0.0171
    8MPD2    C3  118   3.730   0.183  13.200 -0.1067  0.1602  0.7311
    8MPD2    C4  119   3.828   0.277  13.221  0.3327 -0.8898 -0.3795
    8MPD2    C5  120   3.925   0.260  13.309 -0.2923 -0.0090 -0.2585
    8MPD2     H  121   3.662   4.712  13.273 -2.0562  1.9870  0.3540
    8MPD2    H1  122   3.822   0.371  13.168 -0.6333 -1.9757 -2.2117
    8MPD2    H2  123   4.013   0.143  13.457 -1.1706  1.4510  1.0273
    8MPD2    H3  124   4.000   0.336  13.321  0.4943 -0.6523 -1.0824
    8MPD2     N  125   3.621   0.226  13.113  0.2674  0.3778  0.5070
    8MPD2    H5  126   3.618   0.324  13.087 -2.4340 -0.5136 -2.4677
    8MPD2    N1  127   3.865   4.637  13.422 -0.5027 -0.4119  0.5318
    8MPD2    H7  128   3.946   4.635  13.483  0.1872 -0.6755 -0.3845
    9TCq1    O1  129   1.100   4.093  10.898 -0.3723 -0.2422  0.3894
    9TCq1    C1  130   1.166   4.108  11.009 -0.8261  0.3852  0.2841
    9TCq1    O2  131   1.114   4.101  11.117  0.5418 -0.1462  1.2307
    9TCq1    C2  132   1.294   4.173  10.988  0.4904  0.0363  0.1821
    9TCq1    C3  133   1.325   4.227  10.864  0.5102 -0.0664 -0.1434
    9TCq1    C4  134   1.457   4.251  10.837  0.5498 -0.0747 -0.4232
    9TCq1    C5  135   1.555   4.224  10.925  1.2117 -0.0818 -0.4532
    9TCq1    C6  136   1.517   4.189  11.054  0.3073 -0.0543  0.3204
    9TCq1    C7  137   1.388   4.166  11.090 -0.4047 -0.2008  0.5332
    9TCq1    C8  138   1.616   4.185  11.152  0.5244 -0.7228 -0.5149
    9TCq1    O4  139   1.731   4.195  11.109 -0.1985 -0.0539 -0.3213
    9TCq1    C9  140   1.489   4.308  10.711 -0.4221  0.6026 -0.3741
    9TCq1    O5  141   1.399   4.314  10.623 -0.4956  0.6704  0.8740
    9TCq1    O6  142   1.613   4.323  10.695 -0.1312  0.2969 -0.2538
    9TCq1    H1  143   1.145   4.113  10.813 -0.9441 -1.8571 -0.2927
    9TCq1    H2  144   1.248   4.242  10.789  0.2582  0.3395  0.1957
    9TCq1    H3  145   1.659   4.253  10.913  2.0048 -2.4812  0.6664
    9TCq1    H4  146   1.340   4.138  11.183  0.6250 -3.9363 -0.0395
   10MPD2     C  147   1.792   4.147  11.392  0.2173 -0.5108 -0.5062
   10MPD2    C1  148   1.655   4.124  11.385 -0.5823  0.4346 -0.0507
   10MPD2    C2  149   1.605   4.061  11.493  0.5430  0.3694  0.5857
   10MPD2    C3  150   1.685   4.026  11.605  0.2622  0.5752 -0.4486
   10MPD2    C4  151   1.823   4.053  11.613 -0.0330 -0.3516 -0.6820
   10MPD2    C5  152   1.874   4.103  11.494  0.3502 -0.0047  0.2587
   10MPD2     H  153   1.499   4.038  11.484  0.7949 -0.5020 -0.2219
   10MPD2    H1  154   1.895   4.031  11.691  1.0619  1.9079 -1.0222
   10MPD2    H2  155   1.839   4.198  11.309  1.4805 -0.2444  0.3749
   10MPD2    H3  156   1.981   4.116  11.486  0.2187  1.0006  0.1365
   10MPD2     N  157   1.642   3.952  11.714  0.1808  0.4318 -0.7040
   10MPD2    H5  158   1.715   3.938  11.783 -1.8803 -0.2972  1.3176
   10MPD2    N1  159   1.568   4.150  11.278 -0.0298  0.1894 -0.4719
   10MPD2    H7  160   1.469   4.132  11.289 -0.3886  2.4676  0.0324
   11TCq1    O1  161   1.526   4.308  14.609  0.3549 -0.1032 -0.3029
   11TCq1    C1  162   1.614   4.292  14.508 -0.3798 -0.0080 -0.4234
   11TCq1    O2  163   1.613   4.350  14.401 -0.1276 -0.5258 -0.0142
   11TCq1    C2  164   1.694   4.171  14.531 -0.2101  0.0164 -0.2785
   11TCq1    C3  165   1.821   4.162  14.481  0.3061  0.4316 -0.7691
   11TCq1    C4  166   1.884   4.047  14.477 -0.1931  0.6541  0.5238
   11TCq1    C5  167   1.828   3.925  14.518 -0.2317  0.3425  0.0830
   11TCq1    C6  168   1.701   3.937  14.573 -0.3233 -0.0676  0.6208
   11TCq1    C7  169   1.637   4.056  14.585 -0.2567  0.3171  0.3790
   11TCq1    C8  170   1.629   3.820  14.624  0.3314  0.1959  0.2820
   11TCq1    O4  171   1.558   3.837  14.725  0.1058 -0.2529 -0.4289
   11TCq1    C9  172   2.017   4.045  14.430 -0.2337  0.1410 -0.4310
   11TCq1    O5  173   2.073   3.936  14.410 -0.4228 -1.0440  0.3232
   11TCq1    O6  174   2.071   4.151  14.405  0.5326 -0.0316 -0.2918
   11TCq1    H1  175   1.547   4.249  14.684  1.1297  0.0492 -0.3944
   11TCq1    H2  176   1.867   4.253  14.444  3.6559 -1.6989 -1.8917
   11TCq1    H3  177   1.882   3.834  14.498 -0.9690 -0.2088  0.6142
   11TCq1    H4  178   1.534   4.057  14.621  0.1726 -1.4566  1.6423
   12MPD2     C  179   1.555   3.540  14.710  0.0898  0.5514 -0.2843
   12MPD2    C1  180   1.583   3.584  14.581 -0.7992  0.3515  0.3918
   12MPD2    C2  181   1.590   3.486  14.479  0.3436 -0.1490  0.0857
   12MPD2    C3  182   1.563   3.353  14.499  0.2123 -0.2457  0.7318
   12MPD2    C4  183   1.533   3.319  14.625  0.4691 -0.3635  0.6986
   12MPD2    C5  184   1.523   3.409  14.727  0.6875 -0.5792  0.5770
   12MPD2     H  185   1.623   3.523  14.383 -1.6593 -0.0371 -0.5490
   12MPD2    H1  186   1.489   3.223  14.646  0.3430 -0.9690 -2.3047
   12MPD2    H2  187   1.539   3.613  14.789 -0.3385 -1.4919  1.5299
   12MPD2    H3  188   1.495   3.369  14.823  0.7671  1.8501  1.6049
   12MPD2     N  189   1.557   3.255  14.400  0.5464 -0.2262 -0.3669
   12MPD2    H5  190   1.519   3.165  14.427  0.7867 -0.6946 -1.5574
   12MPD2    N1  191   1.626   3.710  14.544  0.3262 -0.3231 -0.1877
   12MPD2    H7  192   1.653   3.733  14.449 -2.9853  0.8795 -0.8542
   13TCq1    O1  193   1.945   3.998  10.797  0.6282  0.0388  0.6442
   13TCq1    C1  194   1.864   3.886  10.821 -0.2180  0.4678 -0.2173
   13TCq1    O2  195   1.877   3.817  10.920  0.0409  0.1196  0.0246
   13TCq1    C2  196   1.734   3.904  10.754  0.1426 -0.8032 -0.0505
   13TCq1    C3  197   1.724   3.959  10.629 -0.5202  0.5732  0.4015
   13TCq1    C4  198   1.607   3.969  10.560 -0.3457  0.0591 -0.4530
   13TCq1    C5  199   1.498   3.917  10.624  0.2654 -0.4678  0.2637
   13TCq1    C6  200   1.512   3.857  10.747  0.2275  0.2411 -0.2158
   13TCq1    C7  201   1.632   3.859  10.818  0.1524  0.8737  0.2411
   13TCq1    C8  202   1.396   3.833  10.835  0.0930  0.4884  0.8275
   13TCq1    O4  203   1.401   3.850  10.956  0.7550  0.2023  0.4272
   13TCq1    C9  204   1.593   4.059  10.450 -0.1436  0.3615 -0.4933
   13TCq1    O5  205   1.657   4.163  10.446 -0.5665  0.1161 -0.6421
   13TCq1    O6  206   1.486   4.047  10.395 -0.0524  0.3670 -0.1405
   13TCq1    H1  207   1.903   4.067  10.741 -1.6861 -1.5687  0.3787
   13TCq1    H2  208   1.815   3.993  10.581  0.3646  0.9860  2.3525
   13TCq1    H3  209   1.398   3.942  10.589 -0.2474 -0.9439  1.3876
   13TCq1    H4  210   1.645   3.821  10.919  0.0728  0.1103 -0.0328
   14MPD2     C  211   1.071   3.700  10.735  0.6745  0.8410 -0.4730
   14MPD2    C1  212   1.159   3.754  10.822 -0.4273 -0.5858  0.3359
   14MPD2    C2  213   1.126   3.765  10.953  0.6350  0.4802 -0.4065
   14MPD2    C3  214   1.003   3.732  10.990  0.3847  0.0925  0.0412
   14MPD2    C4  215   0.913   3.666  10.908  0.2333 -1.0453 -0.0177
   14MPD2    C5  216   0.951   3.658  10.775  0.0362 -0.0286 -0.1890
   14MPD2     H  217   1.193   3.808  11.027 -0.1641  0.2856  0.4241
   14MPD2    H1  218   0.819   3.622  10.937 -0.3356  0.3285  0.2207
   14MPD2    H2  219   1.087   3.685  10.629  2.0011  0.1007 -0.1736
   14MPD2    H3  220   0.890   3.605  10.703  1.4695  0.2463 -1.5909
   14MPD2     N  221   0.973   3.763  11.122 -0.3723 -0.1087  0.4432
   14MPD2    H5  222   1.042   3.818  11.172  1.0105 -0.9453 -0.5398
   14MPD2    N1  223   1.285   3.780  10.766  0.4083 -0.2633 -0.5315
   14MPD2    H7  224   1.289   3.766  10.665 -0.4767  2.7434 -0.9754
   15TCq1    O1  225   2.936   2.768   0.743 -0.6625  0.1281  0.0405
   15TCq1    C1  226   3.024   2.676   0.703 -0.7449 -0.0506 -0.1742
   15TCq1    O2  227   2.997   2.561   0.674  0.0511  0.6895 -0.6155
   15TCq1    C2  228   3.139   2.718   0.783 -0.5798 -0.0881 -0.2851
   15TCq1    C3  229   3.170   2.853   0.791  1.0588  0.5919  0.8897
   15TCq1    C4  230   3.262   2.889   0.887 -0.3721 -0.4912  0.2205
   15TCq1    C5  231   3.315   2.794   0.968  0.2894  0.6023 -0.0549
   15TCq1    C6  232   3.283   2.663   0.957  0.2935 -0.6726 -0.6818
   15TCq1    C7  233   3.191   2.623   0.864  0.0412 -0.5103  0.6750
   15TCq1    C8  234   3.376   2.577   1.025  0.5695 -0.2421 -0.2039
   15TCq1    O4  235   3.490   2.613   1.031 -0.4166  0.4931 -0.4484
   15TCq1    C9  236   3.299   3.029   0.905 -0.5107  0.1781  0.4815
   15TCq1    O5  237   3.405   3.046   0.974 -0.4709 -0.4541 -0.1527
   15TCq1    O6  238   3.262   3.110   0.820  0.1672 -0.3976 -0.4744
   15TCq1    H1  239   2.979   2.830   0.805  0.3101  1.7941 -2.2648
   15TCq1    H2  240   3.123   2.931   0.732 -1.0156 -1.6000 -0.3797
   15TCq1    H3  241   3.391   2.825   1.039 -0.2518  1.5849  0.0908
   15TCq1    H4  242   3.170   2.519   0.841 -1.1884 -0.1172  0.0208
   16MPD2     C  243   3.318   2.225   1.097 -0.4546 -0.3838  0.1305
   16MPD2    C1  244   3.395   2.338   1.085  0.0308  1.0309  0.7840
   16MPD2    C2  245   3.533   2.335   1.092 -0.6679 -0.2736  0.0247
   16MPD2    C3  246   3.591   2.208   1.107 -0.2912 -0.4754 -0.0727
   16MPD2    C4  247   3.519   2.090   1.126 -0.0044  0.1343 -0.8393
   16MPD2    C5  248   3.379   2.101   1.125  0.6099 -0.1355 -0.1195
   16MPD2     H  249   3.595   2.422   1.077 -0.8632  0.3284  2.7317
   16MPD2    H1  250   3.570   1.997   1.146  1.3997  1.2392  0.8150
   16MPD2    H2  251   3.211   2.228   1.081 -0.5656 -2.7033  0.4353
   16MPD2    H3  252   3.328   2.006   1.131 -0.2370  0.3951  1.0353
   16MPD2     N  253   3.736   2.200   1.120 -0.2826  0.0579 -0.3325
   16MPD2    H5  254   3.779   2.290   1.139 -3.0048  1.0104  1.3295
   16MPD2    N1  255   3.318   2.457   1.055  0.2601 -0.5417  0.3798
   16MPD2    H7  256   3.217   2.451   1.047  0.1982  0.8603  0.1787
   17TCq1    O1  257   0.701   3.348  10.023 -0.1854 -0.3947 -0.0089
   17TCq1    C1  258   0.835   3.359  10.008  0.0905  0.7099  0.8414
   17TCq1    O2  259   0.906   3.295   9.931 -0.2321 -0.3832  0.2008
   17TCq1    C2  260   0.895   3.458  10.100  0.8199  0.3632 -0.2538
   17TCq1    C3  261   0.995   3.528  10.055  0.1881  0.3163 -0.0720
   17TCq1    C4  262   1.081   3.589  10.150  0.2401  0.1240 -0.4261
   17TCq1    C5  263   1.069   3.562  10.281 -0.5469  0.2196  0.3267
   17TCq1    C6  264   0.970   3.476  10.326  0.0101 -0.0664  0.1587
   17TCq1    C7  265   0.883   3.422  10.233 -0.8708  0.1554  0.1939
   17TCq1    C8  266   0.993   3.405  10.447 -0.3847 -0.1644  0.2660
   17TCq1    O4  267   0.899   3.384  10.525 -0.2703 -0.2897  0.1428
   17TCq1    C9  268   1.196   3.668  10.112  0.3963  0.3806 -0.0981
   17TCq1    O5  269   1.219   3.688   9.991  0.6701 -0.1315 -0.6692
   17TCq1    O6  270   1.259   3.732  10.197  0.0047  0.1838 -0.2099
   17TCq1    H1  271   0.669   3.427  10.073 -0.8387 -0.8451  0.2917
   17TCq1    H2  272   1.012   3.534   9.948  0.6635  1.2799  0.0549
   17TCq1    H3  273   1.134   3.611  10.353  2.9976 -0.8020 -2.1866
   17TCq1    H4  274   0.808   3.351  10.265 -2.4656  1.0056 -1.6442
   18MPD2     C  275   1.120   3.253  10.670  0.4707  0.5325  0.2390
   18MPD2    C1  276   1.183   3.314  10.568 -0.1212  0.2892  0.2718
   18MPD2    C2  277   1.322   3.313  10.568 -0.0132 -0.3676 -0.1573
   18MPD2    C3  278   1.396   3.246  10.665  0.1849  0.1007  0.1243
   18MPD2    C4  279   1.325   3.182  10.766 -0.6163  0.7735  0.1303
   18MPD2    C5  280   1.192   3.188  10.765 -0.1884 -0.4117  0.3066
   18MPD2     H  281   1.367   3.369  10.488  1.2725 -0.7694  0.2854
   18MPD2    H1  282   1.376   3.124  10.842  1.5806  0.8315 -1.2759
   18MPD2    H2  283   1.014   3.252  10.692  0.0737 -2.6978 -1.8267
   18MPD2    H3  284   1.143   3.127  10.840 -1.6045  1.9930  1.3193
   18MPD2     N  285   1.537   3.261  10.660 -0.0529 -0.3439  0.0288
   18MPD2    H5  286   1.565   3.330  10.591 -0.5232 -0.4858 -0.3030
   18MPD2    N1  287   1.123   3.380  10.459 -0.1379  0.2945  0.1214
   18MPD2    H7  288   1.180   3.398  10.377  1.1400  0.5408  1.0647
   19TMC2    C1  289   3.016   3.879  13.931  0.4143 -0.3856  0.2615
   19TMC2    C2  290   2.947   3.978  13.868 -0.3043  0.0137  0.2135
   19TMC2    C3  291   2.818   3.949  13.836 -0.1055 -0.2173 -0.3992
   19TMC2    C4  292   2.957   3.770  13.987  0.0714 -0.7055 -0.5758
   19TMC2    C5  293   2.825   3.753  13.965  0.2364 -0.0197 -0.5031
   19TMC2    C6  294   2.753   3.831  13.877  0.4093 -0.3426  0.4157
   19TMC2     C  295   3.145   3.924  13.978  0.2417 -0.1634  0.3416
   19TMC2     O  296   3.196   4.023  13.927 -0.0199 -0.7486 -0.0018
   19TMC2     H  297   3.000   4.060  13.819  1.9317 -1.4074  0.2488
   19TMC2    H1  298   3.018   3.691  14.031  0.7712 -1.1065 -2.2560
   19TMC2    H2  299   2.646   3.826  13.859  0.7788 -0.4459 -1.8075
   19TMC2    C7  300   2.772   3.627  14.014  0.3588 -0.8086  0.4348
   19TMC2    C8  301   2.763   4.006  13.719 -0.1998 -0.0284  0.2334
   19TMC2    O1  302   2.829   3.560  14.094 -0.2818 -0.2608 -0.0204
   19TMC2    O2  303   2.673   3.949  13.657 -0.1139 -0.1020 -0.4501
   19TMC2    O5  304   2.778   4.141  13.721 -0.1201 -0.8867  0.5303
   19TMC2    H5  305   2.836   4.170  13.795  1.9981 -0.0337 -1.4655
   20MPD2     C  306   3.421   3.909  14.095  0.1978 -0.4441 -0.0049
   20MPD2    C1  307   3.308   3.855  14.157 -0.1855  0.0815 -0.0745
   20MPD2    C2  308   3.326   3.777  14.263  0.4244  0.1057 -0.3438
   20MPD2    C3  309   3.436   3.777  14.345  0.5812  0.5534 -0.0149
   20MPD2    C4  310   3.549   3.833  14.289 -0.4878 -0.1900  0.5220
   20MPD2    C5  311   3.536   3.898  14.164 -0.0203 -0.2465 -0.7503
   20MPD2     H  312   3.239   3.717  14.287  1.8736 -2.2807 -1.1018
   20MPD2    H1  313   3.646   3.817  14.335 -1.0311 -0.4016  1.5857
   20MPD2    H2  314   3.418   3.954  13.997 -4.0534  0.9542  0.7593
   20MPD2    H3  315   3.629   3.932  14.119  0.9597 -1.1001  0.6314
   20MPD2     N  316   3.440   3.709  14.470  0.3387  0.4576  0.1319
   20MPD2    H5  317   3.523   3.717  14.528 -0.9061  0.8224  1.8617
   20MPD2    N1  318   3.185   3.850  14.090  0.1863 -0.2578 -0.3687
   20MPD2    H7  319   3.110   3.814  14.148 -0.4185 -2.5654 -2.5887
   21MPD2     C  320   0.518   3.904  14.681 -0.0997  0.3870  0.7181
   21MPD2    C1  321   0.587   3.818  14.765  0.8806 -0.2392 -1.1048
   21MPD2    C2  322   0.531   3.781  14.888 -0.1517  0.0442 -0.1712
   21MPD2    C3  323   0.405   3.832  14.920 -0.0148 -0.1274 -0.4775
   21MPD2    C4  324   0.338   3.919  14.837  0.0294  0.3122  0.3332
   21MPD2    C5  325   0.396   3.954  14.716 -0.0793  0.6529  0.1021
   21MPD2     H  326   0.572   3.692  14.936  0.3496  0.7130  0.6482
   21MPD2    H1  327   0.248   3.965  14.875  0.3099  1.6136 -0.5948
   21MPD2    H2  328   0.556   3.941  14.587 -1.2142 -1.4578 -0.4527
   21MPD2    H3  329   0.343   4.019  14.647 -0.0969  0.6506  0.1134
   21MPD2     N  330   0.346   3.794  15.041 -0.5809 -0.3978  0.4815
   21MPD2    H5  331   0.251   3.827  15.056 -0.9777 -1.8381  1.1367
   21MPD2    N1  332   0.704   3.744  14.719 -0.1222 -0.4979 -0.6913
   21MPD2    H7  333   0.734   3.664  14.774 -2.9518  0.2687  1.9888
   22TCq2    C1  334   0.396   3.710  15.139 -0.6117 -0.1328 -0.2299
   22TCq2    O2  335   0.506   3.659  15.145  0.1885 -0.1848  0.1855
   22TCq2    C2  336   0.288   3.665  15.227 -0.3520 -0.0935 -0.0873
   22TCq2    C3  337   0.280   3.534  15.254  0.1136 -0.1458  0.5894
   22TCq2    C4  338   0.169   3.478  15.299 -0.1533  0.2634 -0.7133
   22TCq2    C5  339   0.060   3.556  15.322  0.4802 -0.1372  0.1872
   22TCq2    C6  340   0.061   3.684  15.285 -0.0942 -0.0550  0.1289
   22TCq2    C7  341   0.177   3.747  15.239  0.5662 -0.1188 -0.3233
   22TCq2    C8  342   4.677   3.765  15.333 -0.0294  0.2266  0.3854
   22TCq2    O4  343   4.628   3.744  15.445  0.4390  0.2306 -0.1850
   22TCq2    C9  344   0.156   3.334  15.309  0.4090 -0.8584 -0.5381
   22TCq2    O5  345   0.242   3.262  15.252 -0.0703 -1.5061 -0.5140
   22TCq2    O6  346   0.045   3.291  15.357 -0.6724 -0.0282 -0.0255
   22TCq2    H2  347   0.370   3.477  15.233  0.2976  1.1786 -2.2548
   22TCq2    H3  348   4.689   3.512  15.360  0.7135  0.1658  1.1120
   22TCq2    H4  349   0.187   3.855  15.241  2.1866 -0.2719 -0.0944
   23MPD2     C  350   1.543   4.514  14.971 -0.3312 -0.0021  0.2787
   23MPD2    C1  351   1.656   4.582  14.999 -0.3563  0.0348  0.5448
   23MPD2    C2  352   1.681   4.693  14.924 -0.4720 -0.4968 -0.8459
   23MPD2    C3  353   1.591   0.024  14.825 -0.2134  0.4249  0.7511
   23MPD2    C4  354   1.474   4.674  14.800  0.6953 -0.2301  0.0560
   23MPD2    C5  355   1.456   4.554  14.868 -0.1859  0.6137  0.2545
   23MPD2     H  356   1.766   0.033  14.953 -1.0786  0.1923 -0.5186
   23MPD2    H1  357   1.403   4.711  14.727  0.9554 -1.2875 -0.7421
   23MPD2    H2  358   1.521   4.435  15.040  0.2736 -1.5693 -1.3099
   23MPD2    H3  359   1.369   4.492  14.853  0.0119  0.8717 -2.0287
   23MPD2     N  360   1.612   0.150  14.764 -0.0778  0.2156  0.0809
   23MPD2    H5  361   1.534   0.208  14.733 -0.1447 -0.6339 -1.3568
   23MPD2    N1  362   1.749   4.541  15.100 -0.0291 -0.6703 -0.1249
   23MPD2    H7  363   1.828   4.604  15.105 -0.8529  0.2275  1.6158
   24TCq2    C1  364   1.741   0.204  14.753 -0.2903  0.6610 -0.1628
   24TCq2    O2  365   1.850   0.148  14.778 -0.8572 -0.1790  0.0590
   24TCq2    C2  366   1.744   0.341  14.701  0.0147 -0.2514 -0.0752
   24TCq2    C3  367   1.859   0.415  14.720 -0.8439  0.4991 -0.4016
   24TCq2    C4  368   1.842   0.546  14.701  0.3224  0.4634  0.1582
   24TCq2    C5  369   1.723   0.601  14.660  0.1788 -0.0774  0.4674
   24TCq2    C6  370   1.615   0.524  14.635 -0.4317  1.0028  0.3637
   24TCq2    C7  371   1.621   0.390  14.660  0.0877 -0.0172 -0.0637
   24TCq2    C8  372   1.493   0.588  14.600 -0.4038 -0.1542  0.1874
   24TCq2    O4  373   1.486   0.690  14.535  0.3998  0.3332 -0.1035
   24TCq2    C9  374   1.950   0.640  14.745 -0.2487  0.0628 -0.8197
   24TCq2    O5  375   1.925   0.764  14.745  0.4483  0.0287  0.5819
   24TCq2    O6  376   2.066   0.597  14.773 -0.1090 -0.6050 -0.6471
   24TCq2    H2  377   1.949   0.375  14.766 -0.4913  0.5646 -1.0285
   24TCq2    H3  378   1.713   0.707  14.639 -1.7679 -1.0315 -3.3412
   24TCq2    H4  379   1.539   0.325  14.633 -1.0110  1.0070  0.8117
   25TMC2    C1  380   0.693   3.103  11.671 -0.9695 -0.6759  0.3400
   25TMC2    C2  381   0.792   3.188  11.705 -0.3548  0.2327 -0.8597
   25TMC2    C3  382   0.799   3.217  11.839  0.1157 -0.7561  0.4527
   25TMC2    C4  383   0.591   3.066  11.753 -0.1757  0.2285 -0.3576
   25TMC2    C5  384   0.594   3.115  11.883 -0.5884  0.6087 -0.1248
   25TMC2    C6  385   0.698   3.192  11.925  0.7243  0.9608 -0.5368
   25TMC2     C  386   0.679   3.083  11.527 -0.7305 -0.1713  0.0555
   25TMC2     O  387   0.783   3.110  11.460 -0.4778  0.0366 -0.3228
   25TMC2     H  388   0.871   3.223  11.640 -0.7698  1.6923 -0.5763
   25TMC2    H1  389   0.512   2.999  11.721 -1.3739  0.8092  1.3241
   25TMC2    H2  390   0.704   3.231  12.026 -2.0070  1.4553 -0.5818
   25TMC2    C7  391   0.497   3.074  11.982  1.1778 -1.0215  0.5048
   25TMC2    C8  392   0.871   3.344  11.859  0.7774  0.3128 -0.0012
   25TMC2    O1  393   0.549   3.052  12.092  0.2873  0.5185 -0.0704
   25TMC2    O2  394   0.980   3.360  11.804 -0.4208 -0.0277 -0.9676
   25TMC2    O5  395   0.765   3.428  11.835  0.2606 -0.1279 -0.5840
   25TMC2    H5  396   0.681   3.382  11.817  0.2314 -1.2089  2.3131
   26MPD2     C  397   0.538   2.855  11.088 -0.4376  0.8328 -0.6173
   26MPD2    C1  398   0.459   2.808  11.185  0.2130 -0.5141 -0.4150
   26MPD2    C2  399   0.475   2.850  11.320  0.3924 -0.2061  0.1384
   26MPD2    C3  400   0.567   2.949  11.352  0.3643  0.2519  0.6529
   26MPD2    C4  401   0.635   3.000  11.245  0.5265  0.2245  0.2020
   26MPD2    C5  402   0.626   2.955  11.118 -0.3050 -0.0960  0.0365
   26MPD2     H  403   0.419   2.809  11.403  0.9015 -2.5822 -0.6979
   26MPD2    H1  404   0.701   3.085  11.254  2.2449 -1.2117  1.3919
   26MPD2    H2  405   0.527   2.820  10.986  1.1743  1.0958 -0.8735
   26MPD2    H3  406   0.691   2.994  11.040 -0.5386 -0.4802 -0.3532
   26MPD2     N  407   0.576   3.007  11.484 -0.5843 -0.1809 -0.3164
   26MPD2    H5  408   0.500   2.988  11.549  0.3609 -1.2291  0.4804
   26MPD2    N1  409   0.377   2.700  11.148  0.1191 -0.3265  0.3694
   26MPD2    H7  410   0.387   2.673  11.051 -1.3890 -0.5426  0.2703
   27TMC2    C1  411   0.014   4.204  12.278  0.5959  0.0754 -0.0220
   27TMC2    C2  412   0.054   4.146  12.161 -0.2623  0.1988  0.2119
   27TMC2    C3  413   0.042   4.219  12.040  0.0544  0.3591  0.2483
   27TMC2    C4  414   4.707   4.334  12.293 -0.2614 -0.3913 -0.0476
   27TMC2    C5  415   4.707   4.403  12.179  0.1403 -0.6005  0.8134
   27TMC2    C6  416   0.002   4.355  12.051 -0.7277 -0.0305 -0.5848
   27TMC2     C  417   4.650   4.121  12.360 -0.0483 -0.1269 -0.0634
   27TMC2     O  418   4.668   4.001  12.358  0.3743 -0.0489  0.0938
   27TMC2     H  419   0.082   4.041  12.169  0.5424  0.3414 -0.7206
   27TMC2    H1  420   4.698   4.374  12.393 -0.7385  2.3304 -1.1795
   27TMC2    H2  421   4.701   4.409  11.960 -1.3111 -0.2834 -0.5961
   27TMC2    C7  422   4.623   4.515  12.199  0.2132  0.0465  0.2869
   27TMC2    C8  423   0.114   4.171  11.922  0.2250 -0.3089  0.0312
   27TMC2    O1  424   4.574   4.517  12.311  0.1333  0.9000 -0.7221
   27TMC2    O2  425   0.232   4.138  11.914 -0.2096  0.1901  0.4204
   27TMC2    O5  426   0.044   4.227  11.821 -0.2214 -0.1682  0.0481
   27TMC2    H5  427   4.672   4.245  11.847 -1.0886 -1.5827 -2.1441
   28MPD2     C  428   4.236   4.074  12.676 -0.0009 -0.1131 -0.1029
   28MPD2    C1  429   4.237   4.200  12.630  0.8841 -0.0355 -0.6243
   28MPD2    C2  430   4.343   4.242  12.547 -0.1026 -0.2395  0.4470
   28MPD2    C3  431   4.449   4.155  12.506 -0.1877 -0.4254 -0.6812
   28MPD2    C4  432   4.437   4.021  12.544  0.6198  0.7780  0.4737
   28MPD2    C5  433   4.330   3.985  12.625 -0.4671 -0.6928  0.0270
   28MPD2     H  434   4.354   4.347  12.522 -0.3619 -0.6701 -1.4482
   28MPD2    H1  435   4.504   3.944  12.506 -0.0596  1.0779 -1.3290
   28MPD2    H2  436   4.159   4.043  12.745 -0.6710  1.0675 -0.3178
   28MPD2    H3  437   4.312   3.885  12.662  0.5848 -0.8918 -0.0219
   28MPD2     N  438   4.553   4.198  12.414  0.6661  0.2137 -0.0653
   28MPD2    H5  439   4.543   4.292  12.377 -0.2104 -0.0259 -0.4512
   28MPD2    N1  440   4.133   4.277  12.680  0.1970 -0.3030  0.5375
   28MPD2    H7  441   4.076   4.238  12.754 -1.1099 -1.9251 -1.3280
   29MPD2     C  442   3.818   2.022  14.220 -0.3670 -0.4631  0.4815
   29MPD2    C1  443   3.950   1.980  14.239 -0.0116 -0.2869 -0.2613
   29MPD2    C2  444   4.050   2.060  14.289 -1.2907  0.2094  0.4759
   29MPD2    C3  445   4.021   2.191  14.304  0.1242 -0.5734 -0.1878
   29MPD2    C4  446   3.897   2.241  14.272 -0.7562  0.0008  0.0253
   29MPD2    C5  447   3.792   2.153  14.245  0.0641  0.0779  0.4174
   29MPD2     H  448   4.146   2.015  14.314 -1.4431 -0.7196 -0.6270
   29MPD2    H1  449   3.883   2.346  14.297 -0.3286  0.5274 -1.9610
   29MPD2    H2  450   3.734   1.956  14.203 -0.6904  0.0314  0.1441
   29MPD2    H3  451   3.691   2.191  14.233  1.0095  2.5436  0.3384
   29MPD2     N  452   4.122   2.277  14.361  0.0963 -0.0796 -0.5082
   29MPD2    H5  453   4.083   2.366  14.389 -0.3656 -0.3733 -0.2192
   29MPD2    N1  454   3.994   1.845  14.232 -0.2786  0.9514 -0.5205
   29MPD2    H7  455   4.093   1.825  14.240 -0.3251  0.4800 -1.0440
   30TCq2    C1  456   4.255   2.248  14.382 -0.0518 -0.6733  1.1067
   30TCq2    O2  457   4.308   2.141  14.366 -0.0242  0.5213 -0.4838
   30TCq2    C2  458   4.333   2.355  14.438  0.0059 -0.2240 -0.2471
   30TCq2    C3  459   4.435   2.313  14.525 -0.2642 -0.0621  0.4383
   30TCq2    C4  460   4.476   2.407  14.617 -0.1830 -0.3565  1.2348
   30TCq2    C5  461   4.415   2.533  14.626 -0.9756 -0.3938 -0.0053
   30TCq2    C6  462   4.318   2.564  14.541  0.3589  0.0985  0.0652
   30TCq2    C7  463   4.275   2.476  14.447 -0.2683 -0.1170  0.1441
   30TCq2    C8  464   4.266   2.698  14.535  0.9477 -0.0212 -0.1559
   30TCq2    O4  465   4.178   2.720  14.449 -0.0013  0.5642 -0.2383
   30TCq2    C9  466   4.581   2.367  14.703  0.3204 -0.5157  0.0090
   30TCq2    O5  467   4.650   2.467  14.745  0.6616  0.1028 -0.0329
   30TCq2    O6  468   4.608   2.243  14.714 -0.4971  0.1741  0.4291
   30TCq2    H2  469   4.478   2.214  14.521 -1.8219 -0.7169 -0.0037
   30TCq2    H3  470   4.451   2.601  14.702  1.1090  0.9881 -2.2486
   30TCq2    H4  471   4.203   2.514  14.375  1.1618  0.7690 -0.8306
   31MPD2     C  472   1.894   0.751  15.075  0.1920 -0.4791  0.4204
   31MPD2    C1  473   1.761   0.768  15.045 -0.4787  0.0161  0.2598
   31MPD2    C2  474   1.667   0.732  15.138  0.2553  0.1538  0.0309
   31MPD2    C3  475   1.706   0.657  15.252 -0.2172 -1.0295 -0.4705
   31MPD2    C4  476   1.836   0.631  15.276  0.0934  0.7129  0.1087
   31MPD2    C5  477   1.929   0.681  15.189 -0.2640 -0.0830  0.1492
   31MPD2     H  478   1.561   0.748  15.123 -0.5191 -1.4251  3.8190
   31MPD2    H1  479   1.878   0.578  15.360  2.2504  0.3954 -1.1710
   31MPD2    H2  480   1.958   0.796  15.000  0.3005 -0.1229  0.7271
   31MPD2    H3  481   2.034   0.658  15.203  0.5235  2.8836 -0.8369
   31MPD2     N  482   1.612   0.602  15.344  0.0810  0.3584 -0.7562
   31MPD2    H5  483   1.654   0.571  15.431  2.1288  3.4992 -0.5933
   31MPD2    N1  484   1.730   0.828  14.917  0.0652 -0.1181  0.2273
   31MPD2    H7  485   1.807   0.842  14.853  2.1338  1.0372  2.9754
   32TCq2    C1  486   1.476   0.609  15.335 -0.4008  0.3809  0.1327
   32TCq2    O2  487   1.414   0.649  15.240 -0.1364 -0.2897 -0.3684
   32TCq2    C2  488   1.398   0.579  15.454  0.2000 -0.2167 -0.1540
   32TCq2    C3  489   1.261   0.607  15.456  0.2535  0.5940 -0.1221
   32TCq2    C4  490   1.196   0.579  15.572  0.2272 -0.6061 -0.2958
   32TCq2    C5  491   1.252   0.525  15.684  0.3265 -0.1996 -0.4415
   32TCq2    C6  492   1.386   0.490  15.675 -0.2796 -0.4399 -0.2907
   32TCq2    C7  493   1.458   0.517  15.561 -1.0641  0.5591  0.0775
   32TCq2    C8  494   1.473   0.470  15.790  0.7358  0.3171  0.0876
   32TCq2    O4  495   1.554   0.378  15.783  0.0076  0.4469  0.3600
   32TCq2    C9  496   1.057   0.617  15.597 -0.9355 -0.2683  0.1539
   32TCq2    O5  497   0.997   0.665  15.500 -0.5525  0.1727  0.4718
   32TCq2    O6  498   1.012   0.621  15.710  0.0207  0.2763 -0.3301
   32TCq2    H2  499   1.201   0.650  15.377 -2.3617 -0.1112  1.4519
   32TCq2    H3  500   1.201   0.524  15.779 -0.6137  1.9890 -0.9343
   32TCq2    H4  501   1.561   0.486  15.567 -1.2100 -0.5151 -2.8329
   33MPD2     C  502   2.226   3.744  10.650  0.7353 -0.6003 -0.1593
   33MPD2    C1  503   2.099   3.714  10.604  0.5530  0.2339 -0.3814
   33MPD2    C2  504   2.040   3.801  10.513 -0.1192 -0.3175  0.5085
   33MPD2    C3  505   2.098   3.923  10.481  0.7167  0.4190  0.2455
   33MPD2    C4  506   2.217   3.953  10.538  0.0367  0.0752  0.3825
   33MPD2    C5  507   2.282   3.865  10.621 -0.0715  0.4099 -0.0148
   33MPD2     H  508   1.938   3.785  10.482 -0.8363  2.6723  1.2815
   33MPD2    H1  509   2.268   4.045  10.509  0.8741 -0.8482 -1.0761
   33MPD2    H2  510   2.285   3.665  10.695 -1.5811 -1.4813  1.3347
   33MPD2    H3  511   2.385   3.883  10.647  0.0077 -0.7456  0.4706
   33MPD2     N  512   2.059   4.011  10.382  0.0747 -0.4751  0.2171
   33MPD2    H5  513   2.125   4.086  10.362 -0.3200 -0.4760 -1.0810
   33MPD2    N1  514   2.030   3.600  10.652 -0.6897  0.2626  0.6601
   33MPD2    H7  515   2.095   3.535  10.695 -1.6868 -0.0972  1.6202
   34TCq2    C1  516   1.938   3.995  10.314  0.7434 -0.3408  0.2321
   34TCq2    O2  517   1.864   3.895  10.310  0.7342  0.3802  0.1558
   34TCq2    C2  518   1.923   4.094  10.214 -0.0274  0.4544  0.4817
   34TCq2    C3  519   1.846   4.058  10.103  0.2564  0.4790  0.7364
   34TCq2    C4  520   1.843   4.152  10.000 -1.1075 -0.4372  0.4102
   34TCq2    C5  521   1.892   4.271  10.014  0.7721 -0.3144 -0.2665
   34TCq2    C6  522   1.973   4.301  10.122  0.9299 -0.0335 -0.3092
   34TCq2    C7  523   1.991   4.210  10.218 -0.1804 -0.3291  0.1301
   34TCq2    C8  524   1.985   4.444  10.155  0.7287 -0.3891  0.0116
   34TCq2    O4  525   2.087   4.478  10.214  0.0117  0.4187  0.3109
   34TCq2    C9  526   1.779   4.124   9.879 -0.5186 -0.1488  0.1585
   34TCq2    O5  527   1.693   4.033   9.882 -0.5386  0.0616  0.1164
   34TCq2    O6  528   1.807   4.190   9.781  0.1963 -0.3604  0.3708
   34TCq2    H2  529   1.806   3.958  10.103 -1.6056  1.2418 -0.1142
   34TCq2    H3  530   1.872   4.341   9.934  2.3075  2.0145  1.3778
   34TCq2    H4  531   2.034   4.248  10.310  0.2742 -1.0243  0.2035
   35MPD2     C  532   2.804   0.169  12.523  1.4859  0.3136 -0.0044
   35MPD2    C1  533   2.804   0.050  12.457  0.3294 -0.1951 -0.7964
   35MPD2    C2  534   2.701   0.018  12.373  0.1304  0.3683  0.4543
   35MPD2    C3  535   2.593   0.103  12.354 -0.2273  0.6404 -0.6851
   35MPD2    C4  536   2.580   0.209  12.441  0.3537  0.4716  0.5355
   35MPD2    C5  537   2.689   0.238  12.522  0.0987  0.2323  0.0778
   35MPD2     H  538   2.703   4.651  12.309  0.8265 -0.9849  2.3392
   35MPD2    H1  539   2.493   0.273  12.440 -1.6275 -2.3122 -1.3982
   35MPD2    H2  540   2.878   0.189  12.600  2.2342  0.0130 -0.6477
   35MPD2    H3  541   2.690   0.320  12.592  1.0846 -0.1057  0.4586
   35MPD2     N  542   2.493   0.070  12.256  0.0091 -0.0327 -0.2399
   35MPD2    H5  543   2.512   4.706  12.205 -0.1908 -0.7897  0.9276
   35MPD2    N1  544   2.922   4.698  12.473 -0.1066 -0.4160 -0.3558
   35MPD2    H7  545   2.983   0.032  12.533 -0.0578 -1.6405  0.7367
   36TCq2    C1  546   2.409   0.164  12.196 -0.3284 -0.0019  0.0992
   36TCq2    O2  547   2.366   0.268  12.244 -0.4728  0.3900 -0.0884
   36TCq2    C2  548   2.364   0.126  12.062  0.6981  0.1135 -0.2209
   36TCq2    C3  549   2.268   0.208  12.004 -0.0703 -0.1179  0.4448
   36TCq2    C4  550   2.210   0.161  11.894 -0.0311 -0.0709 -0.7557
   36TCq2    C5  551   2.245   0.046  11.829 -0.1207 -0.5960 -0.2016
   36TCq2    C6  552   2.350   4.703  11.885  0.4283 -0.1077  0.2245
   36TCq2    C7  553   2.413   0.020  11.999  0.3177 -0.1883 -0.3097
   36TCq2    C8  554   2.390   4.568  11.841  0.1277  0.2364  0.0175
   36TCq2    O4  555   2.451   4.504  11.926  0.2624  0.3693 -0.5188
   36TCq2    C9  556   2.088   0.227  11.843  0.2061  0.1757  0.9111
   36TCq2    O5  557   2.033   0.312  11.910 -0.1952  0.3725 -0.4011
   36TCq2    O6  558   2.035   0.187  11.738 -0.1349  0.3189  0.1312
   36TCq2    H2  559   2.230   0.295  12.056 -0.2895  0.3270 -0.4485
   36TCq2    H3  560   2.179   0.001  11.755 -0.8710  1.6316 -0.8984
   36TCq2    H4  561   2.491   4.680  12.043  1.0890  0.6581 -0.4905
   37TMC2    C1  562   1.163   4.438  11.720  0.1517 -0.2688  0.6010
   37TMC2    C2  563   1.162   4.359  11.604  0.4266 -0.2578 -0.2885
   37TMC2    C3  564   1.288   4.334  11.543 -0.1657  0.2929 -0.4049
   37TMC2    C4  565   1.278   4.485  11.773  0.1586  0.0450 -0.0842
   37TMC2    C5  566   1.398   4.463  11.704 -0.4675 -0.0757  0.7340
   37TMC2    C6  567   1.402   4.403  11.581  0.0362 -0.3490  0.1145
   37TMC2     C  568   1.034   4.465  11.786 -0.8017 -0.4989  0.3239
   37TMC2     O  569   0.933   4.450  11.718  0.2177 -0.2589  0.4196
   37TMC2     H  570   1.065   4.328  11.568 -0.3113  1.1897  0.4679
   37TMC2    H1  571   1.281   4.546  11.863  0.7951 -1.3197  0.8105
   37TMC2    H2  572   1.488   4.385  11.518 -0.3174 -1.2801 -0.0942
   37TMC2    C7  573   1.518   4.492  11.775  0.2033 -0.2422  0.1657
   37TMC2    C8  574   1.285   4.298  11.402 -0.3568  0.4333 -0.9673
   37TMC2    O1  575   1.509   4.505  11.895  0.2841 -0.2307  0.8443
   37TMC2    O2  576   1.353   4.366  11.324  0.1295 -0.6141 -0.1289
   37TMC2    O5  577   1.284   4.165  11.411 -0.3144  0.1364 -0.8364
   37TMC2    H5  578   1.249   4.132  11.497 -1.2552 -0.9640 -1.6439
   38MPD2     C  579   0.763   4.667  12.154 -0.1093  0.0588  0.1768
   38MPD2    C1  580   0.883   4.631  12.208  0.5979  0.5099 -0.2008
   38MPD2    C2  581   0.972   4.576  12.119 -0.3608  0.6176  0.3243
   38MPD2    C3  582   0.949   4.553  11.988 -0.1039 -0.0509  0.0498
   38MPD2    C4  583   0.828   4.591  11.937  0.4551  0.0553  0.2682
   38MPD2    C5  584   0.736   4.657  12.020  0.3880 -0.1087 -0.1311
   38MPD2     H  585   1.074   4.556  12.149  0.2403  1.0961 -1.4005
   38MPD2    H1  586   0.793   4.593  11.835 -0.6733 -2.0315  0.6079
   38MPD2    H2  587   0.693   0.003  12.215 -1.3817  0.4047 -1.6030
   38MPD2    H3  588   0.644   4.706  11.991  0.7265 -0.1472 -1.2633
   38MPD2     N  589   1.049   4.501  11.914 -0.8832 -0.0334 -0.4338
   38MPD2    H5  590   1.139   4.487  11.961 -1.4411  1.8083  1.1962
   38MPD2    N1  591   0.911   4.644  12.349 -0.5795  0.2585  0.0937
   38MPD2    H7  592   1.003   4.612  12.376  0.1291  1.8482 -0.4639
   39MPD2     C  593   4.224   1.911   1.452 -0.2369  0.3244  0.0924
   39MPD2    C1  594   4.130   2.004   1.499  0.0102  0.9517  0.2293
   39MPD2    C2  595   3.994   1.969   1.490 -0.3863 -0.1219  0.0715
   39MPD2    C3  596   3.962   1.847   1.433  1.1759 -0.1261  0.6135
   39MPD2    C4  597   4.059   1.757   1.389  0.0401 -0.4008 -0.1112
   39MPD2    C5  598   4.194   1.787   1.405 -0.0580 -0.0080  0.5093
   39MPD2     H  599   3.910   2.016   1.540  0.3949 -0.2677  1.5146
   39MPD2    H1  600   4.034   1.667   1.333 -1.7354 -0.0964  0.1939
   39MPD2    H2  601   4.330   1.932   1.460 -0.4872  0.9080  1.9421
   39MPD2    H3  602   4.270   1.728   1.356 -2.0697 -1.5108 -0.8322
   39MPD2     N  603   3.836   1.802   1.397 -0.4842  0.6780 -0.3355
   39MPD2    H5  604   3.826   1.708   1.360  1.2335  0.3894 -0.0561
   39MPD2    N1  605   4.173   2.128   1.557  0.1216  0.4698  0.0541
   39MPD2    H7  606   4.272   2.149   1.548  0.0558  2.2692  3.9297
   40TCq2    C1  607   4.090   2.225   1.608 -0.0432 -0.5523  0.5174
   40TCq2    O2  608   3.973   2.218   1.626 -0.2691 -0.4738  0.3800
   40TCq2    C2  609   4.148   2.349   1.630  0.2226  0.3745 -0.7087
   40TCq2    C3  610   4.074   2.457   1.584 -0.5698  0.0196  0.5897
   40TCq2    C4  611   4.124   2.578   1.556 -0.5311 -0.0170  0.9642
   40TCq2    C5  612   4.255   2.600   1.561 -1.1142 -0.1256 -0.5408
   40TCq2    C6  613   4.333   2.490   1.613 -0.4686  1.0459  0.4827
   40TCq2    C7  614   4.282   2.362   1.644  0.1424  0.4990 -0.5289
   40TCq2    C8  615   4.481   2.496   1.631 -0.1546 -0.7382 -0.0758
   40TCq2    O4  616   4.532   2.394   1.679  0.2805 -0.5834 -0.3756
   40TCq2    C9  617   4.030   2.687   1.525 -0.1806 -0.7097  0.4334
   40TCq2    O5  618   3.913   2.654   1.502 -0.2842 -0.1389 -0.6738
   40TCq2    O6  619   4.070   2.806   1.552  0.4424 -0.1567 -0.3408
   40TCq2    H2  620   3.967   2.444   1.572 -0.3393 -2.2758  0.9054
   40TCq2    H3  621   4.288   2.701   1.541  0.0541 -1.0655 -3.3695
   40TCq2    H4  622   4.340   2.280   1.685  1.8411  0.8975 -2.1120
   41TMC2    C1  623   2.275   0.141  13.728  0.3964  0.3732 -0.2640
   41TMC2    C2  624   2.402   0.163  13.760 -0.4568  0.2996  0.0962
   41TMC2    C3  625   2.474   0.251  13.691 -0.5051  0.1843  0.9974
   41TMC2    C4  626   2.215   0.203  13.624 -0.2400  0.0963 -0.7953
   41TMC2    C5  627   2.290   0.287  13.552 -0.2525 -0.6673 -0.3806
   41TMC2    C6  628   2.423   0.305  13.575  0.1090 -0.6053  0.0684
   41TMC2     C  629   2.202   0.065  13.822 -0.0043 -0.3259  0.7083
   41TMC2     O  630   2.082   0.082  13.807 -0.0694  0.4327  0.4128
   41TMC2     H  631   2.446   0.133  13.854  2.0727 -2.2306 -1.9110
   41TMC2    H1  632   2.112   0.175  13.604 -0.9533  2.0797  0.1121
   41TMC2    H2  633   2.482   0.382  13.528  2.1012 -1.0222  1.8913
   41TMC2    C7  634   2.222   0.356  13.447 -0.4400 -0.6260 -0.4809
   41TMC2    C8  635   2.602   0.301  13.739 -0.0608 -0.5020 -0.5879
   41TMC2    O1  636   2.104   0.333  13.441 -0.0703  0.1172  0.3548
   41TMC2    O2  637   2.638   0.414  13.706  0.0495  0.4445  0.5733
   41TMC2    O5  638   2.660   0.219  13.834  0.0867 -0.6479  0.4194
   41TMC2    H5  639   2.611   0.136  13.852 -0.6815 -1.2596 -4.3914
   42MPD2     C  640   2.103   4.585  14.029  0.3056  0.1393 -0.4994
   42MPD2    C1  641   2.231   4.621  14.010 -0.3272  0.1384  0.4726
   42MPD2    C2  642   2.324   4.579  14.104  0.0210  0.3052  0.1160
   42MPD2    C3  643   2.292   4.496  14.209  0.3119 -0.5687 -0.0919
   42MPD2    C4  644   2.163   4.445  14.217  0.3312  0.0910  0.0911
   42MPD2    C5  645   2.072   4.490  14.123 -0.0427  0.0330 -0.0649
   42MPD2     H  646   2.423   4.623  14.096 -0.9120  2.4538  0.1843
   42MPD2    H1  647   2.130   4.370  14.287 -0.9527 -0.1124 -0.7316
   42MPD2    H2  648   2.027   4.613  13.957  1.3393 -0.5941 -1.8734
   42MPD2    H3  649   1.974   4.444  14.121 -1.1072  2.2770  0.4096
   42MPD2     N  650   2.386   4.459  14.308  0.1921  0.3633 -0.0729
   42MPD2    H5  651   2.348   4.406  14.386 -0.0851  0.9254  0.1730
   42MPD2    N1  652   2.277   4.703  13.907 -0.2127  0.3806  0.5938
   42MPD2    H7  653   2.378   4.715  13.906 -0.0828 -0.6142  1.7940
   43MPD2     C  654   0.132   3.813   0.468 -0.8615 -0.1983  0.2330
   43MPD2    C1  655   0.160   3.717   0.567 -0.1864  0.3651 -0.1071
   43MPD2    C2  656   0.131   3.738   0.702 -0.8754  0.8064 -0.4301
   43MPD2    C3  657   0.036   3.836   0.731 -0.1776 -0.6751  0.1235
   43MPD2    C4  658   4.713   3.922   0.637  0.8309 -0.4858  0.1526
   43MPD2    C5  659   0.048   3.918   0.511  0.1226 -0.8478 -0.4393
   43MPD2     H  660   0.174   3.669   0.773 -1.5294  0.0459 -0.7746
   43MPD2    H1  661   4.644   4.002   0.663  1.5862  0.6783 -1.4606
   43MPD2    H2  662   0.177   3.814   0.370 -0.2653  0.3876  0.5042
   43MPD2    H3  663   0.014   3.992   0.439 -1.5434  0.6201  1.8674
   43MPD2     N  664   4.713   3.854   0.858  0.3220 -0.5077 -0.3974
   43MPD2    H5  665   4.630   3.912   0.866  0.9821  0.3507  0.2911
   43MPD2    N1  666   0.235   3.599   0.540 -0.2792 -0.2006 -0.3332
   43MPD2    H7  667   0.246   3.535   0.617 -0.0693  0.0479 -0.1550
   44TCq2    C1  668   4.324   3.904   1.173 -0.1595  0.2955  0.4663
   44TCq2    O2  669   4.270   3.856   1.074  0.1550  0.1011  0.0976
   44TCq2    C2  670   4.468   3.908   1.180 -0.2658  0.2849 -0.0505
   44TCq2    C3  671   4.527   3.900   1.304 -0.1865  0.1245  0.2861
   44TCq2    C4  672   4.649   3.845   1.321  1.0872  0.2957 -0.1406
   44TCq2    C5  673   4.720   3.791   1.213 -0.0974  0.1983 -0.2522
   44TCq2    C6  674   4.663   3.808   1.090  0.7457 -0.0572 -0.6477
   44TCq2    C7  675   4.541   3.859   1.070 -0.4269 -0.0762  0.1608
   44TCq2    C8  676   0.034   3.788   0.972 -0.2713  0.1936 -0.6073
   44TCq2    O4  677   0.137   3.720   0.984 -0.0058 -0.0009  0.5623
   44TCq2    C9  678   4.712   3.858   1.448  0.0864  0.5341  0.4146
   44TCq2    O5  679   4.630   3.841   1.542 -0.2017  0.1046 -0.1527
   44TCq2    O6  680   0.112   3.871   1.461  0.5369 -0.2372  0.0332
   44TCq2    H2  681   4.482   3.945   1.392 -2.1052  1.1208 -1.1853
   44TCq2    H3  682   0.093   3.739   1.225  0.0553  0.6603  0.5515
   44TCq2    H4  683   4.489   3.846   0.975 -1.6096  0.5453  0.7302
   45TMC2    C1  684   0.106   0.562   9.690 -0.1224 -0.6069 -0.3568
   45TMC2    C2  685   0.178   0.528   9.798 -0.1561 -0.2927 -0.3315
   45TMC2    C3  686   0.211   0.629   9.889 -0.4083  0.3924  0.0894
   45TMC2    C4  687   0.067   0.690   9.658 -0.5924 -0.1274 -0.9063
   45TMC2    C5  688   0.098   0.784   9.755  0.2947 -0.0097 -0.0962
   45TMC2    C6  689   0.170   0.759   9.870  0.2077  0.2732 -0.2927
   45TMC2     C  690   0.049   0.449   9.610  0.0578  0.4601  0.6982
   45TMC2     O  691   0.047   0.342   9.672 -0.1782  0.1528  0.2796
   45TMC2     H  692   0.203   0.427   9.827 -0.0765 -0.0858  0.2995
   45TMC2    H1  693   0.018   0.705   9.563 -0.5699 -0.0293 -0.9015
   45TMC2    H2  694   0.187   0.839   9.942 -0.0833 -0.9414  1.1372
   45TMC2    C7  695   0.082   0.925   9.706 -0.1543  0.6479  0.1469
   45TMC2    C8  696   0.252   0.582  10.020 -0.3636  0.0709  0.3150
   45TMC2    O1  697   0.023   0.937   9.601  0.0944  0.6260  0.4248
   45TMC2    O2  698   0.219   0.474  10.062 -0.1482  0.3825  0.1300
   45TMC2    O5  699   0.361   0.652  10.056  0.0784 -0.0831 -0.0192
   45TMC2    H5  700   0.378   0.728   9.997  1.7617 -0.4016  0.0446
   46MPD2     C  701   4.646   0.256   9.433  0.1340  0.3893 -0.0789
   46MPD2    C1  702   4.625   0.394   9.421 -0.3069  0.1356  0.3688
   46MPD2    C2  703   4.532   0.434   9.327  0.4579  0.5935  0.2160
   46MPD2    C3  704   4.448   0.347   9.261 -0.2985 -0.1205 -0.0334
   46MPD2    C4  705   4.471   0.211   9.259  0.2095  0.3664  0.0323
   46MPD2    C5  706   4.572   0.169   9.351 -0.4867  0.3588  0.2958
   46MPD2     H  707   4.511   0.540   9.314 -2.8852  0.1389  1.9611
   46MPD2    H1  708   4.433   0.130   9.198  0.8837 -1.2483  1.7489
   46MPD2    H2  709   0.005   0.212   9.491 -0.1066  0.0028 -0.0441
   46MPD2    H3  710   4.605   0.067   9.364 -0.1594  0.2779 -1.1506
   46MPD2     N  711   4.342   0.407   9.181 -0.7345 -0.2280  0.1683
   46MPD2    H5  712   4.334   0.508   9.176 -1.4962 -0.3751 -1.5132
   46MPD2    N1  713   4.705   0.484   9.495 -0.3137 -0.3668  0.2680
   46MPD2    H7  714   4.698   0.583   9.473  2.3505 -0.4100 -0.7289
   47TMC2    C1  715   1.984   1.977   9.120 -0.7717  0.2754 -0.3653
   47TMC2    C2  716   1.920   2.007   9.003 -0.5169 -0.4344 -0.7916
   47TMC2    C3  717   1.788   1.981   8.988  0.3048 -0.1961  0.0102
   47TMC2    C4  718   1.921   1.932   9.226  0.4624  0.3363 -0.3822
   47TMC2    C5  719   1.783   1.904   9.205 -0.1131 -0.5569 -0.2677
   47TMC2    C6  720   1.719   1.920   9.087 -0.4203  0.3248  0.2897
   47TMC2     C  721   2.129   2.008   9.144 -0.1779 -0.3797  0.5715
   47TMC2     O  722   2.178   2.102   9.090 -0.1055  0.6812 -0.2328
   47TMC2     H  723   1.972   2.065   8.927 -0.8144  0.7515 -0.0975
   47TMC2    H1  724   1.965   1.928   9.325 -0.6505  2.8805  0.2194
   47TMC2    H2  725   1.612   1.903   9.085 -0.3741  0.2560 -1.7416
   47TMC2    C7  726   1.705   1.824   9.309 -0.1000 -0.3970 -0.4726
   47TMC2    C8  727   1.726   2.025   8.864  0.2680 -0.6475  0.3288
   47TMC2    O1  728   1.599   1.784   9.265  0.4441  0.0344  0.0775
   47TMC2    O2  729   1.788   2.056   8.767  0.2517  0.2398 -0.4028
   47TMC2    O5  730   1.619   2.085   8.914 -0.0030 -0.2590 -0.0411
   47TMC2    H5  731   1.617   2.102   9.011 -0.0273  0.5258 -0.1769
   48MPD2     C  732   2.386   2.034   9.287  0.1672  0.2674  0.6794
   48MPD2    C1  733   2.309   1.922   9.287 -0.2671 -0.4036 -1.2894
   48MPD2    C2  734   2.355   1.819   9.365 -0.0779 -0.4006 -0.0116
   48MPD2    C3  735   2.490   1.827   9.413  0.1780  0.2852  0.4791
   48MPD2    C4  736   2.565   1.942   9.412 -0.3029  0.7307 -0.0620
   48MPD2    C5  737   2.514   2.043   9.342 -0.1874  0.4808  0.3604
   48MPD2     H  738   2.299   1.727   9.375  3.1143 -2.4944 -1.3917
   48MPD2    H1  739   2.664   1.948   9.455 -1.1458  1.0913  1.8379
   48MPD2    H2  740   2.362   2.124   9.232 -0.3314  0.3500  1.0300
   48MPD2    H3  741   2.571   2.136   9.339  1.9150 -0.7419  2.6786
   48MPD2     N  742   2.528   1.703   9.470  0.9639  1.0014 -0.3529
   48MPD2    H5  743   2.464   1.625   9.459  2.1889 -0.1564  0.8083
   48MPD2    N1  744   2.185   1.910   9.221  0.3079  0.5227  0.2230
   48MPD2    H7  745   2.145   1.820   9.246  0.2166  0.5897  0.3163
   49MPD2     C  746   1.368   3.135  10.133  0.2714  0.2863  0.2785
   49MPD2    C1  747   1.241   3.168  10.096  0.4135 -0.1933 -0.3694
   49MPD2    C2  748   1.139   3.136  10.188  0.5340 -1.0417  0.4395
   49MPD2    C3  749   1.169   3.082  10.317 -0.1098 -0.1584 -0.4200
   49MPD2    C4  750   1.301   3.047  10.345 -0.2317  0.0918  0.7393
   49MPD2    C5  751   1.399   3.073  10.255  0.2800  0.3495  0.1271
   49MPD2     H  752   1.035   3.148  10.162  0.4183 -2.2841  0.3187
   49MPD2    H1  753   1.325   3.001  10.440  0.5527  4.7231  2.7989
   49MPD2    H2  754   1.456   3.137  10.070 -0.5819  1.0887 -0.8662
   49MPD2    H3  755   1.494   3.031  10.286  0.9587 -0.3849 -2.9818
   49MPD2     N  756   1.074   3.042  10.418 -0.6050  0.3047  0.1548
   49MPD2    H5  757   1.104   3.003  10.507 -0.4631 -2.1465 -0.9531
   49MPD2    N1  758   1.205   3.234   9.981  0.8522  0.8335  0.0096
   49MPD2    H7  759   1.106   3.240   9.959  1.0771 -0.6394 -1.3867
   50TCq2    C1  760   1.291   3.241   9.872  0.0625 -0.6831  0.5965
   50TCq2    O2  761   1.408   3.206   9.851  0.0339  0.3111 -0.4366
   50TCq2    C2  762   1.218   3.247   9.747  0.3181  0.4532 -0.6179
   50TCq2    C3  763   1.285   3.287   9.637 -0.0632  0.3453 -0.4030
   50TCq2    C4  764   1.224   3.284   9.517 -0.7473  0.1584  0.1410
   50TCq2    C5  765   1.104   3.222   9.506 -0.3428 -0.1804  0.5319
   50TCq2    C6  766   1.037   3.182   9.614  0.1868 -0.1833 -0.1228
   50TCq2    C7  767   1.096   3.184   9.735  0.1481  0.0590  0.2794
   50TCq2    C8  768   0.898   3.132   9.589  0.6302  0.6079  0.2745
   50TCq2    O4  769   0.868   3.103   9.475  0.3095 -0.3967  0.1014
   50TCq2    C9  770   1.287   3.340   9.397  0.2861  0.4903  0.1313
   50TCq2    O5  771   1.225   3.348   9.287  0.2719  0.5184 -0.2128
   50TCq2    O6  772   1.404   3.384   9.416  0.7784 -0.5489  0.0746
   50TCq2    H2  773   1.384   3.331   9.642 -0.7754  1.7323  1.2780
   50TCq2    H3  774   1.056   3.216   9.408 -0.9407  3.6080  0.5945
   50TCq2    H4  775   1.047   3.135   9.819 -0.3148  0.3914  0.1996
   51MPD2     C  776   0.621   1.826   0.646 -0.5519  0.1934  0.2222
   51MPD2    C1  777   0.647   1.728   0.742  0.4586  0.5616 -0.2973
   51MPD2    C2  778   0.638   1.767   0.877  0.3075  0.0173 -0.5069
   51MPD2    C3  779   0.597   1.893   0.912  0.5842  1.3673 -0.2216
   51MPD2    C4  780   0.562   1.985   0.813 -0.5430 -0.7065  0.2110
   51MPD2    C5  781   0.573   1.947   0.682 -0.2795  0.5203 -0.7948
   51MPD2     H  782   0.672   1.700   0.955 -0.7142 -0.5326 -0.5369
   51MPD2    H1  783   0.519   2.083   0.832  0.0416 -0.1356 -1.4421
   51MPD2    H2  784   0.606   1.802   0.541 -1.4059 -0.5598  0.5083
   51MPD2    H3  785   0.530   2.007   0.603 -0.7342  0.2002 -0.7980
   51MPD2     N  786   0.593   1.936   1.050  0.8725 -0.3781  0.3524
   51MPD2    H5  787   0.591   2.036   1.069 -2.3541 -0.4547  0.4434
   51MPD2    N1  788   0.686   1.595   0.713  0.0088 -0.3429  0.0340
   51MPD2    H7  789   0.717   1.526   0.781 -0.1396  0.4801  0.9234
   52TCq2    C1  790   0.618   1.862   1.154 -0.7742  0.3177 -1.2924
   52TCq2    O2  791   0.601   1.739   1.158 -0.8597  0.2623  0.4353
   52TCq2    C2  792   0.652   1.949   1.266  0.4341  0.2425 -0.1076
   52TCq2    C3  793   0.666   2.082   1.250  0.1288 -0.0825 -0.8778
   52TCq2    C4  794   0.757   2.152   1.331  0.1449  0.0611 -0.2680
   52TCq2    C5  795   0.812   2.085   1.438  0.1432 -0.6173 -0.5795
   52TCq2    C6  796   0.786   1.955   1.460 -0.4489 -0.9356 -0.2231
   52TCq2    C7  797   0.708   1.882   1.366  0.7614  0.0252 -0.5999
   52TCq2    C8  798   0.861   1.892   1.565  0.1254 -0.1418  0.0508
   52TCq2    O4  799   0.941   1.966   1.622  0.2049  0.2605 -0.1372
   52TCq2    C9  800   0.795   2.285   1.301  0.5996  0.1944 -0.7674
   52TCq2    O5  801   0.875   2.342   1.380  0.1097  0.4008  0.0236
   52TCq2    O6  802   0.779   2.318   1.179 -0.0879  0.0937 -0.0550
   52TCq2    H2  803   0.613   2.136   1.173 -0.0588  0.4372 -0.3892
   52TCq2    H3  804   0.871   2.145   1.507 -0.5069  0.0539 -0.6063
   52TCq2    H4  805   0.703   1.774   1.364 -2.2185  0.1472  1.1217
   53TMC2    C1  806   2.057   4.657  12.229  0.2560 -0.8652 -0.1685
   53TMC2    C2  807   2.163   4.651  12.315  0.4868 -0.7842  0.5501
   53TMC2    C3  808   2.148   4.682  12.441  0.1003  0.6488 -0.2390
   53TMC2    C4  809   1.928   4.691  12.269  0.1459 -0.1282  0.7119
   53TMC2    C5  810   1.917   0.004  12.402 -0.0544 -0.1120  0.1380
   53TMC2    C6  811   2.025   0.004  12.486  0.0036  0.3460  0.3508
   53TMC2     C  812   2.072   4.590  12.096 -0.1913 -0.8595 -0.8975
   53TMC2     O  813   2.177   4.528  12.072  0.2539 -0.6384 -0.0766
   53TMC2     H  814   2.261   4.629  12.274  1.3509  2.7963  0.6514
   53TMC2    H1  815   1.848   4.698  12.196  0.5360 -0.8910  0.2014
   53TMC2    H2  816   2.026   0.058  12.579 -0.7075  1.5755 -0.3583
   53TMC2    C7  817   1.798   0.077  12.438 -0.1379 -0.8950 -0.1991
   53TMC2    C8  818   2.254   4.686  12.537  0.0102 -0.4414 -0.5136
   53TMC2    O1  819   1.712   0.093  12.351  0.3979  0.7091 -0.4509
   53TMC2    O2  820   2.265   0.056  12.622 -0.1260  0.1602  0.2324
   53TMC2    O5  821   2.327   4.572  12.519 -0.0652 -1.0281 -0.0760
   53TMC2    H5  822   2.293   4.509  12.451  0.4683 -0.3261 -0.9928
   54MPD2     C  823   2.027   4.468  11.825 -0.5701 -0.1448 -0.0320
   54MPD2    C1  824   1.934   4.533  11.902  0.0532  0.5242 -0.2443
   54MPD2    C2  825   1.805   4.544  11.858 -0.0470  0.3101  0.6157
   54MPD2    C3  826   1.757   4.491  11.737  0.3772 -1.0124  0.2894
   54MPD2    C4  827   1.849   4.425  11.658 -0.3931 -0.1528 -0.6583
   54MPD2    C5  828   1.981   4.411  11.706  0.2910 -0.0456 -0.0752
   54MPD2     H  829   1.738   4.601  11.922 -0.9246  0.7757 -0.7097
   54MPD2    H1  830   1.822   4.381  11.562 -0.0915  1.1798 -1.3510
   54MPD2    H2  831   2.132   4.457  11.849 -1.1627 -2.3095  1.5089
   54MPD2    H3  832   2.046   4.350  11.644  0.6415 -0.9798  1.2245
   54MPD2     N  833   1.623   4.478  11.690  0.5810 -0.5214  0.0780
   54MPD2    H5  834   1.608   4.437  11.598 -0.1643 -0.9472  0.3894
   54MPD2    N1  835   1.956   4.599  12.023  0.1385  0.6766  0.6035
   54MPD2    H7  836   1.881   4.658  12.058 -0.9532  0.3005 -1.0876
   55MPD2     C  837   2.308   1.840   1.127 -0.7629 -0.2144 -0.0889
   55MPD2    C1  838   2.233   1.839   1.242 -0.5836 -0.3685 -0.0944
   55MPD2    C2  839   2.153   1.948   1.282  0.1099 -0.2536 -0.6090
   55MPD2    C3  840   2.161   2.066   1.216 -0.0681 -0.2944  0.0219
   55MPD2    C4  841   2.238   2.067   1.094 -0.5935  0.0189 -0.7012
   55MPD2    C5  842   2.303   1.956   1.049 -0.3266  0.1840  0.6238
   55MPD2     H  843   2.084   1.947   1.366 -1.5010  1.4356 -1.9203
   55MPD2    H1  844   2.251   2.158   1.038 -1.7273  1.2218  1.0106
   55MPD2    H2  845   2.357   1.750   1.093  0.9046  0.4380  0.6028
   55MPD2    H3  846   2.366   1.970   0.961 -0.2470  1.1929  0.8366
   55MPD2     N  847   2.085   2.182   1.261 -0.1702 -0.0027  0.1202
   55MPD2    H5  848   2.025   2.168   1.341 -0.9941 -0.8745 -0.6469
   55MPD2    N1  849   2.249   1.719   1.317 -0.5254  0.3386  0.4993
   55MPD2    H7  850   2.295   1.643   1.269  0.8512 -0.3087  2.8767
   56TCq2    C1  851   2.182   1.684   1.430  0.2363  0.0395  0.1625
   56TCq2    O2  852   2.123   1.765   1.502  0.0782  0.7729 -0.0547
   56TCq2    C2  853   2.194   1.544   1.462  0.4601 -0.0609 -0.0713
   56TCq2    C3  854   2.311   1.485   1.432  0.3033 -0.1213  0.9456
   56TCq2    C4  855   2.315   1.353   1.453  0.1782  0.1456  1.2713
   56TCq2    C5  856   2.205   1.270   1.483 -0.2418 -0.4250  0.1369
   56TCq2    C6  857   2.092   1.340   1.512  0.1436 -0.2300 -0.7853
   56TCq2    C7  858   2.088   1.475   1.510 -0.1778  0.6372 -0.3099
   56TCq2    C8  859   1.969   1.260   1.534 -0.1895  0.5024 -0.8245
   56TCq2    O4  860   1.982   1.152   1.590 -0.1828 -0.4970  0.0812
   56TCq2    C9  861   2.431   1.280   1.402 -0.0246 -0.2468  0.5764
   56TCq2    O5  862   2.500   1.340   1.316 -0.0801  0.3030  0.0484
   56TCq2    O6  863   2.442   1.158   1.424 -0.0565 -0.2606 -0.0772
   56TCq2    H2  864   2.406   1.531   1.408 -0.1364  1.1898  1.7067
   56TCq2    H3  865   2.200   1.162   1.475  1.8288 -0.5340  0.2578
   56TCq2    H4  866   1.996   1.528   1.535  0.1511  1.5594 -1.0577
   57TMC2    C1  867   1.829   3.757  14.112 -0.2935  0.0932  0.0649
   57TMC2    C2  868   1.924   3.733  14.212 -0.3859 -0.4215 -0.1532
   57TMC2    C3  869   2.054   3.720  14.170 -0.0727  0.3992  0.3082
   57TMC2    C4  870   1.857   3.766  13.983  0.6712 -0.6644  0.5896
   57TMC2    C5  871   1.982   3.740  13.945  0.5615  0.0255 -0.1094
   57TMC2    C6  872   2.088   3.706  14.036  0.6638 -0.0397 -0.0038
   57TMC2     C  873   1.693   3.765  14.157  0.6180 -0.1558  0.5664
   57TMC2     O  874   1.679   3.794  14.275  0.0361 -0.2687  0.2910
   57TMC2     H  875   1.893   3.726  14.315  2.8080 -1.7170  0.7345
   57TMC2    H1  876   1.780   3.782  13.908 -1.0922 -0.9382  2.3567
   57TMC2    H2  877   2.192   3.683  14.013  1.0904  0.7141  1.1946
   57TMC2    C7  878   2.015   3.726  13.807  0.2747 -0.0591 -0.0493
   57TMC2    C8  879   2.140   3.641  14.246 -0.1387  0.0541 -0.5601
   57TMC2    O1  880   2.127   3.681  13.788 -0.0260 -0.2304  0.4409
   57TMC2    O2  881   2.187   3.532  14.207  0.4440 -0.0939 -0.1708
   57TMC2    O5  882   2.143   3.692  14.373 -0.3796 -0.0127  0.3598
   57TMC2    H5  883   2.102   3.781  14.376 -0.3724 -0.1069  3.1281
   58MPD2     C  884   1.192   3.694  14.136 -0.6102 -0.2079 -0.4197
   58MPD2    C1  885   1.271   3.788  14.195 -0.9926 -0.8734  0.7260
   58MPD2    C2  886   1.406   3.781  14.182 -0.5387 -0.0472  0.5385
   58MPD2    C3  887   1.469   3.691  14.102 -0.0969  0.9878 -0.0170
   58MPD2    C4  888   1.394   3.615  14.020  0.9016  0.2301  0.1437
   58MPD2    C5  889   1.255   3.610  14.043 -0.5558  0.6079  0.0546
   58MPD2     H  890   1.468   3.856  14.228  1.0841  0.5291 -2.5850
   58MPD2    H1  891   1.445   3.541  13.960 -1.7721 -0.4109 -1.3554
   58MPD2    H2  892   1.085   3.695  14.153 -0.6606  0.1078 -0.7502
   58MPD2    H3  893   1.188   3.540  13.993 -0.2499  0.5346 -0.2487
   58MPD2     N  894   1.606   3.691  14.076 -0.1230 -0.4408  0.0805
   58MPD2    H5  895   1.637   3.636  13.997 -0.1348 -0.3568  0.0169
   58MPD2    N1  896   1.218   3.880  14.288  0.0321 -0.1864 -0.3711
   58MPD2    H7  897   1.285   3.932  14.345  0.4808  0.0015 -1.0703
   59MPD2     C  898   4.122   4.374  13.120 -0.4928  0.1971 -0.0131
   59MPD2    C1  899   4.123   4.255  13.199  0.0763 -0.0230 -0.8559
   59MPD2    C2  900   4.191   4.259  13.321 -0.2223  0.1429  0.0572
   59MPD2    C3  901   4.250   4.376  13.362 -0.0225 -0.5306  0.4276
   59MPD2    C4  902   4.240   4.485  13.284  0.8201  0.6117  0.1528
   59MPD2    C5  903   4.173   4.493  13.171 -0.5864 -0.5010  0.0629
   59MPD2     H  904   4.205   4.166  13.374  0.7280 -0.2570 -0.8928
   59MPD2    H1  905   4.287   4.576  13.320 -0.1241  0.3186  2.1743
   59MPD2    H2  906   4.071   4.389  13.025 -2.3972  0.1505  1.0040
   59MPD2    H3  907   4.179   4.584  13.114  1.5898 -1.5916 -1.4667
   59MPD2     N  908   4.322   4.387  13.484 -0.0276  0.3949 -0.1908
   59MPD2    H5  909   4.378   4.471  13.499 -0.5057  0.9038 -1.2209
   59MPD2    N1  910   4.088   4.130  13.151  0.1116 -0.0383  0.4015
   59MPD2    H7  911   4.100   4.054  13.216  0.2769 -0.4865 -0.1569
   60TCq2    C1  912   4.031   4.100  13.024 -0.6717  0.2605 -0.0375
   60TCq2    O2  913   4.029   4.180  12.931  0.0139  0.5105 -0.6670
   60TCq2    C2  914   3.998   3.962  12.993 -0.0339 -0.1390 -0.4492
   60TCq2    C3  915   4.099   3.870  13.005  1.2371 -0.1631 -0.2974
   60TCq2    C4  916   4.088   3.752  12.931 -0.6850  0.3384 -0.3620
   60TCq2    C5  917   4.001   3.734  12.832 -0.2476 -0.0911 -0.2927
   60TCq2    C6  918   3.901   3.828  12.815 -0.3455 -0.1852 -0.2215
   60TCq2    C7  919   3.905   3.940  12.896  0.4261 -0.2351 -0.1002
   60TCq2    C8  920   3.818   3.825  12.692  0.0521  0.1613 -0.1139
   60TCq2    O4  921   3.850   3.735  12.616 -0.4922 -0.5587 -0.7985
   60TCq2    C9  922   4.197   3.662  12.957  0.4022  0.3448 -0.0101
   60TCq2    O5  923   4.216   3.570  12.869  0.3081 -0.4094 -0.5126
   60TCq2    O6  924   4.281   3.695  13.044  0.3836 -0.4597 -0.2480
   60TCq2    H2  925   4.184   3.894  13.068 -0.6661  0.9690  1.8112
   60TCq2    H3  926   4.002   3.643  12.773 -1.5341 -0.7019  0.6154
   60TCq2    H4  927   3.837   4.023  12.879 -0.6786 -0.9435  0.8863
   61MPD2     C  928   2.757   0.491  15.278  0.0896 -0.5922  0.0191
   61MPD2    C1  929   2.808   0.614  15.301 -0.2978 -0.1271  0.4973
   61MPD2    C2  930   2.864   0.686  15.200  0.1325 -0.2619 -0.5177
   61MPD2    C3  931   2.890   0.621  15.080  0.2724 -0.3069 -0.3641
   61MPD2    C4  932   2.842   0.494  15.060  0.4140  0.0446 -0.2686
   61MPD2    C5  933   2.774   0.431  15.159 -0.1610  1.0195 -0.7186
   61MPD2     H  934   2.891   0.786  15.231 -1.5595 -0.8650  2.9078
   61MPD2    H1  935   2.858   0.438  14.968  0.2015 -1.4545  0.6072
   61MPD2    H2  936   2.703   0.442  15.358 -0.3221 -2.2084 -1.2348
   61MPD2    H3  937   2.734   0.332  15.136 -1.2104  0.8556  1.8671
   61MPD2     N  938   2.956   0.680  14.966  0.5213 -0.0500  0.1334
   61MPD2    H5  939   2.978   0.613  14.893  3.1632  1.2055 -0.2285
   61MPD2    N1  940   2.801   0.677  15.422  0.0982 -0.4159 -0.4862
   61MPD2    H7  941   2.885   0.729  15.444 -0.7972  1.8783 -2.4664
   62TCq2    C1  942   2.721   0.644  15.533 -0.3671 -0.1101  1.3384
   62TCq2    O2  943   2.630   0.565  15.540 -0.2425 -0.4711  0.4003
   62TCq2    C2  944   2.772   0.712  15.652  0.0588 -0.0362 -0.3971
   62TCq2    C3  945   2.777   0.637  15.771 -0.3975  0.4015 -0.0761
   62TCq2    C4  946   2.817   0.692  15.887  0.6491 -0.0989  0.8191
   62TCq2    C5  947   2.882   0.817  15.879  0.6825 -0.2632 -0.1608
   62TCq2    C6  948   2.887   0.885  15.762  0.0246 -0.0643 -0.3167
   62TCq2    C7  949   2.838   0.831  15.650  0.0968 -0.3945 -0.0926
   62TCq2    C8  950   2.922   1.026  15.764 -0.3090 -0.1079 -0.6476
   62TCq2    O4  951   2.865   1.101  15.694  0.2417 -0.2622 -0.2162
   62TCq2    C9  952   2.816   0.609  16.008 -0.0880 -0.4405  0.0396
   62TCq2    O5  953   2.780   0.491  15.995 -0.2035  0.1028 -0.0741
   62TCq2    O6  954   2.832   0.669  16.120  0.2636  0.4788  0.0566
   62TCq2    H2  955   2.743   0.534  15.772  0.2605  0.1901  2.7863
   62TCq2    H3  956   2.901   0.864  15.975 -0.2740 -0.0819 -0.0565
   62TCq2    H4  957   2.825   0.897  15.565  1.3478 -0.3113 -0.2106
   63TMC2    C1  958   2.627   0.920  10.809  0.3278  0.5167  0.2306
   63TMC2    C2  959   2.739   0.909  10.885 -0.2596  0.1138  0.7007
   63TMC2    C3  960   2.842   0.990  10.870  0.0616  0.6668  0.4359
   63TMC2    C4  961   2.627   1.017  10.705 -0.3616  0.8683 -0.0013
   63TMC2    C5  962   2.731   1.100  10.688  0.1557 -0.3457  0.6830
   63TMC2    C6  963   2.844   1.091  10.773 -0.0910 -0.0455  0.8765
   63TMC2     C  964   2.565   0.798  10.778 -0.3632 -0.7798 -0.4335
   63TMC2     O  965   2.598   0.691  10.837  0.2733 -0.1438  0.0347
   63TMC2     H  966   2.735   0.840  10.968  1.6473  1.2022  1.7017
   63TMC2    H1  967   2.548   1.033  10.632  0.6728  1.1280 -1.0519
   63TMC2    H2  968   2.923   1.164  10.767 -0.5443  0.1143 -3.1135
   63TMC2    C7  969   2.734   1.192  10.580 -1.0133  0.1334  0.4941
   63TMC2    C8  970   2.973   0.957  10.931 -0.1940 -0.5477 -0.1439
   63TMC2    O1  971   2.627   1.241  10.549 -0.1316 -0.3620  0.1631
   63TMC2    O2  972   3.008   0.838  10.925 -0.3619 -0.2413  0.6526
   63TMC2    O5  973   2.954   1.025  11.047  0.4906 -0.0284 -0.0863
   63TMC2    H5  974   2.950   1.121  11.024 -1.9707 -0.2272 -0.4325
   64MPD2     C  975   2.246   0.525  10.476 -0.3965 -0.1478  0.2541
   64MPD2    C1  976   2.358   0.483  10.545 -0.0851 -0.1284 -0.0187
   64MPD2    C2  977   2.436   0.573  10.624 -0.5676  0.2673 -0.0838
   64MPD2    C3  978   2.391   0.706  10.629 -0.0771 -0.1163  0.3444
   64MPD2    C4  979   2.274   0.741  10.563 -0.7655  0.1252 -0.8603
   64MPD2    C5  980   2.204   0.652  10.484  0.3476  0.7296  0.3726
   64MPD2     H  981   2.526   0.544  10.676 -0.0072  0.1773 -1.1082
   64MPD2    H1  982   2.241   0.843  10.577 -0.2152  0.5265 -2.4824
   64MPD2    H2  983   2.174   0.463  10.424 -1.2766  0.7798  0.3645
   64MPD2    H3  984   2.108   0.679  10.441  0.8711 -2.1275 -2.5948
   64MPD2     N  985   2.454   0.813  10.697 -1.0698 -0.8960 -0.2177
   64MPD2    H5  986   2.420   0.908  10.682  0.5160 -0.5310 -1.5517
   64MPD2    N1  987   2.401   0.348  10.543 -0.1811  0.6083 -0.3353
   64MPD2    H7  988   2.481   0.320  10.599 -0.2817  2.1903  0.5757
   65MPD2     C  989   3.008   0.286  15.599  0.1912 -0.0688 -0.5055
   65MPD2    C1  990   3.058   0.269  15.475 -0.0517  0.0493  0.2444
   65MPD2    C2  991   3.048   0.152  15.402  0.0467 -0.0818 -0.6353
   65MPD2    C3  992   2.985   0.041  15.468  0.2404  0.1382  0.3351
   65MPD2    C4  993   2.938   0.062  15.594  0.1309 -0.0626 -0.2104
   65MPD2    C5  994   2.951   0.182  15.659  0.1742  0.1051  0.5146
   65MPD2     H  995   3.092   0.144  15.303 -0.9554 -2.6011 -0.8908
   65MPD2    H1  996   2.896   4.701  15.652 -0.7698 -0.6869 -1.7509
   65MPD2    H2  997   3.004   0.383  15.648 -3.9669 -1.2700  1.4884
   65MPD2    H3  998   2.909   0.194  15.759  3.2809  0.0846  1.8283
   65MPD2     N  999   2.980   4.626  15.426  0.8156 -0.0548  0.3368
   65MPD2    H5 1000   2.962   4.557  15.498  0.3615  0.7909  1.0252
   65MPD2    N1 1001   3.096   0.382  15.398 -0.7063  1.0129 -0.7155
   65MPD2    H7 1002   3.116   0.360  15.300  0.5774 -1.6642  0.1272
   66TCq2    C1 1003   3.131   0.504  15.448  0.1695 -0.5508  0.2120
   66TCq2    O2 1004   3.123   0.552  15.559  0.3368  0.2443 -0.7155
   66TCq2    C2 1005   3.205   0.594  15.352 -0.4922 -0.3832 -0.2621
   66TCq2    C3 1006   3.240   0.544  15.230 -0.1721 -0.0755 -0.2198
   66TCq2    C4 1007   3.316   0.620  15.148 -0.7034  0.0596  0.3332
   66TCq2    C5 1008   3.351   0.747  15.184 -0.8950  0.3715  0.7051
   66TCq2    C6 1009   3.308   0.797  15.309  0.0418  0.1216  0.0254
   66TCq2    C7 1010   3.228   0.721  15.389  0.6540 -0.5516  0.0820
   66TCq2    C8 1011   3.325   0.942  15.341 -0.1925 -0.1376 -0.9083
   66TCq2    O4 1012   3.369   1.018  15.261  0.1747  0.0236 -0.3433
   66TCq2    C9 1013   3.346   0.574  15.018  0.6322 -1.1237  0.2685
   66TCq2    O5 1014   3.455   0.615  14.970  0.5101 -0.4414  0.0850
   66TCq2    O6 1015   3.287   0.473  14.978 -0.1454 -0.3533 -0.2691
   66TCq2    H2 1016   3.241   0.437  15.212  2.4894 -0.0640 -0.1338
   66TCq2    H3 1017   3.411   0.811  15.119 -1.2536  2.8944  2.8590
   66TCq2    H4 1018   3.191   0.754  15.485 -0.6391 -1.1073 -0.2302
   67MPD2     C 1019   3.553   4.262  13.701 -0.3767  0.1401 -0.3680
   67MPD2    C1 1020   3.599   4.368  13.783 -0.8666  0.5524  0.2080
   67MPD2    C2 1021   3.578   4.491  13.729 -0.2151  0.9127  0.3429
   67MPD2    C3 1022   3.524   4.516  13.600 -0.2304 -0.2427 -0.3234
   67MPD2    C4 1023   3.493   4.414  13.524 -0.1205  0.2398 -0.1880
   67MPD2    C5 1024   3.507   4.286  13.576 -0.4840 -0.7151 -0.0378
   67MPD2     H 1025   3.600   4.576  13.793 -1.8138  1.9903 -0.5391
   67MPD2    H1 1026   3.459   4.423  13.421 -1.4500 -0.4093  0.1910
   67MPD2    H2 1027   3.565   4.157  13.727  3.1970  0.2471 -1.6583
   67MPD2    H3 1028   3.475   4.198  13.520 -0.1533 -0.0265 -1.3079
   67MPD2     N 1029   3.502   4.648  13.549  0.3924 -0.4615 -0.0253
   67MPD2    H5 1030   3.439   4.662  13.470 -0.5932  0.5058  0.9284
   67MPD2    N1 1031   3.658   4.368  13.915 -0.1769 -0.3685  0.1808
   67MPD2    H7 1032   3.691   4.456  13.952  0.0652 -0.1269 -0.6226
   68TCq2    C1 1033   3.685   4.253  13.983 -0.1933  0.1809  0.5378
   68TCq2    O2 1034   3.662   4.141  13.940 -0.3983 -0.1039 -0.0055
   68TCq2    C2 1035   3.729   4.272  14.121 -0.0349 -0.4373  0.4324
   68TCq2    C3 1036   3.781   4.164  14.190 -0.2407 -1.2714 -0.0821
   68TCq2    C4 1037   3.789   4.166  14.326 -0.2020 -0.6585  0.5216
   68TCq2    C5 1038   3.763   4.280  14.395 -0.5650 -0.1111 -0.8737
   68TCq2    C6 1039   3.714   4.386  14.327 -1.0089 -0.3859  0.0284
   68TCq2    C7 1040   3.688   4.385  14.190 -0.4156 -0.1207  0.5330
   68TCq2    C8 1041   3.723   4.517  14.385 -0.0928  0.9070  0.0324
   68TCq2    O4 1042   3.783   4.598  14.316 -0.1276 -0.1765  0.4758
   68TCq2    C9 1043   3.844   4.046  14.397  0.4980 -0.5959 -0.3596
   68TCq2    O5 1044   3.800   4.035  14.516 -0.4004 -0.2627  0.0628
   68TCq2    O6 1045   3.937   3.977  14.344 -0.6048 -0.4729 -0.2897
   68TCq2    H2 1046   3.802   4.067  14.147 -0.2234 -0.3483 -2.1361
   68TCq2    H3 1047   3.783   4.294  14.501 -0.9157 -3.1441 -0.3892
   68TCq2    H4 1048   3.623   4.455  14.139 -0.7781 -0.2197  0.8581
   69TMC2    C1 1049   0.342   0.862  11.940  0.1446 -0.0414 -0.3393
   69TMC2    C2 1050   0.268   0.961  11.882 -0.2105 -0.3417  0.0308
   69TMC2    C3 1051   0.318   1.016  11.762  0.4235 -0.1478 -0.0124
   69TMC2    C4 1052   0.450   0.802  11.876  0.3885  0.5269  0.7639
   69TMC2    C5 1053   0.482   0.849  11.749  0.6682 -0.3933 -0.6839
   69TMC2    C6 1054   0.416   0.955  11.690 -0.3260 -0.2739  0.1685
   69TMC2     C 1055   0.320   0.831  12.081 -0.4959 -0.9017  0.2615
   69TMC2     O 1056   0.423   0.788  12.133  0.1571  0.0069 -0.0863
   69TMC2     H 1057   0.182   1.009  11.928 -0.0725  0.7090 -0.8052
   69TMC2    H1 1058   0.510   0.728  11.928  0.6396  1.0263  1.1788
   69TMC2    H2 1059   0.439   0.988  11.589  3.1825 -2.9868  0.0797
   69TMC2    C7 1060   0.599   0.802  11.682 -0.5840  0.2759 -1.0981
   69TMC2    C8 1061   0.225   1.099  11.700  0.5359 -0.1359  0.8982
   69TMC2    O1 1062   0.640   0.858  11.582  0.1290  0.4304  0.9991
   69TMC2    O2 1063   0.108   1.098  11.732 -0.0698  0.2724  0.3191
   69TMC2    O5 1064   0.276   1.149  11.580 -0.0053 -0.1537 -0.7142
   69TMC2    H5 1065   0.373   1.141  11.583  0.1703  1.0255 -2.7466
   70MPD2     C 1066   0.003   0.811  12.285 -0.4503  0.6107  0.1833
   70MPD2    C1 1067   0.137   0.795  12.249  0.0495 -0.3374 -0.2824
   70MPD2    C2 1068   0.218   0.746  12.345  0.6586 -0.4125 -0.2659
   70MPD2    C3 1069   0.177   0.713  12.470  0.3337  0.3700  0.1322
   70MPD2    C4 1070   0.042   0.714  12.492  0.2799 -0.4728  0.1960
   70MPD2    C5 1071   4.674   0.770  12.406 -0.1224  0.5796  0.0349
   70MPD2     H 1072   0.320   0.713  12.330 -0.3413 -2.7508 -1.8722
   70MPD2    H1 1073   0.007   0.685  12.590  0.1769 -2.4429 -0.4317
   70MPD2    H2 1074   4.654   0.859  12.217 -1.6546 -0.2258  0.8209
   70MPD2    H3 1075   4.569   0.780  12.430  0.2845  0.0550  2.0274
   70MPD2     N 1076   0.259   0.664  12.572  0.3372  0.0905  0.2297
   70MPD2    H5 1077   0.215   0.634  12.659 -1.8227  0.3003 -0.7992
   70MPD2    N1 1078   0.189   0.833  12.126 -0.2972  0.3613 -0.2671
   70MPD2    H7 1079   0.112   0.856  12.064  1.9188  0.7721 -2.8509
   71TMC2    C1 1080   4.617   0.781   1.138  0.2144  0.5183 -0.3133
   71TMC2    C2 1081   0.009   0.708   1.168  0.6308  0.5374 -0.2825
   71TMC2    C3 1082   0.025   0.663   1.295 -0.7001  0.2316 -0.4516
   71TMC2    C4 1083   4.516   0.810   1.224  0.6170  0.4048 -0.3357
   71TMC2    C5 1084   4.532   0.752   1.345  0.2727 -0.2185 -0.3560
   71TMC2    C6 1085   4.647   0.684   1.385 -0.5951 -0.6472 -0.0154
   71TMC2     C 1086   4.614   0.862   1.021 -0.0324 -0.1360 -0.1975
   71TMC2     O 1087   4.542   0.957   1.014 -0.0346 -0.3392  0.3719
   71TMC2     H 1088   0.091   0.703   1.097  0.6679 -1.2555 -0.0996
   71TMC2    H1 1089   4.436   0.875   1.189  2.7573  1.9153 -2.4403
   71TMC2    H2 1090   4.664   0.652   1.487 -1.2764  1.1511  0.6669
   71TMC2    C7 1091   4.438   0.794   1.449  0.5446  0.4922 -0.1463
   71TMC2    C8 1092   0.124   0.558   1.321  0.2918 -0.6950  0.7893
   71TMC2    O1 1093   4.493   0.812   1.556  0.5840 -0.7794 -0.2911
   71TMC2    O2 1094   0.215   0.528   1.240 -0.3618 -0.1756  0.0569
   71TMC2    O5 1095   0.086   0.480   1.421 -0.6564 -0.6952 -0.3985
   71TMC2    H5 1096   0.007   0.516   1.466 -0.9161  0.0080 -1.3949
   72MPD2     C 1097   0.070   1.000   0.559  0.6257 -0.1776  0.5150
   72MPD2    C1 1098   4.713   1.067   0.650 -0.8588  0.0648  0.3277
   72MPD2    C2 1099   4.675   1.005   0.770  0.0783 -0.7606  1.0147
   72MPD2    C3 1100   4.706   0.869   0.790  0.3668  0.3810 -0.5456
   72MPD2    C4 1101   0.060   0.804   0.687  0.4117  0.2026  0.0615
   72MPD2    C5 1102   0.103   0.871   0.576 -0.1460  0.2886 -0.5966
   72MPD2     H 1103   4.631   1.061   0.852  1.9792 -0.4460  1.8087
   72MPD2    H1 1104   0.099   0.704   0.696 -1.5881 -0.6175 -0.2443
   72MPD2    H2 1105   0.118   1.045   0.473 -1.5548 -0.6093 -0.9130
   72MPD2    H3 1106   0.171   0.826   0.505  0.3467 -0.3445  0.2762
   72MPD2     N 1107   4.690   0.808   0.916  0.1364  0.8875  0.0619
   72MPD2    H5 1108   0.008   0.717   0.939  1.0661  1.7364  1.9053
   72MPD2    N1 1109   4.694   1.203   0.630  0.6577 -0.2755  0.2117
   72MPD2    H7 1110   4.657   1.250   0.711  0.3808 -0.5934  0.2721
   73TMC2    C1 1111   3.099   3.280  14.201 -0.0721 -0.7952 -0.0148
   73TMC2    C2 1112   3.120   3.144  14.170  1.3119  0.1294 -0.0212
   73TMC2    C3 1113   3.238   3.095  14.218  0.2045  0.5873  0.6065
   73TMC2    C4 1114   3.188   3.350  14.274  0.0517  0.3000  0.4772
   73TMC2    C5 1115   3.305   3.293  14.321  1.2326 -0.1213 -0.3788
   73TMC2    C6 1116   3.328   3.159  14.293  0.4705 -0.6894 -0.6745
   73TMC2     C 1117   3.064   3.362  14.081 -0.4381 -0.2712  0.3384
   73TMC2     O 1118   3.146   3.450  14.062 -0.3515  0.5048 -0.4420
   73TMC2     H 1119   3.055   3.078  14.115 -0.5140 -0.0748  2.3727
   73TMC2    H1 1120   3.152   3.447  14.307 -0.8750 -0.2865  1.2209
   73TMC2    H2 1121   3.415   3.099  14.315  0.1698 -0.5755  0.8304
   73TMC2    C7 1122   3.423   3.368  14.298  0.0657 -0.4624 -0.2566
   73TMC2    C8 1123   3.252   2.948  14.213 -0.8145  0.5975 -0.1987
   73TMC2    O1 1124   3.526   3.313  14.341  0.3650  0.2468 -0.8077
   73TMC2    O2 1125   3.296   2.885  14.121  0.0359  0.2356 -0.0896
   73TMC2    O5 1126   3.142   2.919  14.283 -0.0500 -0.2871 -0.0798
   73TMC2    H5 1127   3.133   2.986  14.354  2.0144 -0.0563 -0.0140
   74MPD2     C 1128   2.896   3.395  13.601  0.4955 -0.0695 -0.3087
   74MPD2    C1 1129   2.991   3.468  13.673 -0.2905  0.6400  0.1210
   74MPD2    C2 1130   3.001   3.448  13.807  0.1953  0.5981  0.3200
   74MPD2    C3 1131   2.936   3.346  13.866 -0.2753 -0.4486  0.3377
   74MPD2    C4 1132   2.843   3.276  13.797  0.5096  0.2048 -0.5267
   74MPD2    C5 1133   2.832   3.292  13.660  0.3212 -0.2853 -0.0798
   74MPD2     H 1134   3.071   3.513  13.858 -0.0857  0.2309  1.1675
   74MPD2    H1 1135   2.791   3.192  13.843  0.7658 -0.2679 -1.0929
   74MPD2    H2 1136   2.864   3.419  13.500 -1.7582 -1.6488  0.0322
   74MPD2    H3 1137   2.775   3.223  13.599  0.1271  0.5341 -0.8343
   74MPD2     N 1138   2.963   3.306  14.001 -0.2358 -0.1085  0.1888
   74MPD2    H5 1139   2.925   3.216  14.029  1.4302 -1.1247 -0.7623
   74MPD2    N1 1140   3.062   3.569  13.603 -0.5814 -0.1050  0.1053
   74MPD2    H7 1141   3.053   3.563  13.502  0.1448  0.6020 -0.0031
   75TCq2    C1 1142   3.546   0.040  13.617 -0.4350  0.2361  0.2939
   75TCq2    O2 1143   3.626   0.052  13.710  0.5206 -0.7205 -0.1800
   75TCq2    C2 1144   3.489   0.168  13.575  0.0955  0.5864  0.7717
   75TCq2    C3 1145   3.448   0.238  13.685  0.2665 -0.7457 -0.0555
   75TCq2    C4 1146   3.339   0.324  13.664 -0.4330  0.2153  0.3917
   75TCq2    C5 1147   3.286   0.349  13.540 -0.5613 -0.1675 -0.1561
   75TCq2    C6 1148   3.339   0.276  13.437 -0.0468  0.9574  0.6552
   75TCq2    C7 1149   3.439   0.187  13.451  0.3806  0.4649 -0.3634
   75TCq2    C8 1150   3.266   0.267  13.312 -0.4889  0.2554 -0.5646
   75TCq2    O4 1151   3.284   0.158  13.255 -0.3243  0.5974 -0.0137
   75TCq2    C9 1152   3.283   0.390  13.779  0.8760  0.3040 -0.2052
   75TCq2    O5 1153   3.188   0.470  13.764  0.6097  0.3291 -0.1769
   75TCq2    O6 1154   3.319   0.347  13.894 -0.4794  0.1509  0.0692
   75TCq2    H2 1155   3.490   0.213  13.781 -2.0061 -1.6869  0.6902
   75TCq2    H3 1156   3.204   0.418  13.525  0.8627  1.3416 -0.9956
   75TCq2    H4 1157   3.475   0.141  13.360  2.2387 -2.4348  1.8232
   76MPD2     C 1158   1.664   0.981  11.295  0.2502 -0.9389  0.5455
   76MPD2    C1 1159   1.589   0.893  11.373  0.2455  0.3221 -0.6923
   76MPD2    C2 1160   1.628   0.875  11.510 -0.1487  0.5046  0.0094
   76MPD2    C3 1161   1.739   0.935  11.562 -0.0113 -0.1053  0.1553
   76MPD2    C4 1162   1.816   1.019  11.480  0.0498 -0.2487 -0.5786
   76MPD2    C5 1163   1.779   1.032  11.348  0.3795 -0.6998 -0.0605
   76MPD2     H 1164   1.572   0.812  11.578 -2.2026  2.9006  0.5461
   76MPD2    H1 1165   1.908   1.065  11.514 -1.1425  1.0341  0.8618
   76MPD2    H2 1166   1.657   0.993  11.188 -0.1355 -1.0935  0.5548
   76MPD2    H3 1167   1.830   1.105  11.286 -1.4151  0.9206  0.3790
   76MPD2     N 1168   1.775   0.946  11.702  0.9063  0.5934 -0.5044
   76MPD2    H5 1169   1.832   1.021  11.740 -0.6687  0.3040  2.4355
   76MPD2    N1 1170   1.475   0.826  11.322 -0.5877  0.1564 -0.5133
   76MPD2    H7 1171   1.439   0.754  11.383 -0.3674  0.2300 -0.2950
   77TCq2    C1 1172   1.710   0.874  11.801  0.9176 -0.5328  0.0688
   77TCq2    O2 1173   1.639   0.772  11.794  0.2032 -0.3278  0.0529
   77TCq2    C2 1174   1.776   0.886  11.933  0.0239 -0.7786 -0.3629
   77TCq2    C3 1175   1.750   0.781  12.015 -0.4366  0.2160  0.4117
   77TCq2    C4 1176   1.841   0.758  12.117  0.7396 -0.0459  0.3667
   77TCq2    C5 1177   1.941   0.851  12.145 -0.2394  0.3315 -0.0168
   77TCq2    C6 1178   1.951   0.960  12.071  0.5790  0.5922 -0.0784
   77TCq2    C7 1179   1.871   0.981  11.960 -0.2298  0.3767 -0.0855
   77TCq2    C8 1180   2.062   1.053  12.098 -0.5305  0.4512  0.6626
   77TCq2    O4 1181   2.078   1.130  12.000 -0.0199  0.3664 -0.4672
   77TCq2    C9 1182   1.832   0.628  12.187  0.5703 -0.1814  0.2307
   77TCq2    O5 1183   1.892   0.618  12.299  0.5046  0.4288  0.1092
   77TCq2    O6 1184   1.783   0.532  12.122 -0.0074  0.2595  0.0874
   77TCq2    H2 1185   1.678   0.706  11.986 -0.1646  0.3004 -0.4733
   77TCq2    H3 1186   1.988   0.836  12.242 -2.2223  1.1280  1.0880
   77TCq2    H4 1187   1.876   1.072  11.900  0.5467 -0.1342 -0.8007
   78MPD1     C 1188   2.870   4.169   1.717  0.0770 -0.1707  0.0771
   78MPD1    C1 1189   2.996   4.184   1.662  0.6629 -0.6566  0.9964
   78MPD1    C2 1190   3.061   4.303   1.672 -0.3102  0.1465 -0.0333
   78MPD1    C3 1191   3.011   4.401   1.753 -0.1005  0.1224 -0.1367
   78MPD1    C4 1192   2.890   4.386   1.814  0.7693 -0.1233  0.6112
   78MPD1    C5 1193   2.821   4.266   1.805  0.2795  0.2467 -0.7431
   78MPD1     H 1194   3.150   4.321   1.613  0.7766  0.5615  1.7141
   78MPD1    H1 1195   2.843   4.469   1.867  2.8932  0.3896  1.6675
   78MPD1    H2 1196   2.808   4.085   1.688  0.3432  0.2093 -1.5998
   78MPD1    H3 1197   2.724   4.252   1.850 -0.4180 -1.2001 -2.7131
   78MPD1     N 1198   3.063   4.526   1.764  0.5995  0.0688 -0.7974
   78MPD1    H5 1199   3.009   4.593   1.817  0.0397 -1.5388  0.6570
   78MPD1    N1 1200   3.046   4.075   1.584  0.0321 -0.6137  0.1394
   78MPD1    H6 1201   3.147   4.078   1.587  0.0640 -0.5358 -0.9504
   78MPD1    H7 1202   3.023   3.992   1.638 -0.4049 -0.5957 -0.0141
   79TCq2    C1 1203   3.189   4.560   1.714  0.7966  0.9586 -0.2060
   79TCq2    O2 1204   3.278   4.500   1.654  0.0940  0.0202  0.4227
   79TCq2    C2 1205   3.227   4.693   1.743  0.0024 -0.0358 -0.1144
   79TCq2    C3 1206   3.234   0.012   1.871  0.4757 -0.1758 -0.4869
   79TCq2    C4 1207   3.306   0.121   1.895  0.2109  0.2162 -0.4268
   79TCq2    C5 1208   3.377   0.184   1.798 -0.7544 -0.8214  1.0079
   79TCq2    C6 1209   3.377   0.138   1.671  0.6351 -0.7322 -0.3844
   79TCq2    C7 1210   3.301   0.032   1.642  0.3541 -0.4084  0.1206
   79TCq2    C8 1211   3.496   0.169   1.592 -0.3825  0.0218 -0.0189
   79TCq2    O4 1212   3.574   0.249   1.643  0.3549 -0.2146 -0.0226
   79TCq2    C9 1213   3.317   0.157   2.029 -0.6417 -0.0308 -0.1701
   79TCq2    O5 1214   3.416   0.234   2.051  0.5091 -0.1360  0.5654
   79TCq2    O6 1215   3.248   0.095   2.115 -0.9261  0.1081  0.3741
   79TCq2    H2 1216   3.184   4.683   1.952  1.9198 -0.7344  0.0549
   79TCq2    H3 1217   3.450   0.261   1.825 -1.1925  0.5033 -1.5932
   79TCq2    H4 1218   3.308   4.713   1.542 -1.6290 -0.8437  0.1508
   80MPD2     C 1219   1.704   4.488  12.858 -0.3116 -0.9055 -0.3474
   80MPD2    C1 1220   1.652   4.489  12.732 -0.1964  1.4937 -0.1644
   80MPD2    C2 1221   1.514   4.509  12.706 -0.2907  0.1571  0.4914
   80MPD2    C3 1222   1.434   4.545  12.813 -0.3441 -0.4896  0.0375
   80MPD2    C4 1223   1.489   4.542  12.939 -0.1381 -0.0090  0.1265
   80MPD2    C5 1224   1.620   4.512  12.964  0.5025  0.3161  0.0516
   80MPD2     H 1225   1.481   4.513  12.603  0.7592  0.1062  0.1529
   80MPD2    H1 1226   1.424   4.552  13.024  0.1181 -0.2539  0.3511
   80MPD2    H2 1227   1.806   4.454  12.876 -0.1607 -0.4537 -0.3423
   80MPD2    H3 1228   1.656   4.488  13.064 -0.4059  0.2268  0.3588
   80MPD2     N 1229   1.297   4.584  12.800  0.0983  0.2352 -0.4536
   80MPD2    H5 1230   1.255   4.621  12.885  0.3129  0.4785 -0.4540
   80MPD2    N1 1231   1.732   4.469  12.615 -0.3672  0.2409  0.1173
   80MPD2    H7 1232   1.680   4.459  12.529 -0.6380 -1.5074  0.4871
   81TCq2    C1 1233   1.863   4.424  12.605 -0.0866 -0.0546 -0.3925
   81TCq2    O2 1234   1.955   4.457  12.678  0.1711 -0.0209 -0.7350
   81TCq2    C2 1235   1.888   4.381  12.468  0.0686  0.6798  1.0644
   81TCq2    C3 1236   2.023   4.369  12.442 -0.7855 -0.5999  0.3366
   81TCq2    C4 1237   2.065   4.318  12.322 -0.0599  0.0702  0.0442
   81TCq2    C5 1238   1.973   4.281  12.225  0.0493 -0.1846 -0.3017
   81TCq2    C6 1239   1.841   4.279  12.262  0.3630  0.6054 -0.7591
   81TCq2    C7 1240   1.796   4.340  12.380  0.7641 -1.1053  0.2692
   81TCq2    C8 1241   1.743   4.239  12.162  0.9293  0.1718 -0.4137
   81TCq2    O4 1242   1.781   4.205  12.052 -0.0981  0.2752  0.0729
   81TCq2    C9 1243   2.204   4.301  12.294 -0.0655 -0.0129  0.5596
   81TCq2    O5 1244   2.282   4.371  12.364 -0.3365 -0.1470  0.0975
   81TCq2    O6 1245   2.237   4.243  12.184 -0.3528 -0.1579 -0.1156
   81TCq2    H2 1246   2.095   4.416  12.508 -0.0697 -1.0877 -0.1078
   81TCq2    H3 1247   2.013   4.243  12.132  0.3716  0.1293 -0.2902
   81TCq2    H4 1248   1.693   4.362  12.401  0.5124 -1.0239 -1.0509
   82MPD2     C 1249   4.157   4.629  10.328  1.0406  0.5821 -0.2996
   82MPD2    C1 1250   4.052   4.540  10.343 -0.1231 -0.5380 -0.1610
   82MPD2    C2 1251   4.047   4.464  10.465  0.1524  0.0541 -0.4718
   82MPD2    C3 1252   4.138   4.484  10.565  0.4733 -0.1820 -0.0656
   82MPD2    C4 1253   4.254   4.564  10.541 -0.1601  0.0620 -0.1234
   82MPD2    C5 1254   4.258   4.645  10.428 -0.3352  0.2829  0.5269
   82MPD2     H 1255   3.961   4.403  10.488 -0.4228  0.9738 -0.1712
   82MPD2    H1 1256   4.330   4.572  10.618 -1.2217 -1.2104  1.0525
   82MPD2    H2 1257   4.161   4.688  10.237  0.9226  2.0419  0.6361
   82MPD2    H3 1258   4.328   0.005  10.412  1.0115 -1.1501 -0.8884
   82MPD2     N 1259   4.122   4.432  10.698 -0.3212 -0.5942  0.2711
   82MPD2    H5 1260   4.184   4.467  10.771 -0.0823 -0.4687  0.0067
   82MPD2    N1 1261   3.960   4.544  10.243  0.4738 -0.5466 -0.1692
   82MPD2    H7 1262   3.972   4.623  10.181 -1.3899 -0.7272 -0.7767
   83TCq2    C1 1263   4.038   4.328  10.723  0.3983 -0.3551  0.1624
   83TCq2    O2 1264   3.977   4.250  10.651 -0.7164  0.1389  0.2254
   83TCq2    C2 1265   4.066   4.270  10.852  0.0122 -0.2880  0.3685
   83TCq2    C3 1266   4.108   4.346  10.958  0.6357  0.3613  0.0612
   83TCq2    C4 1267   4.083   4.302  11.087  0.0262 -0.3915 -0.0528
   83TCq2    C5 1268   4.046   4.168  11.109  0.6695  0.0809 -0.0995
   83TCq2    C6 1269   4.008   4.088  11.005 -0.9831 -0.1046  0.7237
   83TCq2    C7 1270   4.020   4.138  10.877  0.5805 -0.0072 -1.2546
   83TCq2    C8 1271   3.955   3.953  11.041 -0.8059  0.3924  0.0889
   83TCq2    O4 1272   3.915   3.937  11.157 -0.5540 -0.3005 -0.5940
   83TCq2    C9 1273   4.102   4.391  11.199 -0.0214  0.2923 -0.3975
   83TCq2    O5 1274   4.072   4.365  11.316  0.4942 -0.6686 -0.0969
   83TCq2    O6 1275   4.133   4.506  11.163  0.0598 -0.0174  0.0420
   83TCq2    H2 1276   4.146   4.446  10.942  1.6874  0.0424  0.4978
   83TCq2    H3 1277   4.037   4.135  11.212 -1.0428  1.1374  0.0986
   83TCq2    H4 1278   3.990   4.077  10.793  0.7368 -0.5558 -0.9123
   84TCq2    C1 1279   0.944   3.078  10.417 -0.2045 -0.0038  0.0827
   84TCq2    O2 1280   0.880   3.142  10.335 -0.0407  0.4288 -0.6123
   84TCq2    C2 1281   0.873   3.018  10.537  0.5201  0.0923 -0.1568
   84TCq2    C3 1282   0.920   2.896  10.581  0.1556 -0.0426 -0.5003
   84TCq2    C4 1283   0.833   2.825  10.662  0.1073  0.5661 -0.2875
   84TCq2    C5 1284   0.710   2.875  10.684  0.1228  0.1989 -0.4604
   84TCq2    C6 1285   0.661   2.992  10.632  0.1696  0.9947 -0.4138
   84TCq2    C7 1286   0.744   3.066  10.560  0.2127  0.1102 -0.1873
   84TCq2    C8 1287   0.550   3.061  10.702 -0.2079 -0.0288 -0.5930
   84TCq2    O4 1288   0.551   3.184  10.702 -1.0821  0.1870 -0.0607
   84TCq2    C9 1289   0.860   2.693  10.707 -0.2363  0.0865  0.1683
   84TCq2    O5 1290   0.963   2.642  10.656  0.0431 -0.8418 -0.1620
   84TCq2    O6 1291   0.783   2.622  10.776 -0.5739 -0.5314 -0.0061
   84TCq2    H2 1292   1.022   2.858  10.578 -1.3587 -4.0573 -0.5751
   84TCq2    H3 1293   0.634   2.823  10.741 -0.7339 -1.3558 -3.0432
   84TCq2    H4 1294   0.707   3.160  10.519 -1.1314  0.5441  2.0358
   85MPD2     C 1295   1.793   0.481  16.596 -0.0671 -0.0568 -0.2628
   85MPD2    C1 1296   1.700   0.545  16.521  0.0198 -0.4033  0.4565
   85MPD2    C2 1297   1.720   0.679  16.498 -0.1742 -0.4660  0.1248
   85MPD2    C3 1298   1.829   0.749  16.545  0.6876 -0.6796  0.5414
   85MPD2    C4 1299   1.927   0.676  16.604 -0.2806  0.3009 -1.1948
   85MPD2    C5 1300   1.904   0.546  16.641  0.6898 -0.1219  0.0962
   85MPD2     H 1301   1.649   0.720  16.427 -0.9057 -1.6752  0.1702
   85MPD2    H1 1302   2.024   0.712  16.634  0.1194  0.1123 -2.2607
   85MPD2    H2 1303   1.788   0.373  16.609  2.3050 -0.2937 -1.3893
   85MPD2    H3 1304   1.980   0.492  16.695  0.3157 -1.1969 -0.4515
   85MPD2     N 1305   1.844   0.889  16.519  0.6193 -0.2180 -0.4335
   85MPD2    H5 1306   1.770   0.936  16.468 -1.8773 -0.1017  3.2957
   85MPD2    N1 1307   1.578   0.489  16.468 -0.2446  0.1757 -0.3211
   85MPD2    H7 1308   1.519   0.554  16.416 -1.4919 -2.5579 -2.3153
   86TCq2    C1 1309   1.946   0.963  16.562  0.6066 -0.5505  0.7736
   86TCq2    O2 1310   2.031   0.948  16.651  0.1847 -0.4088 -0.4797
   86TCq2    C2 1311   1.931   1.092  16.503 -0.0162 -0.0184 -0.4383
   86TCq2    C3 1312   1.959   1.196  16.587 -0.1406  0.1835 -0.3587
   86TCq2    C4 1313   1.928   1.322  16.549  0.0307  0.2588 -0.3871
   86TCq2    C5 1314   1.867   1.348  16.431  0.3196  0.3879  0.0456
   86TCq2    C6 1315   1.840   1.237  16.357  0.2558 -0.1329 -0.0063
   86TCq2    C7 1316   1.866   1.108  16.386 -0.0329  0.2117  0.4438
   86TCq2    C8 1317   1.806   1.258  16.224  0.6325 -0.1351  0.0381
   86TCq2    O4 1318   1.862   1.189  16.145 -0.0009 -0.5816 -0.0512
   86TCq2    C9 1319   1.944   1.424  16.650  0.5376 -0.2857  0.3759
   86TCq2    O5 1320   1.903   1.536  16.620  0.4388 -1.0943 -0.0491
   86TCq2    O6 1321   2.020   1.399  16.747 -0.1665  0.4023  0.0179
   86TCq2    H2 1322   2.006   1.180  16.683 -1.2033 -0.8653 -0.0041
   86TCq2    H3 1323   1.842   1.448  16.398 -0.3400  0.3348  0.3715
   86TCq2    H4 1324   1.868   1.032  16.309  1.5463  0.9270 -0.2231
   87MPD2     C 1325   3.125   4.368   1.303  0.5207 -0.1918 -0.4395
   87MPD2    C1 1326   3.145   4.360   1.173  0.5204 -0.5260  0.2180
   87MPD2    C2 1327   3.185   4.476   1.104  0.2194  0.2051 -0.1469
   87MPD2    C3 1328   3.181   4.602   1.160  0.4539 -0.0536  0.1815
   87MPD2    C4 1329   3.161   4.607   1.296 -0.0271  0.2166 -0.1684
   87MPD2    C5 1330   3.135   4.490   1.364  0.3250  0.2382  0.1578
   87MPD2     H 1331   3.210   4.471   0.999  0.9704  1.1091 -0.0124
   87MPD2    H1 1332   3.160   4.702   1.348 -0.8964  0.3525 -0.4325
   87MPD2    H2 1333   3.101   4.281   1.364 -1.4934  1.8874  1.7279
   87MPD2    H3 1334   3.128   4.497   1.472  0.2058  0.1900  0.1533
   87MPD2     N 1335   3.195   4.718   1.076  0.0840  0.3377  0.5588
   87MPD2    H5 1336   3.223   4.703   0.979  1.3527 -0.8682  1.0975
   87MPD2    N1 1337   3.142   4.236   1.109 -0.9589 -0.0325  0.0566
   87MPD2    H7 1338   3.122   4.164   1.178 -1.0541 -0.0056  0.0577
   88TCq2    C1 1339   3.148   4.207   0.978  0.4989 -0.1839 -0.1554
   88TCq2    O2 1340   3.164   4.292   0.892 -0.5972 -0.1531  0.2475
   88TCq2    C2 1341   3.154   4.065   0.951 -0.3090  0.4344 -1.4139
   88TCq2    C3 1342   3.124   3.975   1.051 -0.0535  0.5841 -0.5885
   88TCq2    C4 1343   3.189   3.854   1.045 -0.6551  0.4843  0.3009
   88TCq2    C5 1344   3.257   3.812   0.929 -0.3389 -0.2555  0.2613
   88TCq2    C6 1345   3.274   3.897   0.830  0.2035  0.1453 -0.4117
   88TCq2    C7 1346   3.230   4.030   0.841 -0.0032 -0.0201 -0.4493
   88TCq2    C8 1347   3.351   3.855   0.712  0.0097  0.5214 -0.1838
   88TCq2    O4 1348   3.365   3.733   0.693 -0.2364  0.8742 -0.6268
   88TCq2    C9 1349   3.143   3.752   1.140 -0.5549  0.1938 -0.4926
   88TCq2    O5 1350   3.039   3.777   1.205 -0.2257 -0.1516  0.4180
   88TCq2    O6 1351   3.199   3.641   1.139 -0.6032 -0.2355 -0.2272
   88TCq2    H2 1352   3.060   4.012   1.131 -2.5506 -0.1814 -2.2051
   88TCq2    H3 1353   3.292   3.709   0.926  2.1294  0.5614  0.6559
   88TCq2    H4 1354   3.240   4.097   0.756  0.2691  0.4049 -0.0858
   89MPD2     C 1355   0.047   2.560   1.653 -0.3876 -0.3367  0.1336
   89MPD2    C1 1356   4.668   2.652   1.628 -0.8500  0.8096 -0.3276
   89MPD2    C2 1357   4.699   2.791   1.618 -0.2640  0.9700  0.6843
   89MPD2    C3 1358   0.103   2.835   1.656  0.0081 -0.9827 -0.0951
   89MPD2    C4 1359   0.201   2.745   1.698 -0.0307 -0.1438 -0.6128
   89MPD2    C5 1360   0.175   2.612   1.685 -0.5286  0.2953 -0.1804
   89MPD2     H 1361   4.620   2.861   1.593 -1.1727 -0.2690  0.1216
   89MPD2    H1 1362   0.298   2.781   1.731  0.1866 -0.4250 -0.9475
   89MPD2    H2 1363   0.026   2.454   1.649 -1.8547 -0.1048  1.2378
   89MPD2    H3 1364   0.243   2.534   1.717  0.4059  0.4951 -1.6689
   89MPD2     N 1365   0.131   2.977   1.657 -0.0369 -0.7264  0.6532
   89MPD2    H5 1366   0.049   3.031   1.631 -0.0462 -0.5774  0.9886
   89MPD2    N1 1367   4.533   2.617   1.605  0.1844 -0.0329  0.3275
   89MPD2    H7 1368   4.475   2.695   1.574  1.2812  0.4310 -0.5757
   90TCq2    C1 1369   0.241   3.048   1.695 -0.3553  0.1359  0.6256
   90TCq2    O2 1370   0.357   3.011   1.716 -0.0725  0.8943  0.3639
   90TCq2    C2 1371   0.206   3.198   1.700  0.1650 -0.7970  0.0027
   90TCq2    C3 1372   0.078   3.242   1.714  0.0099 -0.6113  0.8103
   90TCq2    C4 1373   0.058   3.375   1.744 -0.0069  1.1119  0.2994
   90TCq2    C5 1374   0.162   3.467   1.740  0.5679  0.5129 -0.0721
   90TCq2    C6 1375   0.287   3.424   1.722 -0.9039  0.1613  0.5260
   90TCq2    C7 1376   0.310   3.295   1.691 -0.1859  0.3268 -0.3218
   90TCq2    C8 1377   0.393   3.521   1.732  0.1999 -0.3206  0.0795
   90TCq2    O4 1378   0.376   3.620   1.804  0.2927 -0.3659  0.1357
   90TCq2    C9 1379   4.651   3.420   1.800  0.6164 -0.4444  0.4518
   90TCq2    O5 1380   4.650   3.540   1.836 -0.1536 -0.0764  0.4875
   90TCq2    O6 1381   4.553   3.337   1.801 -0.4577 -0.1106  0.6553
   90TCq2    H2 1382   4.720   3.170   1.729  1.6689 -2.2917  1.4754
   90TCq2    H3 1383   0.153   3.570   1.770  0.7381  0.5580 -0.1741
   90TCq2    H4 1384   0.407   3.246   1.697  0.1051  0.9038 -0.3406
   91TMC2    C1 1385   1.795   2.363  17.038  0.2812 -0.1431 -0.3589
   91TMC2    C2 1386   1.706   2.325  17.141 -0.1445  0.2109 -0.4471
   91TMC2    C3 1387   1.579   2.367  17.126 -0.2548  0.6436 -0.3994
   91TMC2    C4 1388   1.752   2.444  16.938  0.3266  0.7550 -0.3312
   91TMC2    C5 1389   1.618   2.474  16.926 -0.1488 -0.2204 -0.3964
   91TMC2    C6 1390   1.524   2.434  17.021 -0.9398  0.1572 -0.7856
   91TMC2     C 1391   1.925   2.303  17.046 -0.4879  0.1362 -0.3752
   91TMC2     O 1392   1.957   2.242  17.149  0.0478  0.3183  0.1863
   91TMC2     H 1393   1.726   2.254  17.221  4.3330 -0.0203 -1.8071
   91TMC2    H1 1394   1.823   2.465  16.860 -0.2707 -1.8644 -1.6004
   91TMC2    H2 1395   1.422   2.472  17.022 -0.8578  0.3258  1.0894
   91TMC2    C7 1396   1.578   2.510  16.794  0.9815  0.2095  0.0065
   91TMC2    C8 1397   1.484   2.298  17.205 -0.5115  0.0283  0.3289
   91TMC2    O1 1398   1.667   2.560  16.723  0.4582 -0.4496  0.0841
   91TMC2    O2 1399   1.366   2.292  17.171 -0.0957  0.2688  0.3108
   91TMC2    O5 1400   1.518   2.336  17.335 -0.5164  0.0611  0.2234
   91TMC2    H5 1401   1.615   2.355  17.338 -0.3265 -0.7617 -0.8420
   92MPD2     C 1402   2.207   2.219  17.009 -0.0635 -0.4740 -0.0353
   92MPD2    C1 1403   2.124   2.266  16.910  0.5354  0.3253  0.0468
   92MPD2    C2 1404   2.184   2.299  16.793  0.5012 -0.6059 -0.5854
   92MPD2    C3 1405   2.310   2.263  16.760  0.1600  0.6741 -0.8452
   92MPD2    C4 1406   2.393   2.212  16.850  0.1139  0.1665  0.3321
   92MPD2    C5 1407   2.339   2.191  16.977  0.0540 -0.3103  0.4921
   92MPD2     H 1408   2.117   2.345  16.721 -0.2571  0.5931  0.9085
   92MPD2    H1 1409   2.497   2.189  16.827 -1.1575  0.2263 -5.6632
   92MPD2    H2 1410   2.175   2.182  17.106  0.3255 -1.8195 -0.4237
   92MPD2    H3 1411   2.414   2.148  17.042  1.0889 -3.2379 -2.5943
   92MPD2     N 1412   2.348   2.288  16.625  0.3237  0.5244  1.1492
   92MPD2    H5 1413   2.284   2.348  16.572 -0.2849  0.3497  1.6861
   92MPD2    N1 1414   1.995   2.302  16.925 -0.3302  0.4200  0.2887
   92MPD2    H7 1415   1.956   2.347  16.842  0.5585 -0.8654 -0.8140
   93MPD2     C 1416   2.589   1.835  14.053  0.1607 -0.2401  0.5076
   93MPD2    C1 1417   2.604   1.964  14.013  0.1988  0.1365 -0.0231
   93MPD2    C2 1418   2.500   2.036  13.956  0.1411  0.2020  1.1520
   93MPD2    C3 1419   2.383   1.970  13.937 -0.0207 -0.3011 -0.0800
   93MPD2    C4 1420   2.371   1.837  13.970 -0.3831  0.6012  0.0077
   93MPD2    C5 1421   2.472   1.766  14.031  0.2965 -0.6596 -0.0517
   93MPD2     H 1422   2.528   2.128  13.905 -0.4863 -0.1274  0.2093
   93MPD2    H1 1423   2.284   1.775  13.950  1.2784 -0.8572 -2.6487
   93MPD2    H2 1424   2.669   1.779  14.100  1.8191  0.4623 -1.4942
   93MPD2    H3 1425   2.458   1.660  14.054  0.3798 -0.6863 -0.1240
   93MPD2     N 1426   2.279   2.034  13.869 -0.5538 -0.0929 -0.7186
   93MPD2    H5 1427   2.302   2.132  13.852 -2.1497  0.7016  1.8071
   93MPD2    N1 1428   2.712   2.047  14.057  0.1089 -0.1390  0.2425
   93MPD2    H7 1429   2.687   2.146  14.061 -1.5050 -0.4833 -1.1554
   94TCq2    C1 1430   2.818   2.002  14.122 -0.0954  0.4234 -0.2116
   94TCq2    O2 1431   2.863   1.889  14.119 -0.3300  0.2417 -0.2694
   94TCq2    C2 1432   2.901   2.107  14.176 -0.4153 -0.0125 -0.2468
   94TCq2    C3 1433   2.842   2.191  14.269  0.9624 -0.5752  0.1205
   94TCq2    C4 1434   2.916   2.294  14.314  0.6528 -0.7342 -0.1451
   94TCq2    C5 1435   3.038   2.321  14.261 -0.0772  0.4197  0.1299
   94TCq2    C6 1436   3.096   2.232  14.173 -0.8305 -0.4411  0.1018
   94TCq2    C7 1437   3.029   2.119  14.137 -0.5273  0.7602 -0.2834
   94TCq2    C8 1438   3.227   2.259  14.125  0.0856 -0.2937  0.0977
   94TCq2    O4 1439   3.287   2.167  14.073 -0.1522 -0.0998 -0.8390
   94TCq2    C9 1440   2.864   2.382  14.414 -0.2465  0.6249  0.7765
   94TCq2    O5 1441   2.784   2.337  14.499 -0.3072  0.3398 -0.7825
   94TCq2    O6 1442   2.908   2.500  14.401 -0.0590  0.1251 -0.5053
   94TCq2    H2 1443   2.736   2.186  14.293  0.8766 -1.8038 -0.5095
   94TCq2    H3 1444   3.094   2.405  14.302  0.2414 -0.4726  1.5085
   94TCq2    H4 1445   3.075   2.060  14.058  1.6153 -0.5723  1.9585
   95TMC2    C1 1446   2.712   3.831  15.976  0.6066 -0.2107 -0.2793
   95TMC2    C2 1447   2.617   3.737  16.014 -0.1906 -0.2715  0.4170
   95TMC2    C3 1448   2.603   3.715  16.144  0.5893 -0.5393  0.1609
   95TMC2    C4 1449   2.805   3.885  16.060 -0.6513 -0.2759  0.4444
   95TMC2    C5 1450   2.787   3.867  16.194 -0.6551 -0.7378  0.3911
   95TMC2    C6 1451   2.682   3.782  16.239  0.0411  0.8200  0.0701
   95TMC2     C 1452   2.732   3.877  15.840 -0.5460 -0.6790  1.0381
   95TMC2     O 1453   2.797   3.978  15.820 -0.0987  0.0035 -1.0659
   95TMC2     H 1454   2.546   3.692  15.946  0.7770  0.1879 -0.8971
   95TMC2    H1 1455   2.887   3.947  16.024 -1.0207  1.0359  1.8854
   95TMC2    H2 1456   2.664   3.772  16.345 -0.8189 -2.8134 -0.4396
   95TMC2    C7 1457   2.892   3.919  16.278 -0.1212 -0.4348  0.2944
   95TMC2    C8 1458   2.493   3.622  16.183 -0.0284  0.0286 -0.8030
   95TMC2    O1 1459   2.954   4.011  16.225  0.1347  0.2961 -0.4738
   95TMC2    O2 1460   2.401   3.581  16.108 -0.3264  0.7482  0.1581
   95TMC2    O5 1461   2.511   3.591  16.314 -0.0159 -0.2910 -0.1079
   95TMC2    H5 1462   2.595   3.631  16.344 -1.7913  2.3712  1.3027
   96MPD2     C 1463   2.692   3.832  15.333 -0.1266 -0.1558 -0.1432
   96MPD2    C1 1464   2.736   3.937  15.417  0.7377  0.3116  0.1899
   96MPD2    C2 1465   2.727   3.916  15.553 -0.3473 -0.4768  0.3609
   96MPD2    C3 1466   2.681   3.802  15.618 -1.0668  0.2746 -0.5389
   96MPD2    C4 1467   2.626   3.707  15.532 -0.1592  0.0583  0.3510
   96MPD2    C5 1468   2.636   3.726  15.396  0.0295 -0.5681 -0.1368
   96MPD2     H 1469   2.775   3.996  15.608 -0.8621  2.2518 -3.1395
   96MPD2    H1 1470   2.573   3.619  15.568 -1.8306  1.2998  0.8930
   96MPD2    H2 1471   2.713   3.829  15.227  1.1797 -0.6273  0.1280
   96MPD2    H3 1472   2.597   3.648  15.332  1.9789 -2.9263  1.5706
   96MPD2     N 1473   2.675   3.790  15.756  0.3655 -0.2447  0.3065
   96MPD2    H5 1474   2.634   3.708  15.800 -3.4971  1.2694 -0.4766
   96MPD2    N1 1475   2.797   4.046  15.354 -0.7546 -0.0507  0.0198
   96MPD2    H7 1476   2.796   4.040  15.252 -2.3109 -1.2823  0.1122
   97MPD2     C 1477   0.337   1.372   0.729 -0.3658 -0.1252 -0.2807
   97MPD2    C1 1478   0.299   1.499   0.752 -0.0092 -0.5147  0.7072
   97MPD2    C2 1479   0.301   1.583   0.648 -0.4826 -0.3041 -0.3192
   97MPD2    C3 1480   0.338   1.534   0.518  0.3743  0.8867  0.0366
   97MPD2    C4 1481   0.372   1.401   0.500  0.3931 -0.5928  0.1663
   97MPD2    C5 1482   0.363   1.314   0.607 -0.3595 -0.5967  0.4174
   97MPD2     H 1483   0.291   1.690   0.665 -1.2232 -0.2974 -0.8062
   97MPD2    H1 1484   0.394   1.360   0.402  1.1497 -0.4121  0.2589
   97MPD2    H2 1485   0.324   1.303   0.812  1.9469 -1.6671 -1.1696
   97MPD2    H3 1486   0.383   1.209   0.588  1.5761 -0.0511 -0.5374
   97MPD2     N 1487   0.354   1.614   0.404 -0.0484 -0.2233 -1.0418
   97MPD2    H5 1488   0.391   1.571   0.319  0.1883 -0.8166 -0.6357
   97MPD2    N1 1489   0.285   1.539   0.887  0.1236  0.0352 -0.1073
   97MPD2    H7 1490   0.304   1.466   0.955 -0.4708  0.2444  0.2822
   98TCq2    C1 1491   0.328   1.751   0.393 -0.3012 -1.2138 -0.0087
   98TCq2    O2 1492   0.267   1.826   0.469 -0.1381  0.6030 -0.3248
   98TCq2    C2 1493   0.384   1.797   0.271  0.5843 -0.4945 -0.3208
   98TCq2    C3 1494   0.358   1.742   0.153  0.2183  0.6256  0.2185
   98TCq2    C4 1495   0.438   1.773   0.049 -0.2218 -0.1891 -0.3175
   98TCq2    C5 1496   0.524   1.881   0.054 -0.9339 -0.2765  0.4881
   98TCq2    C6 1497   0.529   1.953   0.172  0.3839 -0.5012 -0.6087
   98TCq2    C7 1498   0.454   1.914   0.283 -0.0913  1.2199 -0.1027
   98TCq2    C8 1499   0.641   2.042   0.199 -0.0095 -0.3332 -0.6002
   98TCq2    O4 1500   0.708   2.029   0.303  0.0081 -0.1556 -0.4424
   98TCq2    C9 1501   0.418   1.701  17.613 -0.7345  0.2411 -0.5993
   98TCq2    O5 1502   0.488   1.730  17.511  0.0396  1.0927 -0.3402
   98TCq2    O6 1503   0.350   1.591  17.626 -0.2402 -0.0140  0.3454
   98TCq2    H2 1504   0.272   1.679   0.135 -0.8677  1.9585  0.7022
   98TCq2    H3 1505   0.580   1.909  17.653  1.5621 -0.3100  2.0665
   98TCq2    H4 1506   0.472   1.958   0.381 -1.5542 -0.5359  0.9663
   99MPD2     C 1507   3.866   4.040   1.368  0.5079  0.2312  0.2512
   99MPD2    C1 1508   3.964   4.073   1.462  0.6334  0.9837 -0.4195
   99MPD2    C2 1509   4.099   4.054   1.428  0.4258  0.3650 -0.3147
   99MPD2    C3 1510   4.134   4.002   1.306  0.3205 -0.1168  0.7089
   99MPD2    C4 1511   4.031   3.973   1.214  0.2472  0.2339  0.1781
   99MPD2    C5 1512   3.902   3.989   1.247  0.1686  0.4640 -0.4902
   99MPD2     H 1513   4.168   4.091   1.502  0.3927 -3.3663  1.5989
   99MPD2    H1 1514   4.042   3.935   1.113  0.7204  1.8178 -0.3636
   99MPD2    H2 1515   3.762   4.030   1.395  0.6743  0.8304  1.1508
   99MPD2    H3 1516   3.828   3.964   1.172 -0.7825 -1.3956  1.0632
   99MPD2     N 1517   4.272   3.980   1.281 -0.0721 -0.2943  0.6644
   99MPD2    H5 1518   4.341   4.015   1.347 -1.0541 -1.9063  2.5579
   99MPD2    N1 1519   3.934   4.121   1.593 -0.9317  0.2943  0.4110
   99MPD2    H7 1520   4.016   4.134   1.652 -0.3781  0.2056 -0.3267
  100TCq2    C1 1521   3.813   4.152   1.643 -0.2221  0.1971  0.0461
  100TCq2    O2 1522   3.702   4.122   1.600  1.0708  0.1091  0.5993
  100TCq2    C2 1523   3.813   4.203   1.776  0.0321  0.4369  0.3025
  100TCq2    C3 1524   3.906   4.288   1.818 -0.1010  0.8710 -0.3220
  100TCq2    C4 1525   3.898   4.345   1.944 -0.0454 -0.4067 -0.8506
  100TCq2    C5 1526   3.812   4.298   2.037 -0.4654  0.3055  0.3212
  100TCq2    C6 1527   3.707   4.219   1.992 -0.2622  0.2478 -0.4755
  100TCq2    C7 1528   3.713   4.167   1.863  0.1347 -0.5604 -0.1999
  100TCq2    C8 1529   3.644   4.136   2.092  0.1923  0.8761 -0.4652
  100TCq2    O4 1530   3.695   4.129   2.206 -0.6717 -1.3132 -0.5152
  100TCq2    C9 1531   4.011   4.414   1.992 -0.4259 -0.1205 -0.4238
  100TCq2    O5 1532   4.115   4.407   1.919  0.1206  0.2062 -0.1054
  100TCq2    O6 1533   4.009   4.455   2.117  0.0554  0.0507 -0.3145
  100TCq2    H2 1534   3.976   4.324   1.744  0.4596  1.1928  0.3590
  100TCq2    H3 1535   3.817   4.334   2.139 -2.0084  1.1690  0.1002
  100TCq2    H4 1536   3.640   4.095   1.829  0.4622  0.0544 -2.1702
  101MPD2     C 1537   0.308   4.685  13.288 -0.2547 -0.1158  0.4440
  101MPD2    C1 1538   0.173   4.696  13.263 -0.4239  0.3968  0.4874
  101MPD2    C2 1539   0.082   4.659  13.362 -0.3373 -0.1124  0.8668
  101MPD2    C3 1540   0.123   4.592  13.473  0.1703 -0.5137  0.0091
  101MPD2    C4 1541   0.260   4.583  13.497 -0.1177 -0.7347  0.0750
  101MPD2    C5 1542   0.353   4.628  13.403  0.1655 -0.3190 -0.2154
  101MPD2     H 1543   4.696   4.662  13.345 -0.2388  0.6172  0.3539
  101MPD2    H1 1544   0.293   4.528  13.585  0.4339 -0.1404  0.2432
  101MPD2    H2 1545   0.379   4.717  13.212 -1.7901 -1.2504 -1.4691
  101MPD2    H3 1546   0.457   4.614  13.429 -0.0038 -1.4799 -0.1632
  101MPD2     N 1547   0.020   4.550  13.566 -0.4237  0.1242 -0.6249
  101MPD2    H5 1548   4.647   4.555  13.529 -1.1906 -1.3641  1.1123
  101MPD2    N1 1549   0.140   0.026  13.132  0.1117 -0.4843 -0.7853
  101MPD2    H7 1550   0.218   0.048  13.071  1.1196  0.1553  0.7247
  102TCq2    C1 1551   0.233   0.229  12.693  0.2138  0.2348  0.1756
  102TCq2    O2 1552   0.342   0.177  12.724 -0.2215 -0.1883  0.1881
  102TCq2    C2 1553   0.113   0.216  12.778  0.2526 -0.5885  0.6704
  102TCq2    C3 1554   0.022   0.321  12.778 -0.0414  0.1605 -1.1653
  102TCq2    C4 1555   4.643   0.314  12.866 -0.3339 -0.3356  0.4381
  102TCq2    C5 1556   4.627   0.207  12.944  0.5756  0.7080  0.3532
  102TCq2    C6 1557   0.009   0.122  12.956 -0.2415 -0.3491  0.1741
  102TCq2    C7 1558   0.114   0.116  12.872 -0.1918 -0.4551  0.4669
  102TCq2    C8 1559   0.014   0.042  13.080  0.4002 -0.3544 -0.6110
  102TCq2    O4 1560   4.628   0.028  13.130  0.2589 -0.1583  0.2767
  102TCq2    C9 1561   4.552   0.424  12.880  0.5602  0.0700  0.6629
  102TCq2    O5 1562   4.589   0.532  12.820 -0.1521 -0.3975  0.7813
  102TCq2    O6 1563   4.465   0.417  12.971  0.3989  0.0012 -0.6194
  102TCq2    H2 1564   0.031   0.391  12.696  0.9984 -0.3773 -1.5088
  102TCq2    H3 1565   4.552   0.221  13.022  0.0580 -1.0798  0.1906
  102TCq2    H4 1566   0.176   0.027  12.874  1.1032  0.3885 -2.7182
  103TMC2    C1 1567   2.604   0.844  12.641 -0.0420 -0.4241 -0.2675
  103TMC2    C2 1568   2.719   0.787  12.599 -0.3006  0.3412  0.4092
  103TMC2    C3 1569   2.773   0.693  12.682  0.6687 -0.8059  0.8004
  103TMC2    C4 1570   2.537   0.799  12.754 -0.0355  0.4425  0.1978
  103TMC2    C5 1571   2.577   0.683  12.811 -0.5234 -0.3862  0.1873
  103TMC2    C6 1572   2.699   0.634  12.783 -0.5194 -0.0372  0.2832
  103TMC2     C 1573   2.515   0.907  12.547  0.2479  0.1842 -0.4345
  103TMC2     O 1574   2.397   0.911  12.578  0.3363  0.0629  0.1750
  103TMC2     H 1575   2.758   0.816  12.502  3.3111 -0.4847  1.6249
  103TMC2    H1 1576   2.452   0.853  12.794  1.3821  1.8916  1.2402
  103TMC2    H2 1577   2.745   0.555  12.841 -1.9279 -1.0827 -0.0291
  103TMC2    C7 1578   2.511   0.630  12.930  0.2263 -0.0945 -0.4414
  103TMC2    C8 1579   2.873   0.607  12.627  0.0210  0.0751  0.1390
  103TMC2    O1 1580   2.584   0.559  13.000 -0.3272 -0.2552  0.3194
  103TMC2    O2 1581   2.847   0.491  12.586 -0.1461 -0.1045 -0.1878
  103TMC2    O5 1582   2.965   0.690  12.572  0.4764  0.9061  0.7125
  103TMC2    H5 1583   2.970   0.773  12.624  0.0139  1.3234  0.1008
  104MPD2     C 1584   2.554   1.104  12.245  0.6227 -0.2448  1.0467
  104MPD2    C1 1585   2.491   1.020  12.328 -0.6816 -0.4069  0.0486
  104MPD2    C2 1586   2.354   0.996  12.307 -0.1044 -0.4787  0.5047
  104MPD2    C3 1587   2.281   1.068  12.212 -0.4617 -0.0834 -0.1767
  104MPD2    C4 1588   2.348   1.157  12.128 -0.0408 -0.5854  0.3794
  104MPD2    C5 1589   2.489   1.171  12.152 -0.7601  0.3236  0.4529
  104MPD2     H 1590   2.298   0.925  12.367  2.1926  0.1869  3.4819
  104MPD2    H1 1591   2.310   1.203  12.037 -1.0615 -0.7649  0.7152
  104MPD2    H2 1592   2.658   1.127  12.265  0.7886 -1.1141  1.1707
  104MPD2    H3 1593   2.545   1.238  12.089  0.5008 -0.9232  0.2575
  104MPD2     N 1594   2.145   1.031  12.201  0.5231 -0.2497  0.1861
  104MPD2    H5 1595   2.111   0.962  12.267  1.2929 -0.4072  0.4263
  104MPD2    N1 1596   2.568   0.959  12.430  0.0503  0.4033 -0.1399
  104MPD2    H7 1597   2.667   0.976  12.416  0.1159  0.4040  0.3155
  105MPD2     C 1598   4.520   3.462  17.501 -0.6005 -0.4308  0.1959
  105MPD2    C1 1599   4.440   3.573  17.508  0.5484  0.7232 -0.7375
  105MPD2    C2 1600   4.348   3.574  17.616  0.7365 -0.1498 -0.0639
  105MPD2    C3 1601   4.321   3.458  17.685 -0.3002 -0.2942 -0.1369
  105MPD2    C4 1602   4.384   3.338  17.651 -0.4396  0.4685  0.1384
  105MPD2    C5 1603   4.488   3.349  17.559  0.6731 -0.5737  0.0329
  105MPD2     H 1604   4.298   3.666  17.641 -0.9451 -0.5417 -2.0200
  105MPD2    H1 1605   4.364   3.242   0.012  0.9867 -0.2661 -0.7293
  105MPD2    H2 1606   4.599   3.448  17.428 -0.6756 -0.2811  0.0837
  105MPD2    H3 1607   4.550   3.260  17.562 -1.3237 -1.9665  0.4198
  105MPD2     N 1608   4.223   3.458   0.098 -0.3163 -0.2109 -0.4050
  105MPD2    H5 1609   4.186   3.545   0.135 -1.7787 -1.5568  1.2892
  105MPD2    N1 1610   4.448   3.683  17.416  0.2407 -0.0475 -0.2463
  105MPD2    H7 1611   4.397   3.768  17.442  0.9147 -0.2848  1.8954
  106TCq2    C1 1612   4.165   3.346   0.159  0.3910  0.7384 -0.1955
  106TCq2    O2 1613   4.201   3.231   0.156 -0.0630 -0.1457 -0.1793
  106TCq2    C2 1614   4.046   3.384   0.236  0.1012  0.8983  0.4488
  106TCq2    C3 1615   4.019   3.304   0.342  0.2256 -0.2567 -0.2811
  106TCq2    C4 1616   3.919   3.344   0.428 -0.4991  0.3286  0.7199
  106TCq2    C5 1617   3.860   3.466   0.406  0.3651  0.3104  0.2264
  106TCq2    C6 1618   3.881   3.542   0.292  0.5515 -0.0896 -0.0568
  106TCq2    C7 1619   3.987   3.507   0.212 -0.2223  0.3397 -0.3439
  106TCq2    C8 1620   3.836   3.681   0.284  0.1113  0.1830  0.2670
  106TCq2    O4 1621   3.920   3.764   0.242  0.2038  0.3015  0.2935
  106TCq2    C9 1622   3.881   3.267   0.543 -0.1034  0.1805  0.1043
  106TCq2    O5 1623   3.831   3.329   0.641 -0.8212 -0.1147  0.0174
  106TCq2    O6 1624   3.907   3.141   0.539  0.0147  0.4711 -0.3991
  106TCq2    H2 1625   4.063   3.206   0.352  1.5893  0.5367  1.7634
  106TCq2    H3 1626   3.805   3.520   0.482  0.9660  1.4936 -0.1816
  106TCq2    H4 1627   3.999   3.567   0.123 -2.2542 -0.0676 -0.8821
  107TMC2    C1 1628   0.117   3.553  11.431  0.3208 -0.5106 -0.1516
  107TMC2    C2 1629   0.143   3.668  11.357  0.1164 -0.7737  0.2254
  107TMC2    C3 1630   0.157   3.643  11.221 -0.5945  0.3049 -0.4877
  107TMC2    C4 1631   0.109   3.430  11.372 -0.0100  0.1344 -0.0356
  107TMC2    C5 1632   0.129   3.414  11.239  0.5356 -0.1821  0.1374
  107TMC2    C6 1633   0.147   3.522  11.160 -0.0071 -0.6257 -0.0271
  107TMC2     C 1634   0.083   3.552  11.573  0.4005  0.1223  0.0378
  107TMC2     O 1635   0.006   3.461  11.612  0.3321 -0.4149 -0.2911
  107TMC2     H 1636   0.152   3.766  11.402 -0.6085 -0.6254  0.0519
  107TMC2    H1 1637   0.089   3.345  11.437 -0.1680 -0.3045 -0.6491
  107TMC2    H2 1638   0.151   3.507  11.053 -1.4696  0.7053 -0.2790
  107TMC2    C7 1639   0.130   3.281  11.175 -0.0948 -0.2730 -0.0208
  107TMC2    C8 1640   0.221   3.743  11.140 -0.7543  0.6655  0.1779
  107TMC2    O1 1641   0.085   3.189  11.240 -1.0998  0.4540  0.4762
  107TMC2    O2 1642   0.289   3.713  11.043 -0.8212  0.7148  0.0988
  107TMC2    O5 1643   0.180   3.871  11.173  0.1490  0.3544 -0.0410
  107TMC2    H5 1644   0.118   3.886  11.247  0.9414 -0.3776  0.7820
  108MPD2     C 1645   0.210   3.797  11.811  0.0068 -0.0838 -0.3616
  108MPD2    C1 1646   0.125   3.697  11.772  0.1549  0.7400 -0.2027
  108MPD2    C2 1647   0.036   3.642  11.863 -0.0055 -0.0016 -0.2480
  108MPD2    C3 1648   0.025   3.696  11.988  0.2081 -0.2759  0.4917
  108MPD2    C4 1649   0.125   3.781  12.026  0.9700  0.3433 -0.3393
  108MPD2    C5 1650   0.215   3.833  11.938  0.0784  0.3859 -0.4098
  108MPD2     H 1651   4.688   3.563  11.834  0.0739 -0.4009  0.6544
  108MPD2    H1 1652   0.127   3.815  12.129 -1.0088  0.8833 -0.4921
  108MPD2    H2 1653   0.272   3.846  11.738  0.9906  0.0120  0.5380
  108MPD2    H3 1654   0.290   3.903  11.972  0.3799 -0.2337  0.2132
  108MPD2     N 1655   4.659   3.653  12.090  0.0422  0.2208 -0.1224
  108MPD2    H5 1656   4.664   3.681  12.188  0.8218 -0.1417 -0.0562
  108MPD2    N1 1657   0.146   3.653  11.639 -0.2479 -0.0450  0.0210
  108MPD2    H7 1658   0.203   3.714  11.581 -1.3249  0.4377 -0.5355
  109MPD2     C 1659   4.277   0.554   1.948 -0.5931  0.2658 -0.1007
  109MPD2    C1 1660   4.367   0.545   1.843 -0.3214  0.1177  0.4219
  109MPD2    C2 1661   4.491   0.602   1.848 -0.2996  0.6309  0.0494
  109MPD2    C3 1662   4.528   0.670   1.961 -0.1154 -0.0096  0.0412
  109MPD2    C4 1663   4.438   0.677   2.063 -0.3116 -0.0381  0.8124
  109MPD2    C5 1664   4.307   0.634   2.054  0.5494  0.0428 -0.3624
  109MPD2     H 1665   4.559   0.612   1.764 -0.5442  0.8636 -0.1198
  109MPD2    H1 1666   4.461   0.725   2.158 -0.5169  0.4569  0.6105
  109MPD2    H2 1667   4.174   0.521   1.954 -0.8354  0.7880 -1.4505
  109MPD2    H3 1668   4.233   0.654   2.131  0.8856 -1.5682  0.3800
  109MPD2     N 1669   4.645   0.752   1.965  0.7932  0.4967 -0.0622
  109MPD2    H5 1670   4.696   0.763   1.877 -1.3086 -0.5825 -1.4141
  109MPD2    N1 1671   4.318   0.488   1.722 -0.5160 -0.1152 -0.0679
  109MPD2    H7 1672   4.217   0.478   1.720 -0.6343  0.8809  1.8644
  110TCq2    C1 1673   4.702   0.805   2.076 -0.0347 -0.7582 -0.5205
  110TCq2    O2 1674   4.690   0.751   2.184 -0.0262  0.4889  0.3449
  110TCq2    C2 1675   0.091   0.896   2.046  0.0716  0.1983 -0.2151
  110TCq2    C3 1676   0.177   0.917   2.144  0.3990  0.8116 -0.3125
  110TCq2    C4 1677   0.287   1.001   2.123 -0.4846  0.1024 -0.7534
  110TCq2    C5 1678   0.297   1.058   1.999 -0.0454  0.8213 -0.4556
  110TCq2    C6 1679   0.207   1.022   1.905 -0.2942 -0.2721 -0.1794
  110TCq2    C7 1680   0.100   0.946   1.923 -0.0215  0.2620  0.5129
  110TCq2    C8 1681   0.223   1.078   1.774  0.1235  0.1379  0.2817
  110TCq2    O4 1682   0.120   1.108   1.711  0.1922  0.0428 -1.3018
  110TCq2    C9 1683   0.364   1.041   2.244  0.5559 -0.4152  0.2628
  110TCq2    O5 1684   0.342   0.986   2.355  0.1376  0.0328 -0.0397
  110TCq2    O6 1685   0.444   1.137   2.231 -1.0321  0.2146  0.4855
  110TCq2    H2 1686   0.176   0.870   2.242  2.6907  1.0606 -0.1693
  110TCq2    H3 1687   0.372   1.133   1.978 -0.1479  0.9083 -0.5082
  110TCq2    H4 1688   0.035   0.934   1.837  0.9408  2.9245 -0.5702
  111TMC2    C1 1689   0.775   0.388  11.382 -1.3314 -0.0266  0.3983
  111TMC2    C2 1690   0.850   0.389  11.265 -0.1663  0.1226  0.4326
  111TMC2    C3 1691   0.974   0.316  11.276 -0.6310  0.0925 -0.0013
  111TMC2    C4 1692   0.810   0.315  11.494 -0.4767  0.9111  0.3766
  111TMC2    C5 1693   0.937   0.271  11.502  0.5779 -0.3841 -0.1267
  111TMC2    C6 1694   1.022   0.270  11.392  0.4691 -0.3267 -0.2920
  111TMC2     C 1695   0.656   0.469  11.381 -0.1631 -0.1937  0.2921
  111TMC2     O 1696   0.630   0.532  11.277  0.4533 -0.5368 -0.7115
  111TMC2     H 1697   0.827   0.455  11.182  0.0044  0.0269  0.3089
  111TMC2    H1 1698   0.751   0.324  11.584 -0.5991  3.5278  0.0412
  111TMC2    H2 1699   1.122   0.226  11.395 -0.2845 -1.9660  0.6751
  111TMC2    C7 1700   0.985   0.220  11.632  0.1078  0.1897  0.0303
  111TMC2    C8 1701   1.073   0.354  11.178 -0.1432 -0.3976  0.5253
  111TMC2    O1 1702   0.902   0.212  11.725 -0.3929  0.6212 -0.1644
  111TMC2    O2 1703   1.188   0.384  11.198  0.3607  0.0400 -0.1246
  111TMC2    O5 1704   1.016   0.332  11.062  0.2321  0.1956 -0.7638
  111TMC2    H5 1705   0.923   0.301  11.071  0.3566  0.1276  0.3257
  112MPD2     C 1706   0.215   0.650  11.531  0.2570 -0.0308 -0.4146
  112MPD2    C1 1707   0.309   0.704  11.448  0.1803  0.7102  0.4697
  112MPD2    C2 1708   0.430   0.638  11.438  0.6419 -0.2287  0.0163
  112MPD2    C3 1709   0.455   0.524  11.511 -0.2033  0.2608  0.7605
  112MPD2    C4 1710   0.376   0.484  11.611  0.6489 -0.0132  0.2455
  112MPD2    C5 1711   0.245   0.539  11.617 -0.0617  0.4344  0.4534
  112MPD2     H 1712   0.498   0.700  11.381 -0.4198 -0.0161 -1.0342
  112MPD2    H1 1713   0.402   0.392  11.663  0.3980 -0.6688 -0.7922
  112MPD2    H2 1714   0.115   0.691  11.533 -0.2096 -1.2272  1.1727
  112MPD2    H3 1715   0.179   0.500  11.694  0.0807  1.5600  1.1435
  112MPD2     N 1716   0.577   0.443  11.491  0.6508  0.0824 -0.3554
  112MPD2    H5 1717   0.601   0.374  11.561 -2.0713  1.1579  1.6526
  112MPD2    N1 1718   0.285   0.816  11.360 -0.6411  0.4389 -0.0318
  112MPD2    H7 1719   0.359   0.845  11.296  0.3329  0.6472  1.1887
  113MPD2     C 1720   2.628   2.918   1.307 -0.5479  0.0093 -0.5431
  113MPD2    C1 1721   2.645   3.017   1.215  0.4179  0.3285 -0.2962
  113MPD2    C2 1722   2.618   2.985   1.080  0.1447  0.1601  0.5842
  113MPD2    C3 1723   2.583   2.857   1.045  0.9887 -0.2580 -0.6399
  113MPD2    C4 1724   2.570   2.760   1.142  0.0158  0.5776  0.9688
  113MPD2    C5 1725   2.590   2.791   1.274 -0.8580 -0.4150  0.4076
  113MPD2     H 1726   2.630   3.057   1.000  2.0093  0.0765  0.7850
  113MPD2    H1 1727   2.531   2.662   1.116  0.5777  0.3796  0.8509
  113MPD2    H2 1728   2.655   2.929   1.411 -1.1525 -1.7932 -0.2123
  113MPD2    H3 1729   2.581   2.711   1.347 -0.0416 -0.4989  0.4197
  113MPD2     N 1730   2.574   2.804   0.911 -0.0985  0.4329 -0.1356
  113MPD2    H5 1731   2.548   2.706   0.900 -2.8760  0.9085  2.0178
  113MPD2    N1 1732   2.690   3.146   1.251 -0.1673 -0.2289  0.1744
  113MPD2    H7 1733   2.680   3.205   1.170 -0.7969 -1.1452 -0.4278
  114TCq2    C1 1734   2.614   2.867   0.789 -0.7258  0.3893  0.3410
  114TCq2    O2 1735   2.645   2.984   0.773  0.6510  0.4532 -0.3048
  114TCq2    C2 1736   2.617   2.770   0.676 -1.0131  0.2287 -0.6735
  114TCq2    C3 1737   2.642   2.820   0.548 -0.1622  0.1838  0.0353
  114TCq2    C4 1738   2.687   2.732   0.456  0.4480  0.4976 -0.3593
  114TCq2    C5 1739   2.718   2.601   0.479 -0.2931  0.4156  0.5310
  114TCq2    C6 1740   2.696   2.554   0.605  0.6470  0.6528 -0.0774
  114TCq2    C7 1741   2.646   2.636   0.710 -0.4387  0.0965  0.4239
  114TCq2    C8 1742   2.715   2.407   0.625 -0.1255 -0.4467  0.5529
  114TCq2    O4 1743   2.730   2.344   0.521  0.1726  0.1218 -0.5649
  114TCq2    C9 1744   2.701   2.785   0.318  0.2253 -0.4466 -0.5779
  114TCq2    O5 1745   2.756   2.710   0.226 -0.1308  0.0648 -0.2240
  114TCq2    O6 1746   2.624   2.875   0.279  0.1155  0.3594  0.3578
  114TCq2    H2 1747   2.619   2.924   0.528  1.6554  0.7632  1.0049
  114TCq2    H3 1748   2.760   2.541   0.398  0.6987  1.1283  0.5157
  114TCq2    H4 1749   2.633   2.589   0.806 -0.4058  1.3531  1.0359
  115TMC2    C1 1750   3.826   1.761   0.039  0.3030 -0.0474  0.8047
  115TMC2    C2 1751   3.754   1.818  17.627  0.1401 -0.0854 -0.0722
  115TMC2    C3 1752   3.771   1.955  17.605 -0.1904 -0.1487 -0.0761
  115TMC2    C4 1753   3.935   1.828   0.093  0.3471 -0.0005  0.1229
  115TMC2    C5 1754   3.961   1.960   0.053 -0.4480  1.3086 -0.4054
  115TMC2    C6 1755   3.872   2.027  17.667  0.0522 -0.6063 -0.6905
  115TMC2     C 1756   3.831   1.613   0.046 -0.6560 -0.4500 -0.4860
  115TMC2     O 1757   3.792   1.560  17.630  0.0627  0.2158  0.0949
  115TMC2     H 1758   3.678   1.760  17.577 -0.8466  0.8434  0.3674
  115TMC2    H1 1759   3.998   1.772   0.161 -2.3323 -2.5932  0.5014
  115TMC2    H2 1760   3.890   2.133  17.654  1.0421 -0.8235 -1.1422
  115TMC2    C7 1761   4.084   2.024   0.099 -0.0776 -0.9542  0.0114
  115TMC2    C8 1762   3.679   2.016  17.510 -0.2726 -0.3762  0.5824
  115TMC2    O1 1763   4.135   1.964   0.192  0.0694 -0.1513 -0.2655
  115TMC2    O2 1764   3.564   1.976  17.492  0.0510  0.3677  0.4939
  115TMC2    O5 1765   3.743   2.106  17.435  0.1574 -0.2720 -0.4098
  115TMC2    H5 1766   3.839   2.117  17.452  0.1883 -0.5414 -0.4166
  116MPD2     C 1767   4.007   1.187   0.286 -0.1133 -0.5938 -0.0578
  116MPD2    C1 1768   3.950   1.200   0.157 -0.5503  0.0309  0.0479
  116MPD2    C2 1769   3.904   1.325   0.110  0.1761  0.0404 -0.3819
  116MPD2    C3 1770   3.907   1.430   0.198 -0.3979  0.4369 -0.5599
  116MPD2    C4 1771   3.955   1.411   0.327 -0.4590 -0.1852  0.4817
  116MPD2    C5 1772   4.000   1.288   0.372  0.0843  0.1078  0.2285
  116MPD2     H 1773   3.861   1.335   0.011 -1.8564  0.6324  0.5497
  116MPD2    H1 1774   3.953   1.490   0.400 -1.4674  1.6613 -1.5329
  116MPD2    H2 1775   4.046   1.097   0.332  0.5989  0.2286  0.9288
  116MPD2    H3 1776   4.038   1.275   0.472  1.7094 -0.0114 -0.4092
  116MPD2     N 1777   3.873   1.561   0.167  0.3454 -0.7332  0.0473
  116MPD2    H5 1778   3.874   1.623   0.247 -1.3139 -2.7167  1.6110
  116MPD2    N1 1779   3.924   1.091   0.071  0.3314  1.0621 -0.3974
  116MPD2    H7 1780   3.872   1.111  17.673  0.6599  1.4267 -0.5097
  117TMC2    C1 1781   2.592   2.745  14.251 -0.1855  0.2761 -0.0062
  117TMC2    C2 1782   2.709   2.679  14.243 -0.0004  0.5869 -0.3805
  117TMC2    C3 1783   2.818   2.748  14.188 -0.0764  0.0423  0.0657
  117TMC2    C4 1784   2.581   2.879  14.218  0.3548 -0.4701 -0.8351
  117TMC2    C5 1785   2.693   2.938  14.166 -0.8307  0.5979  0.5369
  117TMC2    C6 1786   2.811   2.874  14.152  0.0494  0.2326  0.4132
  117TMC2     C 1787   2.472   2.669  14.273 -0.3500 -0.0655  0.0981
  117TMC2     O 1788   2.487   2.553  14.313  0.0868  0.5867 -0.7381
  117TMC2     H 1789   2.715   2.573  14.266  0.3976  1.3097  2.7851
  117TMC2    H1 1790   2.486   2.932  14.220 -0.0722 -1.2643  0.0353
  117TMC2    H2 1791   2.898   2.919  14.107  0.6927 -0.2172  1.1967
  117TMC2    C7 1792   2.689   3.078  14.127  0.0784  0.6941  0.8468
  117TMC2    C8 1793   2.901   2.671  14.103 -0.0393  0.0268 -0.0652
  117TMC2    O1 1794   2.802   3.124  14.120  0.2931  0.2810  0.0646
  117TMC2    O2 1795   2.931   2.714  13.992 -0.5732  0.0554 -0.0380
  117TMC2    O5 1796   2.980   2.601  14.180 -0.3452 -0.1801  0.8305
  117TMC2    H5 1797   2.944   2.574  14.267 -1.0470 -0.1893  0.5372
  118MPD2     C 1798   2.402   3.260  14.014 -0.4614 -0.5678 -0.0565
  118MPD2    C1 1799   2.534   3.254  14.051 -0.3044  0.5767  0.9045
  118MPD2    C2 1800   2.619   3.366  14.039 -0.3696 -0.1888 -1.3626
  118MPD2    C3 1801   2.569   3.489  14.003  0.3266  1.2574  0.8673
  118MPD2    C4 1802   2.437   3.499  13.971 -0.2353  0.2970  0.4742
  118MPD2    C5 1803   2.358   3.385  13.977  0.1827 -0.3588 -0.0387
  118MPD2     H 1804   2.721   3.357  14.073 -0.5503 -0.7938 -0.9878
  118MPD2    H1 1805   2.398   3.591  13.929  1.8011  0.0523 -1.9778
  118MPD2    H2 1806   2.335   3.176  14.026  1.0854 -1.7156  0.5128
  118MPD2    H3 1807   2.256   3.398  13.944  0.0839  1.1675  0.8587
  118MPD2     N 1808   2.641   3.612  13.988  0.2585 -0.3234  0.5190
  118MPD2    H5 1809   2.594   3.698  13.959  0.5954 -0.7746 -1.4106
  118MPD2    N1 1810   2.562   3.121  14.091 -0.4615  0.4156 -0.1575
  118MPD2    H7 1811   2.488   3.051  14.088  0.3352 -0.3754 -1.3079
  119MPD2     C 1812   1.507   4.162  14.167  0.4844 -0.0238 -0.2314
  119MPD2    C1 1813   1.380   4.217  14.183  0.8137  0.5198 -0.9585
  119MPD2    C2 1814   1.281   4.192  14.090  0.3038 -0.1195 -0.0390
  119MPD2    C3 1815   1.304   4.102  13.991 -0.3032  0.4084 -0.3596
  119MPD2    C4 1816   1.423   4.035  13.982 -0.1290 -0.1217  0.1114
  119MPD2    C5 1817   1.520   4.071  14.068  0.4941 -0.0350  0.2027
  119MPD2     H 1818   1.190   4.251  14.089  0.3464 -0.0737 -1.8358
  119MPD2    H1 1819   1.451   3.961  13.908  0.6974  0.1676  0.1359
  119MPD2    H2 1820   1.592   4.190  14.228  0.1309  0.9535 -0.1937
  119MPD2    H3 1821   1.612   4.014  14.060 -0.3420 -1.2029 -1.1166
  119MPD2     N 1822   1.210   4.074  13.887 -0.4270 -0.1103 -0.0628
  119MPD2    H5 1823   1.213   3.996  13.821  0.2398 -2.3585  2.6019
  119MPD2    N1 1824   1.352   4.309  14.285 -0.2869 -0.0807 -0.1325
  119MPD2    H7 1825   1.433   4.363  14.312 -0.3391  0.5940 -1.3511
  120TCq2    C1 1826   1.089   4.137  13.879 -0.5351 -0.6490 -0.1523
  120TCq2    O2 1827   1.044   4.236  13.941  0.3530  0.8127 -0.6459
  120TCq2    C2 1828   1.013   4.090  13.766  0.2252 -0.2074  0.2459
  120TCq2    C3 1829   1.074   4.107  13.645  0.7471 -0.3474 -0.4914
  120TCq2    C4 1830   0.992   4.098  13.537  0.2364 -0.2992  0.2721
  120TCq2    C5 1831   0.855   4.090  13.558 -0.4975 -0.4421  0.2289
  120TCq2    C6 1832   0.797   4.086  13.681  0.2322 -0.5038  0.5714
  120TCq2    C7 1833   0.881   4.082  13.792 -0.1939  0.8148  0.1685
  120TCq2    C8 1834   0.655   4.057  13.691  0.0793  0.4797  0.1663
  120TCq2    O4 1835   0.604   4.019  13.585 -0.5777 -0.0872  0.5098
  120TCq2    C9 1836   1.044   4.095  13.403  0.2971 -0.4976  0.4197
  120TCq2    O5 1837   0.971   4.108  13.306  0.4489 -0.5055 -0.3326
  120TCq2    O6 1838   1.171   4.076  13.385  0.3271  0.4877  0.5554
  120TCq2    H2 1839   1.179   4.128  13.634  0.5754  1.5280  1.2221
  120TCq2    H3 1840   0.793   4.079  13.470 -0.0014 -0.3874 -0.1255
  120TCq2    H4 1841   0.845   4.078  13.894  2.3305 -2.1904  0.9370
  121TMC2    C1 1842   2.012   0.737  14.230 -0.8581 -0.0011  0.1705
  121TMC2    C2 1843   1.965   0.611  14.262 -0.1595  0.1930 -0.4579
  121TMC2    C3 1844   1.834   0.601  14.299  0.3223  0.4325  0.9184
  121TMC2    C4 1845   1.930   0.848  14.236  0.1361 -0.7596 -0.2169
  121TMC2    C5 1846   1.797   0.829  14.283 -0.2162 -0.2512 -0.2251
  121TMC2    C6 1847   1.746   0.704  14.298 -0.3262 -0.1258  0.8025
  121TMC2     C 1848   2.153   0.746  14.188  0.7723 -1.2223  0.7850
  121TMC2     O 1849   2.223   0.651  14.223  0.4775  0.5288  0.2535
  121TMC2     H 1850   2.031   0.529  14.235 -0.6476 -0.4243  0.2394
  121TMC2    H1 1851   1.962   0.951  14.231 -0.2261 -0.5189  2.4384
  121TMC2    H2 1852   1.646   0.685  14.336 -1.0611 -2.6976 -2.4145
  121TMC2    C7 1853   1.704   0.934  14.246 -0.0252  0.1652  0.2514
  121TMC2    C8 1854   1.781   0.466  14.326 -0.6474  0.6947 -0.7224
  121TMC2    O1 1855   1.736   1.049  14.269 -0.0818 -0.3468  0.1623
  121TMC2    O2 1856   1.660   0.444  14.347  0.5761 -0.0980 -0.3430
  121TMC2    O5 1857   1.882   0.398  14.377  0.5645 -0.0341 -0.2023
  121TMC2    H5 1858   1.965   0.446  14.395 -0.2691  1.6154 -0.8173
  122MPD2     C 1859   2.416   0.838  14.095  0.5210 -0.0195 -0.1245
  122MPD2    C1 1860   2.297   0.903  14.066  0.2969  0.2358  0.3467
  122MPD2    C2 1861   2.303   1.022  13.992 -0.1172 -0.2280  0.1385
  122MPD2    C3 1862   2.421   1.074  13.949 -0.1025  0.1759  0.3939
  122MPD2    C4 1863   2.534   1.007  13.979  0.6558 -0.1499 -0.1245
  122MPD2    C5 1864   2.528   0.892  14.053  0.6089 -0.4876  0.1591
  122MPD2     H 1865   2.208   1.068  13.968  0.6897  2.3651  1.9853
  122MPD2    H1 1866   2.630   1.030  13.934  0.8902 -0.8351  0.0169
  122MPD2    H2 1867   2.426   0.744  14.147  4.1308  0.0784 -0.6466
  122MPD2    H3 1868   2.620   0.838  14.074  1.2610  0.9799  1.0079
  122MPD2     N 1869   2.426   1.186  13.860  0.0970 -0.2844  0.0953
  122MPD2    H5 1870   2.522   1.200  13.830  0.1193  0.7141  0.6304
  122MPD2    N1 1871   2.177   0.853  14.107 -0.1137  0.5664  0.0265
  122MPD2    H7 1872   2.098   0.913  14.086 -1.4201 -1.2938 -0.2787
  123MPD2     C 1873   0.421   4.163  10.618 -0.6449 -0.3696  0.5630
  123MPD2    C1 1874   0.419   4.056  10.527  0.0657 -1.0004  0.6133
  123MPD2    C2 1875   0.508   4.052  10.424 -0.3826  0.8580 -0.1960
  123MPD2    C3 1876   0.604   4.156  10.411  0.2291 -0.7256  0.3028
  123MPD2    C4 1877   0.605   4.260  10.510 -0.6930  0.3485  0.9632
  123MPD2    C5 1878   0.515   4.264  10.608  0.2353 -0.0477 -0.3524
  123MPD2     H 1879   0.500   3.971  10.352  1.4233 -0.3262  0.9516
  123MPD2    H1 1880   0.680   4.338  10.503  2.0857 -2.6985 -3.4751
  123MPD2    H2 1881   0.353   4.161  10.703 -1.3972 -0.4715 -0.0360
  123MPD2    H3 1882   0.510   4.345  10.679  1.7273 -0.7816  0.5789
  123MPD2     N 1883   0.692   4.144  10.304  0.5818  0.2328  0.1584
  123MPD2    H5 1884   0.681   4.073  10.232  1.9968 -0.3661  0.5344
  123MPD2    N1 1885   0.321   3.955  10.549 -0.0807 -0.4521  0.1172
  123MPD2    H7 1886   0.265   3.967  10.633  1.2829 -2.5211  1.3376
  124TCq2    C1 1887   0.804   4.218  10.295 -0.3645  0.7871 -0.1084
  124TCq2    O2 1888   0.836   4.325  10.343  0.1574  0.7901 -0.4189
  124TCq2    C2 1889   0.883   4.186  10.178 -0.6055  0.1214  0.0441
  124TCq2    C3 1890   1.016   4.196  10.193 -0.2103 -0.1414  0.3847
  124TCq2    C4 1891   1.100   4.128  10.106  0.0832  0.2006 -0.0471
  124TCq2    C5 1892   1.047   4.055   9.998 -0.2509  0.0179 -0.2652
  124TCq2    C6 1893   0.916   4.040   9.995 -0.0944  0.0416  0.2573
  124TCq2    C7 1894   0.830   4.114  10.074  0.4598  0.4217  0.2664
  124TCq2    C8 1895   0.858   3.953   9.897 -0.3251 -0.1082 -0.0498
  124TCq2    O4 1896   0.740   3.971   9.870 -0.2470 -0.7223  0.0730
  124TCq2    C9 1897   1.234   4.136  10.132 -0.0203  0.0147 -0.7216
  124TCq2    O5 1898   1.271   4.211  10.222 -0.5609 -0.4847  0.3948
  124TCq2    O6 1899   1.302   4.038  10.086 -0.6325  0.3387 -0.5173
  124TCq2    H2 1900   1.063   4.254  10.273 -1.2762 -1.4393  1.9514
  124TCq2    H3 1901   1.109   4.008   9.922 -0.7741  0.6375 -1.0723
  124TCq2    H4 1902   0.723   4.103  10.059  0.2364  2.5362  0.3034
  125TMC2    C1 1903   1.261   1.002   9.511  0.0353  0.3185  0.1161
  125TMC2    C2 1904   1.174   1.058   9.422 -0.7978  0.6919 -0.2851
  125TMC2    C3 1905   1.176   1.189   9.395  0.5507 -0.6904  0.1166
  125TMC2    C4 1906   1.355   1.083   9.577  0.5985 -0.0802 -0.8134
  125TMC2    C5 1907   1.351   1.212   9.550 -0.5397 -0.4117  0.3817
  125TMC2    C6 1908   1.270   1.264   9.456  0.0607 -0.0479 -0.1512
  125TMC2     C 1909   1.258   0.861   9.553 -0.4919 -1.0416  0.2055
  125TMC2     O 1910   1.346   0.824   9.627 -0.7480  0.4614 -0.3168
  125TMC2     H 1911   1.110   0.997   9.359 -3.8519  2.4218  1.1111
  125TMC2    H1 1912   1.433   1.034   9.634 -0.7333 -0.3579  0.7781
  125TMC2    H2 1913   1.267   1.372   9.439  0.1425 -0.0536 -0.2029
  125TMC2    C7 1914   1.465   1.280   9.606  0.1628  0.2209  0.3409
  125TMC2    C8 1915   1.104   1.240   9.290  0.1581 -0.2431  0.7855
  125TMC2    O1 1916   1.524   1.236   9.706  0.3212  0.6265 -0.4504
  125TMC2    O2 1917   1.018   1.173   9.235 -0.0761  0.1504 -0.6425
  125TMC2    O5 1918   1.179   1.339   9.226  0.7385 -0.0631 -0.0898
  125TMC2    H5 1919   1.248   1.388   9.276  0.7997  1.0776 -1.2953
  126MPD1     C 1920   1.013   0.415   9.605 -0.1136 -0.4953  0.3636
  126MPD1    C1 1921   0.950   0.488   9.508  0.4034  0.1352  0.0291
  126MPD1    C2 1922   1.002   0.612   9.479 -0.6870 -0.6475  0.2331
  126MPD1    C3 1923   1.113   0.666   9.542  0.9262 -0.6576 -0.1305
  126MPD1    C4 1924   1.176   0.592   9.635  0.4346  0.2844  0.6180
  126MPD1    C5 1925   1.126   0.471   9.671  0.6381 -1.0591 -0.6939
  126MPD1     H 1926   0.952   0.663   9.397 -1.4559  0.6024  1.4897
  126MPD1    H1 1927   1.255   0.629   9.699  1.1822 -1.5871  0.7918
  126MPD1    H2 1928   0.990   0.312   9.629 -0.4703 -0.8922 -1.6782
  126MPD1    H3 1929   1.179   0.416   9.748 -0.8939 -0.3842  0.8393
  126MPD1     N 1930   1.158   0.794   9.501 -0.3084  0.0439 -0.1356
  126MPD1    H5 1931   1.102   0.842   9.432 -1.5146 -1.6545 -0.3376
  126MPD1    N1 1932   0.849   0.434   9.429 -0.2631 -0.4938 -0.3597
  126MPD1    H6 1933   0.785   0.504   9.392  0.6353 -0.2525 -1.4621
  126MPD1    H7 1934   0.794   0.372   9.488  0.4551 -0.6503  0.1454
  127MPD2     C 1935   2.308   0.745   9.538 -0.6103 -0.2900  0.2763
  127MPD2    C1 1936   2.343   0.790   9.665  0.0889  0.7453 -0.2026
  127MPD2    C2 1937   2.389   0.918   9.684  0.0574  0.3094  0.0836
  127MPD2    C3 1938   2.389   1.008   9.577 -0.3865  0.5089 -0.5476
  127MPD2    C4 1939   2.339   0.968   9.454 -0.3430  0.0658 -0.2571
  127MPD2    C5 1940   2.305   0.835   9.438  0.1157  0.4807 -0.0624
  127MPD2     H 1941   2.399   0.960   9.783 -1.4988  3.4270 -1.0764
  127MPD2    H1 1942   2.342   1.034   9.368  1.3819  0.8800  0.4269
  127MPD2    H2 1943   2.275   0.644   9.516  0.3979 -0.3893 -0.7394
  127MPD2    H3 1944   2.281   0.803   9.338 -0.2097  3.0890 -0.8119
  127MPD2     N 1945   2.459   1.129   9.600  0.1945 -0.3712  0.1638
  127MPD2    H5 1946   2.508   1.138   9.688  0.6119  1.2053 -0.2292
  127MPD2    N1 1947   2.356   0.690   9.759 -0.4012 -0.1644  0.3570
  127MPD2    H7 1948   2.313   0.599   9.744 -1.1076  0.3013 -0.4334
  128TCq2    C1 1949   2.426   0.699   9.875 -0.4181 -0.2221  0.2328
  128TCq2    O2 1950   2.514   0.782   9.901  0.4048  0.0574  0.0818
  128TCq2    C2 1951   2.399   0.586   9.956  0.5553  0.6878 -0.5115
  128TCq2    C3 1952   2.496   0.531  10.036 -0.0283 -1.0401 -0.5504
  128TCq2    C4 1953   2.473   0.427  10.118 -0.2288 -0.9725  0.0706
  128TCq2    C5 1954   2.343   0.371  10.128  0.3887  0.0750  0.2412
  128TCq2    C6 1955   2.242   0.426  10.051  0.2793 -0.2804 -0.1673
  128TCq2    C7 1956   2.267   0.534   9.970 -0.4524  0.0482 -0.1626
  128TCq2    C8 1957   2.116   0.370  10.050  0.3409 -0.3767 -0.1684
  128TCq2    O4 1958   2.021   0.438  10.016 -1.1030 -0.8406  0.0694
  128TCq2    C9 1959   2.581   0.357  10.178  0.2356  0.5721 -0.0101
  128TCq2    O5 1960   2.568   0.232  10.200  0.3137  0.0848 -0.0014
  128TCq2    O6 1961   2.688   0.416  10.205 -0.0604 -0.6149  0.1720
  128TCq2    H2 1962   2.599   0.565  10.026 -0.0119 -0.4239  1.5982
  128TCq2    H3 1963   2.335   0.295  10.204  0.6797 -0.3374 -0.1376
  128TCq2    H4 1964   2.185   0.571   9.909 -1.2224 -1.4950 -0.0674
  129MPD2     C 1965   0.315   0.895   1.060 -0.6139  0.0895 -0.0049
  129MPD2    C1 1966   0.412   0.968   1.130 -0.0799 -0.3352 -0.4503
  129MPD2    C2 1967   0.513   1.038   1.071 -0.2290 -0.0020 -0.0373
  129MPD2    C3 1968   0.506   1.044   0.931 -0.2827  0.0995 -0.2462
  129MPD2    C4 1969   0.410   0.966   0.860 -0.4881 -0.4431  0.2774
  129MPD2    C5 1970   0.308   0.903   0.932 -0.0277 -0.1918  0.1611
  129MPD2     H 1971   0.599   1.076   1.125  0.0360  0.4600 -0.8014
  129MPD2    H1 1972   0.405   0.982   0.753 -1.4113 -0.5760  0.2971
  129MPD2    H2 1973   0.239   0.830   1.101 -1.1350  0.2776 -0.6672
  129MPD2    H3 1974   0.228   0.864   0.870  0.3015 -1.8644  0.7710
  129MPD2     N 1975   0.614   1.112   0.860 -0.0787  0.6035 -0.1515
  129MPD2    H5 1976   0.673   1.175   0.913 -1.7613  0.6020  1.7057
  129MPD2    N1 1977   0.425   0.948   1.273 -0.0155  0.1108  0.1906
  129MPD2    H7 1978   0.520   0.965   1.305  0.4004 -1.7859 -0.0623
  130TCq2    C1 1979   0.325   0.897   1.351  0.4662  0.2851 -0.2955
  130TCq2    O2 1980   0.204   0.896   1.330 -0.1197 -0.1446  0.0472
  130TCq2    C2 1981   0.378   0.827   1.467  0.4255  0.0057  0.4653
  130TCq2    C3 1982   0.510   0.791   1.481 -0.4801  0.2834  0.3838
  130TCq2    C4 1983   0.535   0.712   1.590 -0.3851  0.0540 -0.1325
  130TCq2    C5 1984   0.441   0.677   1.685 -0.4659 -0.2717 -0.1099
  130TCq2    C6 1985   0.317   0.727   1.665 -1.4400  0.1839 -0.6411
  130TCq2    C7 1986   0.282   0.794   1.553  0.8438 -0.0570 -0.4442
  130TCq2    C8 1987   0.206   0.669   1.742 -0.3517 -0.5000 -0.0214
  130TCq2    O4 1988   0.093   0.688   1.698  0.0672  0.0221 -0.1398
  130TCq2    C9 1989   0.675   0.688   1.624 -0.3965  0.2237  0.4214
  130TCq2    O5 1990   0.690   0.655   1.746 -0.0820 -0.2011 -0.3614
  130TCq2    O6 1991   0.762   0.708   1.535 -0.2208 -0.8775 -0.0876
  130TCq2    H2 1992   0.589   0.821   1.412  0.4214  0.5213  1.5219
  130TCq2    H3 1993   0.474   0.635   1.780  0.7037  0.7170 -0.0908
  130TCq2    H4 1994   0.184   0.839   1.542  0.5098 -0.7418 -0.2456
  131MPD2     C 1995   4.640   3.371   9.883  0.2411  0.1637 -0.8657
  131MPD2    C1 1996   4.712   3.488   9.883 -0.0283 -0.6379  0.0812
  131MPD2    C2 1997   0.025   3.547  10.003 -0.2168  0.1815  0.3747
  131MPD2    C3 1998   4.704   3.489  10.117  0.1362  0.0299  0.2756
  131MPD2    C4 1999   4.628   3.375  10.113  0.3434  0.0765  0.8496
  131MPD2    C5 2000   4.602   3.309   9.995  0.0786  0.5482  0.6105
  131MPD2     H 2001   0.091   3.631   9.993 -1.1379  0.7833 -0.7188
  131MPD2    H1 2002   4.587   3.328  10.202  2.1682 -2.0109  0.6041
  131MPD2    H2 2003   4.620   3.323   9.788 -0.4378  1.2775 -1.2746
  131MPD2    H3 2004   4.535   3.224   9.996  0.7923 -0.0221 -0.0663
  131MPD2     N 2005   0.014   3.557  10.232 -0.1980  0.1840  0.4049
  131MPD2    H5 2006   0.087   3.627  10.220  1.4561 -1.4920  0.6183
  131MPD2    N1 2007   0.016   3.528   9.748  0.6575  0.2234  0.6561
  131MPD2    H7 2008   4.707   3.462   9.677 -0.8697  0.9826  0.6053
  132TCq2    C1 2009   4.702   3.956   9.392 -0.0878 -0.0095  0.1805
  132TCq2    O2 2010   4.600   3.965   9.326  0.5293 -0.3533  0.0193
  132TCq2    C2 2011   0.029   3.829   9.421 -0.6785 -0.0176 -1.3084
  132TCq2    C3 2012   0.008   3.736   9.334 -0.6617  0.4681  0.4046
  132TCq2    C4 2013   0.020   3.606   9.367 -0.1371 -0.2005  0.4449
  132TCq2    C5 2014   0.074   3.572   9.483  0.3960  0.6572 -0.4087
  132TCq2    C6 2015   0.097   3.671   9.578  0.7380 -0.4778  0.2851
  132TCq2    C7 2016   0.070   3.800   9.552 -0.3285  0.1289 -0.8437
  132TCq2    C8 2017   0.085   3.642   9.716  0.4449 -0.3153 -0.5453
  132TCq2    O4 2018   0.105   3.731   9.795  0.1369  1.2189 -0.0709
  132TCq2    C9 2019   0.003   3.507   9.265  0.6683  0.0228  0.5212
  132TCq2    O5 2020   0.047   3.392   9.291  0.6593 -0.3114  0.1071
  132TCq2    O6 2021   4.687   3.551   9.154  0.2478 -0.1012 -0.0023
  132TCq2    H2 2022   4.704   3.762   9.232  0.5168 -1.3871 -0.3527
  132TCq2    H3 2023   0.105   3.469   9.496  0.2154  0.8669  1.7652
  132TCq2    H4 2024   0.081   3.876   9.630  0.0918 -2.9353  2.0936
  133MPD2     C 2025   4.198   1.301   9.186  0.4110  0.2538 -0.3090
  133MPD2    C1 2026   4.256   1.201   9.264  0.9989  0.8361  0.3154
  133MPD2    C2 2027   4.233   1.068   9.227  0.1485  0.7262  0.6153
  133MPD2    C3 2028   4.133   1.025   9.137  0.5088 -1.0189  0.3344
  133MPD2    C4 2029   4.069   1.134   9.069  0.3150  0.0232 -0.1283
  133MPD2    C5 2030   4.109   1.260   9.091  0.0656  0.2022  0.8965
  133MPD2     H 2031   4.272   0.990   9.291  0.3188  0.3797  0.0904
  133MPD2    H1 2032   3.995   1.113   8.993 -1.3785  0.5142  1.3952
  133MPD2    H2 2033   4.235   1.403   9.195  1.1797  0.3318 -4.4038
  133MPD2    H3 2034   4.063   1.339   9.033 -0.0360  0.0011  0.7057
  133MPD2     N 2035   4.085   0.894   9.114 -0.0699  0.3274 -0.1683
  133MPD2    H5 2036   4.004   0.882   9.053 -0.5454  0.8650  0.3651
  133MPD2    N1 2037   4.333   1.239   9.378 -0.1518 -0.3114  0.0852
  133MPD2    H7 2038   4.329   1.335   9.411 -0.0707 -0.7838  1.4892
  134TCq2    C1 2039   4.407   1.159   9.463 -0.4461  0.3358  0.2195
  134TCq2    O2 2040   4.426   1.039   9.452 -0.8565 -0.5157  0.1961
  134TCq2    C2 2041   4.444   1.233   9.578 -0.3384  0.2030 -0.3083
  134TCq2    C3 2042   4.431   1.371   9.585 -0.0814  0.1133  0.4375
  134TCq2    C4 2043   4.450   1.435   9.710 -0.6462 -0.3490  0.5344
  134TCq2    C5 2044   4.474   1.357   9.821  0.3896 -0.2940 -0.0035
  134TCq2    C6 2045   4.472   1.218   9.806 -0.1464 -0.4321  0.1626
  134TCq2    C7 2046   4.467   1.156   9.686 -0.8885  0.0911  1.0177
  134TCq2    C8 2047   4.534   1.135   9.909 -0.4717  0.4349 -0.4018
  134TCq2    O4 2048   4.513   1.014   9.909  0.1015  0.5854  0.3604
  134TCq2    C9 2049   4.438   1.580   9.722  0.1426  0.6262  0.2510
  134TCq2    O5 2050   4.418   1.641   9.612  0.3331 -0.5848  0.2051
  134TCq2    O6 2051   4.484   1.637   9.825 -0.3249  0.5712  0.0467
  134TCq2    H2 2052   4.408   1.439   9.504  3.5636  0.2311 -0.4697
  134TCq2    H3 2053   4.480   1.405   9.919 -1.1005  2.1302 -1.0890
  134TCq2    H4 2054   4.473   1.048   9.681  2.4272  0.1902  2.3978
  135MPD2     C 2055   1.879   1.780   8.628 -0.1416 -0.5573  0.2955
  135MPD2    C1 2056   1.874   1.722   8.753 -0.1469 -0.1041 -0.1515
  135MPD2    C2 2057   1.995   1.710   8.826 -0.0133 -0.1254  0.3149
  135MPD2    C3 2058   2.109   1.770   8.779 -0.9166  0.0788  0.0021
  135MPD2    C4 2059   2.104   1.843   8.660 -1.1909 -0.1592 -0.1742
  135MPD2    C5 2060   1.992   1.842   8.581 -0.4159  0.2634 -0.0296
  135MPD2     H 2061   1.987   1.650   8.916  1.5824  1.3167  1.4070
  135MPD2    H1 2062   2.183   1.914   8.635 -1.6579  0.1946 -0.6582
  135MPD2    H2 2063   1.796   1.784   8.558 -1.5360  0.0333  1.9868
  135MPD2    H3 2064   1.976   1.895   8.487  1.0410  1.7284  0.5388
  135MPD2     N 2065   2.239   1.769   8.845  0.4477 -0.6917  0.9670
  135MPD2    H5 2066   2.312   1.820   8.797  0.0444 -1.0883 -0.0741
  135MPD2    N1 2067   1.755   1.674   8.811  0.0155  0.0284  0.5161
  135MPD2    H7 2068   1.758   1.646   8.908 -1.1084  0.4958  0.6908
  136TCq2    C1 2069   1.631   1.679   8.752 -0.3971  0.3396  0.2825
  136TCq2    O2 2070   1.590   1.696   8.638 -0.4265  0.4930  0.4506
  136TCq2    C2 2071   1.522   1.643   8.843  0.1630  0.6516 -0.2980
  136TCq2    C3 2072   1.552   1.585   8.966 -0.5255 -0.4762  0.3589
  136TCq2    C4 2073   1.458   1.557   9.063  0.6497 -1.1263 -0.2332
  136TCq2    C5 2074   1.326   1.576   9.030  0.1419  0.4192  0.1388
  136TCq2    C6 2075   1.291   1.624   8.907 -0.3938  0.6073 -0.1470
  136TCq2    C7 2076   1.387   1.660   8.814 -0.6321 -0.5337  0.8527
  136TCq2    C8 2077   1.150   1.610   8.863 -0.7071 -0.7756 -0.4319
  136TCq2    O4 2078   1.112   1.667   8.760  0.3626 -0.2334  0.1475
  136TCq2    C9 2079   1.495   1.490   9.188  0.4833 -0.3470  0.8147
  136TCq2    O5 2080   1.611   1.434   9.183 -0.1051  0.0894  0.5405
  136TCq2    O6 2081   1.403   1.477   9.275  0.2635 -0.0866 -0.2002
  136TCq2    H2 2082   1.657   1.570   8.992 -0.0645  2.6907  0.3113
  136TCq2    H3 2083   1.248   1.555   9.103  1.0299  2.9160  1.8073
  136TCq2    H4 2084   1.357   1.713   8.724 -1.6851 -2.5117  0.0134
  137MPD2     C 2085   1.433   0.166   9.847 -0.1358  0.4555  0.6923
  137MPD2    C1 2086   1.489   0.240   9.747 -0.2340 -0.9961  0.4432
  137MPD2    C2 2087   1.497   0.382   9.751 -0.2545  0.0122 -0.2512
  137MPD2    C3 2088   1.451   0.442   9.862 -0.4125 -0.0140 -0.2483
  137MPD2    C4 2089   1.396   0.371   9.971 -0.0371 -0.4628  0.0926
  137MPD2    C5 2090   1.387   0.231   9.952  0.6706 -0.0227  0.1112
  137MPD2     H 2091   1.540   0.440   9.670  0.7920 -1.2438 -0.5995
  137MPD2    H1 2092   1.359   0.414  10.063 -1.9601  0.4764 -1.1186
  137MPD2    H2 2093   1.433   0.058   9.845  0.8867  0.4874 -0.6853
  137MPD2    H3 2094   1.327   0.177  10.024  0.9582 -0.6248 -0.1009
  137MPD2     N 2095   1.460   0.584   9.872  0.7347  0.5732  0.1986
  137MPD2    H5 2096   1.522   0.632   9.808  1.6579 -1.9427 -0.8067
  137MPD2    N1 2097   1.543   0.166   9.641 -0.0712 -0.5504  0.2137
  137MPD2    H7 2098   1.541   0.067   9.663  1.9617 -0.6333  0.0002
  138TCq2    C1 2099   1.596   0.209   9.522 -0.7454  0.2798  0.7337
  138TCq2    O2 2100   1.622   0.320   9.483  0.3302 -0.3386 -0.2888
  138TCq2    C2 2101   1.614   0.102   9.425 -0.4585 -0.6374  0.1579
  138TCq2    C3 2102   1.719   0.123   9.339  0.1157 -0.1652 -0.5813
  138TCq2    C4 2103   1.740   0.020   9.258 -0.2918  0.1704 -0.2315
  138TCq2    C5 2104   1.661   4.631   9.253 -0.0974 -0.0341  0.2166
  138TCq2    C6 2105   1.552   4.622   9.335  0.1943  0.4379  0.1477
  138TCq2    C7 2106   1.536   4.715   9.435 -0.7904  0.0808  0.5809
  138TCq2    C8 2107   1.469   4.495   9.325  0.3439  0.3496 -0.0345
  138TCq2    O4 2108   1.506   4.412   9.242  0.3720 -0.5790 -0.1947
  138TCq2    C9 2109   1.852   0.022   9.168 -0.4136 -0.3073 -0.1265
  138TCq2    O5 2110   1.930   0.119   9.183 -1.0496  0.2057 -0.7017
  138TCq2    O6 2111   1.854   4.663   9.069 -0.3134 -0.0040 -0.0110
  138TCq2    H2 2112   1.769   0.219   9.336 -1.6632  0.8425  1.4180
  138TCq2    H3 2113   1.659   4.574   9.161 -0.6617 -1.1360  0.9117
  138TCq2    H4 2114   1.444   4.707   9.493 -1.1316  0.6060  0.1112
  139TMC2    C1 2115   2.425   3.810  13.479 -0.5071 -0.0160  0.5860
  139TMC2    C2 2116   2.508   3.896  13.409 -0.2988 -0.3617  0.1272
  139TMC2    C3 2117   2.472   4.029  13.400  0.1977  0.1401 -0.1673
  139TMC2    C4 2118   2.327   3.867  13.567  0.1907  0.2077  0.7023
  139TMC2    C5 2119   2.310   4.000  13.564  0.0390 -0.0277  0.2599
  139TMC2    C6 2120   2.394   4.082  13.495  0.2977  0.2197  0.0894
  139TMC2     C 2121   2.459   3.671  13.471 -0.3165 -0.3620 -0.7565
  139TMC2     O 2122   2.559   3.635  13.412 -0.2738 -0.6837  0.2378
  139TMC2     H 2123   2.599   3.860  13.360  0.1926 -0.7702  1.3481
  139TMC2    H1 2124   2.260   3.803  13.623 -0.2228 -0.3626 -0.4476
  139TMC2    H2 2125   2.376   4.189  13.487 -1.8866 -0.3716 -2.6546
  139TMC2    C7 2126   2.197   4.068  13.621 -0.8677  0.3648 -0.4482
  139TMC2    C8 2127   2.576   4.108  13.337  0.2864 -0.7573  0.0708
  139TMC2    O1 2128   2.151   4.163  13.562  0.2578 -0.1403 -0.9540
  139TMC2    O2 2129   2.692   4.077  13.344 -0.4238  0.7376 -0.1571
  139TMC2    O5 2130   2.505   4.192  13.253 -0.1675 -0.2327  0.3514
  139TMC2    H5 2131   2.411   4.181  13.278 -0.5131 -1.6267 -1.5109
  140MPD2     C 2132   2.285   3.392  13.638  0.1908 -0.6086  0.3105
  140MPD2    C1 2133   2.387   3.449  13.567 -0.7987 -0.2923 -0.1174
  140MPD2    C2 2134   2.478   3.372  13.508 -0.1719  0.4091 -0.0797
  140MPD2    C3 2135   2.474   3.231  13.524  1.2423  0.8182  1.0042
  140MPD2    C4 2136   2.383   3.178  13.607 -0.7044 -0.3802  0.1422
  140MPD2    C5 2137   2.283   3.256  13.657 -0.8596  0.5027 -0.8620
  140MPD2     H 2138   2.566   3.414  13.459  0.2823  1.0684  1.2922
  140MPD2    H1 2139   2.380   3.072  13.631 -1.9910 -0.2560  0.5124
  140MPD2    H2 2140   2.202   3.452  13.674  0.9693  0.4686  0.2976
  140MPD2    H3 2141   2.201   3.215  13.715  0.3321 -2.2415 -1.1418
  140MPD2     N 2142   2.577   3.159  13.459 -0.2785 -0.6076  0.4685
  140MPD2    H5 2143   2.624   3.207  13.383  1.7391 -0.7308  1.6303
  140MPD2    N1 2144   2.371   3.590  13.541 -0.5875  0.4642  0.8377
  140MPD2    H7 2145   2.296   3.635  13.593  1.4726  3.1814  1.4165
  141TCq2    C1 2146   2.517   4.498  14.310  0.1445 -0.5549  0.2195
  141TCq2    O2 2147   2.593   4.554  14.230  0.3606 -0.4338 -0.3744
  141TCq2    C2 2148   2.572   4.498  14.447 -0.6272 -0.0056  0.2394
  141TCq2    C3 2149   2.508   4.566  14.552  0.2067  0.5852 -0.0392
  141TCq2    C4 2150   2.570   4.648  14.635  0.3889  0.0529 -0.6654
  141TCq2    C5 2151   2.705   4.662  14.634 -0.0539 -0.2276 -0.8185
  141TCq2    C6 2152   2.772   4.592  14.539 -0.0934 -0.4717  0.2086
  141TCq2    C7 2153   2.706   4.511  14.451  0.2777  0.5488  0.3725
  141TCq2    C8 2154   2.898   4.652  14.489  0.3010 -0.1550 -0.3299
  141TCq2    O4 2155   2.962   4.589  14.406 -0.2821  0.6786 -0.1672
  141TCq2    C9 2156   2.508   0.003  14.736  0.1730 -0.1777 -0.0075
  141TCq2    O5 2157   2.385   4.721  14.751  0.2246 -0.7516 -0.9813
  141TCq2    O6 2158   2.572   0.068  14.823 -0.6239 -0.4542  0.4923
  141TCq2    H2 2159   2.400   4.576  14.550  0.1623  0.2967  0.7265
  141TCq2    H3 2160   2.756   4.717  14.713 -0.1479 -0.3251 -0.6883
  141TCq2    H4 2161   2.767   4.459  14.377 -0.9681  1.5392 -1.3660
  142MPD2     C 2162   0.231   3.187  10.457 -0.3230 -0.1479 -0.3643
  142MPD2    C1 2163   0.165   3.116  10.357 -0.0783  0.3399  0.4862
  142MPD2    C2 2164   0.185   3.138  10.219  0.0871 -0.0964 -0.4439
  142MPD2    C3 2165   0.274   3.233  10.174  0.4927 -0.3303  0.2953
  142MPD2    C4 2166   0.341   3.295  10.271  0.4866  0.1013  0.0018
  142MPD2    C5 2167   0.327   3.273  10.406  0.0344  0.1957  0.0013
  142MPD2     H 2168   0.130   3.090  10.138  1.0625  2.1273 -2.4407
  142MPD2    H1 2169   0.419   3.367  10.248  0.3840 -0.3222 -1.6931
  142MPD2    H2 2170   0.213   3.187  10.564 -1.1003  0.2277 -0.4887
  142MPD2    H3 2171   0.384   3.322  10.484  1.4442 -0.1348 -0.8164
  142MPD2     N 2172   0.294   3.271  10.044  0.1470 -0.2469  0.3386
  142MPD2    H5 2173   0.369   3.339  10.038 -0.9623  0.7532 -2.5530
  142MPD2    N1 2174   0.067   3.027  10.404  0.5484 -0.1861 -0.1230
  142MPD2    H7 2175   0.066   3.006  10.503 -0.5467  0.9429  0.1018
  143TCq2    C1 2176   0.224   3.240   9.930 -0.6437 -0.1060  0.0515
  143TCq2    O2 2177   0.156   3.144   9.912 -0.2619  0.4927 -0.3266
  143TCq2    C2 2178   0.286   3.302   9.818 -0.5482 -0.5165  0.1452
  143TCq2    C3 2179   0.273   3.232   9.695 -0.2382  0.4662 -0.7868
  143TCq2    C4 2180   0.338   3.273   9.589 -0.3517 -0.1118  0.3898
  143TCq2    C5 2181   0.409   3.389   9.592  0.2853  0.4544  0.1883
  143TCq2    C6 2182   0.418   3.457   9.710  0.6828  0.0257  0.1706
  143TCq2    C7 2183   0.357   3.419   9.822  0.5078 -0.5969 -0.0200
  143TCq2    C8 2184   0.523   3.551   9.727  0.0397  0.4063 -0.0355
  143TCq2    O4 2185   0.510   3.617   9.827  0.1863 -0.1900 -0.1618
  143TCq2    C9 2186   0.346   3.190   9.471  0.4466 -0.0294  0.1998
  143TCq2    O5 2187   0.238   3.132   9.446  0.1138  0.1370 -0.3292
  143TCq2    O6 2188   0.426   3.236   9.383 -0.2247  0.0234 -0.6663
  143TCq2    H2 2189   0.231   3.133   9.690  0.3293  0.1210  1.2411
  143TCq2    H3 2190   0.458   3.420   9.501 -0.7722 -1.2265 -0.9638
  143TCq2    H4 2191   0.387   3.450   9.921  0.3507 -0.3611 -0.0469
  144MPD2     C 2192   2.850   3.398   0.920  0.0728 -0.0359  0.8740
  144MPD2    C1 2193   2.804   3.271   0.884 -0.5735 -0.1493  0.2018
  144MPD2    C2 2194   2.863   3.161   0.949  0.1512 -0.1714 -0.0814
  144MPD2    C3 2195   2.957   3.178   1.051 -0.3910  0.3294 -0.0411
  144MPD2    C4 2196   2.988   3.302   1.094  0.5668  0.0135  0.4736
  144MPD2    C5 2197   2.939   3.412   1.024 -0.5358 -0.4509 -0.4075
  144MPD2     H 2198   2.839   3.061   0.917  0.0936  0.3012 -1.5103
  144MPD2    H1 2199   3.058   3.310   1.176 -0.3206 -0.4080  1.2796
  144MPD2    H2 2200   2.831   3.481   0.853  2.0523  0.2745  0.6937
  144MPD2    H3 2201   2.978   3.512   1.039 -1.0642 -0.3978  0.6447
  144MPD2     N 2202   3.006   3.065   1.118 -0.1368  0.0873  0.1182
  144MPD2    H5 2203   3.058   3.078   1.204  0.8553  0.2874 -0.4989
  144MPD2    N1 2204   2.719   3.253   0.773  0.1124  0.1341 -0.6702
  144MPD2    H7 2205   2.714   3.158   0.736  0.4477  0.4478 -1.5231
  145TCq2    C1 2206   2.989   2.933   1.085 -0.0202  0.3065 -0.0242
  145TCq2    O2 2207   2.956   2.897   0.970 -0.2106  0.0106  0.0989
  145TCq2    C2 2208   3.004   2.832   1.191 -0.2664  0.1019  0.3821
  145TCq2    C3 2209   3.006   2.698   1.148 -0.1178 -0.2103  0.4021
  145TCq2    C4 2210   3.021   2.608   1.254 -0.5516  0.6641  0.7382
  145TCq2    C5 2211   3.009   2.644   1.382  0.1251  0.1191 -0.2583
  145TCq2    C6 2212   2.999   2.778   1.415  0.6800  0.3970 -0.0110
  145TCq2    C7 2213   2.995   2.874   1.319 -0.1269  0.8513  0.3049
  145TCq2    C8 2214   3.018   2.808   1.558 -0.0940  0.3733 -1.0060
  145TCq2    O4 2215   3.097   2.736   1.615 -0.1864  0.1776 -0.0521
  145TCq2    C9 2216   3.039   2.468   1.223  0.3567  0.1758  0.5812
  145TCq2    O5 2217   3.030   2.440   1.099 -0.1432  0.3083 -0.0261
  145TCq2    O6 2218   3.101   2.400   1.312 -0.4262  0.6539 -0.0406
  145TCq2    H2 2219   3.011   2.672   1.043 -1.3181 -1.0366  0.5400
  145TCq2    H3 2220   3.032   2.574   1.461  1.6863  2.0853  1.0100
  145TCq2    H4 2221   3.000   2.981   1.336  1.2740  0.9127 -0.4639
  146TMC2    C1 2222   4.242   1.889  13.122 -0.2904 -0.6720  0.6023
  146TMC2    C2 2223   4.225   2.026  13.120 -0.4016  0.2626  0.2446
  146TMC2    C3 2224   4.257   2.087  13.002  0.0059  0.2098  0.6101
  146TMC2    C4 2225   4.274   1.818  13.005 -0.0374 -0.4481  0.5729
  146TMC2    C5 2226   4.295   1.888  12.890  0.5667 -0.0182 -0.2148
  146TMC2    C6 2227   4.286   2.024  12.884  0.8701  0.3121  0.0999
  146TMC2     C 2228   4.255   1.825  13.257  0.2054 -0.3607 -0.2985
  146TMC2     O 2229   4.180   1.867  13.345 -0.2859  0.3519 -0.0839
  146TMC2     H 2230   4.206   2.078  13.213 -3.0178  1.2747 -0.8664
  146TMC2    H1 2231   4.271   1.710  13.009  0.7672 -0.3641  3.7343
  146TMC2    H2 2232   4.308   2.082  12.795 -0.7152  1.8888  0.7129
  146TMC2    C7 2233   4.322   1.807  12.775  0.3501 -0.5623 -0.6926
  146TMC2    C8 2234   4.219   2.221  12.977  0.5538 -0.5135  0.2132
  146TMC2    O1 2235   4.350   1.687  12.798 -0.4929  0.6528  0.0752
  146TMC2    O2 2236   4.270   2.291  12.890  0.4459  0.4823 -0.0213
  146TMC2    O5 2237   4.123   2.259  13.060 -0.0229 -0.7999  0.4244
  146TMC2    H5 2238   4.077   2.180  13.096 -2.6876 -0.2269 -1.7086
  147MPD2     C 2239   4.440   1.766  12.277 -0.0907  0.0679  0.8061
  147MPD2    C1 2240   4.476   1.684  12.380 -0.3325 -0.7599 -0.5088
  147MPD2    C2 2241   4.430   1.712  12.509 -0.2063 -0.7661  0.1705
  147MPD2    C3 2242   4.366   1.833  12.534  0.2077 -0.6004  0.2051
  147MPD2    C4 2243   4.332   1.910  12.429  0.0147 -0.2225  0.2960
  147MPD2    C5 2244   4.363   1.875  12.304 -0.8901 -0.0629 -0.6123
  147MPD2     H 2245   4.458   1.648  12.592 -0.4887  1.2300  1.8234
  147MPD2    H1 2246   4.268   1.998  12.437  1.4193  0.7224  1.0270
  147MPD2    H2 2247   4.475   1.752  12.175 -0.8377  2.5440  0.2118
  147MPD2    H3 2248   4.329   1.942  12.225 -2.0238  1.7205  1.3693
  147MPD2     N 2249   4.325   1.882  12.664  0.0718 -0.0871 -0.1898
  147MPD2    H5 2250   4.272   1.969  12.656  0.8958  0.4121 -0.2345
  147MPD2    N1 2251   4.567   1.574  12.347 -0.5479 -0.9556 -0.1199
  147MPD2    H7 2252   4.574   1.548  12.249  0.3369  1.0932 -0.6110
  148MPD2     C 2253   4.546   4.379  10.819  0.0636 -0.5545 -0.0640
  148MPD2    C1 2254   4.605   4.418  10.697 -0.1642 -0.1664 -0.1623
  148MPD2    C2 2255   4.548   4.363  10.587 -0.7827 -0.0391  0.1739
  148MPD2    C3 2256   4.444   4.264  10.581 -0.4021 -0.6396 -0.2156
  148MPD2    C4 2257   4.393   4.229  10.707  0.1073  0.0382  0.0964
  148MPD2    C5 2258   4.443   4.286  10.822  0.3921  0.9549  0.7459
  148MPD2     H 2259   4.582   4.397  10.489  0.1597  1.0288  0.8738
  148MPD2    H1 2260   4.321   4.149  10.717 -0.4237  0.5259  0.1628
  148MPD2    H2 2261   4.578   4.434  10.906 -2.8156 -1.1581  1.3812
  148MPD2    H3 2262   4.395   4.253  10.913  0.6636 -0.7087  0.2900
  148MPD2     N 2263   4.395   4.206  10.459  0.3993  0.0470 -0.4881
  148MPD2    H5 2264   4.305   4.159  10.468  0.2447  0.1928 -1.2416
  148MPD2    N1 2265   4.717   4.502  10.675  0.2971  0.1804 -0.4073
  148MPD2    H7 2266   0.031   4.504  10.580  1.5986  0.6152  0.0851
  149TCq2    C1 2267   0.064   4.571  10.764 -0.0101  0.3426 -0.5119
  149TCq2    O2 2268   0.046   4.584  10.887 -0.1585 -0.3235 -0.0664
  149TCq2    C2 2269   0.176   4.631  10.709 -0.2785 -0.3259  0.6590
  149TCq2    C3 2270   0.197   0.048  10.738  0.0147 -0.1292  0.0161
  149TCq2    C4 2271   0.286   0.121  10.661 -0.0093 -0.0343  0.3915
  149TCq2    C5 2272   0.366   0.058  10.569  0.0351  0.4647 -1.2215
  149TCq2    C6 2273   0.332   4.650  10.528 -0.0535 -0.7264 -0.8607
  149TCq2    C7 2274   0.241   4.576  10.603 -0.5464  0.3358  0.6968
  149TCq2    C8 2275   0.409   4.587  10.428 -0.1624 -0.3749  0.4182
  149TCq2    O4 2276   0.520   4.640  10.413 -0.6460  0.2972 -0.1555
  149TCq2    C9 2277   0.337   0.252  10.703 -0.3136 -0.0431  0.2166
  149TCq2    O5 2278   0.434   0.307  10.647  0.4145 -0.3052 -0.7218
  149TCq2    O6 2279   0.296   0.295  10.818 -0.3463  0.4424  0.7799
  149TCq2    H2 2280   0.143   0.096  10.818 -0.8082 -1.0839  0.0363
  149TCq2    H3 2281   0.447   0.111  10.520  0.2784  1.2254 -0.0106
  149TCq2    H4 2282   0.227   4.471  10.582  1.4973  0.1135  0.4119
  150MPD2     C 2283   1.587   3.919  12.541  0.3984 -0.4601 -0.2571
  150MPD2    C1 2284   1.662   3.890  12.432  0.4652  0.6339 -0.0011
  150MPD2    C2 2285   1.793   3.922  12.435 -0.2073  0.1724 -0.4874
  150MPD2    C3 2286   1.850   3.989  12.538  0.4012  0.3509 -0.1823
  150MPD2    C4 2287   1.779   4.025  12.649  0.0294  0.1151 -0.0767
  150MPD2    C5 2288   1.647   3.989  12.646 -0.4756  0.4556  0.5809
  150MPD2     H 2289   1.867   3.889  12.363 -0.0726 -2.2834  0.7782
  150MPD2    H1 2290   1.821   4.074  12.735 -1.8636 -0.2922  1.0795
  150MPD2    H2 2291   1.485   3.886  12.551  0.8435 -1.7463  0.0333
  150MPD2    H3 2292   1.598   4.020  12.738 -0.6719 -1.9899  1.2937
  150MPD2     N 2293   1.989   4.021  12.533 -0.0748  0.6350  0.0967
  150MPD2    H5 2294   2.039   3.978  12.456 -0.7205 -0.7907  0.4752
  150MPD2    N1 2295   1.599   3.833  12.320  0.1357  0.3320  0.0318
  150MPD2    H7 2296   1.498   3.821  12.313  0.4427 -2.9120  0.8244
  151TCq2    C1 2297   2.068   4.079  12.631 -0.3719  0.2248  0.3343
  151TCq2    O2 2298   2.039   4.124  12.740  0.6709  0.5240  0.3492
  151TCq2    C2 2299   2.213   4.074  12.610  0.0431 -0.0432 -0.7930
  151TCq2    C3 2300   2.260   4.027  12.487 -0.0924  0.0524  0.1327
  151TCq2    C4 2301   2.395   4.013  12.474 -0.8968 -0.4997  0.6522
  151TCq2    C5 2302   2.481   4.038  12.579 -0.5381  0.0756  0.2585
  151TCq2    C6 2303   2.430   4.089  12.692 -0.1308 -0.6878  0.1333
  151TCq2    C7 2304   2.295   4.100  12.714  0.1622  0.3018  0.1082
  151TCq2    C8 2305   2.504   4.080  12.810 -0.6723  0.1911  0.0660
  151TCq2    O4 2306   2.472   4.144  12.911  0.0927  0.1286  1.2771
  151TCq2    C9 2307   2.450   3.961  12.353 -0.8119  0.1595 -0.8797
  151TCq2    O5 2308   2.377   3.933  12.257  0.3675  0.3004  0.3695
  151TCq2    O6 2309   2.577   3.957  12.352 -0.3442 -0.5177 -0.3427
  151TCq2    H2 2310   2.201   3.993  12.403 -0.3950  0.0934  0.3319
  151TCq2    H3 2311   2.587   4.031  12.559 -0.6582 -0.2940 -0.2561
  151TCq2    H4 2312   2.260   4.126  12.813 -1.6390  0.6832 -0.6301
  152MPD2     C 2313   1.426   3.591  13.034 -0.3959 -0.1440  0.3855
  152MPD2    C1 2314   1.470   3.713  12.986 -0.2345 -0.5920  0.7474
  152MPD2    C2 2315   1.373   3.778  12.913 -0.0268 -0.1611 -0.2890
  152MPD2    C3 2316   1.247   3.727  12.879 -0.3829 -0.5859  0.8729
  152MPD2    C4 2317   1.213   3.603  12.928 -0.7632  0.3663 -0.4320
  152MPD2    C5 2318   1.303   3.538  13.009  0.6813 -0.1316  0.3111
  152MPD2     H 2319   1.390   3.876  12.870  2.5824 -0.4169  0.1432
  152MPD2    H1 2320   1.117   3.553  12.918  0.5437 -1.9476 -1.5301
  152MPD2    H2 2321   1.500   3.543  13.097 -0.7677  1.2831  1.9226
  152MPD2    H3 2322   1.279   3.440  13.048  0.2270  0.5036  1.6202
  152MPD2     N 2323   1.163   3.789  12.782  0.4675  0.1323 -0.1810
  152MPD2    H5 2324   1.217   3.856  12.728  1.0175  0.6171  0.9507
  152MPD2    N1 2325   1.593   3.767  13.019 -0.3969 -0.0817 -0.2539
  152MPD2    H7 2326   1.665   3.713  13.066  0.0224  0.5815 -0.1238
  153TCq2    C1 2327   1.629   3.896  13.000  0.2456 -0.0604  0.7179
  153TCq2    O2 2328   1.555   3.989  12.983 -0.1714 -0.4132  0.6056
  153TCq2    C2 2329   1.772   3.916  13.016 -0.6980  0.3072 -0.3558
  153TCq2    C3 2330   1.858   3.820  12.987 -0.4671  0.1674 -0.2571
  153TCq2    C4 2331   1.988   3.856  12.978 -0.0433 -0.4937  0.6266
  153TCq2    C5 2332   2.035   3.988  12.998  0.0417 -0.1525 -0.1636
  153TCq2    C6 2333   1.941   4.086  13.018  0.3072  0.4224  0.3139
  153TCq2    C7 2334   1.811   4.048  13.024  0.2790  0.4239 -0.2220
  153TCq2    C8 2335   1.976   4.219  13.072  0.0307 -0.2675 -0.2652
  153TCq2    O4 2336   1.908   4.273  13.158  0.6020  0.1071 -0.0892
  153TCq2    C9 2337   2.089   3.753  12.950 -0.5844 -0.3844  0.1489
  153TCq2    O5 2338   2.205   3.778  12.997 -1.0616  0.1545  0.2218
  153TCq2    O6 2339   2.052   3.653  12.884  0.2505 -0.1123  0.3453
  153TCq2    H2 2340   1.841   3.713  12.985  2.2846 -0.2907 -0.0924
  153TCq2    H3 2341   2.142   4.007  12.997 -0.0455  0.3432 -0.5149
  153TCq2    H4 2342   1.748   4.133  13.050 -0.6717  0.2011 -1.7975
  154MPD2     C 2343   3.665   3.906   0.009 -0.5784 -0.2176  0.4457
  154MPD2    C1 2344   3.652   4.027   0.070  0.4891  0.8189 -0.7647
  154MPD2    C2 2345   3.543   4.050   0.156 -0.1482  0.7084 -0.2852
  154MPD2    C3 2346   3.452   3.948   0.179 -0.2676  0.5246  0.5164
  154MPD2    C4 2347   3.466   3.829   0.116  0.5818  0.2193  0.4482
  154MPD2    C5 2348   3.578   3.809   0.037 -0.3343  0.2422  0.3663
  154MPD2     H 2349   3.535   4.148   0.203 -0.5626  0.4238  0.2408
  154MPD2    H1 2350   3.385   3.756   0.117  0.3121  0.5241  0.6897
  154MPD2    H2 2351   3.760   3.892  17.646 -0.7211 -1.4578  0.5464
  154MPD2    H3 2352   3.585   3.713  17.674 -1.5444 -0.7226  2.0791
  154MPD2     N 2353   3.335   3.983   0.249 -0.0613 -0.1487  0.3461
  154MPD2    H5 2354   3.318   4.078   0.278 -0.1572 -0.4802  1.3802
  154MPD2    N1 2355   3.751   4.127   0.046  0.0851 -0.3731 -0.5270
  154MPD2    H7 2356   3.822   4.105  17.664 -0.5652 -0.3324 -1.2213
  155TCq2    C1 2357   3.769   4.245   0.123 -0.1590  0.3646 -0.5829
  155TCq2    O2 2358   3.706   4.287   0.218 -0.6020  0.6615 -0.8890
  155TCq2    C2 2359   3.899   4.320   0.096 -0.9128  0.1800  0.0103
  155TCq2    C3 2360   3.998   4.257   0.022 -0.2007 -0.2816 -0.1712
  155TCq2    C4 2361   4.122   4.326   0.009  0.3100 -1.0357  0.2508
  155TCq2    C5 2362   4.141   4.447   0.069 -0.0019  0.0727  0.5484
  155TCq2    C6 2363   4.041   4.490   0.155 -0.2664  0.4819 -0.0177
  155TCq2    C7 2364   3.919   4.435   0.165  0.3335 -0.2311 -0.0625
  155TCq2    C8 2365   4.076   4.619   0.214 -0.2093  0.2580  0.4447
  155TCq2    O4 2366   4.193   4.648   0.225  0.4850 -0.2317 -0.3239
  155TCq2    C9 2367   4.241   4.268  17.634  0.3611  0.0337 -0.3256
  155TCq2    O5 2368   4.240   4.148  17.591  0.2552 -0.3860 -0.5877
  155TCq2    O6 2369   4.343   4.344  17.614 -0.4458 -0.4508  0.5910
  155TCq2    H2 2370   3.976   4.166  17.654  0.2527 -1.1884  1.1491
  155TCq2    H3 2371   4.244   4.482   0.065 -0.6229  1.7130 -1.2695
  155TCq2    H4 2372   3.854   4.473   0.244  0.0247 -2.6664  0.8759
  156MPD2     C 2373   1.251   1.367  12.057  0.0046 -0.1208 -0.1537
  156MPD2    C1 2374   1.344   1.452  12.002 -0.4278 -0.2115  0.3018
  156MPD2    C2 2375   1.448   1.503  12.073  0.3243  0.1912 -0.5030
  156MPD2    C3 2376   1.455   1.474  12.211  0.3971  0.8285  0.0316
  156MPD2    C4 2377   1.362   1.387  12.266 -0.5969 -0.3370 -0.0718
  156MPD2    C5 2378   1.269   1.333  12.185 -0.1318 -0.0521  0.8857
  156MPD2     H 2379   1.530   1.556  12.026  1.0680 -0.8492 -0.3945
  156MPD2    H1 2380   1.353   1.361  12.370 -0.0558 -0.8709 -0.1564
  156MPD2    H2 2381   1.156   1.349  12.007 -0.6810 -0.6658  1.3407
  156MPD2    H3 2382   1.211   1.255  12.233 -0.8536 -0.3564 -0.5154
  156MPD2     N 2383   1.553   1.537  12.290  0.0249  1.5154 -0.1870
  156MPD2    H5 2384   1.606   1.611  12.244  1.0856  0.6976 -0.2721
  156MPD2    N1 2385   1.322   1.484  11.868  0.1860  0.0497 -0.1632
  156MPD2    H7 2386   1.234   1.439  11.842 -0.1371 -0.8691  2.5458
  157TCq2    C1 2387   1.392   1.578  11.794 -0.6580  0.3742 -0.3287
  157TCq2    O2 2388   1.478   1.660  11.820 -0.2034  0.0275 -0.1029
  157TCq2    C2 2389   1.331   1.606  11.663  0.0928 -0.3852  0.3259
  157TCq2    C3 2390   1.242   1.520  11.611  0.2708 -0.5200 -0.0126
  157TCq2    C4 2391   1.151   1.568  11.522  1.0944 -0.5763 -0.1606
  157TCq2    C5 2392   1.145   1.701  11.485  0.1780  0.2169  0.2234
  157TCq2    C6 2393   1.251   1.785  11.525 -0.3973  0.1247  0.1803
  157TCq2    C7 2394   1.339   1.732  11.616  0.0488  0.2832 -0.0602
  157TCq2    C8 2395   1.266   1.920  11.475  0.1624  0.1217 -0.4461
  157TCq2    O4 2396   1.384   1.953  11.451  0.1369  0.6334 -0.4532
  157TCq2    C9 2397   1.049   1.473  11.471 -0.2168 -0.2647 -0.2119
  157TCq2    O5 2398   0.948   1.520  11.415  0.1302  0.2126  1.0032
  157TCq2    O6 2399   1.058   1.355  11.516 -0.3817  0.4957  0.6250
  157TCq2    H2 2400   1.246   1.416  11.642  2.0825 -0.5318 -0.3057
  157TCq2    H3 2401   1.069   1.730  11.414  0.0843 -1.0144 -0.1785
  157TCq2    H4 2402   1.419   1.795  11.655 -0.5836 -0.6578  2.7872
  158TMC2    C1 2403   2.232   0.635  13.762  0.6297 -0.8830  0.1999
  158TMC2    C2 2404   2.264   0.768  13.745 -0.4984  0.1957  0.0958
  158TMC2    C3 2405   2.192   0.833  13.655  0.6453 -0.0661 -0.3889
  158TMC2    C4 2406   2.128   0.572  13.689 -0.0658  0.4680 -0.5169
  158TMC2    C5 2407   2.051   0.649  13.609  0.2361 -0.3129 -0.1929
  158TMC2    C6 2408   2.089   0.778  13.583  0.1617 -0.2171 -0.3364
  158TMC2     C 2409   2.305   0.558  13.861  0.2326 -0.5084  0.1404
  158TMC2     O 2410   2.420   0.592  13.879  0.2178 -0.3542  0.4897
  158TMC2     H 2411   2.350   0.813  13.794  0.6156 -2.7517  0.8489
  158TMC2    H1 2412   2.112   0.466  13.704  0.0925  0.3616 -1.0894
  158TMC2    H2 2413   2.035   0.834  13.507 -0.0601 -0.5891 -0.4536
  158TMC2    C7 2414   1.927   0.603  13.544 -0.4081 -0.4439  0.1212
  158TMC2    C8 2415   2.214   0.970  13.636 -0.1761  0.1271 -0.4239
  158TMC2    O1 2416   1.879   0.680  13.460  0.6141  0.1950 -0.4941
  158TMC2    O2 2417   2.125   1.039  13.590 -0.3151 -0.0756 -0.2632
  158TMC2    O5 2418   2.346   0.988  13.619 -0.1255  0.1297 -0.4792
  158TMC2    H5 2419   2.388   0.899  13.629  2.0025  1.2841  0.9543
  159MPD2     C 2420   2.378   0.176  14.213 -0.1439 -0.4806 -0.3395
  159MPD2    C1 2421   2.244   0.195  14.195 -0.7523  0.0601  0.3466
  159MPD2    C2 2422   2.202   0.287  14.100  0.3070  0.3827  0.2204
  159MPD2    C3 2423   2.286   0.365  14.021 -0.2528 -0.2050  0.1177
  159MPD2    C4 2424   2.421   0.340  14.035 -1.0053  0.0836  0.0267
  159MPD2    C5 2425   2.465   0.257  14.136  0.0841  0.4202  0.1497
  159MPD2     H 2426   2.097   0.313  14.093  0.1561 -0.0702  0.8106
  159MPD2    H1 2427   2.498   0.397  13.984 -0.5970  0.5622  1.1621
  159MPD2    H2 2428   2.426   0.120  14.292  1.3068  1.1155 -0.0803
  159MPD2    H3 2429   2.572   0.251  14.148 -0.0985 -1.9130  0.5159
  159MPD2     N 2430   2.233   0.462  13.926  0.1380 -0.4670 -0.2291
  159MPD2    H5 2431   2.134   0.457  13.904  0.2925 -1.6763 -0.6578
  159MPD2    N1 2432   2.153   0.134  14.288 -0.1925  0.1017 -0.4690
  159MPD2    H7 2433   2.195   0.109  14.377 -0.7614  2.5521  0.4820
  160TMC2    C1 2434   2.516   3.255   1.915 -0.2444 -0.5173 -1.0425
  160TMC2    C2 2435   2.593   3.163   1.967  0.3839 -0.0525 -0.4573
  160TMC2    C3 2436   2.642   3.067   1.881  0.4169  0.7615  0.1849
  160TMC2    C4 2437   2.504   3.274   1.779  0.0398  0.4857  0.4861
  160TMC2    C5 2438   2.554   3.176   1.692  0.3663 -0.1245 -0.0733
  160TMC2    C6 2439   2.620   3.068   1.747 -0.4064  0.3971 -0.3623
  160TMC2     C 2440   2.496   3.374   1.996 -0.4193 -0.4668  0.6652
  160TMC2     O 2441   2.574   3.388   2.089 -0.0027 -0.4387  0.1251
  160TMC2     H 2442   2.602   3.153   2.075  1.8253  0.9797 -0.4821
  160TMC2    H1 2443   2.459   3.362   1.734 -3.3366 -0.1156  2.7210
  160TMC2    H2 2444   2.670   2.993   1.687 -0.5730 -0.6278  0.7783
  160TMC2    C7 2445   2.481   3.144   1.570  0.1571 -0.2274 -0.3367
  160TMC2    C8 2446   2.708   2.957   1.945  0.5463  0.5602  0.3256
  160TMC2    O1 2447   2.440   3.033   1.554  0.1831 -0.0640  0.0872
  160TMC2    O2 2448   2.750   2.965   2.057 -0.1772  0.1223 -0.4828
  160TMC2    O5 2449   2.696   2.842   1.872  0.3354 -0.9563  0.0678
  160TMC2    H5 2450   2.631   2.844   1.798 -1.4534 -1.8298  1.6288
  161MPD2     C 2451   2.441   3.660   2.053  0.2173 -1.2054 -0.1690
  161MPD2    C1 2452   2.361   3.589   1.971  0.1931 -0.5019 -0.1060
  161MPD2    C2 2453   2.253   3.646   1.910  0.0549 -0.3556 -0.6799
  161MPD2    C3 2454   2.212   3.774   1.942  0.7031 -1.0356 -0.0553
  161MPD2    C4 2455   2.285   3.848   2.035  0.3579 -0.4851  0.0591
  161MPD2    C5 2456   2.396   3.786   2.087  0.1290  0.1237 -0.6299
  161MPD2     H 2457   2.199   3.590   1.834 -1.0245 -1.0707  0.6104
  161MPD2    H1 2458   2.261   3.951   2.058  2.8599  0.3844 -1.1840
  161MPD2    H2 2459   2.527   3.618   2.104  0.3263 -3.0411 -1.8712
  161MPD2    H3 2460   2.456   3.858   2.141  2.5087 -1.7669 -0.7530
  161MPD2     N 2461   2.096   3.837   1.890  1.0404  0.3711 -0.3819
  161MPD2    H5 2462   2.080   3.929   1.929 -1.2097  0.4218 -1.4723
  161MPD2    N1 2463   2.400   3.456   1.938 -0.3137 -0.5317 -0.4867
  161MPD2    H7 2464   2.353   3.426   1.853 -0.1453 -1.1790 -0.3510
  162TMC2    C1 2465   0.021   0.143   0.782  0.3061 -1.0101  0.1019
  162TMC2    C2 2466   0.015   0.188   0.653 -0.5150  0.1874 -0.2010
  162TMC2    C3 2467   4.610   0.209   0.599 -0.0237 -0.1581 -0.1478
  162TMC2    C4 2468   4.628   0.103   0.850 -0.4411 -0.4300  0.2371
  162TMC2    C5 2469   4.506   0.120   0.791 -0.0164  0.4178 -0.1693
  162TMC2    C6 2470   4.499   0.173   0.662 -0.4804 -0.3348  0.5460
  162TMC2     C 2471   0.148   0.161   0.845 -1.2099 -0.1108  0.1559
  162TMC2     O 2472   0.233   0.209   0.774 -0.2400 -0.7014 -0.4137
  162TMC2     H 2473   0.097   0.234   0.600 -1.1494  0.1112 -1.2426
  162TMC2    H1 2474   4.629   0.054   0.947  0.3737 -0.9623 -0.0382
  162TMC2    H2 2475   4.400   0.195   0.622 -0.7074  0.4141  1.5170
  162TMC2    C7 2476   4.380   0.096   0.852  0.4070  0.4425 -0.4435
  162TMC2    C8 2477   4.610   0.271   0.466  0.2289 -0.7106  0.3164
  162TMC2    O1 2478   4.280   0.117   0.785  0.0606  0.2157 -0.4220
  162TMC2    O2 2479   4.651   0.386   0.450 -0.3253  0.0065 -0.1235
  162TMC2    O5 2480   4.502   0.218   0.407  0.0483  0.0633  0.1177
  162TMC2    H5 2481   4.485   0.126   0.435  0.5835 -0.6348 -1.8097
  163MPD2     C 2482   0.495   0.160   1.220 -0.0596  0.7802  0.4994
  163MPD2    C1 2483   0.504   0.189   1.085  0.2985 -0.1266  1.0915
  163MPD2    C2 2484   0.392   0.188   0.997  0.2997 -0.1104  0.7127
  163MPD2    C3 2485   0.269   0.141   1.052 -0.1804  0.9502 -0.4352
  163MPD2    C4 2486   0.268   0.107   1.184 -0.3489 -0.0040 -0.3576
  163MPD2    C5 2487   0.378   0.105   1.267  0.4109 -0.5502 -0.1951
  163MPD2     H 2488   0.396   0.234   0.900  0.8970  0.9216  1.2247
  163MPD2    H1 2489   0.173   0.077   1.225  0.5638 -0.6132  1.3443
  163MPD2    H2 2490   0.577   0.164   1.291 -1.3059  0.2353  1.9905
  163MPD2    H3 2491   0.374   0.073   1.370 -2.2411 -1.0601 -0.4609
  163MPD2     N 2492   0.151   0.131   0.978  0.2296  0.2641  0.3164
  163MPD2    H5 2493   0.064   0.098   1.019  1.0027  0.4692  2.0939
  163MPD2    N1 2494   0.634   0.214   1.038  0.5808 -0.1089  0.0572
  163MPD2    H7 2495   0.705   0.235   1.107  0.8174  0.9209 -0.4964
  164TCq2    C1 2496   0.565   4.437  11.255 -0.1221 -0.6954  0.0115
  164TCq2    O2 2497   0.498   4.408  11.350  0.1923 -0.5663 -0.4473
  164TCq2    C2 2498   0.605   4.576  11.261 -0.4485 -0.1623 -0.4900
  164TCq2    C3 2499   0.675   4.629  11.159  0.0582  0.4321  0.6609
  164TCq2    C4 2500   0.687   0.040  11.150 -0.0173  0.2428 -0.1981
  164TCq2    C5 2501   0.613   0.128  11.226  0.3139  0.1473 -0.3950
  164TCq2    C6 2502   0.546   0.072  11.328 -0.2960 -0.4717  0.2199
  164TCq2    C7 2503   0.552   4.658  11.350 -0.7402  0.0727 -0.0752
  164TCq2    C8 2504   0.421   0.134  11.357  0.2859  0.9124 -0.3248
  164TCq2    O4 2505   0.370   0.197  11.265  0.0733 -0.8332 -0.0946
  164TCq2    C9 2506   0.762   0.099  11.045  0.0314 -0.8243  0.4808
  164TCq2    O5 2507   0.780   0.025  10.944  0.0331  0.4661  0.1687
  164TCq2    O6 2508   0.793   0.219  11.041  0.0860  0.2800  0.2158
  164TCq2    H2 2509   0.730   4.571  11.087  3.0508  2.3891  1.3647
  164TCq2    H3 2510   0.618   0.234  11.202  0.6435  0.9028  3.1300
  164TCq2    H4 2511   0.501   4.608  11.431 -2.5829  0.1866 -1.1633
  165MPD2     C 2512   0.774   1.606   1.777  0.3502 -0.1413 -0.3173
  165MPD2    C1 2513   0.857   1.698   1.709 -0.3001  0.1273 -0.1895
  165MPD2    C2 2514   0.993   1.712   1.750 -0.0841  0.3198  0.1946
  165MPD2    C3 2515   1.035   1.644   1.867 -0.4093 -0.0095  0.1136
  165MPD2    C4 2516   0.951   1.557   1.931 -0.0882 -0.5342  0.0763
  165MPD2    C5 2517   0.828   1.546   1.885  0.0377 -0.4516 -0.1937
  165MPD2     H 2518   1.060   1.781   1.702  2.6266 -1.9742  0.7051
  165MPD2    H1 2519   0.977   1.509   2.025  4.5274  1.0913 -0.3560
  165MPD2    H2 2520   0.667   1.602   1.760  0.5937 -0.7455 -1.7295
  165MPD2    H3 2521   0.754   1.493   1.944  0.2037 -1.0312 -0.5064
  165MPD2     N 2522   1.169   1.651   1.914 -0.6913  0.2424 -0.3082
  165MPD2    H5 2523   1.206   1.574   1.968  0.0018  1.0385  0.3603
  165MPD2    N1 2524   0.800   1.781   1.615  0.0739  0.3055  0.6830
  165MPD2    H7 2525   0.707   1.759   1.580  0.1152 -0.4506  1.0499
  166TCq2    C1 2526   1.264   1.737   1.871 -0.8123  0.0297 -0.0291
  166TCq2    O2 2527   1.249   1.843   1.809 -0.1146 -0.2213 -0.8010
  166TCq2    C2 2528   1.401   1.697   1.900  0.0979  0.4146  0.3609
  166TCq2    C3 2529   1.419   1.563   1.945 -0.0932  1.1158  0.1960
  166TCq2    C4 2530   1.552   1.518   1.937  0.3578  0.1942 -0.8531
  166TCq2    C5 2531   1.655   1.593   1.896 -0.3418 -0.8148 -0.5205
  166TCq2    C6 2532   1.626   1.716   1.843 -0.2896 -0.0493  0.1561
  166TCq2    C7 2533   1.498   1.776   1.850 -0.2816  0.6014 -0.3822
  166TCq2    C8 2534   1.743   1.778   1.786 -0.9306  0.2995 -0.1856
  166TCq2    O4 2535   1.824   1.711   1.722 -0.2517  0.4159 -0.5094
  166TCq2    C9 2536   1.593   1.387   1.979  0.2906 -0.4975  0.5086
  166TCq2    O5 2537   1.709   1.379   2.021 -0.1363  0.3686 -0.0760
  166TCq2    O6 2538   1.498   1.306   2.014  0.2148  0.3492  0.4160
  166TCq2    H2 2539   1.345   1.500   1.991 -0.5977  1.1693 -0.5333
  166TCq2    H3 2540   1.754   1.550   1.896 -0.3973 -0.9429 -1.5888
  166TCq2    H4 2541   1.484   1.880   1.823 -1.9180  0.8233  1.3368
  167TMC2    C1 2542   4.242   0.254  12.534 -0.1224  0.1525  0.8696
  167TMC2    C2 2543   4.192   0.357  12.615 -0.1929 -0.5741 -0.4719
  167TMC2    C3 2544   4.220   0.346  12.753  0.4705  0.7259  0.2201
  167TMC2    C4 2545   4.311   0.141  12.589  0.3049 -0.4156  0.1851
  167TMC2    C5 2546   4.315   0.137  12.725  0.7456  0.2975 -0.2346
  167TMC2    C6 2547   4.273   0.235  12.804 -0.3748  0.2345  0.8128
  167TMC2     C 2548   4.282   0.293  12.395  0.1448 -0.4026  0.7847
  167TMC2     O 2549   4.289   0.409  12.355  0.5869  0.1059  0.0214
  167TMC2     H 2550   4.136   0.439  12.571 -1.2753 -0.7738  0.5615
  167TMC2    H1 2551   4.339   0.053  12.534 -0.1856 -0.4315 -0.0403
  167TMC2    H2 2552   4.279   0.222  12.911 -0.4269  0.9400  0.9018
  167TMC2    C7 2553   4.385   0.029  12.787 -0.1692  0.1952 -0.2051
  167TMC2    C8 2554   4.149   0.443  12.845  0.6234 -0.2385  0.3338
  167TMC2    O1 2555   4.345   4.709  12.895  0.1117 -0.2147 -0.0953
  167TMC2    O2 2556   4.044   0.498  12.821  0.7466 -0.4960  0.2405
  167TMC2    O5 2557   4.224   0.467  12.956  0.1882  0.1705  0.6568
  167TMC2    H5 2558   4.315   0.431  12.961 -0.6422 -2.0659 -0.4909
  168MPD2     C 2559   4.417   0.248  12.126  0.6224  0.6761 -0.1328
  168MPD2    C1 2560   4.388   0.156  12.219 -0.9289  0.5955  0.1027
  168MPD2    C2 2561   4.439   0.027  12.202  0.1494 -0.1368 -0.4783
  168MPD2    C3 2562   4.531   0.007  12.103 -0.5759 -0.1247 -0.0753
  168MPD2    C4 2563   4.561   0.102  12.013  0.2899 -0.1155 -0.0982
  168MPD2    C5 2564   4.498   0.222  12.021 -0.0180 -0.1549  0.0840
  168MPD2     H 2565   4.422   4.677  12.282 -1.4962  1.0243  0.2085
  168MPD2    H1 2566   4.625   0.086  11.927  1.0595 -0.0422  0.4503
  168MPD2    H2 2567   4.373   0.347  12.134 -1.3174 -0.0173 -2.1931
  168MPD2    H3 2568   4.512   0.292  11.940 -3.7969 -1.5065 -1.7308
  168MPD2     N 2569   4.602   4.600  12.092 -0.0667 -0.6574  0.3469
  168MPD2    H5 2570   4.659   4.584  12.010  0.9186 -2.4067  1.3752
  168MPD2    N1 2571   4.315   0.177  12.334 -0.0036  0.1083 -0.4190
  168MPD2    H7 2572   4.299   0.091  12.385 -0.3406  0.8076  0.6595
  169MPD1     C 2573   0.701   4.405   9.785  0.1860 -0.0564  0.0046
  169MPD1    C1 2574   0.754   4.284   9.743  0.7458  0.4965  0.1352
  169MPD1    C2 2575   0.888   4.270   9.722 -0.1609  0.4861 -0.4179
  169MPD1    C3 2576   0.980   4.360   9.770 -0.2563  0.3533 -0.2787
  169MPD1    C4 2577   0.930   4.478   9.816  0.8113 -0.3312  0.0304
  169MPD1    C5 2578   0.793   4.494   9.837 -0.0463 -0.1210 -0.8260
  169MPD1     H 2579   0.924   4.174   9.686  2.2690  0.5364  1.8957
  169MPD1    H1 2580   0.995   4.555   9.856  1.3013 -0.4116 -0.6082
  169MPD1    H2 2581   0.601   4.421   9.823  0.1146 -3.3843  1.2390
  169MPD1    H3 2582   0.764   4.577   9.900 -0.3396 -0.7315 -0.1589
  169MPD1     N 2583   1.124   4.336   9.747  0.6340 -0.1552 -0.0476
  169MPD1    H5 2584   1.154   4.250   9.700 -1.3920  0.0116 -1.6427
  169MPD1    N1 2585   0.662   4.183   9.694 -0.6430 -0.0966  0.5722
  169MPD1    H6 2586   0.567   4.198   9.728 -0.9393 -0.9930  0.1376
  169MPD1    H7 2587   0.692   4.099   9.743  1.2333  0.0409 -0.3572
  170MPD1     C 2588   1.087   2.041  12.969 -0.0094 -0.1551  0.1532
  170MPD1    C1 2589   1.111   2.179  12.984 -0.1955 -0.2085  0.0907
  170MPD1    C2 2590   1.025   2.238  13.080  0.4861 -0.5155 -0.4641
  170MPD1    C3 2591   0.917   2.167  13.136  0.8615 -0.2931  0.4224
  170MPD1    C4 2592   0.898   2.037  13.107  0.8188 -0.1830  0.1752
  170MPD1    C5 2593   0.981   1.979  13.023 -0.6632  0.7425 -0.4793
  170MPD1     H 2594   1.049   2.337  13.116  0.3532 -0.1820 -1.2944
  170MPD1    H1 2595   0.820   1.973  13.147 -0.1744 -0.6635 -2.5251
  170MPD1    H2 2596   1.153   1.983  12.905 -0.2154  0.2360 -0.4216
  170MPD1    H3 2597   0.952   1.876  13.004 -3.1867  1.1166  1.4600
  170MPD1     N 2598   0.834   2.245  13.216  0.2792  0.4545 -0.2476
  170MPD1    H5 2599   0.856   2.343  13.232  0.7629  0.0848  1.3492
  170MPD1    N1 2600   1.238   2.234  12.949 -0.3487 -0.5296 -0.6629
  170MPD1    H6 2601   1.232   2.336  12.948  1.2261 -0.4072  1.7783
  170MPD1    H7 2602   1.274   2.192  12.864 -0.2067 -0.7884 -0.4733
  171MPD1     C 2603   3.559   3.151  15.674  0.7393  0.9920 -0.0122
  171MPD1    C1 2604   3.678   3.220  15.668  0.5543  0.0884 -0.4574
  171MPD1    C2 2605   3.796   3.142  15.648  0.3317 -0.2703  0.2104
  171MPD1    C3 2606   3.798   3.003  15.637 -0.6165 -0.3923  0.2604
  171MPD1    C4 2607   3.679   2.940  15.642  0.0600  0.7058  1.2043
  171MPD1    C5 2608   3.561   3.012  15.661  0.7918 -0.2192  0.1709
  171MPD1     H 2609   3.886   3.201  15.639 -1.0801  1.5708 -2.1153
  171MPD1    H1 2610   3.681   2.832  15.634 -0.1787  0.8960 -1.4531
  171MPD1    H2 2611   3.467   3.207  15.677  0.2630  0.1652  0.8552
  171MPD1    H3 2612   3.474   2.951  15.684  1.2609 -1.6126 -1.6728
  171MPD1     N 2613   3.915   2.933  15.601  0.9144  0.1379 -0.3435
  171MPD1    H5 2614   3.905   2.833  15.585 -0.5709  0.2629 -0.1989
  171MPD1    N1 2615   3.685   3.360  15.677 -0.2605 -0.4659 -0.0112
  171MPD1    H6 2616   3.616   3.414  15.730  2.7605  3.8562 -0.5096
  171MPD1    H7 2617   3.778   3.382  15.711 -0.0649 -2.1714  0.5697
  172MPD1     C 2618   2.761   3.626   0.562 -0.0138 -0.0015 -0.0640
  172MPD1    C1 2619   2.723   3.690   0.444 -0.5913  0.5242 -0.4889
  172MPD1    C2 2620   2.795   3.678   0.327 -0.5059  0.2519 -0.4070
  172MPD1    C3 2621   2.909   3.597   0.315 -0.8067 -0.2868 -0.1220
  172MPD1    C4 2622   2.938   3.530   0.429  0.0848 -0.4380 -0.1222
  172MPD1    C5 2623   2.872   3.542   0.545  0.6304 -0.5753  0.4971
  172MPD1     H 2624   2.769   3.741   0.242 -1.3337  0.6404  0.1331
  172MPD1    H1 2625   3.028   3.471   0.431  0.2878 -0.1129  0.2338
  172MPD1    H2 2626   2.720   3.645   0.661  0.6686  1.4362 -0.0585
  172MPD1    H3 2627   2.909   3.488   0.632 -0.0828 -0.1138  1.0849
  172MPD1     N 2628   2.984   3.581   0.195 -0.7968 -0.7180 -0.0587
  172MPD1    H5 2629   3.071   3.529   0.204 -1.3591 -1.4778  0.8417
  172MPD1    N1 2630   2.610   3.776   0.449  0.6268  0.0407 -0.2332
  172MPD1    H6 2631   2.537   3.746   0.513 -0.3980 -0.9134 -1.8609
  172MPD1    H7 2632   2.567   3.792   0.358  1.0502  1.0126 -0.2704
  173MPD1     C 2633   4.694   2.269  14.022  0.4894  0.5420 -0.3375
  173MPD1    C1 2634   4.585   2.229  14.103 -0.2906  0.4449 -0.6976
  173MPD1    C2 2635   4.610   2.150  14.213 -0.1628 -0.7277 -0.1045
  173MPD1    C3 2636   0.018   2.115  14.252  0.0637  0.5893 -0.0992
  173MPD1    C4 2637   0.123   2.154  14.169 -0.1810 -0.4236  0.8503
  173MPD1    C5 2638   0.094   2.229  14.055 -0.4399  0.6776 -1.1387
  173MPD1     H 2639   4.520   2.125  14.268  0.2411 -0.1672  0.8027
  173MPD1    H1 2640   0.225   2.124  14.189  0.8918  2.8622  0.3167
  173MPD1    H2 2641   4.679   2.335  13.937  1.6406 -1.6504 -2.2298
  173MPD1    H3 2642   0.175   2.248  13.986  1.2395 -2.1172  0.0795
  173MPD1     N 2643   0.034   2.031  14.366 -0.1271 -0.1574  0.3431
  173MPD1    H5 2644   4.669   2.022  14.419 -1.2544 -0.1975 -1.4903
  173MPD1    N1 2645   4.459   2.285  14.078  0.0355 -0.7943  0.4595
  173MPD1    H6 2646   4.380   2.234  14.116 -0.6632  1.0721  1.5126
  173MPD1    H7 2647   4.448   2.314  13.981 -0.3391 -1.6179  0.2597
  174MPD1     C 2648   0.279   1.089  14.753  0.2462 -0.4311  0.0381
  174MPD1    C1 2649   0.371   1.166  14.690  0.6742 -0.4132  0.1014
  174MPD1    C2 2650   0.338   1.301  14.673  0.4128  0.5735 -0.5119
  174MPD1    C3 2651   0.215   1.350  14.730 -0.0486 -0.1413 -0.2995
  174MPD1    C4 2652   0.128   1.261  14.790  0.0625  0.2786 -0.9322
  174MPD1    C5 2653   0.165   1.132  14.800 -0.2531  0.2297 -0.2889
  174MPD1     H 2654   0.411   1.365  14.625  1.8656 -0.0342  0.9142
  174MPD1    H1 2655   0.027   1.288  14.818  0.5100  1.0040 -0.0148
  174MPD1    H2 2656   0.313   0.989  14.777 -0.9428 -0.8671 -0.0839
  174MPD1    H3 2657   0.096   1.064  14.850  1.6084 -1.2651  0.2120
  174MPD1     N 2658   0.177   1.490  14.726  0.1418  0.5930  0.2553
  174MPD1    H5 2659   0.080   1.503  14.751  0.1429  1.9198 -0.4364
  174MPD1    N1 2660   0.496   1.113  14.649 -0.2125  0.2453 -1.1200
  174MPD1    H6 2661   0.486   1.012  14.642  1.9753 -0.0836  0.5366
  174MPD1    H7 2662   0.523   1.151  14.558  2.5477 -1.4045 -0.9912
  175MPD1     C 2663   3.647   3.207  16.189  0.0813  0.2779  0.4195
  175MPD1    C1 2664   3.520   3.145  16.214 -0.3471 -1.0722  0.5832
  175MPD1    C2 2665   3.415   3.177  16.133 -0.2756 -0.0528  0.5951
  175MPD1    C3 2666   3.430   3.266  16.025 -0.6851 -0.5427  0.1291
  175MPD1    C4 2667   3.555   3.327  16.011 -0.3835  1.0434 -0.5035
  175MPD1    C5 2668   3.662   3.298  16.090 -0.1714  0.4003  0.2552
  175MPD1     H 2669   3.324   3.122  16.152  0.0932 -1.0281 -0.4564
  175MPD1    H1 2670   3.585   3.397  15.934 -1.6455  2.3889  0.2269
  175MPD1    H2 2671   3.729   3.198  16.260  1.2283 -2.0400 -1.2108
  175MPD1    H3 2672   3.762   3.337  16.073 -0.3985  0.6446 -0.5645
  175MPD1     N 2673   3.325   3.283  15.930 -0.5751 -0.0700  0.1187
  175MPD1    H5 2674   3.346   3.351  15.858 -0.5122  0.1479  0.3431
  175MPD1    N1 2675   3.506   3.046  16.309 -0.2471  0.0335  0.1779
  175MPD1    H6 2676   3.410   3.058  16.339 -0.6043  1.7333 -1.6341
  175MPD1    H7 2677   3.580   3.060  16.377 -0.4288 -2.8404  0.9544
  176MPD1     C 2678   0.571   0.763   0.331  0.3014  0.1681  0.9932
  176MPD1    C1 2679   0.547   0.886   0.278  0.2137 -0.1403 -0.0264
  176MPD1    C2 2680   0.501   0.898   0.149 -0.1985 -0.6241  0.4130
  176MPD1    C3 2681   0.480   0.787   0.073 -0.4941  0.2100 -0.6486
  176MPD1    C4 2682   0.490   0.661   0.130  0.2031  0.4620 -0.0843
  176MPD1    C5 2683   0.538   0.653   0.258 -0.0626  0.1860  0.3455
  176MPD1     H 2684   0.491   0.994   0.101 -1.8807 -0.8349  0.3447
  176MPD1    H1 2685   0.471   0.567   0.079  0.0596 -1.6894  3.9516
  176MPD1    H2 2686   0.610   0.752   0.431 -1.1117 -0.7159  1.4409
  176MPD1    H3 2687   0.552   0.551   0.293 -0.4245  0.3381  0.9147
  176MPD1     N 2688   0.426   0.788  17.625  0.8892  0.2839  0.2798
  176MPD1    H5 2689   0.421   0.881  17.585 -0.3032 -0.5269 -1.4393
  176MPD1    N1 2690   0.597   1.000   0.350 -0.2096 -0.7487 -0.4818
  176MPD1    H6 2691   0.586   0.995   0.451  1.9392  1.6011 -0.1628
  176MPD1    H7 2692   0.581   1.090   0.305 -2.5249 -0.0733  1.6950
  177MPD1     C 2693   3.200   1.028  10.035 -0.4026 -0.3229  0.4781
  177MPD1    C1 2694   3.152   0.967   9.925 -0.7345 -0.4610 -0.2791
  177MPD1    C2 2695   3.059   1.033   9.845 -0.1715 -0.5914 -0.0612
  177MPD1    C3 2696   3.012   1.155   9.875 -0.1474  0.3543  0.9257
  177MPD1    C4 2697   3.068   1.210   9.989 -0.9371  0.7490 -0.5358
  177MPD1    C5 2698   3.159   1.151  10.078 -0.1384 -0.8009 -0.1713
  177MPD1     H 2699   3.023   0.987   9.753 -0.3956  2.9107 -1.7085
  177MPD1    H1 2700   3.043   1.313  10.013 -0.2655  0.8791 -0.3924
  177MPD1    H2 2701   3.268   0.971  10.097  0.8940  0.9787  0.2653
  177MPD1    H3 2702   3.191   1.205  10.166 -1.9882 -1.5238  0.9338
  177MPD1     N 2703   2.913   1.214   9.790 -0.0659 -0.8162 -0.0759
  177MPD1    H5 2704   2.885   1.167   9.704 -1.7426  0.8076 -0.4310
  177MPD1    N1 2705   3.192   0.837   9.897 -0.1141 -0.0777  0.2934
  177MPD1    H6 2706   3.179   0.820   9.798  1.0897  0.2180  0.0888
  177MPD1    H7 2707   3.293   0.829   9.909 -0.1138 -0.6805 -0.1222
  178MPD1     C 2708   0.869   1.615   0.203 -0.4095 -0.5551  0.2335
  178MPD1    C1 2709   0.773   1.542   0.154  0.1524  0.1981  0.2505
  178MPD1    C2 2710   0.809   1.433   0.087  0.5867  0.4970  0.0800
  178MPD1    C3 2711   0.936   1.388   0.077  0.4436  0.1315 -0.3529
  178MPD1    C4 2712   1.038   1.464   0.123  0.9771 -0.6542  1.1791
  178MPD1    C5 2713   1.001   1.574   0.191  0.0376  0.1032 -0.3647
  178MPD1     H 2714   0.730   1.385   0.031 -1.9547  1.0929  3.1675
  178MPD1    H1 2715   1.141   1.433   0.117  0.9979 -0.3197 -0.1191
  178MPD1    H2 2716   0.848   1.706   0.259  0.7670  0.0378 -0.2886
  178MPD1    H3 2717   1.077   1.637   0.236 -1.2784 -0.2539  2.3722
  178MPD1     N 2718   0.978   1.279   0.002  0.1816  0.0212  0.5314
  178MPD1    H5 2719   1.076   1.264  17.668 -0.4959 -1.7249 -1.4911
  178MPD1    N1 2720   0.643   1.585   0.158 -0.1351  0.4736  0.0644
  178MPD1    H6 2721   0.574   1.512   0.138 -1.0289  1.8605 -1.8734
  178MPD1    H7 2722   0.624   1.643   0.239  1.3845  3.1131 -1.4728
  179MPD1     C 2723   0.690   3.185  15.472 -0.0311 -0.2051  0.0639
  179MPD1    C1 2724   0.564   3.242  15.451 -0.3385 -1.1139  0.4570
  179MPD1    C2 2725   0.526   3.347  15.536 -0.3166  0.2804 -0.4684
  179MPD1    C3 2726   0.586   3.369  15.659 -0.5451  0.5345 -0.2224
  179MPD1    C4 2727   0.696   3.293  15.686  0.7341 -0.2030  0.8616
  179MPD1    C5 2728   0.752   3.219  15.593  0.4873  0.7892  0.7006
  179MPD1     H 2729   0.446   3.415  15.511 -0.6943 -0.6815 -1.8977
  179MPD1    H1 2730   0.760   3.312  15.771  0.6337 -2.1517  1.3712
  179MPD1    H2 2731   0.726   3.105  15.408  1.2513 -1.1910  2.0387
  179MPD1    H3 2732   0.848   3.178  15.624 -0.9118 -0.1493  3.7911
  179MPD1     N 2733   0.551   3.464  15.755 -0.0882 -0.0917 -0.1206
  179MPD1    H5 2734   0.605   3.472  15.841  0.5579  0.3696 -0.5709
  179MPD1    N1 2735   0.501   3.232  15.322  0.6860  0.0900  0.5824
  179MPD1    H6 2736   0.503   3.133  15.301  1.4136  0.1266  0.4866
  179MPD1    H7 2737   0.400   3.242  15.325  0.8395  1.5346  1.0718
  180MPD1     C 2738   4.231   0.815  13.857  0.2832 -0.0885  0.6969
  180MPD1    C1 2739   4.299   0.747  13.756  0.6648  0.1623  0.3013
  180MPD1    C2 2740   4.424   0.693  13.801  0.4439 -0.8278 -0.0498
  180MPD1    C3 2741   4.474   0.696  13.928  0.1928 -0.5193 -0.2329
  180MPD1    C4 2742   4.403   0.762  14.020 -0.3583 -0.2221 -0.5024
  180MPD1    C5 2743   4.282   0.820  13.980 -0.1253 -0.2725  0.5722
  180MPD1     H 2744   4.483   0.651  13.720 -0.5419  2.3279 -2.4376
  180MPD1    H1 2745   4.436   0.788  14.120  1.8158 -2.1230 -0.7257
  180MPD1    H2 2746   4.140   0.871  13.838  1.0084 -0.0495 -2.6191
  180MPD1    H3 2747   4.219   0.871  14.052 -0.8791  0.6580 -0.7505
  180MPD1     N 2748   4.600   0.639  13.960  0.2654  0.1343  0.3189
  180MPD1    H5 2749   4.641   0.569  13.898  1.8437  0.2422  1.2425
  180MPD1    N1 2750   4.274   0.768  13.625 -0.1028 -0.6268  0.1083
  180MPD1    H6 2751   4.324   0.701  13.566  0.3484 -0.5719  0.4303
  180MPD1    H7 2752   4.173   0.761  13.612 -0.1566 -2.4509  1.4580
  181MPD1     C 2753   1.375   2.498   9.716 -0.3554  0.1443 -0.5350
  181MPD1    C1 2754   1.338   2.551   9.834  0.1585 -0.6178 -0.1022
  181MPD1    C2 2755   1.440   2.621   9.901 -0.4478 -0.6339 -0.0556
  181MPD1    C3 2756   1.562   2.647   9.837 -0.0572 -0.5654 -0.2462
  181MPD1    C4 2757   1.591   2.594   9.714 -0.4402  0.3374  0.2136
  181MPD1    C5 2758   1.493   2.523   9.651 -0.2913  0.2945  0.0225
  181MPD1     H 2759   1.428   2.669   9.997 -1.0105 -1.3230  0.2142
  181MPD1    H1 2760   1.683   2.614   9.661  0.1541 -0.0028  1.1241
  181MPD1    H2 2761   1.317   2.431   9.654  0.1867 -0.8999  0.0793
  181MPD1    H3 2762   1.516   2.478   9.556 -1.3765  1.1188 -0.6262
  181MPD1     N 2763   1.665   2.730   9.899  0.6817 -0.1556  0.1239
  181MPD1    H5 2764   1.753   2.730   9.848  0.7804 -2.6983  0.3048
  181MPD1    N1 2765   1.216   2.512   9.885  0.0839 -0.2877 -0.4180
  181MPD1    H6 2766   1.150   2.510   9.807  0.2322 -1.1831 -0.5216
  181MPD1    H7 2767   1.199   2.583   9.956 -1.6697  1.7148 -2.8178
  182MPD1     C 2768   3.548   1.332   1.114  0.1911  0.0578  0.5130
  182MPD1    C1 2769   3.482   1.221   1.169  0.3035 -0.2687  0.6702
  182MPD1    C2 2770   3.424   1.124   1.083  0.5393 -0.6114  0.6830
  182MPD1    C3 2771   3.434   1.139   0.943  0.0710 -0.2554 -0.0338
  182MPD1    C4 2772   3.495   1.252   0.886  0.5143  0.0476  0.1651
  182MPD1    C5 2773   3.559   1.339   0.976 -0.4577  0.4354  0.3697
  182MPD1     H 2774   3.380   1.037   1.131 -0.3793 -1.2552 -1.3347
  182MPD1    H1 2775   3.492   1.264   0.778  2.2151  2.6834  0.4079
  182MPD1    H2 2776   3.594   1.409   1.175 -1.2810  1.3161  0.0253
  182MPD1    H3 2777   3.624   1.414   0.934  1.6530 -0.3159  2.3009
  182MPD1     N 2778   3.379   1.045   0.851  0.7499  0.1451  0.6590
  182MPD1    H5 2779   3.392   1.082   0.757 -1.2824 -0.6964  0.0616
  182MPD1    N1 2780   3.452   1.216   1.309 -0.3146 -0.4037 -0.0556
  182MPD1    H6 2781   3.513   1.280   1.360  0.4736 -0.4957 -0.8728
  182MPD1    H7 2782   3.442   1.126   1.357  2.0214 -0.1828  0.8510
  183MPD1     C 2783   3.700   2.747   9.310 -0.6574  0.2255  0.3585
  183MPD1    C1 2784   3.567   2.734   9.279 -0.4436  0.0817 -0.0961
  183MPD1    C2 2785   3.490   2.679   9.380 -0.0662 -0.1616 -0.4308
  183MPD1    C3 2786   3.541   2.614   9.495 -0.1952 -0.3540  0.2689
  183MPD1    C4 2787   3.678   2.627   9.519 -0.4450 -0.2003  0.4502
  183MPD1    C5 2788   3.748   2.686   9.421  0.1836  0.1976 -0.1940
  183MPD1     H 2789   3.384   2.676   9.360 -0.5212  2.4971  1.5266
  183MPD1    H1 2790   3.723   2.572   9.601 -0.0417 -0.1969  0.2277
  183MPD1    H2 2791   3.778   2.798   9.254  1.3682 -3.9031 -0.5737
  183MPD1    H3 2792   3.856   2.694   9.429  0.1030 -0.3167  1.4109
  183MPD1     N 2793   3.454   2.547   9.584  0.5688  0.1554  0.1057
  183MPD1    H5 2794   3.361   2.557   9.544  0.5568 -0.8231 -0.0979
  183MPD1    N1 2795   3.520   2.808   9.174  0.2040 -0.0268 -0.0332
  183MPD1    H6 2796   3.582   2.780   9.098 -2.0743 -1.3877 -1.3593
  183MPD1    H7 2797   3.433   2.771   9.139  0.6648  0.2567 -1.4644
  184MPD1     C 2798   1.623   0.874  10.808  0.3349 -0.3012  0.4989
  184MPD1    C1 2799   1.729   0.955  10.814 -0.2841  0.5124 -0.1623
  184MPD1    C2 2800   1.812   0.959  10.705  0.3366 -0.4187 -0.7191
  184MPD1    C3 2801   1.794   0.877  10.598 -0.0435  0.2406 -0.4432
  184MPD1    C4 2802   1.685   0.793  10.599  0.4368  0.2080 -0.8952
  184MPD1    C5 2803   1.600   0.795  10.704 -0.8132 -0.5090 -0.0471
  184MPD1     H 2804   1.885   1.039  10.706  0.2683 -0.3558 -0.7535
  184MPD1    H1 2805   1.674   0.720  10.519 -2.7379  1.0867 -1.2668
  184MPD1    H2 2806   1.559   0.877  10.896 -0.3599  1.8329 -0.0860
  184MPD1    H3 2807   1.506   0.743  10.690 -2.5469  2.6670  0.0138
  184MPD1     N 2808   1.876   0.863  10.482 -1.0553 -0.5146  0.3470
  184MPD1    H5 2809   1.858   0.785  10.420  0.2757  0.5486 -1.3748
  184MPD1    N1 2810   1.726   1.058  10.899  0.1497  0.2085 -0.7194
  184MPD1    H6 2811   1.814   1.100  10.928  0.2419 -0.9542  0.6587
  184MPD1    H7 2812   1.675   1.030  10.983 -0.5408  0.1819 -1.1477
  185MPD1     C 2813   1.903   0.617   9.531 -0.4083 -0.2332  0.3798
  185MPD1    C1 2814   1.881   0.556   9.647 -0.3820 -0.4413 -0.2084
  185MPD1    C2 2815   1.923   0.632   9.762 -0.4706 -0.0449 -0.1188
  185MPD1    C3 2816   1.979   0.754   9.752  1.2017 -0.0100  0.3824
  185MPD1    C4 2817   2.011   0.806   9.626 -0.1302  0.0291  0.2173
  185MPD1    C5 2818   1.968   0.735   9.516 -0.1695  0.1138 -0.5968
  185MPD1     H 2819   1.917   0.577   9.855  0.6242  2.1635  1.2591
  185MPD1    H1 2820   2.063   0.901   9.618 -0.1467  0.0848  0.7424
  185MPD1    H2 2821   1.884   0.568   9.436 -0.5130 -0.7926  0.6861
  185MPD1    H3 2822   2.000   0.774   9.420 -0.3804 -1.3792 -1.2678
  185MPD1     N 2823   2.017   0.824   9.863  1.0844  0.1346 -0.1462
  185MPD1    H5 2824   2.076   0.905   9.843 -0.7597  1.2815 -1.0479
  185MPD1    N1 2825   1.849   0.423   9.652  0.0965  0.5607 -0.4774
  185MPD1    H6 2826   1.799   0.395   9.568  0.1778 -1.3633  0.1062
  185MPD1    H7 2827   1.786   0.392   9.727 -1.6594  0.5913 -1.9502
  186MPD1     C 2828   0.276   4.640  16.016  0.3296 -0.0603  0.2761
  186MPD1    C1 2829   0.255   4.519  16.072 -0.1200 -0.3902 -0.6410
  186MPD1    C2 2830   0.351   4.482  16.163  0.1862 -0.4828  0.8624
  186MPD1    C3 2831   0.467   4.556  16.187 -0.1000 -0.5767 -0.3049
  186MPD1    C4 2832   0.488   4.672  16.118 -0.2082  0.5721 -0.1697
  186MPD1    C5 2833   0.397   4.712  16.029 -0.2085 -1.2041  0.1147
  186MPD1     H 2834   0.350   4.385  16.212  1.3395 -1.1818 -0.4795
  186MPD1    H1 2835   0.564   0.023  16.147 -0.2175  0.0144  1.2463
  186MPD1    H2 2836   0.198   4.684  15.955  1.9665  0.4655 -1.4365
  186MPD1    H3 2837   0.422   0.090  15.995 -1.6240 -1.2087 -0.9691
  186MPD1     N 2838   0.559   4.524  16.289  0.1992 -0.2716  0.5026
  186MPD1    H5 2839   0.634   4.591  16.298 -1.2299  1.3214  0.5649
  186MPD1    N1 2840   0.143   4.445  16.044  0.5588 -0.0453 -0.0621
  186MPD1    H6 2841   0.113   4.451  15.947  2.0672  1.1142 -0.4679
  186MPD1    H7 2842   0.166   4.352  16.077 -0.8598 -0.3668  0.0050
  187MPD1     C 2843   0.129   2.108   0.377  0.3960 -0.4957  0.4442
  187MPD1    C1 2844   0.239   2.188   0.349 -0.0948 -0.0724  0.3698
  187MPD1    C2 2845   0.278   2.197   0.218  0.4062  1.2547 -0.0321
  187MPD1    C3 2846   0.213   2.123   0.115  0.0759 -0.6493 -0.2068
  187MPD1    C4 2847   0.100   2.055   0.145  0.7227  0.1424  0.8934
  187MPD1    C5 2848   0.056   2.058   0.276  0.0455  0.5222 -0.4639
  187MPD1     H 2849   0.371   2.248   0.194  1.8554 -0.9971  0.7722
  187MPD1    H1 2850   0.040   2.003   0.071  2.1568 -1.7427  1.0561
  187MPD1    H2 2851   0.090   2.086   0.476 -0.2690 -0.2848  0.2250
  187MPD1    H3 2852   4.692   1.997   0.305  1.3429 -1.4312 -0.7006
  187MPD1     N 2853   0.253   2.114  17.665  0.2378  0.0001 -0.5070
  187MPD1    H5 2854   0.201   2.057  17.599  1.6704 -0.6188 -1.0948
  187MPD1    N1 2855   0.322   2.231   0.452 -0.1985  0.3864 -0.3516
  187MPD1    H6 2856   0.269   2.254   0.535  0.1608 -1.6525  0.4440
  187MPD1    H7 2857   0.377   2.311   0.423 -0.1849  0.4559 -0.1274
  188MPD1     C 2858   0.107   1.709  10.439  0.2768  0.3832 -0.1417
  188MPD1    C1 2859   0.027   1.718  10.331  0.0577  0.4733 -0.0457
  188MPD1    C2 2860   4.655   1.619  10.306  0.1590  0.2085  0.1968
  188MPD1    C3 2861   4.639   1.508  10.386  0.1015  0.2019  0.2337
  188MPD1    C4 2862   4.714   1.501  10.496 -0.6668 -0.1705 -0.3975
  188MPD1    C5 2863   0.091   1.599  10.521  0.0342 -0.9191  0.0132
  188MPD1     H 2864   4.593   1.628  10.217  0.4146 -0.9746 -0.1040
  188MPD1    H1 2865   4.717   1.416  10.564 -1.1394 -0.1196 -0.3160
  188MPD1    H2 2866   0.171   1.789  10.475  0.8567  0.1251 -0.5870
  188MPD1    H3 2867   0.141   1.599  10.617 -3.1947 -1.6490  1.7125
  188MPD1     N 2868   4.541   1.414  10.369 -0.3663 -0.3787  0.2306
  188MPD1    H5 2869   4.519   1.346  10.440  0.7631 -0.2815  0.6783
  188MPD1    N1 2870   0.022   1.829  10.247 -0.3122  0.1303  0.4715
  188MPD1    H6 2871   0.107   1.886  10.243  0.6816 -1.3893 -0.1355
  188MPD1    H7 2872   4.708   1.811  10.154  0.0096  0.5775  0.2656
  189MPD1     C 2873   1.344   1.599   0.620  0.5204  0.2104  0.1808
  189MPD1    C1 2874   1.223   1.655   0.593 -0.2941  0.1078 -0.3558
  189MPD1    C2 2875   1.218   1.791   0.567 -0.5793  0.8611 -0.2986
  189MPD1    C3 2876   1.329   1.874   0.582 -0.2680 -0.1393  0.3088
  189MPD1    C4 2877   1.441   1.820   0.628  0.2940 -0.2085  0.3441
  189MPD1    C5 2878   1.448   1.689   0.648  0.4443 -0.9505  0.0895
  189MPD1     H 2879   1.129   1.833   0.521 -1.7627 -2.3473 -0.9639
  189MPD1    H1 2880   1.536   1.870   0.642  1.2766 -2.0303  0.2195
  189MPD1    H2 2881   1.354   1.492   0.633  0.0464  0.4921  2.8264
  189MPD1    H3 2882   1.544   1.648   0.678  0.7017 -1.3298 -1.2622
  189MPD1     N 2883   1.313   2.010   0.553  0.3750  0.3091  0.4542
  189MPD1    H5 2884   1.226   2.030   0.506 -0.8847 -0.0945  2.6298
  189MPD1    N1 2885   1.117   1.569   0.558 -0.4243  0.4461 -0.6565
  189MPD1    H6 2886   1.109   1.489   0.620  2.0250  0.3649 -0.4282
  189MPD1    H7 2887   1.034   1.627   0.565  0.0355  0.9527  0.5732
  190MPD1     C 2888   0.370   1.122  15.408  0.0635  0.2125  0.3725
  190MPD1    C1 2889   0.494   1.068  15.400 -0.0814  0.1167  0.5468
  190MPD1    C2 2890   0.519   0.949  15.471  0.4438  0.7142  0.3104
  190MPD1    C3 2891   0.426   0.875  15.546  0.5205 -0.2127 -0.1208
  190MPD1    C4 2892   0.299   0.925  15.537 -0.0738  0.1559  0.8772
  190MPD1    C5 2893   0.272   1.040  15.466 -0.6330  0.3047 -0.6287
  190MPD1     H 2894   0.623   0.918  15.468  0.2685  0.2915 -1.2990
  190MPD1    H1 2895   0.214   0.877  15.584  0.1738 -0.8510  0.2862
  190MPD1    H2 2896   0.344   1.216  15.362  1.2132  1.0423  1.4177
  190MPD1    H3 2897   0.172   1.082  15.457 -0.4613  0.7578 -0.4543
  190MPD1     N 2898   0.463   0.747  15.596 -0.5709 -0.2691 -0.4301
  190MPD1    H5 2899   0.561   0.721  15.593 -0.0959  1.5388 -0.2943
  190MPD1    N1 2900   0.600   1.155  15.352 -0.1489  0.2105 -0.0748
  190MPD1    H6 2901   0.568   1.216  15.277  3.1075  1.4676 -0.4319
  190MPD1    H7 2902   0.686   1.106  15.330  0.7624  1.8411 -0.1357
  191MPD1     C 2903   0.128   2.923  13.057  0.2825 -0.0105 -0.4339
  191MPD1    C1 2904   0.006   2.865  13.046  0.1224 -0.1281 -0.1138
  191MPD1    C2 2905   4.658   2.870  12.928 -0.6804 -0.8275  0.2165
  191MPD1    C3 2906   0.000   2.928  12.814  0.4000 -0.3430  0.4440
  191MPD1    C4 2907   0.126   2.984  12.823  0.7171  0.4719 -0.7251
  191MPD1    C5 2908   0.189   2.982  12.949 -0.3592 -0.3838 -0.3776
  191MPD1     H 2909   4.559   2.828  12.923 -1.1267  0.1229  1.1415
  191MPD1    H1 2910   0.185   3.030  12.744 -2.0310  1.0269 -2.4443
  191MPD1    H2 2911   0.180   2.946  13.149  0.4867 -2.7495  0.1206
  191MPD1    H3 2912   0.283   3.036  12.959 -1.2725  1.4376 -1.7088
  191MPD1     N 2913   4.639   2.916  12.699  0.2380 -0.0201 -0.6094
  191MPD1    H5 2914   4.551   2.867  12.707 -0.5501  1.2607 -1.3134
  191MPD1    N1 2915   4.665   2.814  13.158  0.7352 -0.5169 -0.1301
  191MPD1    H6 2916   4.720   2.795  13.241 -3.0075  1.1666  2.7679
  191MPD1    H7 2917   4.599   2.738  13.140  2.3530 -2.3778  1.8135
  192MPD1     C 2918   3.805   2.959  12.666  0.1491 -0.3257  0.0406
  192MPD1    C1 2919   3.831   3.095  12.645 -0.0682 -0.6726  0.0316
  192MPD1    C2 2920   3.960   3.132  12.607 -0.4371 -0.7127  0.1523
  192MPD1    C3 2921   4.056   3.031  12.586 -0.2272  0.2774  0.2254
  192MPD1    C4 2922   4.036   2.907  12.616  0.1452  0.4205 -0.0596
  192MPD1    C5 2923   3.909   2.865  12.654 -0.0410 -0.4115  0.4859
  192MPD1     H 2924   3.985   3.237  12.601  1.0705 -1.1382 -1.0540
  192MPD1    H1 2925   4.115   2.834  12.605  0.4456  0.6065  0.9308
  192MPD1    H2 2926   3.711   2.920  12.702  0.6434 -1.0190  0.5629
  192MPD1    H3 2927   3.892   2.761  12.681  0.8877 -0.4854  0.8124
  192MPD1     N 2928   4.186   3.068  12.546 -0.2244  0.4587 -1.0693
  192MPD1    H5 2929   4.247   2.987  12.541  0.4155  0.8639  0.1876
  192MPD1    N1 2930   3.731   3.187  12.678  0.3500 -0.0315  1.0491
  192MPD1    H6 2931   3.635   3.154  12.665  0.4908  0.5022 -1.3387
  192MPD1    H7 2932   3.736   3.265  12.613 -1.8542 -0.7002  0.0793
  193MPD1     C 2933   3.899   2.809  15.956  0.3711 -0.3678  0.2952
  193MPD1    C1 2934   3.859   2.933  16.006 -0.4902  0.2484 -0.2234
  193MPD1    C2 2935   3.923   2.984  16.123  0.8166 -0.0031 -0.4919
  193MPD1    C3 2936   4.037   2.911  16.174 -0.5374 -0.0578  0.1592
  193MPD1    C4 2937   4.088   2.801  16.102 -0.3982  0.4757 -0.1317
  193MPD1    C5 2938   4.018   2.749  15.994 -0.2319 -0.4247  0.4539
  193MPD1     H 2939   3.886   3.071  16.175  0.1524 -1.4396  1.4569
  193MPD1    H1 2940   4.185   2.764  16.133  0.1718  0.3502 -2.0501
  193MPD1    H2 2941   3.844   2.755  15.880  1.4994 -1.0019 -0.0589
  193MPD1    H3 2942   4.043   2.655  15.947  3.2468 -0.1128  1.7018
  193MPD1     N 2943   4.113   2.950  16.282  0.2725 -0.0813 -0.5191
  193MPD1    H5 2944   4.196   2.897  16.308  1.2168  0.3469 -2.7066
  193MPD1    N1 2945   3.726   2.966  15.972 -0.1456 -0.3259  0.0780
  193MPD1    H6 2946   3.701   2.941  15.877 -0.7989  1.1187 -0.1312
  193MPD1    H7 2947   3.703   3.065  15.980  0.4950 -0.0451 -1.6950
  194MPD1     C 2948   1.925   0.019  16.811 -0.1403  0.8101  0.1852
  194MPD1    C1 2949   1.992   4.630  16.858  0.1896  0.1241 -0.0860
  194MPD1    C2 2950   1.942   4.501  16.843  0.2645 -0.5372 -0.2923
  194MPD1    C3 2951   1.813   4.486  16.788 -0.0535 -0.1607  0.3145
  194MPD1    C4 2952   1.752   4.594  16.734 -0.1258 -0.0656 -0.0048
  194MPD1    C5 2953   1.812   4.720  16.743  0.7407 -0.3743  0.9818
  194MPD1     H 2954   1.999   4.416  16.878  0.6980 -0.2666 -0.3505
  194MPD1    H1 2955   1.669   4.579  16.667  0.5748 -0.4021 -0.7885
  194MPD1    H2 2956   1.952   0.120  16.835  0.5929  0.6621 -0.0265
  194MPD1    H3 2957   1.764   0.084  16.697 -1.1122 -1.4103  1.0045
  194MPD1     N 2958   1.745   4.361  16.766  0.1278 -0.2335 -0.4635
  194MPD1    H5 2959   1.657   4.358  16.715  0.7601  0.4132 -1.6043
  194MPD1    N1 2960   2.126   4.648  16.903  0.4922 -0.0346 -0.0457
  194MPD1    H6 2961   2.143   0.005  16.965  0.3788 -0.4050  0.4469
  194MPD1    H7 2962   2.171   4.565  16.940  1.6565  1.0629  0.9716
  195MPD1     C 2963   3.943   1.887  17.242 -0.4931 -0.0862  0.0320
  195MPD1    C1 2964   4.062   1.888  17.303  0.1214 -0.9368  0.0015
  195MPD1    C2 2965   4.097   1.780  17.378  0.5439 -0.4869 -0.3819
  195MPD1    C3 2966   4.017   1.667  17.375  0.3930  1.2621 -0.1867
  195MPD1    C4 2967   3.908   1.662  17.295 -0.0067 -0.0480 -0.0894
  195MPD1    C5 2968   3.869   1.776  17.234 -0.2608  0.2530  0.6346
  195MPD1     H 2969   4.192   1.796  17.429 -0.9944  2.8675  1.4935
  195MPD1    H1 2970   3.850   1.572  17.281  2.6875 -2.0528  1.5939
  195MPD1    H2 2971   3.911   1.975  17.187  1.1461  0.5013 -0.0028
  195MPD1    H3 2972   3.782   1.783  17.170 -1.1393  0.5012  1.8613
  195MPD1     N 2973   4.046   1.550  17.452 -0.1299  0.6518 -0.0710
  195MPD1    H5 2974   3.990   1.466  17.444  2.4536 -1.1187  0.2501
  195MPD1    N1 2975   4.136   2.009  17.308 -0.4461  0.0117  1.2003
  195MPD1    H6 2976   4.112   2.053  17.220  1.4429  0.5264  0.9510
  195MPD1    H7 2977   4.237   1.998  17.313 -0.6413 -2.3269 -0.0664
  196MPD1     C 2978   4.488   1.757  17.499 -0.0753  0.0926  0.3582
  196MPD1    C1 2979   4.467   1.843  17.604 -0.3009  0.1931  0.1285
  196MPD1    C2 2980   4.494   1.802   0.045  0.9567 -0.5005 -0.1842
  196MPD1    C3 2981   4.523   1.666   0.070 -0.8082  0.1295  0.2308
  196MPD1    C4 2982   4.540   1.580  17.648  0.8638  0.0834  0.0917
  196MPD1    C5 2983   4.513   1.622  17.523 -0.0421 -0.7668 -0.0336
  196MPD1     H 2984   4.496   1.874   0.126 -0.6494 -0.6994  0.0469
  196MPD1    H1 2985   4.559   1.477  17.676 -0.4386 -0.1499  0.0910
  196MPD1    H2 2986   4.473   1.792  17.397 -0.5981 -0.2747  0.3107
  196MPD1    H3 2987   4.513   1.548  17.444 -0.9275  0.5999 -1.3055
  196MPD1     N 2988   4.561   1.621   0.200 -0.6371 -0.1030 -0.6857
  196MPD1    H5 2989   4.611   1.532   0.195  1.2715  0.8104  2.5186
  196MPD1    N1 2990   4.450   1.980  17.578 -0.3751  0.9516 -0.0616
  196MPD1    H6 2991   4.400   2.034  17.650 -1.7425 -0.4557  0.0354
  196MPD1    H7 2992   4.403   2.001  17.490  0.3917 -0.4262 -0.7932
  197MPD1     C 2993   2.997   3.258  17.573 -0.1034  0.3079 -0.5467
  197MPD1    C1 2994   2.887   3.292  17.505  0.1679  0.2714 -0.1202
  197MPD1    C2 2995   2.911   3.362  17.388  0.1888  0.3441  0.6319
  197MPD1    C3 2996   3.035   3.376  17.327  0.3175 -0.7349  0.6186
  197MPD1    C4 2997   3.142   3.341  17.404  0.1352  0.7262 -0.8903
  197MPD1    C5 2998   3.122   3.281  17.520  0.3897 -0.0434  0.8350
  197MPD1     H 2999   2.822   3.386  17.332  2.2038  2.0996 -1.8120
  197MPD1    H1 3000   3.241   3.328  17.361  0.4023 -0.6116  0.0980
  197MPD1    H2 3001   2.994   3.215  17.673  2.2822  0.5694 -0.3560
  197MPD1    H3 3002   3.207   3.228  17.562  0.4560 -1.9259 -1.6283
  197MPD1     N 3003   3.065   3.416  17.197  0.3215 -0.0148 -0.0076
  197MPD1    H5 3004   3.160   3.399  17.165  0.7110  2.6983 -0.3399
  197MPD1    N1 3005   2.761   3.282  17.571 -0.4639  0.4372 -0.1286
  197MPD1    H6 3006   2.691   3.271  17.497 -1.1581  0.9025  0.4568
  197MPD1    H7 3007   2.764   3.187  17.609 -1.4462  0.3686 -0.1974
  198MPD1     C 3008   1.138   1.256  16.549 -0.3832 -0.1501  0.6409
  198MPD1    C1 3009   1.098   1.267  16.419  0.0824 -0.2920  0.5957
  198MPD1    C2 3010   1.070   1.386  16.366  0.1844 -0.1761  0.3876
  198MPD1    C3 3011   1.089   1.502  16.438 -0.6994 -0.2200 -0.5534
  198MPD1    C4 3012   1.134   1.495  16.571  0.0124 -0.4406  0.8869
  198MPD1    C5 3013   1.160   1.372  16.624  0.1127  0.0765  0.3679
  198MPD1     H 3014   1.039   1.397  16.263 -1.4988  0.5455  0.9878
  198MPD1    H1 3015   1.166   1.572  16.640  0.5899  0.9981 -0.9872
  198MPD1    H2 3016   1.146   1.158  16.595  1.0299 -1.1596 -1.7202
  198MPD1    H3 3017   1.200   1.365  16.724  1.0757  0.7965  0.0308
  198MPD1     N 3018   1.053   1.628  16.381  0.2266 -0.1086  0.3905
  198MPD1    H5 3019   1.004   1.627  16.292 -0.1748 -1.8578  0.6324
  198MPD1    N1 3020   1.075   1.152  16.345  0.2125  0.1392  0.0982
  198MPD1    H6 3021   1.131   1.081  16.392  3.3831  2.2293 -0.5304
  198MPD1    H7 3022   1.110   1.169  16.251 -0.3160  1.8765  0.2278
  199MPD1     C 3023   2.824   3.947   9.931  0.9928 -0.5316 -0.4246
  199MPD1    C1 3024   2.818   3.810   9.913 -0.0443 -0.1841  0.8028
  199MPD1    C2 3025   2.692   3.754   9.895  0.3185  0.5253 -0.0177
  199MPD1    C3 3026   2.575   3.821   9.906 -0.4526 -0.2081  0.2779
  199MPD1    C4 3027   2.584   3.955   9.910 -0.8161 -0.2285 -0.3791
  199MPD1    C5 3028   2.704   4.028   9.926  0.6884  0.0634  0.2814
  199MPD1     H 3029   2.694   3.647   9.879 -1.0626  0.3971  0.6240
  199MPD1    H1 3030   2.489   4.007   9.912 -0.6007  0.1231  1.3489
  199MPD1    H2 3031   2.913   4.007   9.941  0.4601  0.0486  0.7853
  199MPD1    H3 3032   2.706   4.136   9.928 -1.3765  0.0997  0.6880
  199MPD1     N 3033   2.452   3.766   9.900  0.5039 -0.3037 -0.0360
  199MPD1    H5 3034   2.378   3.833   9.883  2.0811  1.3091 -0.5347
  199MPD1    N1 3035   2.940   3.737   9.896 -0.5906  0.2681 -0.1777
  199MPD1    H6 3036   3.017   3.768   9.955 -0.1294 -0.4027 -0.4319
  199MPD1    H7 3037   2.931   3.636   9.907  1.1591  0.1753  0.4026
  200MPD1     C 3038   0.808   2.880  14.904  0.1391  0.4641  0.1889
  200MPD1    C1 3039   0.928   2.915  14.961 -0.5184  0.1555  0.5687
  200MPD1    C2 3040   1.045   2.854  14.917  0.8318  0.2125 -0.3973
  200MPD1    C3 3041   1.041   2.764  14.814  1.0262 -0.0880 -0.6358
  200MPD1    C4 3042   0.918   2.722  14.757  0.1970  0.3052 -0.2189
  200MPD1    C5 3043   0.802   2.781  14.809  0.1761  0.2816 -0.0348
  200MPD1     H 3044   1.139   2.884  14.961  2.2577 -3.1105 -1.1647
  200MPD1    H1 3045   0.919   2.654  14.672 -2.8268 -0.4411  0.3420
  200MPD1    H2 3046   0.716   2.926  14.936  0.2302  0.4149  0.5216
  200MPD1    H3 3047   0.705   2.759  14.765  0.3660 -0.4961 -0.0661
  200MPD1     N 3048   1.171   2.716  14.772 -0.5392 -0.0319 -0.3644
  200MPD1    H5 3049   1.256   2.733  14.824 -1.6571  2.6844  0.5636
  200MPD1    N1 3050   0.934   3.005  15.073 -0.0624  0.3787  0.6654
  200MPD1    H6 3051   1.015   3.065  15.073  0.2534 -0.0388 -1.1910
  200MPD1    H7 3052   0.851   3.064  15.080 -0.1912  0.0909  1.5968
  201MPD1     C 3053   2.799   2.030  13.627  0.2644 -0.7050 -0.2170
  201MPD1    C1 3054   2.829   1.972  13.505  0.0388 -0.2450  0.4725
  201MPD1    C2 3055   2.928   1.878  13.502 -0.0878  0.3050 -0.2302
  201MPD1    C3 3056   3.000   1.840  13.617 -0.3472  0.6824 -0.1678
  201MPD1    C4 3057   2.975   1.909  13.732  0.2646 -0.8681 -0.8365
  201MPD1    C5 3058   2.875   2.001  13.737  0.7329  0.4214  0.6356
  201MPD1     H 3059   2.953   1.829  13.408 -0.1340  0.1004 -0.1360
  201MPD1    H1 3060   3.034   1.902  13.822 -1.5344 -2.8665  0.1842
  201MPD1    H2 3061   2.725   2.109  13.633  2.3977  1.2396  0.7966
  201MPD1    H3 3062   2.864   2.055  13.830  0.5249 -0.8500  1.3496
  201MPD1     N 3063   3.104   1.748  13.609 -0.4211  0.1856 -0.6254
  201MPD1    H5 3064   3.123   1.703  13.520  0.9642 -1.3731  0.4675
  201MPD1    N1 3065   2.745   2.000  13.392 -0.2058 -0.1001  0.2872
  201MPD1    H6 3066   2.701   2.092  13.389  1.8185  0.8576  0.3684
  201MPD1    H7 3067   2.792   2.005  13.302 -0.4120  0.3513  0.1987
  202MPD1     C 3068   3.877   1.460   9.293 -0.4852 -0.2682 -0.1544
  202MPD1    C1 3069   3.802   1.561   9.351 -0.6655  0.0364 -0.0739
  202MPD1    C2 3070   3.781   1.542   9.482 -0.3731  0.2777  0.4149
  202MPD1    C3 3071   3.774   1.415   9.541  0.1091 -0.4000  0.0766
  202MPD1    C4 3072   3.832   1.310   9.474 -0.2532 -1.3229  0.2077
  202MPD1    C5 3073   3.885   1.335   9.351 -0.2615 -0.4002  0.0448
  202MPD1     H 3074   3.744   1.628   9.536 -1.2996  1.3814 -2.0038
  202MPD1    H1 3075   3.838   1.211   9.518  0.7868 -1.1549  0.4439
  202MPD1    H2 3076   3.902   1.470   9.188 -3.7137 -0.9140 -0.9576
  202MPD1    H3 3077   3.928   1.250   9.299 -1.8842 -0.4786 -1.1840
  202MPD1     N 3078   3.724   1.392   9.672  0.4415  0.1042 -0.0334
  202MPD1    H5 3079   3.753   1.305   9.716  0.5441 -1.0551 -2.3639
  202MPD1    N1 3080   3.805   1.682   9.292 -0.4542  0.7170 -0.0971
  202MPD1    H6 3081   3.789   1.678   9.191  2.4054 -1.5350 -0.4869
  202MPD1    H7 3082   3.736   1.746   9.330 -0.3319  0.6546  0.2272
  203MPD1     C 3083   2.438   2.733  12.805  0.6193 -0.0609  0.6119
  203MPD1    C1 3084   2.375   2.650  12.897  0.4717 -0.5783 -0.7530
  203MPD1    C2 3085   2.434   2.525  12.913  0.3022 -0.2190  0.2779
  203MPD1    C3 3086   2.524   2.474  12.826  0.8658 -0.6326 -0.0306
  203MPD1    C4 3087   2.582   2.558  12.732  0.5381 -0.3401 -0.0199
  203MPD1    C5 3088   2.540   2.690  12.729 -0.1084 -0.0415  0.6615
  203MPD1     H 3089   2.407   2.471  13.002  1.2028  1.4143  1.5434
  203MPD1    H1 3090   2.647   2.523  12.653 -0.0083  1.5746 -1.3228
  203MPD1    H2 3091   2.406   2.834  12.779 -0.4533 -0.4917  0.2536
  203MPD1    H3 3092   2.600   2.750  12.661 -2.3479 -1.1036 -2.2446
  203MPD1     N 3093   2.561   2.331  12.829  0.1248  0.2324 -0.6690
  203MPD1    H5 3094   2.509   2.279  12.899 -1.5137  1.5628 -0.9258
  203MPD1    N1 3095   2.290   2.705  12.986 -0.4266 -0.0428 -0.3391
  203MPD1    H6 3096   2.224   2.773  12.948 -0.2345 -0.8353 -2.0664
  203MPD1    H7 3097   2.232   2.626  13.012 -0.1126  0.1523  0.9383
  204MPD1     C 3098   1.428   3.765   0.623  0.1756  0.0501 -0.1875
  204MPD1    C1 3099   1.534   3.705   0.690 -0.1998 -0.7053 -0.0199
  204MPD1    C2 3100   1.592   3.592   0.636 -0.0645 -0.0830  0.5543
  204MPD1    C3 3101   1.575   3.571   0.502 -0.3466  0.4828  0.7337
  204MPD1    C4 3102   1.476   3.649   0.433 -0.1726 -0.2019 -0.3338
  204MPD1    C5 3103   1.402   3.739   0.493 -0.1441 -0.3898  0.8743
  204MPD1     H 3104   1.660   3.529   0.693 -0.1467 -0.8320 -0.1800
  204MPD1    H1 3105   1.458   3.634   0.328  0.7566  1.0855 -0.6726
  204MPD1    H2 3106   1.383   3.855   0.663  1.6988  0.2607  1.0745
  204MPD1    H3 3107   1.324   3.800   0.449  0.4608  1.2279  2.0566
  204MPD1     N 3108   1.660   3.478   0.430 -0.2839 -0.4201 -0.0463
  204MPD1    H5 3109   1.735   3.433   0.482 -0.4032  0.4166  0.8496
  204MPD1    N1 3110   1.570   3.747   0.820  0.5441  0.3499  0.2705
  204MPD1    H6 3111   1.666   3.727   0.846 -0.0320 -0.7989  1.5078
  204MPD1    H7 3112   1.555   3.848   0.817 -3.3249 -0.1628  1.5410
  205MPD1     C 3113   1.867   2.147   0.946  0.1494 -0.3347 -0.3040
  205MPD1    C1 3114   1.977   2.073   0.915  0.0819  0.0525 -0.2076
  205MPD1    C2 3115   2.061   2.137   0.825 -0.4226 -0.2834  0.1225
  205MPD1    C3 3116   2.048   2.277   0.789  0.1682  0.1411 -0.4618
  205MPD1    C4 3117   1.935   2.341   0.831  0.3054  0.1253  0.2381
  205MPD1    C5 3118   1.846   2.277   0.913  0.1155 -0.1461  0.3760
  205MPD1     H 3119   2.149   2.083   0.793 -0.4332 -1.1699  1.5538
  205MPD1    H1 3120   1.922   2.445   0.802 -0.4094 -0.0275  0.0076
  205MPD1    H2 3121   1.794   2.104   1.014  1.7132 -0.6828  1.1671
  205MPD1    H3 3122   1.758   2.330   0.945 -0.2354 -1.1671  1.1010
  205MPD1     N 3123   2.139   2.344   0.707 -0.0604  0.4356 -0.3227
  205MPD1    H5 3124   2.105   2.432   0.671 -0.4817  1.3138  2.2393
  205MPD1    N1 3125   1.987   1.934   0.935 -0.3968 -0.2539 -0.1122
  205MPD1    H6 3126   1.936   1.910   1.020 -1.6346 -0.7047 -0.9872
  205MPD1    H7 3127   2.086   1.913   0.945  0.0744  0.9813 -2.1075
  206MPD1     C 3128   2.489   0.650  16.878  0.1369  0.0442  0.3430
  206MPD1    C1 3129   2.409   0.547  16.931  0.3312 -0.1809 -0.3767
  206MPD1    C2 3130   2.340   0.459  16.840 -0.4802 -0.5767  0.6591
  206MPD1    C3 3131   2.354   0.479  16.702  0.3325 -0.1759  0.7594
  206MPD1    C4 3132   2.427   0.587  16.656 -0.2021 -0.0047  0.2642
  206MPD1    C5 3133   2.495   0.665  16.741 -0.5077 -0.0159  0.6898
  206MPD1     H 3134   2.277   0.378  16.877 -0.3616 -0.0234  2.0609
  206MPD1    H1 3135   2.431   0.603  16.549 -1.1552  0.6301  0.3242
  206MPD1    H2 3136   2.543   0.717  16.943  0.0790  1.6263 -1.2432
  206MPD1    H3 3137   2.560   0.741  16.699 -0.6571  0.4374  1.2735
  206MPD1     N 3138   2.278   0.408  16.600  0.0451  0.0508  0.6495
  206MPD1    H5 3139   2.286   0.449  16.507  0.9332  2.2812  1.7068
  206MPD1    N1 3140   2.372   0.539  17.064 -0.7392 -0.0457  0.1939
  206MPD1    H6 3141   2.350   0.442  17.083  3.1136 -0.4101  2.7730
  206MPD1    H7 3142   2.437   0.581  17.131 -0.8460 -0.1502  0.3622
  207MPD1     C 3143   3.906   2.372  10.299  0.2028 -0.1408 -0.1066
  207MPD1    C1 3144   3.982   2.325  10.404  0.7120 -0.1723  0.4577
  207MPD1    C2 3145   4.105   2.391  10.444 -0.7546 -0.5742 -0.6241
  207MPD1    C3 3146   4.142   2.507  10.377  0.6204 -0.4575  0.7364
  207MPD1    C4 3147   4.051   2.555  10.275  0.3317 -0.6288 -0.9615
  207MPD1    C5 3148   3.929   2.495  10.240  0.1923 -1.2533 -0.5523
  207MPD1     H 3149   4.164   2.347  10.524  1.8014  3.0727 -0.5025
  207MPD1    H1 3150   4.074   2.654  10.236 -0.4547 -0.0480  0.0332
  207MPD1    H2 3151   3.820   2.323  10.255  0.0910 -1.6129  1.7615
  207MPD1    H3 3152   3.866   2.531  10.160  0.2026  1.5951  0.7094
  207MPD1     N 3153   4.263   2.570  10.406 -0.0462 -0.1723  0.4686
  207MPD1    H5 3154   4.310   2.530  10.487  2.0967  1.5769  0.1008
  207MPD1    N1 3155   3.940   2.205  10.463 -0.5028 -0.3530 -0.1342
  207MPD1    H6 3156   3.839   2.194  10.458 -0.6718  0.5514  1.3207
  207MPD1    H7 3157   3.975   2.201  10.558  0.2818  0.5814 -0.3830
  208MPD1     C 3158   3.571   2.343   0.744  0.5445 -0.2676  0.1571
  208MPD1    C1 3159   3.499   2.401   0.640  0.0122  1.0742 -0.1812
  208MPD1    C2 3160   3.436   2.311   0.552 -0.7936  0.0237 -0.0403
  208MPD1    C3 3161   3.439   2.177   0.563  0.4377 -0.9601  0.7102
  208MPD1    C4 3162   3.511   2.135   0.671  0.9913 -0.2505  0.3114
  208MPD1    C5 3163   3.575   2.211   0.762 -0.0134 -1.0301  0.3547
  208MPD1     H 3164   3.383   2.353   0.468 -0.7098 -0.5885 -0.3992
  208MPD1    H1 3165   3.541   2.033   0.690 -0.5185 -0.1378  3.1733
  208MPD1    H2 3166   3.627   2.406   0.812 -0.1325  1.5918 -1.0197
  208MPD1    H3 3167   3.622   2.163   0.846  2.1294 -0.8824 -0.7556
  208MPD1     N 3168   3.392   2.090   0.468  0.0508 -0.2335  0.3307
  208MPD1    H5 3169   3.365   2.123   0.376 -3.7645 -1.8236  0.9025
  208MPD1    N1 3170   3.502   2.539   0.617 -0.8655  0.3405  0.4049
  208MPD1    H6 3171   3.414   2.568   0.577 -0.2338  1.5970 -0.0866
  208MPD1    H7 3172   3.519   2.590   0.704  2.1502 -0.5132  0.3114
  209MPD1     C 3173   0.144   2.344  12.164 -0.8381 -0.1793  0.1791
  209MPD1    C1 3174   0.187   2.472  12.170 -0.4105  0.3245  0.4228
  209MPD1    C2 3175   0.170   2.561  12.063 -0.2085  0.8397  0.0660
  209MPD1    C3 3176   0.096   2.531  11.951 -0.0900 -0.1091 -0.0762
  209MPD1    C4 3177   0.040   2.407  11.954  0.7875 -0.1924 -0.0776
  209MPD1    C5 3178   0.073   2.310  12.048  0.1151 -0.4619  0.3015
  209MPD1     H 3179   0.227   2.653  12.058  1.9610 -0.4006  2.3350
  209MPD1    H1 3180   4.709   2.371  11.865  1.1733 -0.2737 -0.2742
  209MPD1    H2 3181   0.167   2.265  12.235 -4.2523 -2.1905 -0.9950
  209MPD1    H3 3182   0.038   2.208  12.037 -1.6092  0.5164 -3.1581
  209MPD1     N 3183   0.087   2.624  11.847  0.1056  0.1132  0.0962
  209MPD1    H5 3184   0.123   2.717  11.871 -0.3822  0.4428 -0.4660
  209MPD1    N1 3185   0.262   2.513  12.277  1.0461 -0.2851  1.0650
  209MPD1    H6 3186   0.257   2.612  12.296  3.1453 -0.3283  1.9095
  209MPD1    H7 3187   0.237   2.467  12.365 -1.0665  0.4554  0.8344
  210MPD1     C 3188   0.521   3.396  11.466  0.2738 -0.2643  0.6649
  210MPD1    C1 3189   0.472   3.363  11.589  0.5362  0.1594 -0.1891
  210MPD1    C2 3190   0.373   3.267  11.592 -0.1157  0.2111 -0.4205
  210MPD1    C3 3191   0.330   3.206  11.471 -0.3908 -0.0771 -0.1640
  210MPD1    C4 3192   0.397   3.236  11.352 -0.4865  0.0933 -0.5195
  210MPD1    C5 3193   0.495   3.324  11.357  0.2699 -0.8488 -0.3110
  210MPD1     H 3194   0.331   3.252  11.691 -3.4409  1.2229 -1.6639
  210MPD1    H1 3195   0.376   3.176  11.264 -0.7510 -1.7223  0.7795
  210MPD1    H2 3196   0.607   3.461  11.457  0.3429 -0.5748 -0.8578
  210MPD1    H3 3197   0.554   3.338  11.267 -1.3389 -0.0512 -1.2303
  210MPD1     N 3198   0.229   3.104  11.473 -0.1821  0.0003 -0.1963
  210MPD1    H5 3199   0.190   3.083  11.381  0.6113  0.1233 -0.5610
  210MPD1    N1 3200   0.533   3.409  11.701 -0.0614  0.5087 -0.1404
  210MPD1    H6 3201   0.465   3.440  11.771  0.7904  2.7746 -0.3122
  210MPD1    H7 3202   0.580   3.494  11.673 -0.4454  1.0187  0.7410
  211MPD1     C 3203   3.083   2.137  15.822 -0.2167  0.2750 -0.3077
  211MPD1    C1 3204   3.057   2.272  15.843 -0.5307  0.6650 -0.8775
  211MPD1    C2 3205   2.952   2.297  15.931  0.1035  0.5841  0.1099
  211MPD1    C3 3206   2.873   2.202  15.987  0.1544  0.2128  0.1946
  211MPD1    C4 3207   2.893   2.071  15.953  0.5539  0.1664  0.0757
  211MPD1    C5 3208   3.001   2.041  15.874  0.0660 -1.0356 -0.1528
  211MPD1     H 3209   2.926   2.398  15.958  0.0358  0.2737  1.1915
  211MPD1    H1 3210   2.828   1.994  15.994 -0.1609  2.1310  2.5983
  211MPD1    H2 3211   3.147   2.116  15.737  0.5094  2.7811 -0.3899
  211MPD1    H3 3212   3.025   1.939  15.845  0.2877 -1.4577  1.5094
  211MPD1     N 3213   2.762   2.249  16.071 -0.3064 -0.6325 -0.9642
  211MPD1    H5 3214   2.768   2.348  16.092 -0.5948 -1.0442  1.0586
  211MPD1    N1 3215   3.115   2.379  15.773 -0.0443 -0.1526 -0.1613
  211MPD1    H6 3216   3.112   2.463  15.831  1.0391 -0.5881  0.5159
  211MPD1    H7 3217   3.211   2.353  15.752 -0.2659 -0.4665 -0.8032
  212MPD1     C 3218   2.258   4.693  17.334 -0.5129  0.0144 -0.4788
  212MPD1    C1 3219   2.173   0.084  17.361 -0.4057  0.1415  0.6447
  212MPD1    C2 3220   2.037   0.063  17.347  0.4220  0.6719  0.0014
  212MPD1    C3 3221   1.989   4.666  17.283 -0.6636 -1.1568  0.2743
  212MPD1    C4 3222   2.075   4.568  17.250 -0.3180  0.3934  0.6212
  212MPD1    C5 3223   2.211   4.578  17.271  0.9364  0.5073  0.1193
  212MPD1     H 3224   1.968   0.145  17.362  0.5351  0.7663  0.0066
  212MPD1    H1 3225   2.039   4.474  17.210 -0.8435  0.9572 -0.2192
  212MPD1    H2 3226   2.362   4.704  17.359 -0.1590 -0.9211 -1.5355
  212MPD1    H3 3227   2.264   4.485  17.252  1.4442  0.4245  1.9098
  212MPD1     N 3228   1.854   4.642  17.250 -0.5133 -0.4202  0.1141
  212MPD1    H5 3229   1.837   4.552  17.205 -1.2735 -0.3354  0.2386
  212MPD1    N1 3230   2.230   0.197  17.428 -0.1501  0.1179  0.1427
  212MPD1    H6 3231   2.324   0.221  17.398 -0.0455  0.1118  0.4632
  212MPD1    H7 3232   2.172   0.279  17.411 -2.4284 -1.2564  1.2324
  213MPD1     C 3233   4.392   0.876  16.269 -0.3067  0.3998  0.5859
  213MPD1    C1 3234   4.272   0.884  16.196 -1.5324  0.2579  0.4014
  213MPD1    C2 3235   4.289   0.962  16.084  0.5976  0.4239 -0.1918
  213MPD1    C3 3236   4.409   0.972  16.018  0.4629  0.2797  0.0750
  213MPD1    C4 3237   4.527   0.940  16.088  0.1490  0.3062  0.2623
  213MPD1    C5 3238   4.517   0.892  16.216  0.0014 -0.2564 -0.3784
  213MPD1     H 3239   4.198   0.997  16.036 -0.4442 -1.8607  0.1021
  213MPD1    H1 3240   4.619   0.933  16.031 -0.1427 -0.8090 -0.0812
  213MPD1    H2 3241   4.387   0.835  16.369 -0.4203  0.8543  0.7659
  213MPD1    H3 3242   4.605   0.889  16.280  0.4942  0.5859 -1.0103
  213MPD1     N 3243   4.412   1.046  15.897 -0.2160 -0.2469  0.7027
  213MPD1    H5 3244   4.322   1.064  15.853 -0.2841  0.2630  1.0544
  213MPD1    N1 3245   4.153   0.892  16.262 -0.5073 -0.2916 -0.1786
  213MPD1    H6 3246   4.075   0.903  16.197 -2.2085  0.1414  1.9575
  213MPD1    H7 3247   4.137   0.801  16.304  2.4952 -1.5199 -1.6897
  214MPD1     C 3248   3.699   1.404  15.691 -0.2667 -0.1331 -0.5988
  214MPD1    C1 3249   3.793   1.491  15.641 -0.8926 -0.1242 -0.0172
  214MPD1    C2 3250   3.923   1.445  15.621  0.2320  0.3458 -1.2264
  214MPD1    C3 3251   3.954   1.309  15.640  0.2423  0.3704 -0.0741
  214MPD1    C4 3252   3.858   1.221  15.682  0.1964 -0.2291 -0.3513
  214MPD1    C5 3253   3.735   1.274  15.701  0.3933 -0.0694  0.1561
  214MPD1     H 3254   4.002   1.516  15.601  0.5813  0.5351  0.8430
  214MPD1    H1 3255   3.878   1.116  15.698 -0.5848 -0.4132 -0.5831
  214MPD1    H2 3256   3.599   1.436  15.720 -1.0857 -0.2560 -3.2386
  214MPD1    H3 3257   3.654   1.208  15.732  0.2004 -0.4817 -1.2144
  214MPD1     N 3258   4.094   1.261  15.641 -0.3616  0.1612 -0.0769
  214MPD1    H5 3259   4.116   1.168  15.675 -1.1514  0.1536  0.4294
  214MPD1    N1 3260   3.766   1.623  15.653 -0.5537 -0.4531  0.1984
  214MPD1    H6 3261   3.667   1.641  15.638 -0.6561 -0.7226  0.5601
  214MPD1    H7 3262   3.821   1.681  15.591 -1.3055  0.9139  0.8016
  215MPD1     C 3263   4.336   1.974  10.871  0.4590  0.1592  0.3881
  215MPD1    C1 3264   4.273   2.009  10.980  0.4554  0.5468  0.7894
  215MPD1    C2 3265   4.220   2.134  10.998  0.6954 -0.3499  0.2122
  215MPD1    C3 3266   4.227   2.218  10.892 -0.4723  0.5458 -0.0864
  215MPD1    C4 3267   4.270   2.175  10.769  0.6722  0.0173  0.7986
  215MPD1    C5 3268   4.332   2.054  10.761  0.3923  0.5097 -0.2268
  215MPD1     H 3269   4.167   2.172  11.085 -1.1697  0.7643 -1.3998
  215MPD1    H1 3270   4.280   2.235  10.679  1.5151  0.2198  1.0269
  215MPD1    H2 3271   4.380   1.875  10.861  0.6007  0.3171 -0.5345
  215MPD1    H3 3272   4.376   2.023  10.667 -0.3220 -0.7744 -0.1384
  215MPD1     N 3273   4.182   2.351  10.904  0.3827  0.0627 -0.1333
  215MPD1    H5 3274   4.141   2.361  10.996  2.3885 -0.1709  0.7841
  215MPD1    N1 3275   4.257   1.908  11.077  0.0371  0.0466 -0.4182
  215MPD1    H6 3276   4.349   1.879  11.110 -1.2522 -1.6070  1.7139
  215MPD1    H7 3277   4.198   1.948  11.150 -2.5399 -0.8314 -2.0291
  216MPD1     C 3278   1.624   0.601   1.361  0.5871  0.0227  0.5504
  216MPD1    C1 3279   1.561   0.489   1.403  0.3378 -0.2872 -0.0569
  216MPD1    C2 3280   1.562   0.374   1.330  0.4286 -0.4972 -0.0237
  216MPD1    C3 3281   1.598   0.375   1.195 -0.0387  0.3940  0.0532
  216MPD1    C4 3282   1.660   0.492   1.152  0.2954 -0.3723 -0.3240
  216MPD1    C5 3283   1.681   0.593   1.236  0.1397  0.8005 -0.0775
  216MPD1     H 3284   1.522   0.281   1.370 -0.9399  0.6719  1.3200
  216MPD1    H1 3285   1.691   0.511   1.049  0.1711  0.5648 -0.1897
  216MPD1    H2 3286   1.633   0.690   1.421  1.8674  0.2580 -0.0122
  216MPD1    H3 3287   1.735   0.677   1.195  0.5544  0.7989  0.4681
  216MPD1     N 3288   1.555   0.265   1.109 -0.2420 -0.5813 -0.1925
  216MPD1    H5 3289   1.493   0.193   1.146  1.5444 -1.6155  0.7909
  216MPD1    N1 3290   1.524   0.481   1.537 -0.4517 -0.0896 -0.6047
  216MPD1    H6 3291   1.486   0.562   1.587  1.7942  1.6211 -1.6396
  216MPD1    H7 3292   1.455   0.407   1.543 -1.6244  1.0817  0.5674
  217MPD1     C 3293   3.002   2.358   8.887  0.3140  0.1115 -0.0890
  217MPD1    C1 3294   2.884   2.341   8.821 -0.0894 -0.2011  0.1056
  217MPD1    C2 3295   2.813   2.229   8.837  0.0092  0.2209  0.0259
  217MPD1    C3 3296   2.847   2.135   8.936 -0.2927  0.7419 -0.5062
  217MPD1    C4 3297   2.955   2.165   9.016 -0.6257 -0.2180 -0.0656
  217MPD1    C5 3298   3.024   2.274   8.992 -0.0803  0.0996 -0.4276
  217MPD1     H 3299   2.722   2.217   8.779  0.4206 -0.6669 -0.4306
  217MPD1    H1 3300   2.976   2.105   9.104  1.2988  0.0856 -0.3165
  217MPD1    H2 3301   3.052   2.453   8.876 -1.9083  1.1381 -1.3123
  217MPD1    H3 3302   3.114   2.293   9.050 -1.2516  0.4772  1.2610
  217MPD1     N 3303   2.768   2.022   8.985  0.4206  0.5385 -0.8293
  217MPD1    H5 3304   2.794   1.974   9.070 -0.1669 -0.1347 -1.0300
  217MPD1    N1 3305   2.839   2.440   8.726  0.7030 -0.5647  0.0899
  217MPD1    H6 3306   2.873   2.534   8.748  3.1640 -1.1936 -1.0192
  217MPD1    H7 3307   2.740   2.442   8.700  0.4885  1.7882  1.0187
  218MPD1     C 3308   3.658   2.961  13.332  0.2644  0.3132 -0.5052
  218MPD1    C1 3309   3.701   2.841  13.379 -0.6293  0.5421  1.0777
  218MPD1    C2 3310   3.802   2.780  13.314  0.4062 -0.0977  0.8078
  218MPD1    C3 3311   3.887   2.850  13.230  0.6140  0.7270  0.4543
  218MPD1    C4 3312   3.845   2.979  13.192 -0.2675 -0.7878  0.1374
  218MPD1    C5 3313   3.729   3.031  13.243  0.0824 -0.0653 -0.3613
  218MPD1     H 3314   3.828   2.678  13.339 -0.7933 -0.3711  0.9722
  218MPD1    H1 3315   3.905   3.034  13.121 -0.8731  1.4503  1.3573
  218MPD1    H2 3316   3.576   3.012  13.382  1.2268 -0.0013  1.4115
  218MPD1    H3 3317   3.699   3.130  13.208  3.0944  0.7009 -0.7798
  218MPD1     N 3318   4.003   2.785  13.182 -0.5999  1.1657 -0.1219
  218MPD1    H5 3319   4.022   2.693  13.221  2.9625  0.5375 -3.3791
  218MPD1    N1 3320   3.639   2.771  13.484  0.0589  1.2332  0.8562
  218MPD1    H6 3321   3.610   2.835  13.558 -0.2566  2.2871 -0.1737
  218MPD1    H7 3322   3.696   2.702  13.531 -1.4686 -1.4310 -1.1401
  219MPD1     C 3323   4.520   2.350  12.388  0.3327 -0.6476 -0.0172
  219MPD1    C1 3324   4.526   2.487  12.394 -0.8337 -0.3180 -0.1996
  219MPD1    C2 3325   4.478   2.542  12.509  0.5815 -0.6708  0.4697
  219MPD1    C3 3326   4.435   2.464  12.620 -0.4440  0.1943  0.2784
  219MPD1    C4 3327   4.430   2.330  12.612  0.1589  0.1481  0.0066
  219MPD1    C5 3328   4.471   2.272  12.496 -0.2723  0.1505  0.7243
  219MPD1     H 3329   4.478   2.649  12.523  2.5899 -0.7436  1.0987
  219MPD1    H1 3330   4.400   2.268  12.697  2.3622  1.0820  1.4680
  219MPD1    H2 3331   4.557   2.296  12.301  0.4480 -2.9214  1.4765
  219MPD1    H3 3332   4.475   2.164  12.487  0.6470  0.0851  1.9141
  219MPD1     N 3333   4.399   2.516  12.745 -0.3183 -0.1043 -0.2838
  219MPD1    H5 3334   4.365   2.450  12.814 -0.9187 -0.9309 -1.3752
  219MPD1    N1 3335   4.561   2.571  12.280 -0.6486  0.4072  0.0717
  219MPD1    H6 3336   4.600   2.658  12.315 -3.9438  2.2921 -0.8589
  219MPD1    H7 3337   4.630   2.526  12.221 -1.7526 -1.3272  0.0886
  220MPD1     C 3338   4.187   2.900   9.129  0.7451  0.1517 -0.7086
  220MPD1    C1 3339   4.054   2.905   9.175  0.0887 -0.2865  0.8828
  220MPD1    C2 3340   4.040   2.908   9.314  1.0086  0.3177  0.2046
  220MPD1    C3 3341   4.147   2.903   9.401  0.0403 -0.0865  0.0907
  220MPD1    C4 3342   4.277   2.900   9.347  0.3701  0.3680 -0.4366
  220MPD1    C5 3343   4.294   2.895   9.212  0.1722  0.4768 -0.0701
  220MPD1     H 3344   3.938   2.912   9.351  0.4442 -1.2338 -1.1940
  220MPD1    H1 3345   4.371   2.900   9.402 -0.2407 -3.1297  0.5637
  220MPD1    H2 3346   4.219   2.902   9.026 -2.3160 -1.4336 -1.6896
  220MPD1    H3 3347   4.394   2.899   9.170  0.2559  0.8259  0.1567
  220MPD1     N 3348   4.113   2.910   9.540  1.0132 -0.0759 -0.2325
  220MPD1    H5 3349   4.016   2.899   9.568 -0.0585  0.2391 -3.8336
  220MPD1    N1 3350   3.946   2.887   9.083  0.0797  0.0942  0.0577
  220MPD1    H6 3351   3.976   2.916   8.990  1.2095  0.2955  0.4884
  220MPD1    H7 3352   3.867   2.949   9.105 -1.2471 -1.2836 -0.8278
  221MPD1     C 3353   1.860   1.800  16.123 -1.1023  0.0181 -0.5557
  221MPD1    C1 3354   1.917   1.782  16.248 -0.0197  0.4334  0.8949
  221MPD1    C2 3355   1.992   1.674  16.277 -0.0743 -0.2134  0.6624
  221MPD1    C3 3356   2.017   1.582  16.180  0.1325 -0.0782  0.6531
  221MPD1    C4 3357   1.959   1.594  16.051 -0.1882  0.5567 -0.1999
  221MPD1    C5 3358   1.892   1.708  16.028  0.1374 -0.0882  1.1597
  221MPD1     H 3359   2.013   1.658  16.382 -1.7954 -2.6429  0.6310
  221MPD1    H1 3360   1.964   1.528  15.965  0.1642 -0.1892  0.3923
  221MPD1    H2 3361   1.801   1.889  16.107  0.8273  1.1096 -1.6106
  221MPD1    H3 3362   1.852   1.735  15.931  2.7309  2.3007  0.7415
  221MPD1     N 3363   2.103   1.475  16.191 -0.0223  0.2380 -0.2754
  221MPD1    H5 3364   2.100   1.412  16.111  0.2670 -0.6691  0.4264
  221MPD1    N1 3365   1.887   1.874  16.350 -0.0012  0.2480 -0.7867
  221MPD1    H6 3366   1.875   1.967  16.309  1.9215  1.1220  0.6018
  221MPD1    H7 3367   1.957   1.883  16.424 -0.6051 -4.0679  0.2520
  222MPD1     C 3368   2.905   1.018   0.624 -0.0264 -0.1636 -0.0995
  222MPD1    C1 3369   2.900   0.952   0.745  0.2144 -0.1492  0.2374
  222MPD1    C2 3370   2.834   0.825   0.755 -0.5921  0.3843 -0.4967
  222MPD1    C3 3371   2.784   0.768   0.642  0.4124  0.0270  0.3006
  222MPD1    C4 3372   2.797   0.832   0.517  0.1595  0.1180  0.3269
  222MPD1    C5 3373   2.850   0.958   0.512 -0.1207  0.7123  0.4978
  222MPD1     H 3374   2.819   0.779   0.852  0.3431 -1.3288 -1.1475
  222MPD1    H1 3375   2.764   0.783   0.426  1.2708 -0.7301  0.3736
  222MPD1    H2 3376   2.961   1.110   0.611 -0.1495  0.0890  1.1583
  222MPD1    H3 3377   2.864   1.004   0.415 -0.8713  0.3737  0.2353
  222MPD1     N 3378   2.700   0.652   0.635  0.6452  0.1726 -0.0611
  222MPD1    H5 3379   2.661   0.627   0.544 -0.6105  2.8204 -0.2545
  222MPD1    N1 3380   2.940   1.006   0.869 -0.4098  0.0441  0.4280
  222MPD1    H6 3381   2.953   0.930   0.935  1.1018 -0.8016 -0.8462
  222MPD1    H7 3382   3.026   1.062   0.868  0.7217 -1.7025  0.3470
  223MPD1     C 3383   2.448   4.608   1.241  0.8624 -0.6545 -0.0153
  223MPD1    C1 3384   2.468   0.027   1.271 -0.6965 -0.0239 -1.4494
  223MPD1    C2 3385   2.472   0.111   1.160 -0.0453  0.6191  0.1202
  223MPD1    C3 3386   2.460   0.065   1.027  0.3890  0.2292 -0.2982
  223MPD1    C4 3387   2.454   4.646   1.001  0.2341 -0.1330  0.2908
  223MPD1    C5 3388   2.449   4.563   1.110 -0.0028 -0.4351 -0.0837
  223MPD1     H 3389   2.472   0.217   1.182  0.2737  0.2368  2.0101
  223MPD1    H1 3390   2.467   4.599   0.904  0.5061 -0.7566  0.6291
  223MPD1    H2 3391   2.476   4.543   1.323  0.9814  0.0075  0.4667
  223MPD1    H3 3392   2.461   4.459   1.080 -0.6895 -0.4528 -0.2921
  223MPD1     N 3393   2.475   0.165   0.927 -0.1482 -0.2660 -0.0852
  223MPD1    H5 3394   2.509   0.253   0.964 -2.1456  1.1354 -1.5861
  223MPD1    N1 3395   2.463   0.070   1.401 -0.4032  0.2471 -0.2896
  223MPD1    H6 3396   2.510   0.160   1.410 -0.2123  0.1526 -0.3506
  223MPD1    H7 3397   2.493   0.006   1.475  1.0038  1.2446  0.0033
  224MPD1     C 3398   2.602   2.753   9.120 -0.0938 -0.1316 -0.1924
  224MPD1    C1 3399   2.660   2.627   9.101  0.0507 -0.0841  0.0840
  224MPD1    C2 3400   2.673   2.543   9.211  0.1348  0.6443  0.3243
  224MPD1    C3 3401   2.639   2.590   9.335  0.8644  0.2624 -0.6857
  224MPD1    C4 3402   2.596   2.721   9.352  0.1690 -0.3619 -0.0528
  224MPD1    C5 3403   2.583   2.804   9.244  0.2441 -0.3579  0.3516
  224MPD1     H 3404   2.723   2.447   9.199 -0.1171  0.4113  1.1163
  224MPD1    H1 3405   2.567   2.764   9.447  1.4456  1.0059 -0.2906
  224MPD1    H2 3406   2.569   2.818   9.040  0.1535 -0.0005 -0.1883
  224MPD1    H3 3407   2.554   2.908   9.247  0.1351 -0.4089  1.2037
  224MPD1     N 3408   2.644   2.506   9.452 -0.2203  0.1286 -0.0680
  224MPD1    H5 3409   2.607   2.546   9.538 -1.0261 -3.4369  1.2523
  224MPD1    N1 3410   2.676   2.580   8.970  0.4717  0.1046  0.0766
  224MPD1    H6 3411   2.699   2.648   8.898 -1.9334 -2.6083 -3.3049
  224MPD1    H7 3412   2.741   2.502   8.956  1.3127  0.9123 -0.5346
  225MPD1     C 3413   4.416   3.339  11.829  0.0014 -0.1771 -0.4567
  225MPD1    C1 3414   4.324   3.297  11.731  0.2409 -0.4475  0.1236
  225MPD1    C2 3415   4.190   3.260  11.771 -0.0376  0.3332  0.4977
  225MPD1    C3 3416   4.163   3.266  11.909  0.3066  0.5523 -0.7200
  225MPD1    C4 3417   4.264   3.290  12.005  0.7867 -0.2448 -0.1336
  225MPD1    C5 3418   4.388   3.322  11.960 -0.5943  0.1919  0.0152
  225MPD1     H 3419   4.118   3.244  11.692  1.6923 -0.7304 -0.8812
  225MPD1    H1 3420   4.235   3.292  12.109  0.9509 -0.5791 -0.0811
  225MPD1    H2 3421   4.521   3.362  11.815 -0.0664 -0.1351 -0.8947
  225MPD1    H3 3422   4.461   3.343  12.038 -0.4485  0.2972 -0.1493
  225MPD1     N 3423   4.037   3.250  11.963  0.7144 -0.5969 -0.5232
  225MPD1    H5 3424   4.028   3.259  12.064  2.9724 -1.3974 -0.2503
  225MPD1    N1 3425   4.357   3.316  11.593 -0.0310  0.6121  0.2049
  225MPD1    H6 3426   4.311   3.256  11.525  0.3524 -2.7331  2.8920
  225MPD1    H7 3427   4.456   3.320  11.572 -0.0012 -0.1127  0.2254
  226MPD1     C 3428   3.450   3.409   9.752 -0.5361 -0.0117  0.2413
  226MPD1    C1 3429   3.413   3.280   9.736 -0.9245 -0.0334  0.7682
  226MPD1    C2 3430   3.276   3.248   9.726 -0.1443  0.1397 -0.1258
  226MPD1    C3 3431   3.189   3.352   9.726  0.0732 -0.3441 -0.7328
  226MPD1    C4 3432   3.228   3.480   9.737  0.7538  0.1529  0.4552
  226MPD1    C5 3433   3.361   3.511   9.763 -0.7062 -0.3945  0.4732
  226MPD1     H 3434   3.246   3.144   9.728  3.1003 -0.8324 -1.6170
  226MPD1    H1 3435   3.160   3.563   9.748  1.8330  1.4841 -2.8569
  226MPD1    H2 3436   3.552   3.446   9.763 -0.8628  0.7338  0.7656
  226MPD1    H3 3437   3.399   3.612   9.761  0.5022 -0.8535  0.5939
  226MPD1     N 3438   3.045   3.326   9.728  0.4674  0.1984 -0.1298
  226MPD1    H5 3439   3.005   3.233   9.739 -0.7524  0.9662  2.0006
  226MPD1    N1 3440   3.511   3.186   9.763 -0.0191 -0.0328  0.4385
  226MPD1    H6 3441   3.485   3.100   9.716 -0.3619  0.4732 -0.2916
  226MPD1    H7 3442   3.601   3.206   9.720 -0.0605  2.7596  1.6500
  227MPD1     C 3443   2.009   3.419   9.404  0.7768  0.0776 -0.0347
  227MPD1    C1 3444   2.022   3.307   9.486 -0.4858  0.2080 -0.1468
  227MPD1    C2 3445   2.145   3.291   9.535 -0.0202 -0.2374  0.4554
  227MPD1    C3 3446   2.246   3.386   9.530 -0.4136 -0.5676 -0.6417
  227MPD1    C4 3447   2.219   3.502   9.465  0.3442  0.5986 -0.5284
  227MPD1    C5 3448   2.097   3.523   9.406  0.1558 -0.5160  0.3328
  227MPD1     H 3449   2.164   3.206   9.599  1.3023  0.3670  0.8774
  227MPD1    H1 3450   2.295   3.579   9.471 -0.0056  0.8713  0.4209
  227MPD1    H2 3451   1.914   3.429   9.352  1.3734 -1.3234 -1.3570
  227MPD1    H3 3452   2.069   3.617   9.360  1.9052 -0.4455 -0.5871
  227MPD1     N 3453   2.370   3.374   9.597 -0.3173  0.1242 -0.7856
  227MPD1    H5 3454   2.375   3.285   9.645 -0.1571 -0.0478 -1.1213
  227MPD1    N1 3455   1.927   3.196   9.488 -0.2746 -0.0859 -0.3544
  227MPD1    H6 3456   1.830   3.226   9.495 -0.1677  0.0722  0.4555
  227MPD1    H7 3457   1.929   3.142   9.575  1.0285 -1.3704 -1.1777
  228MPD1     C 3458   0.158   1.524  11.588  0.5180  0.2780  0.6496
  228MPD1    C1 3459   0.038   1.546  11.635  0.2310  0.0362  0.3334
  228MPD1    C2 3460   0.015   1.515  11.770  0.3887  0.0677  0.2127
  228MPD1    C3 3461   0.111   1.474  11.853  0.4739 -0.0989 -0.2637
  228MPD1    C4 3462   0.240   1.461  11.803  0.5891 -1.0282 -0.1940
  228MPD1    C5 3463   0.263   1.487  11.664 -0.1983 -0.5510 -0.0405
  228MPD1     H 3464   4.637   1.544  11.804 -0.3334 -0.8961 -1.0529
  228MPD1    H1 3465   0.329   1.427  11.854  1.3729  1.6948  0.2404
  228MPD1    H2 3466   0.185   1.547  11.485 -0.8749  1.8740  0.6480
  228MPD1    H3 3467   0.364   1.481  11.624 -0.4149  1.2463 -0.8788
  228MPD1     N 3468   0.079   1.424  11.978 -0.4221  0.3790  0.8502
  228MPD1    H5 3469   4.706   1.443  12.012 -0.4942 -0.7231  1.2780
  228MPD1    N1 3470   4.654   1.565  11.552 -0.0229 -0.0359 -0.6182
  228MPD1    H6 3471   4.680   1.594  11.458 -0.9224  2.5462 -0.0666
  228MPD1    H7 3472   4.582   1.625  11.594  0.8853 -0.0357  0.9387
  229MPD1     C 3473   0.730   4.596  14.302  0.2875 -0.2746  0.4995
  229MPD1    C1 3474   0.860   4.592  14.355 -0.3554 -0.0827 -0.7908
  229MPD1    C2 3475   0.874   4.518  14.468 -0.1594 -0.5375 -0.2596
  229MPD1    C3 3476   0.764   4.439  14.515  0.1285 -0.1894 -0.0649
  229MPD1    C4 3477   0.643   4.438  14.455 -0.2984  0.3810  0.5555
  229MPD1    C5 3478   0.629   4.516  14.348  0.8506  0.0464 -0.6780
  229MPD1     H 3479   0.964   4.513  14.527 -1.0873  0.4956  1.2636
  229MPD1    H1 3480   0.552   4.390  14.490 -0.1605  1.4431  2.3066
  229MPD1    H2 3481   0.698   4.659  14.219  0.2428  0.5727  1.1563
  229MPD1    H3 3482   0.532   4.517  14.301  0.0624 -0.0184  0.9351
  229MPD1     N 3483   0.779   4.348  14.618 -0.1189 -0.1249 -0.2822
  229MPD1    H5 3484   0.693   4.312  14.656  0.4910 -3.1414 -1.7953
  229MPD1    N1 3485   0.966   4.668  14.311  0.6138  0.4427 -0.3992
  229MPD1    H6 3486   1.047   4.610  14.332  2.2288  2.1909 -1.7917
  229MPD1    H7 3487   0.969   4.687  14.211  1.4226 -1.9128 -0.8317
  230MPD1     C 3488   0.179   4.223  15.207 -0.2848 -0.2677 -0.3571
  230MPD1    C1 3489   0.201   4.301  15.099 -0.0406 -0.4861 -0.7797
  230MPD1    C2 3490   0.316   4.270  15.027 -0.8032 -0.5952  0.5112
  230MPD1    C3 3491   0.415   4.176  15.061 -0.7195  0.6865 -0.0876
  230MPD1    C4 3492   0.387   4.109  15.183 -0.1616 -0.1218 -0.5528
  230MPD1    C5 3493   0.271   4.134  15.256 -0.0277 -0.1025 -0.1148
  230MPD1     H 3494   0.336   4.329  14.938  0.1028 -1.2675  0.2759
  230MPD1    H1 3495   0.448   4.036  15.233 -0.5842 -0.7161 -0.9079
  230MPD1    H2 3496   0.109   4.252  15.285 -0.1102  0.8856 -0.6254
  230MPD1    H3 3497   0.262   4.087  15.354  1.6015  0.7994  0.4645
  230MPD1     N 3498   0.533   4.150  14.988 -0.1328 -0.6210  0.6178
  230MPD1    H5 3499   0.541   4.189  14.895 -1.4791  1.0935  1.2149
  230MPD1    N1 3500   0.115   4.409  15.070  0.8038 -0.6262  0.1517
  230MPD1    H6 3501   0.015   4.401  15.088  0.4658 -1.0845 -1.8682
  230MPD1    H7 3502   0.126   4.434  14.972 -2.6147  0.1396 -0.0413
  231MPD1     C 3503   3.076   1.560  15.228 -0.2951  0.1158  0.4554
  231MPD1    C1 3504   3.076   1.604  15.100  0.1929  0.2555  1.4595
  231MPD1    C2 3505   3.195   1.631  15.029  0.2967  0.1868  0.1468
  231MPD1    C3 3506   3.316   1.607  15.090  0.0237 -0.2799  0.0119
  231MPD1    C4 3507   3.310   1.543  15.210 -0.1026 -0.7070 -0.0919
  231MPD1    C5 3508   3.194   1.525  15.282 -0.3065 -0.2250  0.3695
  231MPD1     H 3509   3.195   1.681  14.933  1.6343 -0.4662 -0.1808
  231MPD1    H1 3510   3.398   1.503  15.258 -0.5216 -0.3594  0.9653
  231MPD1    H2 3511   2.982   1.542  15.281 -1.6409 -0.4105 -2.1177
  231MPD1    H3 3512   3.193   1.466  15.373 -1.4498  1.1530  1.2509
  231MPD1     N 3513   3.435   1.646  15.026  0.4867  0.0635  0.3863
  231MPD1    H5 3514   3.428   1.688  14.934  0.4491  2.1346  1.3351
  231MPD1    N1 3515   2.950   1.656  15.057  0.1660  0.0302  0.0833
  231MPD1    H6 3516   2.939   1.631  14.959 -1.8838  0.2775  0.2557
  231MPD1    H7 3517   2.871   1.615  15.107  0.1107  1.1612  0.9029
  232MPD1     C 3518   1.036   0.051   0.671  0.3268  0.4787 -0.3368
  232MPD1    C1 3519   0.952   0.081   0.565 -0.4117  0.4755  0.2542
  232MPD1    C2 3520   0.864   4.710   0.515  0.5034 -0.5963  0.6756
  232MPD1    C3 3521   0.860   4.582   0.573 -1.0931  0.1079 -0.5078
  232MPD1    C4 3522   0.938   4.557   0.689 -0.2402 -0.4416  0.1217
  232MPD1    C5 3523   1.028   4.651   0.732  0.4198  0.6065 -0.9601
  232MPD1     H 3524   0.794   0.018   0.437  0.6988  0.3168  0.8429
  232MPD1    H1 3525   0.947   4.461   0.739  1.0738 -0.0240  0.6909
  232MPD1    H2 3526   1.111   0.124   0.698  0.1990  1.3593 -2.3633
  232MPD1    H3 3527   1.100   4.624   0.808  0.9930  3.1864 -0.5569
  232MPD1     N 3528   0.772   4.482   0.527  0.1273 -0.0669  0.0040
  232MPD1    H5 3529   0.711   4.507   0.450 -0.8731 -2.0924  0.1366
  232MPD1    N1 3530   0.961   0.203   0.493 -0.5367 -0.7273  0.4097
  232MPD1    H6 3531   1.011   0.279   0.539 -1.0583 -1.2116  1.7768
  232MPD1    H7 3532   0.870   0.229   0.458  0.3575  2.4058  0.4574
  233MPD1     C 3533   2.772   4.067   1.159  0.4261 -0.3035  0.6862
  233MPD1    C1 3534   2.827   4.111   1.277  0.3691 -0.1424  0.3716
  233MPD1    C2 3535   2.811   4.241   1.315  0.5746 -0.3918  0.4456
  233MPD1    C3 3536   2.750   4.336   1.231  0.3066 -0.9024  0.0383
  233MPD1    C4 3537   2.700   4.284   1.111 -0.7491 -0.2448 -0.8686
  233MPD1    C5 3538   2.712   4.153   1.077  0.6113 -0.2264 -0.1530
  233MPD1     H 3539   2.846   4.279   1.410 -2.6518  1.5620  0.8274
  233MPD1    H1 3540   2.677   4.349   1.027 -1.5157 -0.3093 -0.7067
  233MPD1    H2 3541   2.764   3.961   1.139  0.3091 -0.0089 -0.8085
  233MPD1    H3 3542   2.661   4.115   0.990  0.3357  0.0949 -0.1312
  233MPD1     N 3543   2.755   4.468   1.246  0.1086 -0.3455 -0.4490
  233MPD1    H5 3544   2.742   4.516   1.157 -0.4468 -1.3011 -0.8903
  233MPD1    N1 3545   2.860   4.012   1.370 -0.4795  0.0997  0.3120
  233MPD1    H6 3546   2.895   3.934   1.315  0.5788  0.8277 -0.0563
  233MPD1    H7 3547   2.929   4.036   1.442  1.8095  0.3796 -1.9565
  234MPD1     C 3548   3.786   0.868   9.516 -0.3753  0.3434 -0.3126
  234MPD1    C1 3549   3.743   0.967   9.428 -0.5118  0.2248 -0.2592
  234MPD1    C2 3550   3.639   1.044   9.464  0.0578  0.3150 -0.1084
  234MPD1    C3 3551   3.593   1.041   9.590 -0.2983  0.1484 -0.4094
  234MPD1    C4 3552   3.635   0.948   9.683  0.3068 -0.3574  0.1627
  234MPD1    C5 3553   3.727   0.859   9.635  0.2090 -0.1400 -0.3060
  234MPD1     H 3554   3.594   1.113   9.394 -1.4832 -1.1967 -0.5961
  234MPD1    H1 3555   3.617   0.955   9.789  0.2501 -0.1199  0.1354
  234MPD1    H2 3556   3.846   0.783   9.482 -0.8848 -0.0605 -0.1978
  234MPD1    H3 3557   3.752   0.780   9.705 -0.1518 -0.2081 -0.2528
  234MPD1     N 3558   3.488   1.138   9.618  0.3849 -0.2437  0.0152
  234MPD1    H5 3559   3.456   1.199   9.544 -2.3969  0.2892  1.6684
  234MPD1    N1 3560   3.778   0.951   9.292 -0.2484  0.0419 -0.5254
  234MPD1    H6 3561   3.879   0.956   9.283 -0.1713 -1.8330 -0.6939
  234MPD1    H7 3562   3.730   1.029   9.246  0.2223 -0.0318 -1.1439
  235MPD1     C 3563   4.477   3.522  11.220 -0.1257 -0.1196  0.3846
  235MPD1    C1 3564   4.496   3.411  11.144 -0.4920 -0.4187  0.7967
  235MPD1    C2 3565   4.557   3.434  11.021  0.2210 -0.0769  0.1324
  235MPD1    C3 3566   4.582   3.560  10.975  0.0824  0.3062  0.1937
  235MPD1    C4 3567   4.572   3.667  11.058  0.1232  0.0252  0.1688
  235MPD1    C5 3568   4.514   3.650  11.180 -1.0013 -0.7408 -0.1333
  235MPD1     H 3569   4.576   3.347  10.959 -0.8257 -0.5488  0.4746
  235MPD1    H1 3570   4.618   3.764  11.042 -2.9231  1.2015 -1.3760
  235MPD1    H2 3571   4.426   3.518  11.316  0.7874 -0.1316  0.8630
  235MPD1    H3 3572   4.485   3.736  11.240  0.5847  0.1080 -0.5878
  235MPD1     N 3573   4.635   3.576  10.850  0.1280 -0.1157  0.3249
  235MPD1    H5 3574   4.656   3.491  10.799  0.8320 -0.1216  0.6167
  235MPD1    N1 3575   4.451   3.289  11.202 -0.0551  0.5122  0.7322
  235MPD1    H6 3576   4.350   3.283  11.198  0.2622 -4.6581  1.2674
  235MPD1    H7 3577   4.476   3.206  11.149 -0.9603  1.7446 -1.6006
  236MPD1     C 3578   4.018   0.066   9.790 -0.3953 -0.0407 -0.1909
  236MPD1    C1 3579   3.961   4.664   9.763  0.6010 -0.7234  0.6766
  236MPD1    C2 3580   4.015   4.552   9.819  0.1542  0.1232 -0.3846
  236MPD1    C3 3581   4.129   4.556   9.903  0.5315  1.1679  0.3074
  236MPD1    C4 3582   4.170   4.687   9.942  0.1284  0.0690  0.7242
  236MPD1    C5 3583   4.120   0.076   9.886  0.6497 -0.1786  0.7689
  236MPD1     H 3584   3.978   4.458   9.779  1.1124  0.1463 -1.3248
  236MPD1    H1 3585   4.249   4.696  10.016 -0.2545  2.8102  0.7811
  236MPD1    H2 3586   3.993   0.160   9.742 -1.6276 -0.8874 -1.1915
  236MPD1    H3 3587   4.165   0.171   9.911 -1.6769  0.7533  1.3799
  236MPD1     N 3588   4.197   4.448   9.967  0.1909 -0.5153 -0.0901
  236MPD1    H5 3589   4.281   4.468  10.020  1.0040 -2.0635 -0.7824
  236MPD1    N1 3590   3.838   4.650   9.692  0.2777  0.3474 -0.3411
  236MPD1    H6 3591   3.832   4.570   9.630 -0.9406  0.0443  0.1769
  236MPD1    H7 3592   3.828   0.008   9.628  0.0460  0.4456 -0.1806
  237MPD1     C 3593   3.813   2.463  15.903 -0.1240  0.1866 -0.0022
  237MPD1    C1 3594   3.705   2.534  15.946  0.2588  0.4056  0.0912
  237MPD1    C2 3595   3.617   2.576  15.844  0.3323  0.7598 -0.0997
  237MPD1    C3 3596   3.647   2.564  15.704  0.3483 -0.1011 -0.5927
  237MPD1    C4 3597   3.764   2.494  15.673  0.1633  0.0641 -0.5931
  237MPD1    C5 3598   3.847   2.445  15.772  0.4245  0.1768  0.1804
  237MPD1     H 3599   3.535   2.634  15.883 -0.4763 -0.3052 -0.2223
  237MPD1    H1 3600   3.800   2.471  15.573  0.5920 -3.4601  0.3657
  237MPD1    H2 3601   3.882   2.414  15.970  0.7805 -1.0029 -1.7916
  237MPD1    H3 3602   3.929   2.381  15.743 -0.8157 -1.1668 -0.3837
  237MPD1     N 3603   3.559   2.597  15.600 -0.1974 -0.3908  0.3060
  237MPD1    H5 3604   3.584   2.575  15.504  0.1625 -0.8223  0.5023
  237MPD1    N1 3605   3.665   2.516  16.083  0.1136 -0.0101  0.2138
  237MPD1    H6 3606   3.744   2.492  16.142  0.7371 -0.2504 -0.7171
  237MPD1    H7 3607   3.617   2.597  16.121  1.9812  1.0668  0.2565
  238MPD1     C 3608   1.016   1.049  15.222  0.6963  0.8635  0.1746
  238MPD1    C1 3609   0.987   0.939  15.299  0.3794  0.4651 -0.1724
  238MPD1    C2 3610   0.874   0.863  15.278 -0.4223  0.0216 -0.2536
  238MPD1    C3 3611   0.778   0.916  15.185 -0.4612 -0.4199 -0.6325
  238MPD1    C4 3612   0.801   1.037  15.123 -0.3076 -0.2338  0.6899
  238MPD1    C5 3613   0.923   1.100  15.137  0.9929  0.1256  0.4533
  238MPD1     H 3614   0.871   0.762  15.317  1.3117  0.3491  0.7287
  238MPD1    H1 3615   0.725   1.081  15.060 -0.9735 -1.6082  0.5179
  238MPD1    H2 3616   1.114   1.096  15.224  0.6038  1.0730 -0.2791
  238MPD1    H3 3617   0.934   1.190  15.077  0.7642 -0.2881 -0.2054
  238MPD1     N 3618   0.659   0.840  15.148  0.4948  0.2950  0.2328
  238MPD1    H5 3619   0.611   0.872  15.064  2.3529  1.5558 -0.3545
  238MPD1    N1 3620   1.098   0.892  15.375 -0.1060  0.6752  0.3347
  238MPD1    H6 3621   1.132   0.970  15.430  2.1728  0.3846 -0.6879
  238MPD1    H7 3622   1.060   0.828  15.445 -0.3797 -1.4618 -1.7476
  239MPD1     C 3623   0.830   1.945  14.921 -1.1624 -0.2028 -0.0775
  239MPD1    C1 3624   0.954   1.978  14.867 -0.3838  0.1186  0.8773
  239MPD1    C2 3625   0.945   2.005  14.734  0.1606 -0.1733 -0.5723
  239MPD1    C3 3626   0.824   2.004  14.662 -0.1373  0.1925  0.2877
  239MPD1    C4 3627   0.714   1.957  14.727 -0.6021 -0.6612  0.6273
  239MPD1    C5 3628   0.713   1.936  14.858 -0.0026  0.0911 -0.6867
  239MPD1     H 3629   1.039   2.034  14.687  0.0643  1.8415  0.4791
  239MPD1    H1 3630   0.616   1.940  14.682 -0.2701  0.1994 -0.4246
  239MPD1    H2 3631   0.830   1.935  15.029  0.4330 -1.1436 -0.1619
  239MPD1    H3 3632   0.628   1.898  14.913 -1.4486 -1.1467 -3.8071
  239MPD1     N 3633   0.808   2.062  14.534  0.2771  0.7445 -0.1551
  239MPD1    H5 3634   0.714   2.070  14.496 -0.1408  1.9488  1.1159
  239MPD1    N1 3635   1.064   1.990  14.955 -0.2333  0.0399  0.4133
  239MPD1    H6 3636   1.076   1.902  15.005  3.2476  0.8154  1.0002
  239MPD1    H7 3637   1.151   2.016  14.909 -0.2581 -0.8263 -0.1152
  240MPD1     C 3638   0.217   2.044  13.488 -0.0829  0.4659  0.7142
  240MPD1    C1 3639   0.339   1.978  13.483  0.3918 -0.0713  0.2942
  240MPD1    C2 3640   0.367   1.895  13.591  0.1647 -0.0351  0.0726
  240MPD1    C3 3641   0.297   1.894  13.705 -0.3850 -0.2400  0.0391
  240MPD1    C4 3642   0.189   1.989  13.723  0.4506  0.7263 -0.0945
  240MPD1    C5 3643   0.155   2.063  13.610 -0.2212  0.1868 -0.6497
  240MPD1     H 3644   0.452   1.827  13.590  0.5741  0.4613  0.8892
  240MPD1    H1 3645   0.133   1.995  13.816 -0.4369  0.2094 -0.5964
  240MPD1    H2 3646   0.175   2.101  13.406  0.5705  0.2199  0.2166
  240MPD1    H3 3647   0.074   2.132  13.627  0.4436  0.2931  2.1417
  240MPD1     N 3648   0.347   1.817  13.819  0.2809  0.5441 -0.0035
  240MPD1    H5 3649   0.424   1.756  13.795  0.9210  0.7286  1.5902
  240MPD1    N1 3650   0.413   1.968  13.364 -0.3238 -0.2891  0.1521
  240MPD1    H6 3651   0.508   1.935  13.375 -0.5328 -0.5449  1.1726
  240MPD1    H7 3652   0.396   2.054  13.311 -0.7201 -0.8058 -0.5631
  241MPD1     C 3653   0.682   0.997  13.687  0.3415  0.2099 -0.1255
  241MPD1    C1 3654   0.552   0.981  13.733  0.2979  0.4737  0.2982
  241MPD1    C2 3655   0.471   1.088  13.772  0.4773 -0.1037  0.2024
  241MPD1    C3 3656   0.527   1.216  13.777 -0.9747 -0.0707  0.0350
  241MPD1    C4 3657   0.655   1.231  13.734 -0.4883 -0.8373  0.1316
  241MPD1    C5 3658   0.734   1.121  13.698 -0.4425  0.1859  0.3917
  241MPD1     H 3659   0.365   1.081  13.795 -0.3270  1.4028 -3.0044
  241MPD1    H1 3660   0.697   1.331  13.731 -1.4286 -0.4319  0.3501
  241MPD1    H2 3661   0.743   0.915  13.652  0.9554  0.5748  0.0784
  241MPD1    H3 3662   0.838   1.142  13.673 -0.8605  1.6889 -0.0766
  241MPD1     N 3663   0.459   1.335  13.832  0.1479  0.2311  0.0786
  241MPD1    H5 3664   0.520   1.416  13.830  3.7470 -2.4941 -0.3318
  241MPD1    N1 3665   0.510   0.849  13.750 -0.4714 -0.3188  0.8829
  241MPD1    H6 3666   0.580   0.777  13.762 -1.0230 -1.3102 -1.7738
  241MPD1    H7 3667   0.416   0.823  13.779 -0.7508 -1.1596 -0.7355
  242MPD1     C 3668   4.066   0.736  15.908  0.4625  0.1193 -0.1239
  242MPD1    C1 3669   4.006   0.741  15.787 -0.1019  0.7253 -0.3446
  242MPD1    C2 3670   4.068   0.690  15.672 -0.4607  0.2708  0.1069
  242MPD1    C3 3671   4.183   0.616  15.688  0.5691  0.6712  0.3888
  242MPD1    C4 3672   4.234   0.597  15.810 -0.7440  0.1653  0.4596
  242MPD1    C5 3673   4.176   0.655  15.924  0.2682 -0.6575  0.5739
  242MPD1     H 3674   4.026   0.718  15.576  0.8263 -0.3817 -0.6385
  242MPD1    H1 3675   4.331   0.549  15.826 -2.2961 -2.1503  2.9022
  242MPD1    H2 3676   4.019   0.778  15.996  0.8459  1.4179 -0.5383
  242MPD1    H3 3677   4.226   0.647  16.020  0.4779  0.7264  0.5910
  242MPD1     N 3678   4.251   0.554  15.584  0.4219  0.0644 -0.0626
  242MPD1    H5 3679   4.325   0.489  15.609  2.1598  1.6349 -1.0891
  242MPD1    N1 3680   3.896   0.827  15.771  0.5210 -0.3456  0.3527
  242MPD1    H6 3681   3.849   0.811  15.682 -2.0797 -0.3591  1.7470
  242MPD1    H7 3682   3.826   0.847  15.842  0.4299  1.1178 -0.1381
  243MPD1     C 3683   1.751   3.253   0.773 -0.1617  0.4607 -0.1063
  243MPD1    C1 3684   1.863   3.174   0.802 -0.2473  0.7106 -0.4712
  243MPD1    C2 3685   1.911   3.091   0.696  0.1487 -0.0982  0.6475
  243MPD1    C3 3686   1.845   3.076   0.583 -0.2271 -0.5156  0.4055
  243MPD1    C4 3687   1.722   3.139   0.559  0.8401  0.5451  0.2808
  243MPD1    C5 3688   1.677   3.226   0.657 -0.8426 -0.1735 -0.2465
  243MPD1     H 3689   2.003   3.038   0.717 -0.2659 -1.2423 -0.4417
  243MPD1    H1 3690   1.666   3.130   0.466  2.4165 -0.1707 -0.5985
  243MPD1    H2 3691   1.710   3.335   0.831 -3.5783 -1.3167  0.0037
  243MPD1    H3 3692   1.592   3.284   0.622 -0.3272 -0.1999 -1.5597
  243MPD1     N 3693   1.896   2.981   0.490  0.2081 -0.0553  0.2723
  243MPD1    H5 3694   1.980   2.931   0.518 -1.0200 -1.0382  2.1224
  243MPD1    N1 3695   1.930   3.208   0.920 -0.4214  0.3175  0.2030
  243MPD1    H6 3696   1.867   3.240   0.993 -0.8533 -3.0235  1.2941
  243MPD1    H7 3697   1.993   3.132   0.948  1.1882  1.7026  0.3402
  244MPD1     C 3698   2.149   1.985   0.314 -0.2501  0.1999  0.2710
  244MPD1    C1 3699   2.185   2.050   0.196 -0.4309 -0.2794 -0.2658
  244MPD1    C2 3700   2.136   2.182   0.171 -0.3766  0.4628 -0.2398
  244MPD1    C3 3701   2.090   2.262   0.275 -0.4607 -0.2617 -0.3401
  244MPD1    C4 3702   2.065   2.200   0.399 -0.1150  0.5997  0.2300
  244MPD1    C5 3703   2.092   2.062   0.412 -0.5064  0.4040  0.3065
  244MPD1     H 3704   2.134   2.235   0.077 -2.9605 -3.1468 -2.1871
  244MPD1    H1 3705   2.019   2.253   0.481 -0.8631  0.9019 -0.3837
  244MPD1    H2 3706   2.167   1.880   0.332 -0.7721 -0.1288 -1.1049
  244MPD1    H3 3707   2.066   2.022   0.509 -0.0650  0.8842  0.6215
  244MPD1     N 3708   2.055   2.397   0.245 -0.6918 -0.2479  0.3306
  244MPD1    H5 3709   2.086   2.426   0.153 -0.6508  0.2627  0.5056
  244MPD1    N1 3710   2.244   1.984   0.087  0.4746  0.1817  0.2539
  244MPD1    H6 3711   2.303   2.049   0.037 -0.2784 -0.4769 -1.5188
  244MPD1    H7 3712   2.295   1.901   0.117 -0.6681 -1.1686 -1.4590
  245MPD1     C 3713   3.607   3.766  13.038 -0.3706 -0.3925  0.4021
  245MPD1    C1 3714   3.513   3.852  13.080 -0.0467 -0.3178 -0.6323
  245MPD1    C2 3715   3.558   3.928  13.184 -0.2555 -0.1717 -0.3824
  245MPD1    C3 3716   3.683   3.928  13.239  0.7367  0.0221  0.0449
  245MPD1    C4 3717   3.770   3.830  13.202 -0.0504  0.0235  0.1702
  245MPD1    C5 3718   3.730   3.751  13.092  0.0604  0.7184 -0.0629
  245MPD1     H 3719   3.487   3.998  13.227  2.5431  2.0588  0.5617
  245MPD1    H1 3720   3.867   3.804  13.244 -0.8451 -1.1202  1.2753
  245MPD1    H2 3721   3.595   3.702  12.951  0.7648  1.3355 -1.0159
  245MPD1    H3 3722   3.801   3.677  13.058 -0.6103 -0.6507  1.4820
  245MPD1     N 3723   3.707   4.039  13.327 -0.4411 -0.3930 -0.8744
  245MPD1    H5 3724   3.638   4.113  13.335  2.3602  2.2365 -0.9504
  245MPD1    N1 3725   3.382   3.842  13.042 -0.1538 -0.0303 -0.6487
  245MPD1    H6 3726   3.333   3.931  13.046 -0.7605 -0.3225 -1.5317
  245MPD1    H7 3727   3.363   3.802  12.950 -0.2228 -0.9625 -0.2232
  246MPD1     C 3728   0.171   1.080  10.271 -0.4502  0.1898 -0.5820
  246MPD1    C1 3729   0.139   1.215  10.259  0.3406 -0.2293 -0.0867
  246MPD1    C2 3730   0.051   1.251  10.158  0.6689 -0.7519 -0.2497
  246MPD1    C3 3731   4.711   1.157  10.082  0.4773 -0.8128  0.6031
  246MPD1    C4 3732   0.023   1.020  10.092  0.0915 -0.9801  0.2611
  246MPD1    C5 3733   0.110   0.983  10.191  0.0133 -0.6571  0.3944
  246MPD1     H 3734   0.002   1.347  10.141  0.1233 -0.6714  1.7543
  246MPD1    H1 3735   4.685   0.949  10.035  0.1529 -1.2348  0.5165
  246MPD1    H2 3736   0.233   1.039  10.350 -2.6439 -1.4911  0.2640
  246MPD1    H3 3737   0.130   0.877  10.203 -0.1097 -0.7460 -0.1968
  246MPD1     N 3738   4.617   1.207   9.983 -0.4262 -0.3409 -0.6239
  246MPD1    H5 3739   4.612   1.307   9.968 -0.7812 -0.6927 -2.8487
  246MPD1    N1 3740   0.191   1.307  10.347  0.0963  0.1491 -0.3649
  246MPD1    H6 3741   0.128   1.386  10.360 -1.6354 -0.8789 -2.4063
  246MPD1    H7 3742   0.217   1.268  10.437 -0.8364 -0.5385 -0.3795
  247MPD1     C 3743   3.209   3.913  16.673  0.2810  0.7309 -0.1400
  247MPD1    C1 3744   3.232   3.947  16.543 -0.7983 -0.2714  0.0346
  247MPD1    C2 3745   3.122   3.950  16.459  0.5298 -0.6011 -0.8838
  247MPD1    C3 3746   3.008   3.877  16.495 -1.0069  0.2560 -0.2626
  247MPD1    C4 3747   2.993   3.823  16.620  0.3505  1.0757  0.3319
  247MPD1    C5 3748   3.091   3.851  16.713 -0.0666 -0.4600 -0.1648
  247MPD1     H 3749   3.141   3.973  16.354 -1.7773  1.3111 -0.8808
  247MPD1    H1 3750   2.900   3.777  16.653  1.8668 -1.7909  0.6289
  247MPD1    H2 3751   3.281   3.935  16.751 -1.7528  0.1164  1.9196
  247MPD1    H3 3752   3.083   3.836  16.820 -1.6713 -0.0417 -0.2299
  247MPD1     N 3753   2.902   3.861  16.400 -0.3989  0.4511  0.5785
  247MPD1    H5 3754   2.830   3.796  16.432 -0.5799  0.0925 -0.5896
  247MPD1    N1 3755   3.360   4.018  16.515  0.0731 -0.3616 -0.2605
  247MPD1    H6 3756   3.431   3.979  16.577 -3.0365  0.2053  3.5818
  247MPD1    H7 3757   3.386   4.015  16.416  1.2170 -0.2221  0.0373
  248MPD1     C 3758   3.956   0.303   0.503  0.3919  0.4469  0.0934
  248MPD1    C1 3759   3.843   0.265   0.440  0.3992 -0.0638 -0.6864
  248MPD1    C2 3760   3.841   0.156   0.359 -0.4311 -0.3915  0.5109
  248MPD1    C3 3761   3.961   0.085   0.337 -0.1224  0.3581 -0.7757
  248MPD1    C4 3762   4.079   0.127   0.400 -0.2277 -0.2978  0.6543
  248MPD1    C5 3763   4.073   0.233   0.492  0.1070 -0.3997 -0.4147
  248MPD1     H 3764   3.749   0.123   0.312  0.4773 -1.1214 -0.7504
  248MPD1    H1 3765   4.178   0.083   0.397 -0.2881 -0.3218 -0.8704
  248MPD1    H2 3766   3.962   0.387   0.570 -0.5888  0.0591  0.6640
  248MPD1    H3 3767   4.160   0.261   0.550  0.6069  0.9909 -1.8295
  248MPD1     N 3768   3.964   4.688   0.257 -0.5577 -0.2728  0.6829
  248MPD1    H5 3769   3.876   4.648   0.228 -0.4031 -1.0312  1.2472
  248MPD1    N1 3770   3.724   0.340   0.461  0.2417  0.1393 -0.0918
  248MPD1    H6 3771   3.740   0.432   0.501 -1.0990  1.1939 -1.9950
  248MPD1    H7 3772   3.678   0.355   0.372 -0.4119 -3.1484 -0.3260
  249MPD1     C 3773   0.456   2.947   9.739  0.6469  0.1747 -0.7633
  249MPD1    C1 3774   0.513   3.020   9.845  0.4723 -0.0824  0.2361
  249MPD1    C2 3775   0.640   3.077   9.832  0.5829 -0.4457  0.0094
  249MPD1    C3 3776   0.707   3.063   9.712 -0.5464  0.6443 -1.0554
  249MPD1    C4 3777   0.649   3.000   9.608  0.0698 -0.1706  0.3425
  249MPD1    C5 3778   0.531   2.934   9.629  0.2557 -0.0110 -0.6810
  249MPD1     H 3779   0.672   3.140   9.914  2.2147  1.7274 -2.2978
  249MPD1    H1 3780   0.698   2.971   9.516  0.3672  1.4624 -0.0149
  249MPD1    H2 3781   0.362   2.894   9.750  1.5520 -1.2836 -0.1196
  249MPD1    H3 3782   0.493   2.875   9.546 -1.6912  1.7247 -1.0114
  249MPD1     N 3783   0.829   3.126   9.706 -0.4454 -0.1122 -0.1000
  249MPD1    H5 3784   0.869   3.184   9.779 -0.1216  1.2448 -1.3687
  249MPD1    N1 3785   0.458   3.006   9.971  0.1942 -0.1502  0.1366
  249MPD1    H6 3786   0.356   3.006   9.980  0.1341  0.5901 -0.4855
  249MPD1    H7 3787   0.483   3.087  10.029  0.1122 -0.2701  0.3383
  250MPD2     C 3788   2.182   2.969  12.698 -0.1511  0.2628 -0.8012
  250MPD2    C1 3789   2.114   3.008  12.816  0.0244 -0.6134 -0.3626
  250MPD2    C2 3790   2.010   2.935  12.862  0.1010  0.5215 -0.5057
  250MPD2    C3 3791   1.972   2.818  12.802 -0.3099 -0.6722  0.1179
  250MPD2    C4 3792   2.032   2.779  12.686  0.0709 -0.0865 -0.0816
  250MPD2    C5 3793   2.125   2.860  12.635 -0.4464 -0.1704 -0.8122
  250MPD2     H 3794   1.964   2.951  12.959 -0.0497 -1.3480 -0.2775
  250MPD2    H1 3795   2.010   2.687  12.633 -0.6333 -0.2988  0.5775
  250MPD2    H2 3796   2.257   3.029  12.648  1.1087 -0.2553  0.4756
  250MPD2    H3 3797   2.177   2.842  12.542  0.2746 -0.6228 -0.3193
  250MPD2     N 3798   1.868   2.737  12.845 -0.4264 -0.0704 -0.2562
  250MPD2    H5 3799   1.847   2.648  12.799  0.1269 -0.7600  0.8337
  250MPD2    N1 3800   2.151   3.132  12.885  0.1719 -0.2717 -0.3158
  250MPD2    H7 3801   2.237   3.178  12.855  0.3212 -1.0953 -1.1485
  251TMC3    C1 3802   2.186   3.281  13.063 -0.0432 -0.3062 -0.0681
  251TMC3    C2 3803   2.131   3.383  13.129 -0.0428 -0.4735  0.2008
  251TMC3    C3 3804   2.207   3.474  13.181 -0.4319  0.3814 -0.3437
  251TMC3    C4 3805   2.317   3.274  13.042 -0.0206  0.4341 -0.4592
  251TMC3    C5 3806   2.396   3.370  13.097 -0.0349  0.4043  0.0841
  251TMC3    C6 3807   2.345   3.481  13.165  0.5086 -0.3076 -0.1097
  251TMC3     C 3808   2.095   3.180  13.001 -0.1972 -0.2741  0.5682
  251TMC3     O 3809   1.994   3.145  13.062 -0.3708 -0.4233  0.3476
  251TMC3     H 3810   2.024   3.379  13.145  0.0347 -1.9488  0.3059
  251TMC3    H1 3811   2.364   3.189  12.993  0.2518  0.6621 -0.5900
  251TMC3    H2 3812   2.401   3.557  13.217  1.3765 -1.1814  0.2404
  251TMC3    C7 3813   2.528   3.328  13.119 -0.1123  0.6544  0.4001
  251TMC3    C8 3814   2.159   3.537  13.297  0.9597 -0.8299 -0.3231
  251TMC3    O1 3815   2.556   3.212  13.106 -0.2004 -0.0929 -1.1722
  251TMC3    O2 3816   2.107   3.462  13.383  0.2627  0.4923  0.0367
  252TMC3    C1 3817   1.354   4.377   9.706  0.0607  0.0152 -0.9704
  252TMC3    C2 3818   1.471   4.447   9.734 -0.3296  0.2556 -0.6147
  252TMC3    C3 3819   1.586   4.395   9.689  0.4373  0.0049  0.2988
  252TMC3    C4 3820   1.357   4.261   9.628 -0.6857 -0.7588 -0.1011
  252TMC3    C5 3821   1.477   4.226   9.570 -0.5965 -0.7583 -0.1972
  252TMC3    C6 3822   1.594   4.287   9.609  0.7347  0.0738 -0.0118
  252TMC3     C 3823   1.226   4.421   9.770 -0.0221  0.2182 -0.2429
  252TMC3     O 3824   1.231   4.522   9.843  0.3000 -0.1193  0.0154
  252TMC3     H 3825   1.472   4.535   9.798 -1.1168  0.0248 -0.2910
  252TMC3    H1 3826   1.264   4.226   9.585 -2.0434  0.4800  1.8537
  252TMC3    H2 3827   1.689   4.259   9.566  0.3140 -1.5848  0.1418
  252TMC3    C7 3828   1.499   4.099   9.503  0.0162  0.1105  0.7364
  252TMC3    C8 3829   1.690   4.498   9.688 -0.3766 -0.1715 -0.5301
  252TMC3    O1 3830   1.402   4.038   9.463 -0.0218  0.0006  0.5618
  252TMC3    O2 3831   1.643   4.611   9.697 -0.0877 -0.1903 -0.2630
  253MPD2     C 3832   3.125   2.959  15.416 -0.0625  0.2379  0.0245
  253MPD2    C1 3833   2.987   2.944  15.421  0.6040 -0.6872  0.1869
  253MPD2    C2 3834   2.917   2.938  15.544 -0.3704  0.4990 -0.7489
  253MPD2    C3 3835   2.990   2.939  15.666  1.0190  0.6426 -0.2533
  253MPD2    C4 3836   3.127   2.950  15.657 -0.1270 -0.9123 -0.4348
  253MPD2    C5 3837   3.189   2.958  15.537  0.2531  0.0819 -0.5138
  253MPD2     H 3838   2.809   2.923  15.547 -0.3682  0.7695  1.2108
  253MPD2    H1 3839   3.182   2.964  15.750 -3.8395 -1.5046  1.8313
  253MPD2    H2 3840   3.198   2.968  15.336 -0.9977  1.2265 -0.7146
  253MPD2    H3 3841   3.297   2.957  15.536  0.2720  1.4828 -0.0510
  253MPD2     N 3842   2.937   2.971  15.793  0.0680 -0.0566 -0.0096
  253MPD2    H5 3843   3.006   2.977  15.866  0.5158 -0.8389 -0.3679
  253MPD2    N1 3844   2.912   2.921  15.304 -0.2467  0.0965 -0.4637
  253MPD2    H7 3845   2.813   2.934  15.321 -0.3099 -1.2582  0.2014
  254TMC3    C1 3846   2.785   3.040  15.947  0.2176 -0.0401  0.5040
  254TMC3    C2 3847   2.658   3.084  15.972  0.6355 -0.4399 -0.3500
  254TMC3    C3 3848   2.615   3.086  16.102  0.1403  0.6645  0.3528
  254TMC3    C4 3849   2.871   2.993  16.046  0.1870 -0.7168 -0.8953
  254TMC3    C5 3850   2.816   2.988  16.173 -0.1398 -0.2226 -0.2440
  254TMC3    C6 3851   2.689   3.030  16.206  0.4417  0.3076 -0.1468
  254TMC3     C 3852   2.803   2.998  15.817 -0.6822  0.4334  0.1363
  254TMC3     O 3853   2.704   3.001  15.743 -0.8365  0.0281 -0.3791
  254TMC3     H 3854   2.602   3.129  15.890 -0.9761  1.4370  1.7868
  254TMC3    H1 3855   2.974   2.963  16.032  0.9437  0.7519  1.6069
  254TMC3    H2 3856   2.667   3.029  16.312  0.0465 -2.3285 -0.2451
  254TMC3    C7 3857   2.909   2.983  16.287 -0.0962 -0.2380  1.5614
  254TMC3    C8 3858   2.519   3.182  16.152  0.7135  0.3844  0.0209
  254TMC3    O1 3859   2.875   2.910  16.376 -0.5454  0.1777 -0.0928
  254TMC3    O2 3860   2.540   3.205  16.270  0.0876 -0.3174 -0.8529
  255MPD2     C 3861   0.947   1.341   9.674 -0.1133 -0.7652 -0.0718
  255MPD2    C1 3862   0.937   1.201   9.661  0.7148 -0.2679  0.1142
  255MPD2    C2 3863   1.025   1.119   9.736 -0.1046  0.3324  0.5068
  255MPD2    C3 3864   1.125   1.176   9.819  0.2202 -0.5489  0.0258
  255MPD2    C4 3865   1.130   1.316   9.824  0.2203  0.2029 -1.2288
  255MPD2    C5 3866   1.043   1.391   9.752  0.1876 -0.0220 -0.0684
  255MPD2     H 3867   1.033   1.013   9.715 -0.2315  0.6009 -0.9242
  255MPD2    H1 3868   1.199   1.374   9.883 -1.1020  0.6579 -0.1209
  255MPD2    H2 3869   0.882   1.404   9.615  1.1892 -1.0349 -1.8149
  255MPD2    H3 3870   1.055   1.497   9.771  1.1294 -0.4479  1.6397
  255MPD2     N 3871   1.204   1.090   9.894  0.2313  0.1703  0.1210
  255MPD2    H5 3872   1.188   0.990   9.884 -0.8603  0.3720 -0.1419
  255MPD2    N1 3873   0.845   1.152   9.563 -0.0171 -0.1421 -0.5017
  255MPD2    H7 3874   0.809   1.217   9.495  2.1247 -0.8689 -2.3265
  256TMC3    C1 3875   0.743   0.999   9.396  1.1873  0.9687 -1.0695
  256TMC3    C2 3876   0.707   1.108   9.323 -0.9201  0.2218  0.1592
  256TMC3    C3 3877   0.635   1.085   9.209  0.4279 -0.6304 -0.0870
  256TMC3    C4 3878   0.709   0.873   9.368  0.8121 -0.7843 -0.3046
  256TMC3    C5 3879   0.616   0.861   9.270  0.3143 -0.1298  0.1642
  256TMC3    C6 3880   0.576   0.960   9.182  0.1548 -0.2352  0.3808
  256TMC3     C 3881   0.826   1.017   9.523 -0.2369  0.5042 -0.4776
  256TMC3     O 3882   0.861   0.917   9.583  0.0141  0.4352  0.3039
  256TMC3     H 3883   0.738   1.208   9.351 -0.0379  0.3013 -1.1213
  256TMC3    H1 3884   0.736   0.793   9.436 -0.2076 -0.4730  0.4637
  256TMC3    H2 3885   0.507   0.948   9.099  0.2098 -1.5276  0.5312
  256TMC3    C7 3886   0.583   0.725   9.246 -0.6022  0.5082  0.1170
  256TMC3    C8 3887   0.621   1.186   9.115 -0.8463 -0.2273  0.1034
  256TMC3    O1 3888   0.661   0.638   9.284  0.2404 -1.1563 -0.1747
  256TMC3    O2 3889   0.536   1.170   9.029 -0.3980 -0.0509 -0.0070
  257MPD2     C 3890   0.803   3.074  13.368 -0.1419  0.0845  0.0348
  257MPD2    C1 3891   0.726   3.029  13.269  0.5978  0.4026 -1.0876
  257MPD2    C2 3892   0.683   2.894  13.273  0.0969  0.8239  0.0744
  257MPD2    C3 3893   0.714   2.809  13.377 -0.0055 -0.5382 -0.4175
  257MPD2    C4 3894   0.801   2.856  13.474  0.8549 -0.4524  0.3789
  257MPD2    C5 3895   0.846   2.986  13.463 -0.1560 -0.0658 -0.5044
  257MPD2     H 3896   0.620   2.859  13.192  2.1151 -0.3916 -0.9464
  257MPD2    H1 3897   0.841   2.793  13.553 -3.1484 -3.0423  0.3119
  257MPD2    H2 3898   0.840   3.176  13.364 -1.3164  0.4712 -0.8668
  257MPD2    H3 3899   0.904   3.033  13.541 -0.9505  0.8476 -0.4634
  257MPD2     N 3900   0.656   2.680  13.387 -0.2703  0.4250 -0.2346
  257MPD2    H5 3901   0.619   2.638  13.302 -1.2192 -0.5991  0.6780
  257MPD2    N1 3902   0.699   3.120  13.163 -0.1828 -0.2135  0.4587
  257MPD2    H7 3903   0.733   3.215  13.169 -0.5017  0.0049 -1.4032
  258TMC3    C1 3904   0.590   2.467  13.469  1.0742  0.7391  0.6265
  258TMC3    C2 3905   0.664   2.397  13.377  0.6278 -0.5135 -0.3081
  258TMC3    C3 3906   0.682   2.266  13.396  0.3874 -0.1324  0.2755
  258TMC3    C4 3907   0.538   2.402  13.578  0.4237 -0.0915 -0.0233
  258TMC3    C5 3908   0.567   2.268  13.589  0.0359  0.5661 -0.2844
  258TMC3    C6 3909   0.634   2.196  13.502  0.4619  0.6803  0.2491
  258TMC3     C 3910   0.644   2.601  13.500 -0.3564  0.2271 -0.1396
  258TMC3     O 3911   0.664   2.627  13.620 -0.1204 -0.6388  0.4204
  258TMC3     H 3912   0.705   2.445  13.289 -1.3396 -1.4153 -1.7187
  258TMC3    H1 3913   0.482   2.454  13.655  1.5114  0.4478  0.4031
  258TMC3    H2 3914   0.660   2.091  13.508 -0.2777  0.4832 -0.0691
  258TMC3    C7 3915   0.545   2.217  13.729  0.2068 -0.0622 -0.4795
  258TMC3    C8 3916   0.736   2.184  13.292  0.6322  1.1924 -0.3939
  258TMC3    O1 3917   0.471   2.270  13.809 -0.0776  0.7056 -0.0411
  258TMC3    O2 3918   0.686   2.074  13.288 -0.6891 -0.1769  0.1807
  259MPD2     C 3919   4.035   4.349   1.234  1.0056  0.4407 -0.1403
  259MPD2    C1 3920   3.934   4.334   1.138  0.2128 -0.8055  0.0128
  259MPD2    C2 3921   3.959   4.328   1.000  0.4135  0.4293 -0.0951
  259MPD2    C3 3922   4.087   4.345   0.954  0.3272 -0.0485 -0.3202
  259MPD2    C4 3923   4.184   4.364   1.055  0.4529 -0.0130  0.2850
  259MPD2    C5 3924   4.161   4.368   1.190  0.1376  0.4272  0.4892
  259MPD2     H 3925   3.888   4.311   0.920 -1.0870  0.8203  1.1531
  259MPD2    H1 3926   4.284   4.383   1.019  0.8960 -0.5917  1.2170
  259MPD2    H2 3927   4.030   4.360   1.342 -1.2992 -0.5220 -0.1546
  259MPD2    H3 3928   4.246   4.406   1.245  1.7326 -2.1831 -0.1419
  259MPD2     N 3929   4.115   4.354   0.815 -0.4450 -0.5090  0.6767
  259MPD2    H5 3930   4.038   4.328   0.755 -0.3149 -0.4667  0.4927
  259MPD2    N1 3931   3.800   4.332   1.182  1.0568  0.3420 -0.0044
  259MPD2    H7 3932   3.793   4.351   1.282 -0.8481  0.6106 -0.1960
  260TMC3    C1 3933   4.221   4.422   0.614 -0.4052 -0.6536 -0.5647
  260TMC3    C2 3934   4.294   4.527   0.560 -0.1832 -0.0392  0.1759
  260TMC3    C3 3935   4.353   4.503   0.437 -0.4835 -0.4408 -0.1387
  260TMC3    C4 3936   4.209   4.297   0.550 -0.6767  0.0251  0.4870
  260TMC3    C5 3937   4.276   4.285   0.435  0.0103 -0.0102  0.6584
  260TMC3    C6 3938   4.342   4.383   0.374  1.0785  0.3036  0.0252
  260TMC3     C 3939   4.225   4.415   0.759 -0.1120 -0.1009  0.4175
  260TMC3     O 3940   4.314   4.480   0.810  0.7726  0.0938  0.0418
  260TMC3     H 3941   4.298   4.612   0.627  1.4087 -0.2734  0.3840
  260TMC3    H1 3942   4.163   4.217   0.608 -2.4369  0.4972 -0.2504
  260TMC3    H2 3943   4.390   4.371   0.278  0.4960  2.9170 -0.6045
  260TMC3    C7 3944   4.331   4.154   0.415 -1.0770  0.6409 -0.1940
  260TMC3    C8 3945   4.469   4.580   0.405 -0.5819 -0.7147 -0.2326
  260TMC3    O1 3946   4.441   4.151   0.361 -0.1533  0.2581  0.8797
  260TMC3    O2 3947   4.483   4.696   0.447  0.1423  0.0222 -0.2098
  261MPD2     C 3948   1.072   2.559  12.937 -1.0916  0.7712 -0.2162
  261MPD2    C1 3949   1.181   2.630  12.884 -0.2350 -0.7006  0.8301
  261MPD2    C2 3950   1.170   2.671  12.756  0.6067 -0.1975  0.0588
  261MPD2    C3 3951   1.062   2.638  12.678  0.0986 -0.8594  0.3588
  261MPD2    C4 3952   0.963   2.558  12.727 -0.2057 -0.1012 -0.1420
  261MPD2    C5 3953   0.964   2.521  12.858  0.0032  0.0800 -0.1937
  261MPD2     H 3954   1.246   2.735  12.712 -0.6239  1.2901  0.0818
  261MPD2    H1 3955   0.875   2.529  12.671  0.4500 -0.8298 -0.8073
  261MPD2    H2 3956   1.087   2.520  13.037 -4.3539  0.9344  0.3192
  261MPD2    H3 3957   0.887   2.454  12.892 -0.4527 -1.0951 -3.4964
  261MPD2     N 3958   1.054   2.689  12.544 -0.1163  0.0445 -0.2608
  261MPD2    H5 3959   1.103   2.777  12.533 -2.2270  1.2795  0.0854
  261MPD2    N1 3960   1.299   2.664  12.959 -0.1198 -0.0048  0.6067
  261MPD2    H7 3961   1.372   2.715  12.909 -0.5300 -0.1849 -0.1716
  262TMC3    C1 3962   0.959   2.738  12.338 -0.3840 -0.4933  0.7077
  262TMC3    C2 3963   1.015   2.867  12.336  0.0087 -0.5773 -0.0919
  262TMC3    C3 3964   0.956   2.958  12.244  0.3236 -0.2156 -0.0249
  262TMC3    C4 3965   0.850   2.710  12.259 -0.2174  0.9556 -1.2282
  262TMC3    C5 3966   0.802   2.803  12.173  0.3334 -0.4382 -0.1276
  262TMC3    C6 3967   0.853   2.925  12.169 -0.7663 -0.5371 -0.2948
  262TMC3     C 3968   0.967   2.652  12.449  0.1511 -0.1655  0.1668
  262TMC3     O 3969   0.909   2.543  12.443 -0.0412 -0.2103  0.4001
  262TMC3     H 3970   1.074   2.901  12.420 -0.3035  0.7691 -0.4216
  262TMC3    H1 3971   0.809   2.610  12.258  1.1302  0.3993 -1.6183
  262TMC3    H2 3972   0.823   2.996  12.092  0.8478 -1.7718 -2.0714
  262TMC3    C7 3973   0.693   2.753  12.096 -0.3392  0.6568 -0.1557
  262TMC3    C8 3974   1.010   3.089  12.254 -0.2105  0.0336  0.5774
  262TMC3    O1 3975   0.616   2.679  12.156  0.0182 -0.1855 -0.1888
  262TMC3    O2 3976   1.132   3.096  12.256  0.0402 -0.3917  0.6380
  263MPD2     C 3977   2.282   1.914  11.616  0.6171 -0.3218 -0.0036
  263MPD2    C1 3978   2.406   1.912  11.564 -0.5973  0.2442  0.0228
  263MPD2    C2 3979   2.431   1.992  11.452  0.4093 -0.4431 -0.4391
  263MPD2    C3 3980   2.335   2.070  11.392  0.6791 -0.1280 -0.1053
  263MPD2    C4 3981   2.206   2.064  11.445 -0.1667  0.0222  0.7503
  263MPD2    C5 3982   2.183   1.993  11.559 -0.3123  0.0090 -0.5598
  263MPD2     H 3983   2.531   1.989  11.412  0.8289 -0.1671  0.5968
  263MPD2    H1 3984   2.125   2.121  11.399  0.3577  0.8291  0.8297
  263MPD2    H2 3985   2.264   1.860  11.708  0.5835 -1.0648 -0.4460
  263MPD2    H3 3986   2.089   1.993  11.614 -0.5299 -1.3366 -0.9091
  263MPD2     N 3987   2.373   2.139  11.273 -0.1598  0.5960 -0.3691
  263MPD2    H5 3988   2.471   2.133  11.248 -0.2351 -1.7615 -0.0882
  263MPD2    N1 3989   2.506   1.845  11.637 -0.4185  0.5907  0.1629
  263MPD2    H7 3990   2.474   1.803  11.724  0.1857 -1.6202 -0.6917
  264TMC3    C1 3991   2.344   2.269  11.074  0.5431 -0.2070  0.3071
  264TMC3    C2 3992   2.252   2.304  10.981 -0.1389  0.0829  0.7795
  264TMC3    C3 3993   2.298   2.325  10.853  0.2267  0.8488 -0.7644
  264TMC3    C4 3994   2.480   2.265  11.046 -0.8019  0.0051  0.2715
  264TMC3    C5 3995   2.515   2.272  10.911  0.2006  0.2265 -0.2198
  264TMC3    C6 3996   2.427   2.289  10.808  0.6257  0.6418  0.0006
  264TMC3     C 3997   2.288   2.219  11.202  0.4670 -0.0505  0.7044
  264TMC3     O 3998   2.174   2.256  11.235 -0.5327 -0.6359  0.1471
  264TMC3     H 3999   2.158   2.333  11.027 -0.3368  0.9147 -0.1355
  264TMC3    H1 4000   2.554   2.247  11.122 -0.2446 -0.8619 -0.4728
  264TMC3    H2 4001   2.467   2.313  10.710  1.0803 -0.3173 -0.0490
  264TMC3    C7 4002   2.648   2.326  10.875 -0.1917  0.3813 -0.0619
  264TMC3    C8 4003   2.251   2.451  10.789  0.1130  0.1758  0.1833
  264TMC3    O1 4004   2.710   2.265  10.787 -0.0541 -0.3404 -0.0770
  264TMC3    O2 4005   2.328   2.493  10.705 -0.2133  0.2894  0.1262
  265MPD2     C 4006   4.183   2.268  15.381  0.7652 -0.3237  0.3937
  265MPD2    C1 4007   4.294   2.347  15.397 -0.6747  0.3588 -0.2484
  265MPD2    C2 4008   4.411   2.316  15.324  0.4425 -0.7397 -0.3451
  265MPD2    C3 4009   4.412   2.202  15.250  0.4753  0.0358 -0.3829
  265MPD2    C4 4010   4.297   2.127  15.230  0.3129  0.3479  0.6318
  265MPD2    C5 4011   4.180   2.165  15.292 -0.4368  0.1840 -0.6483
  265MPD2     H 4012   4.502   2.373  15.339 -0.4361  0.0932  1.8688
  265MPD2    H1 4013   4.298   2.035  15.173 -0.5709 -0.4959  1.9770
  265MPD2    H2 4014   4.096   2.279  15.445 -0.8822 -0.2139 -1.8255
  265MPD2    H3 4015   4.092   2.102  15.285 -0.5168  0.1449  0.6487
  265MPD2     N 4016   4.528   2.161  15.183 -0.0564 -0.0631 -0.3764
  265MPD2    H5 4017   4.529   2.063  15.157  2.6309  0.1698 -1.1471
  265MPD2    N1 4018   4.294   2.454  15.488  0.2622 -0.4932 -0.6090
  265MPD2    H7 4019   4.386   2.489  15.514 -0.2434 -0.4838  1.1543
  266TMC3    C1 4020   4.204   2.649  15.589 -0.0091 -0.0001 -0.2582
  266TMC3    C2 4021   4.306   2.656  15.681  0.5964  0.0967 -0.3419
  266TMC3    C3 4022   4.320   2.775  15.753 -0.0056 -0.4705  0.2578
  266TMC3    C4 4023   4.107   2.751  15.574 -0.8837  0.0138  0.3925
  266TMC3    C5 4024   4.137   2.864  15.645 -0.1706  0.1037 -0.3458
  266TMC3    C6 4025   4.234   2.882  15.737  0.1690  0.6417  0.4612
  266TMC3     C 4026   4.180   2.520  15.530  0.1399  0.2261 -0.0835
  266TMC3     O 4027   4.070   2.504  15.482  0.0277  0.2845 -0.1026
  266TMC3     H 4028   4.369   2.571  15.703  1.3107  0.4749 -0.9299
  266TMC3    H1 4029   4.025   2.746  15.503  0.7651  0.2183 -1.5001
  266TMC3    H2 4030   4.233   2.972  15.797 -2.1263  0.4921  0.6457
  266TMC3    C7 4031   4.046   2.975  15.631 -1.4970 -0.6199 -0.0567
  266TMC3    C8 4032   4.410   2.784  15.870 -1.0508  0.0713 -0.2526
  266TMC3    O1 4033   4.086   3.084  15.673 -0.5365 -0.7744  0.0012
  266TMC3    O2 4034   4.456   2.681  15.916  0.3165 -0.3266 -0.6168
  267MPD2     C 4035   1.879   4.563   0.207 -0.1033 -0.2437 -0.5825
  267MPD2    C1 4036   1.821   4.473   0.295 -0.1595  0.3021  0.4778
  267MPD2    C2 4037   1.768   4.519   0.407 -0.0951 -1.6028  0.1736
  267MPD2    C3 4038   1.753   4.656   0.429  0.6445 -0.1732 -0.6371
  267MPD2    C4 4039   1.812   0.020   0.345 -0.0091 -0.4009  0.1798
  267MPD2    C5 4040   1.876   4.696   0.233 -0.5100 -0.4652  0.5876
  267MPD2     H 4041   1.731   4.455   0.486  1.6379 -1.5474  1.0324
  267MPD2    H1 4042   1.800   0.128   0.350  1.1817 -0.2033 -1.1255
  267MPD2    H2 4043   1.897   4.530   0.106  1.2659  1.5105 -0.8951
  267MPD2    H3 4044   1.925   0.044   0.165 -0.7103 -2.1893 -1.2825
  267MPD2     N 4045   1.688   4.709   0.546  0.2265  0.0304 -0.4379
  267MPD2    H5 4046   1.681   0.088   0.557  3.5696  0.3897 -1.4091
  267MPD2    N1 4047   1.829   4.336   0.270 -0.5764 -0.0860  0.4721
  267MPD2    H7 4048   1.778   4.273   0.331  0.1518 -2.8668 -1.7744
  268TMC3    C1 4049   1.868   4.127   0.174 -0.1955 -0.3392  0.4546
  268TMC3    C2 4050   1.779   4.070   0.087 -1.0110  0.1916 -0.4546
  268TMC3    C3 4051   1.699   3.969   0.144 -0.0839 -0.2776 -0.1972
  268TMC3    C4 4052   1.895   4.074   0.298 -0.5317  0.2503 -0.9453
  268TMC3    C5 4053   1.819   3.969   0.338 -0.9316 -0.0457 -0.1828
  268TMC3    C6 4054   1.717   3.916   0.266 -0.1027  0.5654 -0.8555
  268TMC3     C 4055   1.891   4.265   0.162  0.3112 -0.3780 -0.6015
  268TMC3     O 4056   1.956   4.312   0.072  0.0095  0.1923  0.3807
  268TMC3     H 4057   1.746   4.139   0.010  1.1886 -0.4378 -1.9780
  268TMC3    H1 4058   1.947   4.129   0.375 -1.1896  1.7127 -1.5479
  268TMC3    H2 4059   1.661   3.832   0.305  2.9213 -0.4952  1.2115
  268TMC3    C7 4060   1.804   3.967   0.482 -0.5893 -0.7495 -0.4723
  268TMC3    C8 4061   1.603   3.906   0.052 -0.1843 -0.2107  0.0298
  268TMC3    O1 4062   1.905   3.923   0.539 -0.7016 -0.1842 -0.2183
  268TMC3    O2 4063   1.526   3.827   0.105 -0.6397 -0.4206 -0.6007
  269MPD2     C 4064   2.018   2.787  15.779  0.4087  0.8501  0.4099
  269MPD2    C1 4065   1.905   2.837  15.841 -0.1220 -0.0226  0.1363
  269MPD2    C2 4066   1.855   2.959  15.804  0.4346 -0.3328  0.5974
  269MPD2    C3 4067   1.926   3.033  15.704 -0.1675 -0.0586  0.2809
  269MPD2    C4 4068   2.044   2.983  15.651 -0.0589 -0.0102 -0.8032
  269MPD2    C5 4069   2.083   2.862  15.682 -0.2691 -0.2568  0.1682
  269MPD2     H 4070   1.772   3.010  15.850 -1.0542 -2.7737  0.6133
  269MPD2    H1 4071   2.093   3.033  15.568  0.4201  0.6243 -0.1414
  269MPD2    H2 4072   2.058   2.693  15.813 -2.2083 -0.8893 -1.3535
  269MPD2    H3 4073   2.155   2.810  15.619 -1.7723 -1.4002 -0.6031
  269MPD2     N 4074   1.864   3.161  15.667 -0.5740  0.0617  0.3340
  269MPD2    H5 4075   1.789   3.203  15.721 -0.0791 -1.5083  2.2403
  269MPD2    N1 4076   1.838   2.758  15.938 -0.1763 -0.1161  0.6022
  269MPD2    H7 4077   1.878   2.664  15.946  0.2113 -0.1509 -1.8439
  270TMC3    C1 4078   1.656   2.699  16.089  0.4126 -0.2465  0.5348
  270TMC3    C2 4079   1.533   2.647  16.057  0.1391 -0.7341  0.6881
  270TMC3    C3 4080   1.521   2.512  16.089 -0.6609 -0.2315 -0.5212
  270TMC3    C4 4081   1.750   2.635  16.163 -0.7985 -0.4251  0.3105
  270TMC3    C5 4082   1.725   2.511  16.209  0.6877  1.0177  0.6252
  270TMC3    C6 4083   1.610   2.446  16.170  0.0725 -0.2115  0.3176
  270TMC3     C 4084   1.710   2.787  15.989 -0.1812 -0.3494  0.3414
  270TMC3     O 4085   1.629   2.867  15.943 -0.2388  0.1659  0.1782
  270TMC3     H 4086   1.464   2.701  15.993  2.1632 -0.9422 -1.6789
  270TMC3    H1 4087   1.842   2.692  16.170 -0.9624 -0.2359  1.0006
  270TMC3    H2 4088   1.591   2.339  16.180 -1.3605  0.1769  1.7369
  270TMC3    C7 4089   1.839   2.426  16.224  0.1588 -1.1406 -0.4596
  270TMC3    C8 4090   1.494   2.432  15.970  0.7786 -0.0548 -0.0636
  270TMC3    O1 4091   1.937   2.444  16.150  0.1033  0.4156  0.2443
  270TMC3    O2 4092   1.581   2.356  15.936  0.1381  0.1876  0.6404
  271MPD2     C 4093   1.210   2.369  14.141  0.1393  0.6808 -0.1292
  271MPD2    C1 4094   1.167   2.424  14.264  0.2735 -0.3351 -0.2515
  271MPD2    C2 4095   1.100   2.543  14.262 -0.1937 -1.1001  0.4341
  271MPD2    C3 4096   1.061   2.601  14.139  0.3963 -0.0881  0.3520
  271MPD2    C4 4097   1.095   2.540  14.023 -0.0991 -0.4348  0.4076
  271MPD2    C5 4098   1.182   2.436  14.021  0.3796 -0.4383  0.3322
  271MPD2     H 4099   1.062   2.583  14.355 -0.8679  1.2276 -0.8364
  271MPD2    H1 4100   1.068   2.586  13.929 -2.8035 -2.3863  0.2273
  271MPD2    H2 4101   1.266   2.279  14.119  1.7247  1.8681 -0.9098
  271MPD2    H3 4102   1.227   2.408  13.927 -0.2320  0.8909 -0.3619
  271MPD2     N 4103   0.966   2.712  14.139 -0.1257  0.3362  0.1015
  271MPD2    H5 4104   0.912   2.726  14.055 -1.8076 -1.6914  0.8330
  271MPD2    N1 4105   1.197   2.367  14.390 -0.5668  0.4704 -0.2940
  271MPD2    H7 4106   1.166   2.422  14.469 -1.3554 -2.5545  1.4767
  272TMC3    C1 4107   1.273   2.220  14.550 -0.0893 -0.0413 -0.0724
  272TMC3    C2 4108   1.374   2.139  14.594  0.5292 -0.8977 -0.1360
  272TMC3    C3 4109   1.395   2.110  14.727 -0.2403  0.1855  0.2358
  272TMC3    C4 4110   1.187   2.288  14.632  0.2807 -0.4978  0.3981
  272TMC3    C5 4111   1.216   2.260  14.766  0.5695  0.2815  0.5008
  272TMC3    C6 4112   1.311   2.172  14.818  0.0609  0.0862 -0.1265
  272TMC3     C 4113   1.266   2.251  14.412 -0.0435  0.1052  0.1607
  272TMC3     O 4114   1.349   2.191  14.342  0.0910  0.3094 -0.5572
  272TMC3     H 4115   1.449   2.104  14.524 -0.7390 -2.7674 -0.5335
  272TMC3    H1 4116   1.106   2.353  14.599  0.9135 -0.5376 -1.2620
  272TMC3    H2 4117   1.319   2.155  14.924  3.0030 -0.6121 -0.4687
  272TMC3    C7 4118   1.152   2.350  14.858  0.3960 -0.5152  0.6653
  272TMC3    C8 4119   1.524   2.044  14.752 -0.3367 -0.1753  0.0665
  272TMC3    O1 4120   1.037   2.375  14.826 -0.1632  0.0065 -0.2593
  272TMC3    O2 4121   1.581   2.001  14.651 -0.3429  0.6040 -0.3780
  273MPD2     C 4122   2.879   0.729  11.459 -0.5553  0.8410 -0.2558
  273MPD2    C1 4123   2.996   0.785  11.514 -0.3055  0.2224 -0.0350
  273MPD2    C2 4124   3.091   0.821  11.419  0.5546  0.4905 -0.8491
  273MPD2    C3 4125   3.073   0.799  11.282 -0.2966 -0.2335  0.2194
  273MPD2    C4 4126   2.961   0.737  11.235 -0.2836  0.2585 -0.0746
  273MPD2    C5 4127   2.858   0.705  11.328  0.2457  0.0598 -0.4963
  273MPD2     H 4128   3.183   0.869  11.451  0.6084  1.5352 -2.5597
  273MPD2    H1 4129   2.951   0.715  11.130  0.3959  0.5198 -0.1961
  273MPD2    H2 4130   2.804   0.697  11.530 -0.3650  0.9808  0.0121
  273MPD2    H3 4131   2.764   0.671  11.285 -0.1344  3.6302 -2.4467
  273MPD2     N 4132   3.164   0.843  11.182  1.1095  0.2118  0.3360
  273MPD2    H5 4133   3.139   0.856  11.084  1.0955  0.3633  0.3591
  273MPD2    N1 4134   2.998   0.829  11.652 -0.0093 -0.0304 -0.2892
  273MPD2    H7 4135   2.908   0.820  11.697  1.0986  0.6990  2.1014
  274TMC3    C1 4136   3.370   0.968  11.137 -0.5488  0.2274  0.2812
  274TMC3    C2 4137   3.311   1.009  11.023  0.4645  0.0311  0.3016
  274TMC3    C3 4138   3.327   1.144  10.998  0.3244  1.3979  0.7078
  274TMC3    C4 4139   3.417   1.055  11.228 -1.2165  0.2438  0.0846
  274TMC3    C5 4140   3.399   1.188  11.213 -0.6165 -0.2317 -0.0350
  274TMC3    C6 4141   3.372   1.238  11.085 -0.5782 -0.1823  0.3534
  274TMC3     C 4142   3.298   0.861  11.205 -0.0354  0.4349 -0.5124
  274TMC3     O 4143   3.368   0.817  11.299 -0.4740  0.3616  0.0791
  274TMC3     H 4144   3.276   0.944  10.944  0.6178  0.2067  0.0895
  274TMC3    H1 4145   3.452   1.018  11.323 -0.7301 -1.4008 -0.7273
  274TMC3    H2 4146   3.343   1.342  11.084 -0.3152 -0.1026  1.3110
  274TMC3    C7 4147   3.319   1.245  11.318  0.1540  0.2869  0.2765
  274TMC3    C8 4148   3.264   1.206  10.879 -0.1319  0.5100 -1.1166
  274TMC3    O1 4149   3.237   1.334  11.300  0.2999  0.1501 -0.1898
  274TMC3    O2 4150   3.173   1.151  10.820 -0.1431 -0.2761  0.3271
  275MPD2     C 4151   2.771   3.138  14.454 -1.0612  0.2082 -0.5417
  275MPD2    C1 4152   2.667   3.233  14.428 -0.3412 -0.7780  0.2559
  275MPD2    C2 4153   2.537   3.183  14.445  0.5094 -0.1335  0.0912
  275MPD2    C3 4154   2.514   3.066  14.510  0.1490  0.2198 -0.8669
  275MPD2    C4 4155   2.617   2.982  14.540  0.2004  0.0647 -0.3760
  275MPD2    C5 4156   2.746   3.023  14.517 -0.5187 -0.3359 -0.3142
  275MPD2     H 4157   2.455   3.240  14.401  1.0773  1.2355  0.8241
  275MPD2    H1 4158   2.606   2.879  14.570  1.6656 -0.0629 -0.2787
  275MPD2    H2 4159   2.875   3.159  14.434 -0.0559 -3.3098  1.0215
  275MPD2    H3 4160   2.825   2.956  14.550  0.0963  0.0331 -1.0644
  275MPD2     N 4161   2.382   3.022  14.541 -0.2990  0.4653 -0.2775
  275MPD2    H5 4162   2.374   2.937  14.595  0.5088  0.5406 -0.0414
  275MPD2    N1 4163   2.676   3.363  14.373  0.0222  0.2826 -0.4700
  275MPD2    H7 4164   2.589   3.411  14.354 -0.3211 -0.8763 -1.8497
  276TMC3    C1 4165   2.768   3.572  14.376 -0.5503  0.3473  0.3130
  276TMC3    C2 4166   2.629   3.599  14.378  0.4043  0.1010  0.7326
  276TMC3    C3 4167   2.582   3.691  14.462  0.6351  0.1980 -0.8229
  276TMC3    C4 4168   2.863   3.644  14.452  0.7016  0.1874  0.1302
  276TMC3    C5 4169   2.806   3.734  14.531 -0.5879 -0.3817  0.1909
  276TMC3    C6 4170   2.672   3.758  14.540 -1.0242 -0.0304  0.0345
  276TMC3     C 4171   2.791   3.431  14.367  0.7478  0.1807 -0.0273
  276TMC3     O 4172   2.902   3.391  14.398 -0.2382 -0.1694 -0.7111
  276TMC3     H 4173   2.567   3.554  14.302  0.8908 -0.9005  0.9196
  276TMC3    H1 4174   2.970   3.629  14.445  0.2108 -1.8549 -2.7040
  276TMC3    H2 4175   2.630   3.793  14.634  2.7746 -1.4412  2.2622
  276TMC3    C7 4176   2.878   3.785  14.647  0.2159  0.4519  0.1574
  276TMC3    C8 4177   2.472   3.640  14.545  0.1100  0.3279 -0.1558
  276TMC3    O1 4178   2.810   3.807  14.751 -0.2422 -0.1567 -0.2084
  276TMC3    O2 4179   2.397   3.722  14.600 -0.0720  0.1688  0.1627
  277MPD2     C 4180   4.579   2.712  13.455 -0.0672  0.1865 -0.8942
  277MPD2    C1 4181   4.448   2.751  13.437  0.2607  0.8494  0.0664
  277MPD2    C2 4182   4.351   2.672  13.501 -0.4174  0.3867 -0.0098
  277MPD2    C3 4183   4.382   2.570  13.587 -0.2024  0.8720 -0.3258
  277MPD2    C4 4184   4.512   2.522  13.583  0.0634  0.1473  0.3056
  277MPD2    C5 4185   4.610   2.591  13.515 -0.4727 -0.4503  0.0348
  277MPD2     H 4186   4.245   2.690  13.501 -0.7384 -1.4281  0.1802
  277MPD2    H1 4187   4.544   2.438  13.645  0.0367 -1.2318 -1.5368
  277MPD2    H2 4188   4.662   2.768  13.413 -0.0995 -0.0886 -1.3308
  277MPD2    H3 4189   4.712   2.554  13.519  0.1798  1.2408 -0.7600
  277MPD2     N 4190   4.287   2.505  13.668  0.6599  0.4646  0.1098
  277MPD2    H5 4191   4.191   2.528  13.643  0.0476 -0.8122  1.2850
  277MPD2    N1 4192   4.427   2.868  13.368  0.0165  0.3525  0.1947
  277MPD2    H7 4193   4.509   2.915  13.330  0.2573 -0.8128 -0.6999
  278TMC3    C1 4194   4.191   2.341  13.807 -0.3290 -0.5788  0.0722
  278TMC3    C2 4195   4.204   2.213  13.848  0.1485  0.7115  0.2749
  278TMC3    C3 4196   4.102   2.143  13.891  0.3804  0.1787  0.4944
  278TMC3    C4 4197   4.073   2.404  13.809  0.0575  0.2033 -0.4628
  278TMC3    C5 4198   3.970   2.337  13.869  0.4028 -0.0054  0.6159
  278TMC3    C6 4199   3.980   2.205  13.908  0.3256 -0.1943 -0.1503
  278TMC3     C 4200   4.309   2.400  13.753  0.0918 -0.6845 -0.4350
  278TMC3     O 4201   4.416   2.361  13.797 -0.2482 -0.4270  0.4896
  278TMC3     H 4202   4.291   2.160  13.810 -0.9302 -0.6404 -0.2725
  278TMC3    H1 4203   4.071   2.512  13.794 -1.8193  0.3104  0.6161
  278TMC3    H2 4204   3.909   2.156  13.974  0.4448 -1.3617 -0.8931
  278TMC3    C7 4205   3.859   2.424  13.915 -0.4801  0.1978 -0.8208
  278TMC3    C8 4206   4.105   2.002  13.884  0.5390  0.5688 -0.0172
  278TMC3    O1 4207   3.883   2.541  13.903  0.1965 -0.4760  0.3165
  278TMC3    O2 4208   4.219   1.958  13.882 -0.4870  0.0359  0.1463
  279MPD2     C 4209   3.476   3.271   0.236  0.1599 -0.5234  0.8261
  279MPD2    C1 4210   3.509   3.348   0.125  0.6917  0.0661  0.0028
  279MPD2    C2 4211   3.641   3.327   0.063 -0.3175 -0.1475  0.0267
  279MPD2    C3 4212   3.718   3.221   0.112  1.4025  0.9171  0.6450
  279MPD2    C4 4213   3.677   3.154   0.230  0.2741 -0.0756 -0.5273
  279MPD2    C5 4214   3.558   3.178   0.292 -0.3012 -0.3785 -0.6676
  279MPD2     H 4215   3.667   3.384  17.661  1.3238 -1.1367 -0.1395
  279MPD2    H1 4216   3.739   3.076   0.272 -1.4219 -0.2264  1.6405
  279MPD2    H2 4217   3.376   3.282   0.276 -0.1809 -1.0826  0.1398
  279MPD2    H3 4218   3.529   3.113   0.374  1.1635 -0.0322  0.1278
  279MPD2     N 4219   3.836   3.171   0.054  0.5805  0.1020 -0.0327
  279MPD2    H5 4220   3.856   3.075   0.080 -0.0034 -0.1113 -0.3680
  279MPD2    N1 4221   3.405   3.431   0.066  0.2084 -0.0362  0.2650
  279MPD2    H7 4222   3.315   3.416   0.112  0.8798  0.7619  1.8485
  280TMC3    C1 4223   3.282   3.564  17.603  0.2939 -0.0371 -0.0695
  280TMC3    C2 4224   3.194   3.587   0.020 -0.8237  0.0136 -0.2740
  280TMC3    C3 4225   3.076   3.653  17.674  0.4588 -0.4537 -0.3358
  280TMC3    C4 4226   3.267   3.613  17.479 -0.3013  0.3623  0.2756
  280TMC3    C5 4227   3.153   3.688  17.458  0.1061  0.5679 -0.6158
  280TMC3    C6 4228   3.065   3.717  17.555 -0.2184  0.4116  0.7318
  280TMC3     C 4229   3.412   3.511  17.637 -0.1906  0.1267 -0.5947
  280TMC3     O 4230   3.499   3.509  17.553 -0.2803  0.1203  0.2770
  280TMC3     H 4231   3.224   3.569   0.123  1.6789 -1.8657 -1.3355
  280TMC3    H1 4232   3.334   3.602  17.395 -0.1163  3.2149  0.0375
  280TMC3    H2 4233   2.986   3.791  17.542  0.0755  0.6902  0.5187
  280TMC3    C7 4234   3.106   3.705  17.316  0.4796 -0.3593 -0.7816
  280TMC3    C8 4235   2.973   3.668   0.084  0.6028 -0.5032 -0.0269
  280TMC3    O1 4236   3.186   3.740  17.227 -0.5498  0.0621 -0.0699
  280TMC3    O2 4237   2.872   3.734   0.053 -0.1544  0.2947 -0.1018
  281TMC3    C1 4238   2.679   2.971  13.367 -0.0926 -0.2750 -0.2412
  281TMC3    C2 4239   2.783   3.038  13.318 -0.2191 -0.4800 -0.1639
  281TMC3    C3 4240   2.850   2.993  13.204  0.2742 -0.6973  0.5825
  281TMC3    C4 4241   2.639   2.853  13.313  0.7039 -0.0581  1.3415
  281TMC3    C5 4242   2.715   2.799  13.209  0.3816  0.2444  0.9273
  281TMC3    C6 4243   2.818   2.873  13.150  0.0288 -1.0457 -0.3550
  281TMC3     C 4244   2.598   3.025  13.469  0.3691 -0.4639  0.0038
  281TMC3     O 4245   2.557   2.943  13.553  0.3192  0.9013 -0.1966
  281TMC3     H 4246   2.817   3.133  13.358 -2.9321 -0.5404  2.3163
  281TMC3    H1 4247   2.549   2.807  13.352  0.5697 -0.9438 -0.0288
  281TMC3    H2 4248   2.878   2.832  13.071  0.7148  1.8117 -1.3254
  281TMC3    C7 4249   2.691   2.662  13.173 -0.7408  0.1807  0.0222
  281TMC3    C8 4250   2.987   3.042  13.174 -0.4412  0.2798 -0.1251
  281TMC3    O1 4251   2.771   2.606  13.104 -0.3354 -0.3256  0.3159
  281TMC3    O2 4252   3.063   2.958  13.119 -0.1640  0.0204  0.0612
  282MPD2     C 4253   3.632   0.129  14.766  0.4252  0.4070 -0.6618
  282MPD2    C1 4254   3.565   0.011  14.799 -0.1730  0.3721  0.0302
  282MPD2    C2 4255   3.582   4.630  14.711 -0.5255 -0.5930  0.2811
  282MPD2    C3 4256   3.652   4.638  14.595  0.2719 -0.7112 -0.6958
  282MPD2    C4 4257   3.716   0.038  14.567 -0.1718 -0.4993 -1.0599
  282MPD2    C5 4258   3.700   0.146  14.652 -0.2125  0.0742  0.1902
  282MPD2     H 4259   3.539   4.534  14.737  1.4739 -1.6388 -0.3006
  282MPD2    H1 4260   3.763   0.059  14.472  2.9465 -0.4013  0.4958
  282MPD2    H2 4261   3.644   0.212  14.834 -2.0359 -1.0123  1.5014
  282MPD2    H3 4262   3.746   0.243  14.636 -0.8365  0.0168 -1.9487
  282MPD2     N 4263   3.661   4.522  14.513 -0.0259 -0.4254  0.1429
  282MPD2    H5 4264   3.606   4.442  14.543 -0.1139 -0.2193  0.5310
  282MPD2    N1 4265   3.502   4.719  14.921  0.5855 -0.1046  0.5231
  282MPD2    H7 4266   3.485   4.623  14.949  0.0102 -0.3639 -0.7182
  283TMC3    C1 4267   3.406   0.080  15.127 -0.5182  0.0458  0.2525
  283TMC3    C2 4268   3.406   0.192  15.204  0.7091 -0.0072 -0.3115
  283TMC3    C3 4269   3.404   0.170  15.336  0.4505  1.0871  0.7862
  283TMC3    C4 4270   3.396   4.676  15.176 -0.2103 -0.0100 -0.0639
  283TMC3    C5 4271   3.381   4.657  15.316 -0.1034  0.5134  0.1021
  283TMC3    C6 4272   3.389   0.048  15.396 -0.2085  0.1688 -0.6211
  283TMC3     C 4273   3.454   0.106  14.997 -0.2190  0.6735 -0.1740
  283TMC3     O 4274   3.451   0.225  14.962  0.1877  0.0368 -0.1856
  283TMC3     H 4275   3.407   0.294  15.167 -0.4264 -0.0341 -0.3994
  283TMC3    H1 4276   3.374   4.592  15.112 -1.9828  0.8609 -0.5918
  283TMC3    H2 4277   3.402   0.035  15.503 -0.2032  1.5333 -0.4586
  283TMC3    C7 4278   3.346   4.527  15.376  0.1343  0.0762 -0.3848
  283TMC3    C8 4279   3.450   0.278  15.417  0.4806  0.4569 -0.4183
  283TMC3    O1 4280   3.315   4.543  15.498  0.5127 -0.2098 -0.4664
  283TMC3    O2 4281   3.454   0.254  15.538 -0.3164  0.6709 -0.0330
  284MPD2     C 4282   2.333   3.445  12.124  0.0572 -0.4554 -0.5109
  284MPD2    C1 4283   2.392   3.399  12.008 -0.2698  0.5558  0.3460
  284MPD2    C2 4284   2.379   3.271  11.968 -0.0881  0.9488  0.1381
  284MPD2    C3 4285   2.280   3.191  12.027 -0.2691  1.0337  0.0443
  284MPD2    C4 4286   2.209   3.242  12.138  0.6670  0.6288 -0.0952
  284MPD2    C5 4287   2.245   3.363  12.193 -0.8530  0.0582 -0.7357
  284MPD2     H 4288   2.429   3.234  11.879 -1.1167 -2.8767  1.1430
  284MPD2    H1 4289   2.137   3.179  12.189 -0.4445  1.7836 -0.2620
  284MPD2    H2 4290   2.347   3.547  12.157  3.9457 -0.1677 -3.0800
  284MPD2    H3 4291   2.195   3.398  12.282 -0.5962  0.0481 -0.5891
  284MPD2     N 4292   2.263   3.059  11.990  0.2264 -0.3424  0.3330
  284MPD2    H5 4293   2.199   3.005  12.047 -1.6638  0.8027 -0.7326
  284MPD2    N1 4294   2.462   3.486  11.920 -0.0652  0.1266 -0.2425
  284MPD2    H7 4295   2.495   3.447  11.832 -0.9893 -0.1094 -0.4882
  285TMC3    C1 4296   2.557   3.683  11.821 -0.1875 -0.4810 -0.6986
  285TMC3    C2 4297   2.627   3.610  11.731 -0.3853  0.4242  0.4525
  285TMC3    C3 4298   2.718   3.674  11.645  0.3207 -0.2125  0.3487
  285TMC3    C4 4299   2.565   3.821  11.817  0.2967  0.1120 -0.9112
  285TMC3    C5 4300   2.650   3.882  11.724 -0.1288  0.7628  0.1505
  285TMC3    C6 4301   2.739   3.805  11.648 -0.4972 -0.5617 -0.2390
  285TMC3     C 4302   2.486   3.624  11.932  0.5513 -0.1331  0.2470
  285TMC3     O 4303   2.467   3.698  12.029 -0.1126  0.1039 -0.2106
  285TMC3     H 4304   2.617   3.502  11.738  0.2986  0.4539  1.9652
  285TMC3    H1 4305   2.505   3.879  11.886  2.1409  1.3484 -0.3467
  285TMC3    H2 4306   2.795   3.852  11.568 -0.7507 -0.6007 -0.4416
  285TMC3    C7 4307   2.582   3.982  11.642  0.6183  0.7147 -0.3163
  285TMC3    C8 4308   2.732   3.602  11.521  0.3019  0.6895  0.5214
  285TMC3    O1 4309   2.581   3.956  11.522  0.2394 -0.4043 -0.5723
  285TMC3    O2 4310   2.659   3.505  11.506 -0.0800 -0.0660 -0.5337
  286MPD2     C 4311   2.793   1.574   1.522 -0.3416  0.1555 -0.2185
  286MPD2    C1 4312   2.834   1.707   1.494  0.2582 -0.1936  0.2634
  286MPD2    C2 4313   2.964   1.738   1.454 -0.5421  1.0962 -0.7819
  286MPD2    C3 4314   3.058   1.633   1.447  0.1721 -0.0705  0.2725
  286MPD2    C4 4315   3.015   1.501   1.473  0.6861  0.3343 -0.3103
  286MPD2    C5 4316   2.887   1.474   1.516 -0.2367 -0.4343 -0.3389
  286MPD2     H 4317   3.003   1.838   1.441  1.1338  0.4723 -0.6211
  286MPD2    H1 4318   3.093   1.426   1.475 -0.7844 -1.2154 -1.0701
  286MPD2    H2 4319   2.690   1.547   1.542 -0.0636  0.2290  1.2557
  286MPD2    H3 4320   2.856   1.376   1.550  1.3411 -0.9517 -0.4108
  286MPD2     N 4321   3.182   1.647   1.388  0.6600 -0.8009  0.6338
  286MPD2    H5 4322   3.219   1.564   1.345  2.0098  0.4979 -0.6749
  286MPD2    N1 4323   2.733   1.805   1.495  0.8293  0.2170  0.5529
  286MPD2    H7 4324   2.762   1.898   1.467  0.7057 -0.5056 -1.9854
  287TMC3    C1 4325   3.390   1.746   1.343 -0.0038  0.0396  0.0024
  287TMC3    C2 4326   3.399   1.704   1.211  0.1996 -1.3470 -0.0818
  287TMC3    C3 4327   3.517   1.710   1.154 -0.1023  0.5923  0.2271
  287TMC3    C4 4328   3.493   1.800   1.406 -0.8743 -0.3136 -0.0310
  287TMC3    C5 4329   3.613   1.803   1.345 -0.0371 -0.0632 -0.1202
  287TMC3    C6 4330   3.630   1.758   1.219  0.2287 -0.2354  0.0226
  287TMC3     C 4331   3.257   1.762   1.396  0.0199 -0.2733 -0.1584
  287TMC3     O 4332   3.233   1.849   1.480 -0.0843 -0.1996  0.3528
  287TMC3     H 4333   3.310   1.672   1.156 -1.4002 -0.5767  2.0663
  287TMC3    H1 4334   3.487   1.845   1.505 -0.8633  0.5220 -0.4166
  287TMC3    H2 4335   3.730   1.763   1.176  0.1429 -1.8656 -0.3954
  287TMC3    C7 4336   3.718   1.872   1.408 -0.4170  0.3283  0.1309
  287TMC3    C8 4337   3.519   1.689   1.009 -0.1352 -0.0107 -0.7500
  287TMC3    O1 4338   3.683   1.968   1.473 -0.5544  0.5338  0.3509
  287TMC3    O2 4339   3.417   1.652   0.954  0.7591  0.1971  0.2714
  288TMC3    C1 4340   0.170   1.726  14.668 -0.5868  0.2163 -0.4271
  288TMC3    C2 4341   0.058   1.745  14.748  0.4435  0.1479 -0.6745
  288TMC3    C3 4342   4.706   1.859  14.723  0.2383 -0.4005  0.2487
  288TMC3    C4 4343   0.208   1.822  14.577 -0.1776 -0.1708 -0.6445
  288TMC3    C5 4344   0.130   1.929  14.551 -0.8264  0.3922  0.1829
  288TMC3    C6 4345   0.016   1.953  14.623 -0.6283  0.2563  0.6549
  288TMC3     C 4346   0.253   1.598  14.672  0.0244 -0.4622  0.2731
  288TMC3     O 4347   0.368   1.600  14.625  0.0062 -0.0648 -0.3173
  288TMC3     H 4348   0.056   1.687  14.839  0.6212 -0.7220 -1.2294
  288TMC3    H1 4349   0.278   1.800  14.497  0.2829 -0.0666 -0.2729
  288TMC3    H2 4350   4.684   2.047  14.607 -1.2667  0.3436  3.2022
  288TMC3    C7 4351   0.155   1.985  14.418  0.1605  1.1334 -0.0934
  288TMC3    C8 4352   4.599   1.875  14.819  0.4179  0.3701 -1.0148
  288TMC3    O1 4353   0.263   1.974  14.369  0.0565 -0.5473 -0.1419
  288TMC3    O2 4354   4.579   1.773  14.887  0.3934  0.4970  0.0771
  289MPD2     C 4355   0.004   1.249  14.479  0.0785 -0.2823 -0.1495
  289MPD2    C1 4356   4.705   1.358  14.409 -0.5119  0.3182 -0.0196
  289MPD2    C2 4357   4.573   1.406  14.390  0.7096  0.5816  0.5292
  289MPD2    C3 4358   4.468   1.341  14.456 -0.0636  0.4589 -0.1072
  289MPD2    C4 4359   4.495   1.238  14.542 -0.1793 -0.2130  0.6928
  289MPD2    C5 4360   4.623   1.188  14.540  0.3118  0.1594 -0.4953
  289MPD2     H 4361   4.557   1.480  14.312  2.4347 -0.3593 -0.7277
  289MPD2    H1 4362   4.421   1.191  14.605  1.0981  0.6752  2.8376
  289MPD2    H2 4363   0.101   1.203  14.492 -0.7775 -1.4681  1.8901
  289MPD2    H3 4364   4.646   1.097  14.594 -0.1306  1.6664  2.2303
  289MPD2     N 4365   4.334   1.381  14.450  0.3611 -0.0978  0.5057
  289MPD2    H5 4366   4.264   1.317  14.483  1.3936 -1.3277  0.3041
  289MPD2    N1 4367   0.088   1.404  14.326 -0.6970  0.0694 -0.0084
  289MPD2    H7 4368   0.176   1.354  14.323 -0.5111  0.6213 -3.4786
  290TMC3    C1 4369   4.137   1.481  14.352 -0.5409  0.0487  0.0558
  290TMC3    C2 4370   4.086   1.608  14.330  0.7363  0.4527 -0.0615
  290TMC3    C3 4371   3.995   1.617  14.222 -0.1589 -0.1405  0.4975
  290TMC3    C4 4372   4.106   1.372  14.279 -0.3041 -0.2296 -0.4214
  290TMC3    C5 4373   3.993   1.388  14.197  0.1507  0.7599  0.0409
  290TMC3    C6 4374   3.943   1.509  14.164  0.0244  0.2971 -0.0994
  290TMC3     C 4375   4.282   1.492  14.389 -0.4911  0.7234  0.2074
  290TMC3     O 4376   4.334   1.599  14.372 -0.1747 -0.6947 -0.1330
  290TMC3     H 4377   4.127   1.689  14.388 -0.2293  1.0614 -0.2246
  290TMC3    H1 4378   4.151   1.275  14.292 -0.7760 -0.2300  1.2361
  290TMC3    H2 4379   3.856   1.515  14.099 -1.1086  0.6466  1.4248
  290TMC3    C7 4380   3.945   1.267  14.123  0.3101  0.5116 -0.6944
  290TMC3    C8 4381   3.917   1.735  14.216  0.0932 -0.0003  0.4735
  290TMC3    O1 4382   3.868   1.289  14.032 -0.5871 -0.3774 -0.1370
  290TMC3    O2 4383   3.798   1.732  14.188 -0.1406  0.0016  0.2335
  291MPD2     C 4384   4.335   1.306   0.707 -0.4712  0.3267  0.3950
  291MPD2    C1 4385   4.363   1.209   0.615  0.5488  0.4717  0.3790
  291MPD2    C2 4386   4.371   1.236   0.486  0.2786 -0.4501  0.6621
  291MPD2    C3 4387   4.345   1.367   0.438  0.8239 -0.3823  0.1227
  291MPD2    C4 4388   4.309   1.465   0.528  0.3792 -0.1996 -0.1779
  291MPD2    C5 4389   4.314   1.435   0.666 -0.3026  0.5290  0.1533
  291MPD2     H 4390   4.381   1.157   0.413 -2.2339 -0.6681  0.5347
  291MPD2    H1 4391   4.292   1.565   0.490 -3.0771 -1.3087 -1.5639
  291MPD2    H2 4392   4.327   1.289   0.814  1.5689 -1.7783  0.2200
  291MPD2    H3 4393   4.281   1.504   0.744 -0.3976  1.2926 -0.5580
  291MPD2     N 4394   4.332   1.389   0.299  0.0177  0.1480  0.3510
  291MPD2    H5 4395   4.294   1.477   0.264 -3.1536 -1.2164  0.3765
  291MPD2    N1 4396   4.378   1.074   0.650 -0.2296 -0.1054 -0.6401
  291MPD2    H7 4397   4.400   1.015   0.570  1.5198 -0.7267  0.3058
  292TMC3    C1 4398   4.325   0.877   0.766  1.3955  0.4441 -0.1157
  292TMC3    C2 4399   4.287   0.827   0.891  0.8584 -0.4695 -0.4211
  292TMC3    C3 4400   4.215   0.715   0.898 -0.3257  0.0118  0.1489
  292TMC3    C4 4401   4.284   0.805   0.653  0.2841  0.8715  0.3895
  292TMC3    C5 4402   4.212   0.688   0.659 -0.5397  0.8428  0.0635
  292TMC3    C6 4403   4.181   0.639   0.783  0.0588  0.6297  0.2232
  292TMC3     C 4404   4.327   1.021   0.767 -0.4511  0.7695 -0.5838
  292TMC3     O 4405   4.244   1.070   0.845 -0.2325 -0.5369  0.8617
  292TMC3     H 4406   4.296   0.895   0.975 -0.6166 -0.7319 -0.0494
  292TMC3    H1 4407   4.279   0.860   0.560 -2.9763 -1.8248 -1.0256
  292TMC3    H2 4408   4.125   0.546   0.789 -0.1206  0.7565  0.5439
  292TMC3    C7 4409   4.103   0.679   0.571 -0.4885 -0.2441  0.2503
  292TMC3    C8 4410   4.156   0.681   1.021 -0.1724 -0.0001  0.5148
  292TMC3    O1 4411   3.997   0.697   0.636  0.0295  0.3240 -0.3826
  292TMC3    O2 4412   4.203   0.724   1.121  0.3951  0.1707  0.4072
  293MPD2     C 4413   0.734   2.939  12.626 -0.2071 -0.1531  0.1549
  293MPD2    C1 4414   0.662   2.887  12.732 -0.1050  0.1485  1.0394
  293MPD2    C2 4415   0.727   2.855  12.849 -0.1566  0.9114  0.3179
  293MPD2    C3 4416   0.857   2.888  12.871 -0.1325  0.3960  0.3823
  293MPD2    C4 4417   0.924   2.953  12.772  1.0840 -0.6470 -0.0070
  293MPD2    C5 4418   0.864   2.972  12.647  0.3062 -1.2170 -0.4152
  293MPD2     H 4419   0.674   2.801  12.926  1.8962  1.5020  2.1554
  293MPD2    H1 4420   1.027   2.984  12.785  1.2993 -0.4420 -2.2570
  293MPD2    H2 4421   0.688   2.947  12.528 -1.6172 -0.2652  0.8077
  293MPD2    H3 4422   0.915   3.017  12.563 -0.4238 -0.2199 -0.3151
  293MPD2     N 4423   0.910   2.873  12.997  0.6629  0.9472  0.2654
  293MPD2    H5 4424   0.849   2.819  13.058 -0.2615  1.7526  0.0528
  293MPD2    N1 4425   0.527   2.859  12.712 -0.1435 -0.4507 -0.1853
  293MPD2    H7 4426   0.493   2.905  12.629 -1.0079  0.1933  0.5138
  294TMC3    C1 4427   0.319   2.749  12.731 -0.0071  0.7731  0.6340
  294TMC3    C2 4428   0.241   2.662  12.805 -0.0558  0.0788 -0.4225
  294TMC3    C3 4429   0.120   2.628  12.751 -0.2586 -0.8276  0.1245
  294TMC3    C4 4430   0.289   2.789  12.602  0.4971 -0.0891 -0.4300
  294TMC3    C5 4431   0.177   2.729  12.548 -0.5844  0.5324  0.3008
  294TMC3    C6 4432   0.089   2.657  12.620  0.1930  0.7933 -0.4509
  294TMC3     C 4433   0.443   2.783  12.795  0.1986  0.4573  0.4091
  294TMC3     O 4434   0.472   2.726  12.896  0.3607  0.1536 -0.2805
  294TMC3     H 4435   0.262   2.628  12.905 -0.2963  0.3918 -0.2673
  294TMC3    H1 4436   0.353   2.860  12.552  3.0318 -2.5260 -0.6486
  294TMC3    H2 4437   4.716   2.622  12.579  0.5838  0.2562 -0.8867
  294TMC3    C7 4438   0.129   2.772  12.418  0.0780  0.3297  0.6027
  294TMC3    C8 4439   0.051   2.528  12.825  0.2433  0.4628  0.6678
  294TMC3    O1 4440   0.013   2.736  12.397 -0.3707  0.0456 -0.2191
  294TMC3    O2 4441   0.063   2.532  12.947  0.0950 -0.3854  0.1506
  295MPD2     C 4442   1.121   0.781   0.113 -0.4451  0.7729  0.9026
  295MPD2    C1 4443   1.182   0.869   0.196  0.6520  0.7454  0.2531
  295MPD2    C2 4444   1.114   0.962   0.262 -0.0186 -0.5082  0.5526
  295MPD2    C3 4445   0.971   0.967   0.246 -0.2515 -0.0521  0.2730
  295MPD2    C4 4446   0.911   0.874   0.167  0.5147  0.2667 -0.5675
  295MPD2    C5 4447   0.986   0.790   0.094  0.0132 -0.1365 -0.1363
  295MPD2     H 4448   1.169   1.032   0.325  0.4270 -1.7252  1.5130
  295MPD2    H1 4449   0.804   0.865   0.157  0.3358  0.4818  1.1792
  295MPD2    H2 4450   1.168   0.700   0.058 -1.1559 -0.0411  1.4883
  295MPD2    H3 4451   0.941   0.724   0.021  0.9652  0.5674 -1.3528
  295MPD2     N 4452   0.885   1.054   0.309  0.2506 -0.6025  0.2330
  295MPD2    H5 4453   0.786   1.036   0.318  0.0405  0.5909  0.3205
  295MPD2    N1 4454   1.326   0.876   0.207 -0.1191 -0.7086 -0.5499
  295MPD2    H7 4455   1.362   0.954   0.261  0.2323 -1.1464 -0.1382
  296TMC3    C1 4456   0.828   1.210   0.472 -0.1140 -0.1513 -0.0453
  296TMC3    C2 4457   0.820   1.345   0.486 -0.0350  0.7839 -0.1790
  296TMC3    C3 4458   0.769   1.407   0.600  0.4469 -0.0932  0.4507
  296TMC3    C4 4459   0.795   1.139   0.582  0.0134 -0.2366  0.3310
  296TMC3    C5 4460   0.734   1.192   0.690  0.5672 -0.0003 -0.3134
  296TMC3    C6 4461   0.711   1.329   0.702 -0.7232  0.4176 -1.1290
  296TMC3     C 4462   0.927   1.163   0.381  0.7252  0.2289 -0.4091
  296TMC3     O 4463   1.037   1.215   0.392  0.3029  0.2738 -0.0247
  296TMC3     H 4464   0.864   1.406   0.408 -1.2530  2.3369  0.3391
  296TMC3    H1 4465   0.808   1.032   0.572 -4.2802 -0.7994  0.9959
  296TMC3    H2 4466   0.655   1.361   0.789  1.1219  0.7629 -0.0770
  296TMC3    C7 4467   0.628   1.109   0.724  0.3863  0.6240 -0.0935
  296TMC3    C8 4468   0.725   1.549   0.592  0.4711 -1.0034  0.3685
  296TMC3    O1 4469   0.573   1.052   0.631 -0.0355 -0.5436  0.5650
  296TMC3    O2 4470   0.731   1.621   0.491  0.5796 -0.0679  0.4785
  297MPD2     C 4471   3.293   3.260  15.301 -0.3214 -0.6284 -0.9472
  297MPD2    C1 4472   3.339   3.333  15.406  0.4454 -0.3106  0.3626
  297MPD2    C2 4473   3.476   3.353  15.420 -0.2716 -0.3392  0.5270
  297MPD2    C3 4474   3.569   3.299  15.329  0.2183 -0.7955  0.1570
  297MPD2    C4 4475   3.521   3.226  15.224  0.3728  0.4335 -0.6567
  297MPD2    C5 4476   3.389   3.206  15.216 -0.2976  0.4297 -0.3402
  297MPD2     H 4477   3.510   3.422  15.496  0.5215 -2.1084  1.7804
  297MPD2    H1 4478   3.586   3.181  15.150  2.0626  2.4048 -0.3699
  297MPD2    H2 4479   3.190   3.230  15.285 -0.6441 -1.0285  1.8683
  297MPD2    H3 4480   3.352   3.147  15.133  1.3119 -0.4065 -0.4750
  297MPD2     N 4481   3.703   3.326  15.364  0.3860 -0.5908 -0.1274
  297MPD2    H5 4482   3.709   3.365  15.457  2.8872  0.5183 -0.7337
  297MPD2    N1 4483   3.248   3.398  15.491  0.3708 -0.5678  0.2649
  297MPD2    H7 4484   3.291   3.445  15.571  0.9754  1.1929 -1.0928
  298TMC3    C1 4485   3.066   3.381  15.624  0.8109  0.2931 -0.3819
  298TMC3    C2 4486   3.157   3.336  15.717 -0.1511  0.3942  0.1687
  298TMC3    C3 4487   3.108   3.327  15.844  0.6456  0.4827 -0.5720
  298TMC3    C4 4488   2.931   3.405  15.648  0.7108  0.5813  0.1744
  298TMC3    C5 4489   2.884   3.376  15.772  0.2125  0.4532 -1.2678
  298TMC3    C6 4490   2.973   3.348  15.875  0.0435 -0.1104  0.0832
  298TMC3     C 4491   3.116   3.384  15.490 -0.2191  0.3208  0.3020
  298TMC3     O 4492   3.040   3.354  15.402 -0.2058  0.0630  0.1360
  298TMC3     H 4493   3.255   3.296  15.693 -1.0288 -0.3227 -2.2203
  298TMC3    H1 4494   2.868   3.446  15.569 -1.1774  0.2856  1.5095
  298TMC3    H2 4495   2.930   3.341  15.974 -1.4620 -0.6321 -0.6060
  298TMC3    C7 4496   2.753   3.390  15.800  0.1156  0.1820  0.0301
  298TMC3    C8 4497   3.191   3.262  15.942 -0.8243 -0.2758  0.5053
  298TMC3    O1 4498   2.718   3.440  15.901  0.4992  0.4225 -0.4653
  298TMC3    O2 4499   3.127   3.216  16.036 -0.3979 -0.0219 -0.6215
  299MPD2     C 4500   3.987   3.287  10.087  0.7294 -0.4190  0.3044
  299MPD2    C1 4501   3.928   3.231  10.202 -0.8357  0.1120  0.6462
  299MPD2    C2 4502   3.803   3.171  10.190 -0.6320 -0.3933 -0.6880
  299MPD2    C3 4503   3.735   3.164  10.062 -0.2156  0.3218  0.4199
  299MPD2    C4 4504   3.809   3.195   9.950  0.7172 -0.7071  0.3453
  299MPD2    C5 4505   3.933   3.257   9.969  0.2395 -0.2961  0.0008
  299MPD2     H 4506   3.751   3.135  10.279  0.3800 -2.1197 -0.8075
  299MPD2    H1 4507   3.757   3.195   9.854  1.6909 -2.6619 -0.1859
  299MPD2    H2 4508   4.073   3.354  10.092  0.4713 -0.0717  0.1029
  299MPD2    H3 4509   3.991   3.294   9.885 -0.4864  0.9408  0.0400
  299MPD2     N 4510   3.598   3.137  10.050 -0.0865 -0.4820  0.0225
  299MPD2    H5 4511   3.552   3.143   9.961 -1.2368  0.3687  0.6718
  299MPD2    N1 4512   3.992   3.255  10.322 -0.0466  0.2205  0.3152
  299MPD2    H7 4513   4.083   3.299  10.312 -0.0710  0.0061 -0.8747
  300TMC3    C1 4514   3.389   3.074  10.081  0.3526 -0.0105  1.2586
  300TMC3    C2 4515   3.327   3.189  10.050  0.1962 -0.4365  0.2957
  300TMC3    C3 4516   3.191   3.207  10.062 -0.4628  0.2035 -0.3705
  300TMC3    C4 4517   3.317   2.981  10.153  0.3079 -0.5644  0.9348
  300TMC3    C5 4518   3.182   3.001  10.164 -0.7135  0.1576  0.4556
  300TMC3    C6 4519   3.111   3.104  10.112  0.1107  0.2832  0.1613
  300TMC3     C 4520   3.514   3.095  10.147 -0.4390  0.1641 -0.7292
  300TMC3     O 4521   3.534   3.063  10.266  0.3584 -0.1428  0.3686
  300TMC3     H 4522   3.375   3.274  10.003 -1.3297  1.0304  1.3893
  300TMC3    H1 4523   3.364   2.897  10.203  1.0343 -0.9481 -0.3744
  300TMC3    H2 4524   3.003   3.115  10.115 -0.0525 -1.4352  0.6672
  300TMC3    C7 4525   3.109   2.885  10.212 -0.2587  0.8595 -0.3681
  300TMC3    C8 4526   3.144   3.343  10.078 -0.5223 -0.1489 -0.6265
  300TMC3    O1 4527   3.145   2.771  10.178 -0.0151  0.0016 -0.2126
  300TMC3    O2 4528   3.032   3.365  10.033  0.2048  0.0596  0.1700
  301MPD2     C 4529   1.563   4.696   1.729  0.1313 -0.2545 -0.6065
  301MPD2    C1 4530   1.469   4.596   1.727 -0.5721 -0.2680  0.0486
  301MPD2    C2 4531   1.516   4.470   1.721 -0.8584  0.2188 -0.3652
  301MPD2    C3 4532   1.651   4.433   1.734 -0.1123  0.4278  0.1391
  301MPD2    C4 4533   1.743   4.533   1.743 -0.0527  0.2195  1.0300
  301MPD2    C5 4534   1.695   4.662   1.743  0.1437  0.4219  0.3617
  301MPD2     H 4535   1.447   4.388   1.708  0.7400 -1.3670  1.1730
  301MPD2    H1 4536   1.850   4.515   1.735 -0.0247  0.0824  1.7323
  301MPD2    H2 4537   1.532   0.079   1.737  0.2938 -0.3755  1.5781
  301MPD2    H3 4538   1.756   0.028   1.763  0.7649 -0.0785  0.6140
  301MPD2     N 4539   1.681   4.297   1.719 -0.0688 -0.3435 -0.0026
  301MPD2    H5 4540   1.609   4.239   1.676 -0.4003 -0.4141  0.6435
  301MPD2    N1 4541   1.331   4.606   1.745  0.4354 -0.6326 -0.0254
  301MPD2    H7 4542   1.267   4.527   1.750  1.4014 -1.3827  0.5764
  302TMC3    C1 4543   1.806   4.093   1.722 -0.7358 -0.0617  0.0056
  302TMC3    C2 4544   1.906   4.018   1.784 -0.6916  0.7974 -0.3601
  302TMC3    C3 4545   1.914   3.881   1.760 -0.5853 -0.2643  0.0931
  302TMC3    C4 4546   1.716   4.041   1.640 -0.1726 -0.0810 -0.5997
  302TMC3    C5 4547   1.727   3.906   1.616 -0.6574 -0.1332  0.0039
  302TMC3    C6 4548   1.823   3.828   1.679 -0.1914  0.6367  0.5962
  302TMC3     C 4549   1.804   4.238   1.743  0.3391  1.1088 -0.3874
  302TMC3     O 4550   1.887   4.287   1.818  0.4235  0.1670 -0.3248
  302TMC3     H 4551   1.982   4.063   1.848 -0.6009  0.1077  0.0191
  302TMC3    H1 4552   1.642   4.099   1.587  0.8102  1.9121  0.2285
  302TMC3    H2 4553   1.800   3.722   1.680  2.5377  0.0985  4.5115
  302TMC3    C7 4554   1.659   3.846   1.503 -0.2768 -0.2100  0.8118
  302TMC3    C8 4555   2.015   3.784   1.794 -0.1836  0.0126  0.3738
  302TMC3    O1 4556   1.729   3.763   1.450  0.5309  0.3557 -0.3480
  302TMC3    O2 4557   2.015   3.671   1.751  0.0160 -0.9369 -0.1811
  303MPD2     C 4558   1.191   2.642  10.408  0.1071 -0.0400 -0.9317
  303MPD2    C1 4559   1.075   2.662  10.338  0.6045 -0.0011  0.5974
  303MPD2    C2 4560   1.080   2.720  10.211 -0.5714  0.0166  0.3608
  303MPD2    C3 4561   1.199   2.763  10.159 -0.5393 -0.5352 -0.4591
  303MPD2    C4 4562   1.315   2.744  10.231  0.3570 -0.1259 -0.5595
  303MPD2    C5 4563   1.307   2.675  10.348 -0.1816 -0.5061  0.0172
  303MPD2     H 4564   0.988   2.739  10.158  0.8368 -0.0491 -2.1349
  303MPD2    H1 4565   1.412   2.781  10.200  0.3486  0.9776  0.7613
  303MPD2    H2 4566   1.196   2.595  10.505  1.0550  2.5760  0.2983
  303MPD2    H3 4567   1.395   2.665  10.411 -0.3112 -0.3758  0.2191
  303MPD2     N 4568   1.227   2.823  10.033 -0.3401 -0.1268 -0.3111
  303MPD2    H5 4569   1.324   2.826  10.005  0.2128  0.5759  1.7032
  303MPD2    N1 4570   0.954   2.609  10.386  0.8972  0.6843  1.1518
  303MPD2    H7 4571   0.940   2.569  10.478 -1.4147 -0.1994  0.4399
  304TMC3    C1 4572   0.721   2.560  10.409 -0.1102 -0.4928 -0.1961
  304TMC3    C2 4573   0.604   2.613  10.374 -1.1059 -0.2684 -0.4072
  304TMC3    C3 4574   0.499   2.526  10.379 -1.0944  0.1060  0.4934
  304TMC3    C4 4575   0.742   2.434  10.447 -0.8419  0.3071 -0.4162
  304TMC3    C5 4576   0.632   2.350  10.446 -0.1247 -0.2254  0.8074
  304TMC3    C6 4577   0.513   2.401  10.425 -0.2746 -0.2077  0.0580
  304TMC3     C 4578   0.825   2.620  10.333 -0.3553 -0.2119 -0.6192
  304TMC3     O 4579   0.788   2.684  10.237  0.1192 -0.0626  1.0151
  304TMC3     H 4580   0.588   2.713  10.336  1.1293  0.7603  1.3465
  304TMC3    H1 4581   0.839   2.390  10.465 -0.8489 -0.4544 -2.2591
  304TMC3    H2 4582   0.426   2.337  10.411 -1.6266  1.5571  0.3648
  304TMC3    C7 4583   0.671   2.238  10.359 -0.8597  0.4877 -0.4127
  304TMC3    C8 4584   0.412   2.529  10.262  1.0252  0.5095  0.4983
  304TMC3    O1 4585   0.774   2.175  10.385  0.0523 -0.4569  0.4411
  304TMC3    O2 4586   0.414   2.426  10.195  0.2283 -0.4677 -0.2952
  305MPD2     C 4587   4.465   4.633  14.516  0.2109  0.6597 -0.3514
  305MPD2    C1 4588   4.411   4.520  14.468  0.2890  0.0695  0.4066
  305MPD2    C2 4589   4.428   4.476  14.335  1.0786  0.1236  0.0525
  305MPD2    C3 4590   4.483   4.565  14.245  0.1056 -0.1424 -0.4709
  305MPD2    C4 4591   4.533   4.687  14.290 -0.0805 -0.1958  0.5183
  305MPD2    C5 4592   4.520   0.002  14.426  0.1830 -0.0224  1.4473
  305MPD2     H 4593   4.398   4.375  14.310 -1.9741  1.3650 -1.4019
  305MPD2    H1 4594   4.579   0.037  14.222 -2.4916 -0.4898 -1.4217
  305MPD2    H2 4595   4.456   4.659  14.621 -0.9476  2.4825 -0.9099
  305MPD2    H3 4596   4.564   0.093  14.463 -1.0770  0.5496  1.5375
  305MPD2     N 4597   4.487   4.541  14.103  0.2312 -0.2226 -0.0701
  305MPD2    H5 4598   4.533   4.611  14.046  1.6717 -0.0799  1.2790
  305MPD2    N1 4599   4.346   4.434  14.557  0.4490 -0.6751  0.8658
  305MPD2    H7 4600   4.326   4.475  14.648 -0.1931 -2.6820  1.6316
  306TMC3    C1 4601   4.222   4.267  14.647  0.6617 -0.3112 -0.0102
  306TMC3    C2 4602   4.241   4.146  14.704 -0.1018 -0.4147 -0.0245
  306TMC3    C3 4603   4.191   4.121  14.830  0.4545 -0.2545  0.4077
  306TMC3    C4 4604   4.133   4.353  14.700 -0.3701  0.4089  0.6164
  306TMC3    C5 4605   4.064   4.315  14.814 -0.2867 -0.0409 -0.4981
  306TMC3    C6 4606   4.096   4.199  14.883 -0.0579 -0.7744 -0.3708
  306TMC3     C 4607   4.314   4.306  14.543 -0.5657 -0.0545  0.4679
  306TMC3     O 4608   4.347   4.226  14.459 -0.3726  0.6288 -0.2643
  306TMC3     H 4609   4.321   4.076  14.681  1.1159  1.2298 -0.7919
  306TMC3    H1 4610   4.121   4.449  14.651 -2.3981 -0.6065 -0.9024
  306TMC3    H2 4611   4.036   4.169  14.968  2.7120  2.1787  2.6265
  306TMC3    C7 4612   3.982   4.412  14.881  0.5038  0.0263 -0.2287
  306TMC3    C8 4613   4.261   4.029  14.918  0.2714 -0.5241 -0.4845
  306TMC3    O1 4614   3.897   4.371  14.960 -0.1863 -0.2535 -0.0797
  306TMC3    O2 4615   4.340   3.947  14.866 -0.1936  0.0796 -0.7972
  307MPD2     C 4616   1.674   1.214   1.607  0.1646  0.1226  0.1743
  307MPD2    C1 4617   1.722   1.330   1.556  0.2583  0.5635  0.0053
  307MPD2    C2 4618   1.637   1.430   1.522 -0.3830 -0.7452 -0.5227
  307MPD2    C3 4619   1.506   1.418   1.551  0.2834 -1.2617  0.8311
  307MPD2    C4 4620   1.451   1.311   1.620  0.1672 -0.1075  0.2308
  307MPD2    C5 4621   1.543   1.202   1.632  0.2935 -0.1797 -0.1542
  307MPD2     H 4622   1.671   1.522   1.476 -1.3758  0.2950  0.7871
  307MPD2    H1 4623   1.345   1.306   1.644  0.1931  0.1383  0.3974
  307MPD2    H2 4624   1.739   1.131   1.630  1.9171  1.4564 -0.0199
  307MPD2    H3 4625   1.504   1.112   1.678  2.5237 -1.3067 -0.4776
  307MPD2     N 4626   1.419   1.527   1.522  0.6654 -0.1950  0.2754
  307MPD2    H5 4627   1.465   1.607   1.479 -0.5327 -0.3070 -1.2010
  307MPD2    N1 4628   1.861   1.348   1.516  0.1052 -0.2257  0.1220
  307MPD2    H7 4629   1.887   1.432   1.466 -0.3402 -0.1447  0.0313
  308TMC3    C1 4630   1.107   1.773   1.327  0.4272 -0.0648 -0.3700
  308TMC3    C2 4631   1.189   1.881   1.357 -0.1237 -0.0278 -0.1839
  308TMC3    C3 4632   1.270   1.876   1.461 -0.1612  0.0682  0.0422
  308TMC3    C4 4633   1.126   1.654   1.388 -0.1580  0.7069  0.2165
  308TMC3    C5 4634   1.214   1.649   1.482  0.5788 -0.4191 -0.9177
  308TMC3    C6 4635   1.287   1.756   1.521  0.6095  0.6884  0.5005
  308TMC3     C 4636   1.049   1.771   1.198  0.5271 -0.0828  0.5541
  308TMC3     O 4637   1.036   1.661   1.148 -0.1464  0.0768 -0.2067
  308TMC3     H 4638   1.184   1.981   1.316 -0.4594  0.7369  1.7327
  308TMC3    H1 4639   1.058   1.572   1.368 -0.2670  0.4008  1.8459
  308TMC3    H2 4640   1.360   1.745   1.600 -0.9224 -0.0923  1.7851
  308TMC3    C7 4641   1.278   1.523   1.513 -0.8064 -0.1105  0.4734
  308TMC3    C8 4642   1.361   1.984   1.485  0.4229 -0.1928  0.4280
  308TMC3    O1 4643   1.199   1.432   1.526  0.7661 -0.1839  0.1135
  308TMC3    O2 4644   1.377   2.059   1.392  0.2204 -0.1525 -0.0962
  309MPD2     C 4645   1.610   2.732  17.166 -0.1612  0.2080  0.2789
  309MPD2    C1 4646   1.535   2.811  17.085 -0.0068  0.0226  0.5113
  309MPD2    C2 4647   1.420   2.869  17.134  0.2055  0.0893  0.1100
  309MPD2    C3 4648   1.375   2.844  17.265 -0.9906  0.3962 -0.0493
  309MPD2    C4 4649   1.462   2.776  17.346  0.1398 -0.3866 -1.2306
  309MPD2    C5 4650   1.572   2.719  17.299 -0.4160  0.4140  0.1721
  309MPD2     H 4651   1.370   2.946  17.075  2.0335  0.5168 -0.8910
  309MPD2    H1 4652   1.442   2.772  17.452  1.7265 -0.7951 -0.9430
  309MPD2    H2 4653   1.698   2.678  17.134  0.1135  0.2381  0.9656
  309MPD2    H3 4654   1.643   2.670  17.365 -0.9796  0.6882  0.9793
  309MPD2     N 4655   1.253   2.903  17.309 -0.0274  0.4373 -0.6276
  309MPD2    H5 4656   1.195   2.921  17.227  1.2358 -1.6624 -1.9792
  309MPD2    N1 4657   1.561   2.833  16.950 -0.2065 -0.6449  0.0517
  309MPD2    H7 4658   1.499   2.888  16.891 -0.3875 -1.3580 -0.4296
  310TMC3    C1 4659   1.672   2.846  16.751  0.5181 -0.3238 -0.4326
  310TMC3    C2 4660   1.555   2.878  16.692  0.9646 -0.3540  0.0941
  310TMC3    C3 4661   1.565   2.892  16.558  0.3640 -0.0753  0.3240
  310TMC3    C4 4662   1.797   2.866  16.693  0.3026  0.4541  0.6616
  310TMC3    C5 4663   1.798   2.905  16.559  0.0905  0.5607 -0.0441
  310TMC3    C6 4664   1.682   2.907  16.488 -0.6887  0.1077  0.5616
  310TMC3     C 4665   1.682   2.810  16.886 -0.5622 -0.3229  0.2326
  310TMC3     O 4666   1.789   2.773  16.931  0.1848 -0.1434  0.0945
  310TMC3     H 4667   1.460   2.842  16.730  0.8265  1.1059  1.1471
  310TMC3    H1 4668   1.885   2.830  16.744  0.4481 -1.5468 -0.9668
  310TMC3    H2 4669   1.681   2.912  16.380 -0.0787 -1.1591  0.4952
  310TMC3    C7 4670   1.913   2.851  16.491  0.2400  0.5507  0.6396
  310TMC3    C8 4671   1.447   2.895  16.475 -0.0666 -0.4048  0.8527
  310TMC3    O1 4672   1.986   2.768  16.548 -0.2921 -0.1840 -0.3372
  310TMC3    O2 4673   1.469   2.876  16.356  0.6562  0.5527 -0.3684
  311MPD2     C 4674   3.402   4.189  12.835  0.2932  0.4700  0.2859
  311MPD2    C1 4675   3.411   4.325  12.810 -0.1274  0.3854  0.0597
  311MPD2    C2 4676   3.295   4.398  12.790 -0.3155  0.3870 -0.7245
  311MPD2    C3 4677   3.175   4.340  12.783 -0.0617 -0.7093  0.0967
  311MPD2    C4 4678   3.167   4.202  12.798 -0.0874 -0.8591  0.8258
  311MPD2    C5 4679   3.279   4.124  12.818  0.3156 -0.2440 -0.7817
  311MPD2     H 4680   3.308   4.505  12.776  0.8367  0.3737  0.2703
  311MPD2    H1 4681   3.077   4.142  12.798  1.1418 -2.7255 -0.4201
  311MPD2    H2 4682   3.485   4.128  12.868 -1.1257 -1.1376  0.8646
  311MPD2    H3 4683   3.266   4.019  12.841  0.3378 -0.1498 -0.3478
  311MPD2     N 4684   3.058   4.421  12.774 -0.1001 -0.0945 -0.1284
  311MPD2    H5 4685   3.070   4.520  12.756 -1.5987  0.0162 -0.4624
  311MPD2    N1 4686   3.532   4.393  12.794  0.1091 -0.1939 -0.0251
  311MPD2    H7 4687   3.529   4.488  12.759 -0.0481 -0.4896 -0.8110
  312TMC3    C1 4688   2.835   4.482  12.769  0.0233 -0.0107  0.1900
  312TMC3    C2 4689   2.710   4.454  12.726  0.0399  0.1105  0.3237
  312TMC3    C3 4690   2.616   4.552  12.721  0.4960 -0.5703 -0.8675
  312TMC3    C4 4691   2.862   4.606  12.818  0.5379 -0.2690 -0.5048
  312TMC3    C5 4692   2.772   4.708  12.813  0.0311  0.1355  0.1484
  312TMC3    C6 4693   2.646   4.681  12.760 -0.6170  0.6323 -0.6993
  312TMC3     C 4694   2.928   4.372  12.777  0.1444  0.0232 -1.2641
  312TMC3     O 4695   2.878   4.259  12.782  0.7959 -0.6041 -0.4080
  312TMC3     H 4696   2.699   4.360  12.675  0.6605  0.3682 -0.2884
  312TMC3    H1 4697   2.959   4.620  12.865  0.1425 -0.1060  0.2636
  312TMC3    H2 4698   2.571   0.035  12.736 -1.1446 -0.6075 -2.9255
  312TMC3    C7 4699   2.780   0.102  12.894 -0.3590 -0.2290  0.2098
  312TMC3    C8 4700   2.493   4.487  12.767 -0.3208 -0.8858 -0.4444
  312TMC3    O1 4701   2.690   0.181  12.876 -0.0285  0.4321  0.1642
  312TMC3    O2 4702   2.465   4.381  12.715  0.1284 -0.3753  0.2964
  313MPD2     C 4703   2.981   3.778  10.951 -0.0503  0.5657  0.0565
  313MPD2    C1 4704   2.845   3.799  10.917 -0.0619  0.2300 -0.0293
  313MPD2    C2 4705   2.803   3.742  10.802 -0.2169 -0.3388 -0.6927
  313MPD2    C3 4706   2.895   3.661  10.729  0.5840  0.1249 -0.5979
  313MPD2    C4 4707   3.022   3.633  10.768  0.1019 -0.1887 -0.3495
  313MPD2    C5 4708   3.062   3.694  10.879  0.5639 -0.2717  0.0403
  313MPD2     H 4709   2.708   3.763  10.755 -1.0631 -1.3638  0.5760
  313MPD2    H1 4710   3.098   3.587  10.705  0.7033 -0.4406  0.5640
  313MPD2    H2 4711   3.020   3.822  11.042  0.7836 -1.1925  0.5548
  313MPD2    H3 4712   3.166   3.675  10.906  0.4323  1.0487  1.4649
  313MPD2     N 4713   2.845   3.617  10.605 -0.0374 -0.1731  0.0241
  313MPD2    H5 4714   2.754   3.647  10.571  0.1998  2.8351  2.0400
  313MPD2    N1 4715   2.762   3.886  10.988 -0.4210  0.1326  0.2661
  313MPD2    H7 4716   2.680   3.919  10.939 -0.9914 -1.8192 -0.1051
  314TMC3    C1 4717   2.720   4.064  11.140  0.2462  0.4507  0.1858
  314TMC3    C2 4718   2.724   4.116  11.265 -0.1763  0.0823 -0.9418
  314TMC3    C3 4719   2.621   4.202  11.300  0.3515  0.1449 -0.2829
  314TMC3    C4 4720   2.635   4.113  11.040  0.1346 -0.2316 -0.4270
  314TMC3    C5 4721   2.540   4.205  11.078 -0.0348  0.0481  0.2355
  314TMC3    C6 4722   2.533   4.248  11.208  0.4911  0.3058 -0.5582
  314TMC3     C 4723   2.805   3.952  11.105 -0.3151 -0.2070  0.2599
  314TMC3     O 4724   2.900   3.936  11.180  0.2654  0.3569 -0.7703
  314TMC3     H 4725   2.788   4.071  11.340 -0.0077 -0.7232 -1.5683
  314TMC3    H1 4726   2.628   4.065  10.943 -1.1406  0.3669 -0.6352
  314TMC3    H2 4727   2.460   4.326  11.225  0.2399  0.0616 -0.5203
  314TMC3    C7 4728   2.427   4.259  10.991  0.2993  0.1645 -0.9014
  314TMC3    C8 4729   2.678   4.314  11.377 -0.0893  0.0718  0.0591
  314TMC3    O1 4730   2.325   4.297  11.044 -1.2265  0.5227 -0.4191
  314TMC3    O2 4731   2.654   4.425  11.334  0.3184  0.3063  0.6124
  315MPD2     C 4732   2.120   3.629   0.244 -0.4258 -0.3302 -0.6254
  315MPD2    C1 4733   2.231   3.573   0.179 -0.6357  0.6333 -0.1090
  315MPD2    C2 4734   2.237   3.571   0.036 -0.1002  0.5278  0.0872
  315MPD2    C3 4735   2.141   3.639  17.647 -0.1537  0.4870  0.2437
  315MPD2    C4 4736   2.029   3.696   0.028  0.3252 -0.3929 -0.1253
  315MPD2    C5 4737   2.018   3.683   0.166  0.1986 -0.3537 -0.2006
  315MPD2     H 4738   2.319   3.522  17.671  0.4577 -1.8176  3.1372
  315MPD2    H1 4739   1.944   3.745  17.669  0.0746 -1.7392 -1.1228
  315MPD2    H2 4740   2.099   3.622   0.350  0.5834  0.1314 -0.3916
  315MPD2    H3 4741   1.924   3.708   0.214  1.3363  0.8649  1.3767
  315MPD2     N 4742   2.158   3.643  17.509  0.4938  0.0391  0.2449
  315MPD2    H5 4743   2.246   3.607  17.474 -1.1212 -3.5962 -0.0226
  315MPD2    N1 4744   2.335   3.507   0.238 -0.2387  0.3203  0.1843
  315MPD2    H7 4745   2.398   3.461   0.172 -3.2626 -1.1868 -1.6533
  316TMC3    C1 4746   2.125   3.692  17.280 -0.6505 -0.4576 -0.0783
  316TMC3    C2 4747   2.255   3.708  17.250 -0.1935 -0.3180  0.3418
  316TMC3    C3 4748   2.274   3.725  17.120  0.4438 -0.4983  0.2164
  316TMC3    C4 4749   2.023   3.687  17.192 -0.7000 -0.6793  0.3134
  316TMC3    C5 4750   2.061   3.681  17.065  0.2383  0.8094 -0.4664
  316TMC3    C6 4751   2.183   3.706  17.026  1.0776  0.3442 -0.4231
  316TMC3     C 4752   2.082   3.702  17.419 -0.0469 -0.9334 -0.6190
  316TMC3     O 4753   1.985   3.771  17.439 -0.0122 -0.3581  0.2853
  316TMC3     H 4754   2.333   3.729  17.322 -0.5817  1.5681  0.2128
  316TMC3    H1 4755   1.922   3.668  17.227 -0.5502 -0.7567  0.7131
  316TMC3    H2 4756   2.204   3.715  16.920  1.2914  0.5790 -0.3587
  316TMC3    C7 4757   1.954   3.697  16.967 -0.4892 -0.1682  0.2344
  316TMC3    C8 4758   2.402   3.772  17.078  0.0551 -0.0476 -0.2734
  316TMC3    O1 4759   1.850   3.748  17.004 -0.5725  0.6606 -0.0872
  316TMC3    O2 4760   2.401   3.846  16.978 -0.0032 -0.0125  0.0467
  317MPD2     C 4761   4.333   1.676  13.493  0.0508 -0.6255  0.0729
  317MPD2    C1 4762   4.392   1.658  13.370  0.6150 -0.6131  0.7777
  317MPD2    C2 4763   4.503   1.578  13.355  0.0158 -0.2315 -0.3959
  317MPD2    C3 4764   4.545   1.489  13.456 -0.0533  0.0312  0.2161
  317MPD2    C4 4765   4.475   1.493  13.572 -0.0969  0.1167 -0.0686
  317MPD2    C5 4766   4.373   1.582  13.591 -0.5069 -0.9703  0.0273
  317MPD2     H 4767   4.543   1.570  13.255  1.7357  0.6609  0.2356
  317MPD2    H1 4768   4.503   1.421  13.647  1.6519  1.5223  0.6267
  317MPD2    H2 4769   4.242   1.729  13.518  1.2224  2.3254 -2.0230
  317MPD2    H3 4770   4.322   1.588  13.687 -0.6166 -2.2904  0.0505
  317MPD2     N 4771   4.657   1.409  13.429 -0.0194 -0.3634  0.7389
  317MPD2    H5 4772   4.702   1.415  13.338 -1.9474 -0.3874 -0.2262
  317MPD2    N1 4773   4.361   1.738  13.261 -0.2213  0.0950  0.0977
  317MPD2    H7 4774   4.410   1.735  13.172  0.7398  0.3673  0.6139
  318TMC3    C1 4775   0.077   1.223  13.446 -0.7676  0.0340 -0.2326
  318TMC3    C2 4776   0.037   1.195  13.317  0.8401  0.1602  0.5362
  318TMC3    C3 4777   0.130   1.159  13.232  0.5545  0.5064  0.2578
  318TMC3    C4 4778   0.207   1.222  13.488 -0.8342  0.3423  0.1778
  318TMC3    C5 4779   0.298   1.186  13.393  0.2582 -0.3167 -0.5361
  318TMC3    C6 4780   0.261   1.153  13.272 -0.4327  0.3908  0.1681
  318TMC3     C 4781   4.708   1.310  13.515  0.1959  0.5837 -0.4830
  318TMC3     O 4782   4.676   1.286  13.628  0.2879 -0.1123  0.2313
  318TMC3     H 4783   4.655   1.213  13.290  0.7828 -1.4430 -0.3346
  318TMC3    H1 4784   0.234   1.258  13.586 -0.0099 -0.6117  0.2944
  318TMC3    H2 4785   0.330   1.130  13.192  0.7500  4.6440 -0.0047
  318TMC3    C7 4786   0.436   1.236  13.404  0.8512 -0.3156 -0.3648
  318TMC3    C8 4787   0.103   1.098  13.098 -0.0112 -0.1015 -0.3572
  318TMC3    O1 4788   0.446   1.351  13.447  0.9157 -0.4817  0.3466
  318TMC3    O2 4789   0.199   1.074  13.030 -0.5724 -0.7732  0.6616
  319MPD2     C 4790   1.000   2.594  16.768  0.6549  0.3633 -0.0780
  319MPD2    C1 4791   0.970   2.475  16.825 -0.1914  0.7166 -0.4645
  319MPD2    C2 4792   0.898   2.383  16.749 -0.4572  0.4661  0.2442
  319MPD2    C3 4793   0.886   2.385  16.610 -0.1857 -0.2244 -0.1281
  319MPD2    C4 4794   0.933   2.505  16.555  0.1333 -0.5312  0.1623
  319MPD2    C5 4795   0.994   2.600  16.634 -0.5649  0.1477 -0.4515
  319MPD2     H 4796   0.852   2.299  16.799 -0.2684  0.4260  0.3506
  319MPD2    H1 4797   0.916   2.526  16.451  0.9833  1.7885  0.4976
  319MPD2    H2 4798   1.062   2.669  16.816  2.2757  0.4427 -2.2709
  319MPD2    H3 4799   1.028   2.689  16.581 -1.3751  0.2382 -0.8127
  319MPD2     N 4800   0.817   2.286  16.531  0.3975 -0.0018  0.0624
  319MPD2    H5 4801   0.821   2.306  16.431  1.8013 -0.6946 -0.0275
  319MPD2    N1 4802   0.996   2.445  16.964  0.0139  0.2006 -0.1578
  319MPD2    H7 4803   0.966   2.356  17.004 -1.3358  0.5167 -0.4728
  320TMC3    C1 4804   0.708   2.094  16.464  0.4463 -0.1505 -0.0480
  320TMC3    C2 4805   0.671   2.159  16.353  0.2980  0.0202  0.1338
  320TMC3    C3 4806   0.633   2.083  16.247 -0.5673 -0.1105 -0.5566
  320TMC3    C4 4807   0.715   1.959  16.473 -0.4595  0.2361  0.0080
  320TMC3    C5 4808   0.658   1.886  16.374  0.5460  0.4409  0.6083
  320TMC3    C6 4809   0.626   1.944  16.253 -0.3218  0.4566  0.5142
  320TMC3     C 4810   0.749   2.171  16.575  0.1335 -0.2641  0.5656
  320TMC3     O 4811   0.750   2.125  16.688  0.3580 -0.2643 -0.1620
  320TMC3     H 4812   0.667   2.267  16.349 -0.8323 -0.0173  0.0213
  320TMC3    H1 4813   0.737   1.923  16.573 -1.0618 -1.0945 -0.3422
  320TMC3    H2 4814   0.580   1.885  16.175  1.8362 -0.0561 -0.3949
  320TMC3    C7 4815   0.661   1.742  16.373  0.3448 -0.0793 -0.2282
  320TMC3    C8 4816   0.569   2.154  16.142  0.6889 -0.0258 -0.5864
  320TMC3    O1 4817   0.632   1.689  16.266 -0.5117 -0.2802 -0.6677
  320TMC3    O2 4818   0.509   2.254  16.174 -0.3677 -0.1934 -0.1584
  321TMC3    C1 4819   1.077   2.479  17.186 -0.1523 -0.7001  0.2251
  321TMC3    C2 4820   0.972   2.410  17.230 -0.5311 -0.1325  0.1583
  321TMC3    C3 4821   0.955   2.410  17.364  0.8612 -0.5481  0.0820
  321TMC3    C4 4822   1.160   2.550  17.266 -0.0885 -0.3979  0.2795
  321TMC3    C5 4823   1.134   2.556  17.400  0.0092 -0.3322 -0.5814
  321TMC3    C6 4824   1.022   2.494  17.445 -0.0409 -0.1695  0.4654
  321TMC3     C 4825   1.081   2.520  17.039 -0.5380  0.0411  0.4821
  321TMC3     O 4826   1.160   2.609  17.002  0.1872  0.5152  0.0240
  321TMC3     H 4827   0.895   2.348  17.186 -0.6414  0.1287 -0.0126
  321TMC3    H1 4828   1.256   2.581  17.225 -0.6549  0.9372 -0.0381
  321TMC3    H2 4829   1.020   2.480  17.552  1.4398  1.0862  0.6616
  321TMC3    C7 4830   1.245   2.502  17.482 -0.6303  0.8803  0.2529
  321TMC3    C8 4831   0.916   2.286  17.422 -0.5373 -0.2841  0.3591
  321TMC3    O1 4832   1.244   2.381  17.496 -0.3349 -0.1211  0.1318
  321TMC3    O2 4833   0.808   2.232  17.395 -0.4673  0.2974 -0.6879
  322MPD2     C 4834   4.467   3.908  13.686 -0.6868  0.0157  0.2463
  322MPD2    C1 4835   4.486   3.862  13.817  0.5124  0.2725  0.2290
  322MPD2    C2 4836   4.456   3.739  13.861 -0.4339 -0.2849  0.0718
  322MPD2    C3 4837   4.403   3.641  13.774  0.1794  0.2401  0.0954
  322MPD2    C4 4838   4.374   3.680  13.647 -0.4794 -0.7176  0.6703
  322MPD2    C5 4839   4.403   3.815  13.606 -0.2185 -0.3473 -0.4720
  322MPD2     H 4840   4.474   3.711  13.964 -0.5876 -0.7198 -0.0187
  322MPD2    H1 4841   4.337   3.608  13.575  2.4536  1.6428 -3.2413
  322MPD2    H2 4842   4.485   4.009  13.651 -1.6920 -0.0542 -0.4764
  322MPD2    H3 4843   4.379   3.847  13.505  1.5553  1.8555 -0.2192
  322MPD2     N 4844   4.382   3.510  13.825 -0.2407  0.2734 -0.1384
  322MPD2    H5 4845   4.406   3.490  13.922 -1.3118  0.8084  0.2326
  322MPD2    N1 4846   4.548   3.944  13.919 -0.3761 -0.3933 -0.0715
  322MPD2    H7 4847   4.562   3.910  14.014 -0.1493 -2.7628 -0.9448
  323TMC3    C1 4848   4.675   4.111  14.012  0.3533 -0.0313  0.5423
  323TMC3    C2 4849   0.073   4.181  13.997  0.0611 -0.1049  0.4189
  323TMC3    C3 4850   0.105   4.262  14.101 -0.4273 -0.1387  0.6154
  323TMC3    C4 4851   4.600   4.108  14.123 -0.1801  0.3646  0.2037
  323TMC3    C5 4852   4.639   4.178  14.231  0.4850 -0.7670 -0.3541
  323TMC3    C6 4853   0.030   4.263  14.217  0.3475  0.3412 -0.3271
  323TMC3     C 4854   4.613   4.062  13.892  0.4585 -0.7212 -0.5970
  323TMC3     O 4855   4.636   4.119  13.787 -0.1798  0.4522  0.8263
  323TMC3     H 4856   0.120   4.172  13.900 -1.3687 -2.7380 -0.0304
  323TMC3    H1 4857   4.515   4.042  14.132  0.6414 -1.0003 -2.1927
  323TMC3    H2 4858   0.081   4.305  14.302  0.1998 -3.0229  1.4220
  323TMC3    C7 4859   4.622   4.120  14.362 -0.0461 -0.2955 -0.2273
  323TMC3    C8 4860   0.246   4.301  14.117 -0.1811 -0.5672  0.3134
  323TMC3    O1 4861   4.576   4.011  14.347 -0.1806 -0.2347  0.2224
  323TMC3    O2 4862   0.291   4.310  14.231  0.2817  0.2809 -0.1269
  324MPD2     C 4863   1.220   0.691  14.638  0.4160 -0.0910 -0.0108
  324MPD2    C1 4864   1.251   0.562  14.665  0.4514 -0.4199  0.1350
  324MPD2    C2 4865   1.154   0.471  14.708  0.2170 -0.3004  0.3424
  324MPD2    C3 4866   1.023   0.513  14.716  0.5230 -0.0567  0.3681
  324MPD2    C4 4867   0.986   0.640  14.688 -0.3289  0.4492 -0.0694
  324MPD2    C5 4868   1.085   0.729  14.652  0.0967  0.6994  0.3132
  324MPD2     H 4869   1.183   0.367  14.720 -1.6396 -1.0140 -1.2975
  324MPD2    H1 4870   0.888   0.683  14.701  0.0215  0.9310  0.9474
  324MPD2    H2 4871   1.289   0.762  14.594  0.3420  1.4691  2.4040
  324MPD2    H3 4872   1.049   0.830  14.631  0.7897  0.7399 -0.6628
  324MPD2     N 4873   0.929   0.415  14.766 -0.0153  0.4933 -0.0531
  324MPD2    H5 4874   0.965   0.326  14.798 -0.4391  1.8475  4.2692
  324MPD2    N1 4875   1.382   0.516  14.648  0.1955 -0.4843 -0.4179
  324MPD2    H7 4876   1.402   0.418  14.661  1.7160  0.0055  0.9451
  325TMC3    C1 4877   0.738   0.315  14.831 -0.1700  0.1518 -0.4522
  325TMC3    C2 4878   0.757   0.204  14.751  0.2099 -0.4668 -0.7053
  325TMC3    C3 4879   0.642   0.120  14.747  0.2492 -0.6282 -0.8088
  325TMC3    C4 4880   0.634   0.333  14.920  0.7821  1.2125 -0.5493
  325TMC3    C5 4881   0.550   0.228  14.932 -0.2593  1.0410 -0.1239
  325TMC3    C6 4882   0.547   0.124  14.842  0.3840  0.1194 -0.8564
  325TMC3     C 4883   0.802   0.437  14.793 -0.1038  0.4212 -0.0007
  325TMC3     O 4884   0.728   0.534  14.793 -0.3719 -0.8131 -0.1513
  325TMC3     H 4885   0.823   0.199  14.665  0.0118  1.8082 -1.0014
  325TMC3    H1 4886   0.617   0.411  14.994 -0.2072 -0.4790  0.9979
  325TMC3    H2 4887   0.469   0.052  14.865  1.2762  0.2731  2.6526
  325TMC3    C7 4888   0.419   0.270  14.934 -0.6910 -0.3634  0.2295
  325TMC3    C8 4889   0.597   0.087  14.608 -0.6187 -0.2334  0.2694
  325TMC3    O1 4890   0.344   0.227  15.021 -0.4340 -0.1520 -0.2613
  325TMC3    O2 4891   0.651   0.154  14.522 -0.3165 -0.6287 -0.4308
  326MPD2     C 4892   2.549   1.476  11.175 -0.1080  0.1306 -0.2501
  326MPD2    C1 4893   2.639   1.487  11.071  0.3205 -0.0608 -0.0442
  326MPD2    C2 4894   2.775   1.521  11.087 -0.2395  0.0881 -0.0098
  326MPD2    C3 4895   2.824   1.520  11.215 -0.7600 -0.1923  0.6378
  326MPD2    C4 4896   2.736   1.501  11.322 -0.8947 -0.8743  0.6693
  326MPD2    C5 4897   2.597   1.478  11.303  0.5378  0.9958  0.2508
  326MPD2     H 4898   2.843   1.535  11.003  1.2360 -0.4409  1.0967
  326MPD2    H1 4899   2.779   1.489  11.421  0.1336 -0.4026  0.2833
  326MPD2    H2 4900   2.441   1.473  11.161 -0.2051  1.3343  0.2694
  326MPD2    H3 4901   2.531   1.478  11.389  3.0901 -0.2341  2.2030
  326MPD2     N 4902   2.957   1.538  11.249  0.0450 -0.0183  0.1829
  326MPD2    H5 4903   2.974   1.541  11.349  1.6983  4.1892 -0.2248
  326MPD2    N1 4904   2.581   1.480  10.939  0.3899  0.0132  0.7139
  326MPD2    H7 4905   2.480   1.488  10.936  0.3193 -1.2070 -0.2441
  327TMC3    C1 4906   2.598   1.559  10.715 -0.1281 -0.1715  0.0341
  327TMC3    C2 4907   2.536   1.674  10.764 -0.5122 -0.2773  0.6546
  327TMC3    C3 4908   2.594   1.793  10.733  0.0088 -0.7775  0.3242
  327TMC3    C4 4909   2.701   1.563  10.623 -0.1963 -0.3468 -0.6242
  327TMC3    C5 4910   2.756   1.686  10.594 -0.0048  0.1201  0.0391
  327TMC3    C6 4911   2.703   1.805  10.647 -0.3714  0.5420  0.8436
  327TMC3     C 4912   2.655   1.485  10.823 -0.4294 -0.4334  0.1247
  327TMC3     O 4913   2.771   1.446  10.807 -0.5247 -0.6333 -0.0341
  327TMC3     H 4914   2.464   1.668  10.844 -1.4365 -0.0589 -0.1632
  327TMC3    H1 4915   2.737   1.467  10.587 -1.0694 -1.2486  0.9339
  327TMC3    H2 4916   2.744   1.904  10.626  3.8156 -0.9395  2.1110
  327TMC3    C7 4917   2.898   1.684  10.565 -0.1275  0.0998  1.2158
  327TMC3    C8 4918   2.494   1.900  10.710 -0.4578 -0.2261 -0.2908
  327TMC3    O1 4919   2.938   1.778  10.499  0.2206 -0.1970 -0.1662
  327TMC3    O2 4920   2.486   1.932  10.594  0.7179  0.7899  0.0162
  328MPD2     C 4921   0.568   1.260  17.252 -0.2092 -0.9273  0.1287
  328MPD2    C1 4922   0.460   1.202  17.204 -0.3562  0.2029 -0.3467
  328MPD2    C2 4923   0.384   1.287  17.124  0.7069  0.6372  0.0030
  328MPD2    C3 4924   0.423   1.415  17.084 -0.0174 -0.0083 -0.7120
  328MPD2    C4 4925   0.532   1.475  17.142  0.2980 -0.5771  0.1010
  328MPD2    C5 4926   0.609   1.385  17.220  0.4894  0.1192  0.8537
  328MPD2     H 4927   0.294   1.241  17.084 -0.1793  0.4395  2.2118
  328MPD2    H1 4928   0.571   1.574  17.118 -0.9445  0.2121  1.3088
  328MPD2    H2 4929   0.646   1.217  17.315 -1.0826 -1.7098  0.6800
  328MPD2    H3 4930   0.705   1.421  17.256  1.1236 -0.5496 -0.1458
  328MPD2     N 4931   0.341   1.506  17.003  0.4772  0.2893 -0.2692
  328MPD2    H5 4932   0.377   1.601  16.998 -0.3302  0.5917 -0.2711
  328MPD2    N1 4933   0.419   1.074  17.251  0.5036 -0.0081  0.5991
  328MPD2    H7 4934   0.478   1.043  17.327 -0.9032 -1.7654  0.9561
  329TMC3    C1 4935   0.283   0.878  17.258 -0.8618  0.9589 -0.2921
  329TMC3    C2 4936   0.182   0.808  17.207  0.1879 -0.2325  0.5580
  329TMC3    C3 4937   0.136   0.695  17.270 -0.7301 -1.0709 -0.1974
  329TMC3    C4 4938   0.348   0.831  17.366  0.7850  0.4063 -0.8079
  329TMC3    C5 4939   0.288   0.736  17.443 -0.2888 -0.0246  0.4100
  329TMC3    C6 4940   0.188   0.660  17.394  0.4112 -0.4961 -0.2064
  329TMC3     C 4941   0.324   1.001  17.189  0.0997  0.2787 -0.6366
  329TMC3     O 4942   0.273   1.029  17.083  0.1531 -0.2351 -0.1048
  329TMC3     H 4943   0.129   0.838  17.117  0.5176 -1.1002  0.0677
  329TMC3    H1 4944   0.434   0.886  17.404 -1.3294  2.2130  1.3871
  329TMC3    H2 4945   0.135   0.586  17.452 -1.2671  1.8661  1.2878
  329TMC3    C7 4946   0.342   0.691  17.568  0.0563 -0.1116  0.4870
  329TMC3    C8 4947   4.720   0.683  17.258 -0.1042  0.3218  0.1668
  329TMC3    O1 4948   0.311   0.575  17.598  0.3871 -0.4435 -0.1695
  329TMC3    O2 4949   4.681   0.652  17.142 -0.0075 -0.0137  0.5081
  330TMC3    C1 4950   2.661   1.533   9.573  0.2608  0.2811 -0.1850
  330TMC3    C2 4951   2.593   1.436   9.504  0.1109  0.5879  0.2740
  330TMC3    C3 4952   2.605   1.301   9.547  0.5888  0.3550 -0.1795
  330TMC3    C4 4953   2.748   1.497   9.673 -0.0766 -0.2027 -0.4187
  330TMC3    C5 4954   2.764   1.366   9.704 -0.1694  0.0110 -0.3110
  330TMC3    C6 4955   2.692   1.263   9.643  0.0449  0.4003 -0.0441
  330TMC3     C 4956   2.644   1.676   9.536 -0.2385  0.1868  0.7155
  330TMC3     O 4957   2.724   1.761   9.569 -0.5182 -0.2258  0.2113
  330TMC3     H 4958   2.541   1.456   9.411 -1.3927  1.5970  1.3429
  330TMC3    H1 4959   2.809   1.574   9.718 -0.5227 -0.2986  0.3562
  330TMC3    H2 4960   2.702   1.165   9.688  0.2002  0.7352  0.6446
  330TMC3    C7 4961   2.858   1.337   9.809 -0.5873 -0.0650 -0.8728
  330TMC3    C8 4962   2.498   1.218   9.504 -0.3488 -0.3280  0.0782
  330TMC3    O1 4963   2.894   1.434   9.874  0.4232 -0.1484 -0.2103
  330TMC3    O2 4964   2.441   1.243   9.400  0.2679 -0.1466 -0.6322
  331MPD2     C 4965   0.504   4.264  12.843 -0.7813 -0.1847 -0.1290
  331MPD2    C1 4966   0.633   4.279  12.795  0.4960 -0.3388 -0.1754
  331MPD2    C2 4967   0.690   4.194  12.705  0.0899  0.8768  0.4920
  331MPD2    C3 4968   0.619   4.087  12.663  0.2540  0.0812  0.1911
  331MPD2    C4 4969   0.497   4.060  12.720  0.0060 -0.0393  0.8313
  331MPD2    C5 4970   0.434   4.152  12.805  0.0008 -0.8472  0.6135
  331MPD2     H 4971   0.787   4.212  12.661 -0.5729  0.6175 -1.0574
  331MPD2    H1 4972   0.432   3.974  12.709  2.4689 -1.4748 -2.4764
  331MPD2    H2 4973   0.459   4.339  12.906 -0.9411  0.4619 -1.0120
  331MPD2    H3 4974   0.328   4.147  12.827 -0.0825 -0.0233  0.3960
  331MPD2     N 4975   0.676   3.993  12.571 -0.5078  0.1348  0.0844
  331MPD2    H5 4976   0.634   3.900  12.576 -1.5321  0.4770 -2.1339
  331MPD2    N1 4977   0.703   4.393  12.837 -0.3067  0.3786 -0.5041
  331MPD2    H7 4978   0.651   4.470  12.879  1.3826  1.2180  0.0526
  332TMC3    C1 4979   0.858   3.893  12.468  0.0045  0.1502 -0.8790
  332TMC3    C2 4980   0.948   3.906  12.367 -0.2840 -0.4833  0.1925
  332TMC3    C3 4981   1.078   3.866  12.399  0.0797 -0.4201  0.1990
  332TMC3    C4 4982   0.881   3.828  12.590 -1.1888  0.2394 -0.7283
  332TMC3    C5 4983   1.004   3.793  12.615 -0.2287  0.0985 -0.1248
  332TMC3    C6 4984   1.105   3.809  12.517  0.1075 -0.5539  0.7676
  332TMC3     C 4985   0.776   4.010  12.479  0.5057  0.6003  0.3308
  332TMC3     O 4986   0.820   4.109  12.428  0.2500  0.2887  0.4545
  332TMC3     H 4987   0.930   3.956  12.273 -0.7759 -0.4600  0.2977
  332TMC3    H1 4988   0.811   3.814  12.672  0.5165  0.9043  0.8344
  332TMC3    H2 4989   1.204   3.771  12.539  1.1566  0.1817 -2.7767
  332TMC3    C7 4990   1.036   3.748  12.747  1.0211  0.3674  0.2780
  332TMC3    C8 4991   1.201   3.912  12.324  0.5794 -0.3173  0.8499
  332TMC3    O1 4992   0.951   3.692  12.810 -0.1012  0.0311  0.1885
  332TMC3    O2 4993   1.307   3.872  12.371 -0.6959  0.0131  0.3932
  333MPD2     C 4994   0.996   4.615  11.286 -0.7125  0.7095 -0.7407
  333MPD2    C1 4995   1.024   4.530  11.186  0.8227  0.2473 -0.4254
  333MPD2    C2 4996   0.980   4.400  11.191  0.0948 -0.2799  0.5048
  333MPD2    C3 4997   0.919   4.353  11.308 -0.2186  0.3620  0.1934
  333MPD2    C4 4998   0.884   4.439  11.409  0.1109 -0.3901  0.1580
  333MPD2    C5 4999   0.919   4.578  11.397 -0.0459  0.0894  0.2792
  333MPD2     H 5000   1.026   4.328  11.125 -1.3748 -2.4760  1.8904
  333MPD2    H1 5001   0.824   4.406  11.494  1.3955 -1.3147  0.7079
  333MPD2    H2 5002   1.040   4.713  11.279  0.4567  0.2336 -0.0232
  333MPD2    H3 5003   0.897   4.650  11.475  2.2795  0.1138  0.9066
  333MPD2     N 5004   0.925   4.208  11.317  0.3115 -0.0421 -0.5466
  333MPD2    H5 5005   0.950   4.159  11.231  0.6936 -0.5864 -0.1234
  333MPD2    N1 5006   1.107   4.576  11.083  0.0315  0.6064 -0.3155
  333MPD2    H7 5007   1.159   4.661  11.101  0.6773 -0.1042  1.1649
  334TMC3    C1 5008   1.240   4.570  10.895 -0.4205  0.5628 -0.3708
  334TMC3    C2 5009   1.356   4.585  10.964 -0.3635 -0.4095  0.0237
  334TMC3    C3 5010   1.469   4.618  10.891 -0.0755 -0.2330  0.1039
  334TMC3    C4 5011   1.225   4.588  10.758  0.1482 -0.1997  0.0980
  334TMC3    C5 5012   1.343   4.633  10.696  0.6571 -0.5486 -0.4783
  334TMC3    C6 5013   1.461   4.659  10.757  0.9207 -1.2984  0.0548
  334TMC3     C 5014   1.125   4.513  10.961 -0.5621 -0.3004  0.5890
  334TMC3     O 5015   1.051   4.436  10.900  0.5028 -0.0434 -0.0613
  334TMC3     H 5016   1.353   4.585  11.072 -0.7837 -0.2050  0.0106
  334TMC3    H1 5017   1.135   4.573  10.700 -0.3581 -2.3658  1.4454
  334TMC3    H2 5018   1.548   4.687  10.698 -0.6428  0.1322 -1.5587
  334TMC3    C7 5019   1.331   4.689  10.568 -0.5756  0.3741  0.2200
  334TMC3    C8 5020   1.590   4.659  10.963  0.3021 -0.2067 -0.6462
  334TMC3    O1 5021   1.386   0.070  10.536 -1.1472 -0.0683 -0.4449
  334TMC3    O2 5022   1.590   4.668  11.084  0.4996  0.8045 -0.1160
  335TMC3    C1 5023   0.986   1.078  17.563  0.7150 -0.0699  0.4336
  335TMC3    C2 5024   0.914   0.993  17.488  0.0209  0.1857  0.2681
  335TMC3    C3 5025   0.990   0.899  17.411  1.0841  0.7450 -0.6252
  335TMC3    C4 5026   1.128   1.077  17.564 -0.3552  0.1267 -0.5721
  335TMC3    C5 5027   1.191   0.972  17.506  0.1869 -1.1779 -0.3661
  335TMC3    C6 5028   1.126   0.878  17.434 -0.0262 -0.4162  0.3298
  335TMC3     C 5029   0.906   1.172  17.640 -0.5561 -0.2663 -0.5738
  335TMC3     O 5030   0.785   1.149  17.645 -0.1249  0.1978 -0.4708
  335TMC3     H 5031   0.806   0.999  17.490 -0.0110  0.7969 -2.5922
  335TMC3    H1 5032   1.184   1.152  17.619 -3.4601  2.3084 -0.3357
  335TMC3    H2 5033   1.175   0.796  17.382  1.0415  2.5148 -3.2980
  335TMC3    C7 5034   1.341   0.949  17.520  0.1254  0.3264 -0.3056
  335TMC3    C8 5035   0.904   0.789  17.361 -0.3681  0.5488  0.0299
  335TMC3    O1 5036   1.379   0.838  17.481  0.5950 -0.3635 -0.0984
  335TMC3    O2 5037   0.933   0.670  17.379 -0.0663  0.5593  0.1740
  336MPD2     C 5038   0.530   3.468  16.498  0.8831 -0.4543 -0.3562
  336MPD2    C1 5039   0.534   3.416  16.369  0.9439  0.2029  0.1796
  336MPD2    C2 5040   0.550   3.274  16.363 -0.0920 -0.3245 -0.2575
  336MPD2    C3 5041   0.541   3.197  16.479  0.1285 -0.5360 -0.6647
  336MPD2    C4 5042   0.532   3.256  16.601 -0.4466 -0.7257 -0.3878
  336MPD2    C5 5043   0.532   3.389  16.608 -0.1376 -0.0588  0.0956
  336MPD2     H 5044   0.567   3.231  16.265 -0.7594 -1.5101  0.1415
  336MPD2    H1 5045   0.539   3.203  16.695 -1.1684  0.2046  0.2015
  336MPD2    H2 5046   0.518   3.576  16.502  2.2459 -0.3228  0.2243
  336MPD2    H3 5047   0.535   3.439  16.703  1.3952  0.3439 -0.1754
  336MPD2     N 5048   0.538   3.057  16.479 -0.6611 -0.1334 -0.3709
  336MPD2    H5 5049   0.527   3.008  16.567  0.7878  2.1931  1.1320
  336MPD2    N1 5050   0.531   3.496  16.252 -0.2363 -0.0236 -0.6277
  336MPD2    H7 5051   0.544   3.445  16.165 -2.3678 -0.5577 -0.6147
  337TMC3    C1 5052   0.462   3.681  16.106 -0.0555 -0.1451  0.4606
  337TMC3    C2 5053   0.370   3.782  16.109 -0.5855  0.6489 -0.3633
  337TMC3    C3 5054   0.298   3.796  15.987  0.0004  0.1698 -0.7042
  337TMC3    C4 5055   0.504   3.612  15.992 -0.4979  0.6551 -0.0223
  337TMC3    C5 5056   0.435   3.635  15.876  0.5008 -0.5842  0.2520
  337TMC3    C6 5057   0.334   3.726  15.872 -0.1835  0.2934  0.0731
  337TMC3     C 5058   0.497   3.630  16.243 -0.0659 -0.0170 -0.3488
  337TMC3     O 5059   0.462   3.704  16.336  0.4611  0.6216 -0.0395
  337TMC3     H 5060   0.336   3.838  16.196 -0.2482  1.3428 -0.6777
  337TMC3    H1 5061   0.591   3.548  15.992 -1.1982 -0.2990 -0.7821
  337TMC3    H2 5062   0.294   3.756  15.775  0.0807  0.2185 -0.0607
  337TMC3    C7 5063   0.451   3.557  15.753 -0.1275 -0.1911  0.6352
  337TMC3    C8 5064   0.160   3.853  15.998  0.3823  0.0048  0.3535
  337TMC3    O1 5065   0.365   3.566  15.665  0.8482  0.2325 -0.2714
  337TMC3    O2 5066   0.130   3.927  16.091  0.0801 -0.0088 -0.0479
  338MPD2     C 5067   1.385   2.792   1.076 -0.4305 -0.6905  0.1970
  338MPD2    C1 5068   1.300   2.848   0.981  0.9462 -0.0180 -0.2214
  338MPD2    C2 5069   1.273   2.985   0.993  0.3808  0.2406  0.0760
  338MPD2    C3 5070   1.334   3.063   1.090 -0.6847  0.0829  0.2098
  338MPD2    C4 5071   1.419   2.998   1.185 -0.0908 -0.4042 -0.3224
  338MPD2    C5 5072   1.441   2.864   1.180  0.2227  0.1001  0.4923
  338MPD2     H 5073   1.201   3.024   0.922  1.1100  0.3095 -0.6294
  338MPD2    H1 5074   1.457   3.056   1.268 -1.8720 -1.1686  1.0542
  338MPD2    H2 5075   1.423   2.690   1.072 -0.3566 -0.7320  2.3149
  338MPD2    H3 5076   1.512   2.813   1.244  1.1147  2.2183  1.2098
  338MPD2     N 5077   1.301   3.202   1.093  0.0416  0.2991  0.0410
  338MPD2    H5 5078   1.231   3.231   1.026  0.9235  1.4495 -0.3720
  338MPD2    N1 5079   1.239   2.771   0.883  0.0099 -0.5620  0.3235
  338MPD2    H7 5080   1.166   2.822   0.833 -0.8366 -1.6690  0.4458
  339TMC3    C1 5081   1.276   3.409   1.173 -0.3298 -0.4786  0.0112
  339TMC3    C2 5082   1.228   3.445   1.288 -0.1804 -0.3403  0.0962
  339TMC3    C3 5083   1.103   3.492   1.299  0.1292  0.8464 -0.4640
  339TMC3    C4 5084   1.204   3.426   1.066  0.1151  0.1880 -0.0616
  339TMC3    C5 5085   1.086   3.485   1.069 -0.3945  0.0267  0.0839
  339TMC3    C6 5086   1.021   3.505   1.185  0.4059  0.4619 -0.4800
  339TMC3     C 5087   1.348   3.291   1.186 -0.2547  0.5440  0.2247
  339TMC3     O 5088   1.430   3.281   1.276 -0.3246 -0.2533 -0.3608
  339TMC3     H 5089   1.290   3.449   1.377  1.8907 -1.0206 -1.3182
  339TMC3    H1 5090   1.250   3.395   0.974 -1.8487 -0.3029 -0.8861
  339TMC3    H2 5091   0.922   3.549   1.188 -0.3087 -1.2099  0.9179
  339TMC3    C7 5092   1.001   3.455   0.959  0.7442 -0.1413 -0.0774
  339TMC3    C8 5093   1.055   3.543   1.425 -0.3909 -0.4199  0.5798
  339TMC3    O1 5094   0.998   3.342   0.913 -0.0839  0.8006  0.4581
  339TMC3    O2 5095   1.136   3.566   1.514  0.1923  0.2383 -1.1910
  340MPD2     C 5096   0.218   0.371   9.215  0.1632 -0.3724  0.6550
  340MPD2    C1 5097   0.347   0.359   9.262  0.2427 -0.0241 -0.1716
  340MPD2    C2 5098   0.436   0.465   9.249 -0.2136  0.0715  0.6734
  340MPD2    C3 5099   0.386   0.585   9.193 -0.3101  0.2741 -0.1311
  340MPD2    C4 5100   0.264   0.592   9.132 -0.1040  0.5652  0.0800
  340MPD2    C5 5101   0.180   0.481   9.152 -0.0554  0.4609  0.6044
  340MPD2     H 5102   0.539   0.455   9.282  0.5691  1.6042 -1.2781
  340MPD2    H1 5103   0.228   0.682   9.083 -0.7605 -0.3697 -1.1445
  340MPD2    H2 5104   0.151   0.286   9.226  1.1055 -0.9122  2.3207
  340MPD2    H3 5105   0.081   0.485   9.108  1.0526  1.6148 -1.8122
  340MPD2     N 5106   0.459   0.708   9.190  0.1116 -0.5120  0.2518
  340MPD2    H5 5107   0.407   0.787   9.152  1.4240  0.1079 -0.2309
  340MPD2    N1 5108   0.391   0.229   9.311  0.4244 -0.1559 -0.7950
  340MPD2    H7 5109   0.330   0.147   9.314  1.0326 -0.5966 -0.5014
  341TMC3    C1 5110   0.534   0.079   9.418  0.5506  0.1033 -0.5383
  341TMC3    C2 5111   0.426   4.714   9.437  0.3380 -0.7557 -0.0959
  341TMC3    C3 5112   0.460   4.582   9.463  0.3891 -0.6129  0.3524
  341TMC3    C4 5113   0.666   0.047   9.442  0.1147  0.5967 -0.3357
  341TMC3    C5 5114   0.695   4.633   9.467 -0.3386  0.2857 -0.3286
  341TMC3    C6 5115   0.592   4.539   9.469 -0.4266  0.5186 -0.1837
  341TMC3     C 5116   0.513   0.211   9.370 -0.2356  0.4292 -0.1167
  341TMC3     O 5117   0.619   0.273   9.354  0.4840  0.1809 -0.0228
  341TMC3     H 5118   0.322   0.022   9.424  0.4386  0.0575  0.9071
  341TMC3    H1 5119   0.746   0.120   9.446  1.0565 -0.5558  2.1199
  341TMC3    H2 5120   0.619   4.439   9.501  0.3787  0.8236  0.1022
  341TMC3    C7 5121   0.836   4.596   9.447  0.2801  0.3933 -0.6251
  341TMC3    C8 5122   0.359   4.472   9.472 -0.1313 -0.0105  0.2156
  341TMC3    O1 5123   0.912   4.683   9.484  0.2428  0.0251  0.7282
  341TMC3    O2 5124   0.409   4.361   9.493 -0.3402  0.4128 -0.0173
  342MPD2     C 5125   3.470   4.235  17.440 -0.4013 -0.3865  0.5098
  342MPD2    C1 5126   3.596   4.219  17.395 -0.9947 -0.1120 -0.4395
  342MPD2    C2 5127   3.692   4.317  17.412 -0.1031 -0.8175  0.7336
  342MPD2    C3 5128   3.655   4.434  17.477  0.4448 -0.8099 -0.0593
  342MPD2    C4 5129   3.528   4.454  17.514 -0.3780 -0.6905  0.2850
  342MPD2    C5 5130   3.438   4.355  17.499  0.0245  0.2904 -0.5159
  342MPD2     H 5131   3.791   4.293  17.375 -0.9453  0.8233 -2.5085
  342MPD2    H1 5132   3.499   4.538  17.575 -0.2141 -0.5395  0.1523
  342MPD2    H2 5133   3.392   4.160  17.433  0.2400 -0.9576 -0.4448
  342MPD2    H3 5134   3.340   4.379  17.539  0.5006 -0.0058  0.8229
  342MPD2     N 5135   3.751   4.532  17.514  0.5171  0.1150 -0.1507
  342MPD2    H5 5136   3.714   4.608  17.570 -0.8731  1.3623 -2.7318
  342MPD2    N1 5137   3.633   4.098  17.333  0.4377 -0.1542 -0.1653
  342MPD2    H7 5138   3.728   4.094  17.298 -0.0798  0.7224 -1.6435
  343TMC3    C1 5139   3.635   3.862  17.266  0.2723  0.0698  1.0244
  343TMC3    C2 5140   3.746   3.884  17.193 -0.4633  0.0730  0.2195
  343TMC3    C3 5141   3.805   3.780  17.119 -0.0813 -0.7247 -0.4634
  343TMC3    C4 5142   3.567   3.747  17.258  0.6041  0.5970  0.2573
  343TMC3    C5 5143   3.611   3.651  17.171  0.0398 -0.3920  0.1115
  343TMC3    C6 5144   3.736   3.654  17.109 -0.4356 -0.0589 -0.5829
  343TMC3     C 5145   3.566   3.980  17.329 -1.0299 -0.2590 -0.8672
  343TMC3     O 5146   3.460   3.947  17.382 -0.0968 -0.4964 -0.2305
  343TMC3     H 5147   3.803   3.976  17.189  1.2652 -1.0837 -1.8366
  343TMC3    H1 5148   3.468   3.733  17.299  0.2323 -1.3732 -1.2990
  343TMC3    H2 5149   3.785   3.568  17.064  0.8062  0.0020  0.6464
  343TMC3    C7 5150   3.549   3.520  17.185 -0.3505  0.1129 -0.0093
  343TMC3    C8 5151   3.932   3.802  17.058  0.0122 -0.4115 -0.0490
  343TMC3    O1 5152   3.426   3.516  17.172 -0.4098  1.1412 -0.2300
  343TMC3    O2 5153   3.999   3.902  17.080  0.6435 -0.0617 -0.0404
  344MPD2     C 5154   4.431   3.798  10.586  0.7074  0.6008 -0.9810
  344MPD2    C1 5155   4.376   3.723  10.481 -0.1708 -0.5564  0.5166
  344MPD2    C2 5156   4.437   3.744  10.357 -0.1762 -0.0633  0.8456
  344MPD2    C3 5157   4.526   3.848  10.339  0.4807 -0.3138 -0.4370
  344MPD2    C4 5158   4.577   3.920  10.446  0.1837 -0.2260  1.2301
  344MPD2    C5 5159   4.537   3.888  10.569 -0.8496  0.3059 -0.3217
  344MPD2     H 5160   4.399   3.694  10.268 -0.2235 -0.1268  0.9013
  344MPD2    H1 5161   4.657   3.991  10.427 -0.4988 -0.4474 -2.5672
  344MPD2    H2 5162   4.401   3.790  10.690  2.8534 -2.3467 -0.5869
  344MPD2    H3 5163   4.571   3.944  10.655  0.7856 -0.6693 -0.3478
  344MPD2     N 5164   4.571   3.893  10.214  0.1890  0.5388  0.4214
  344MPD2    H5 5165   4.649   3.957  10.211 -1.6914  2.7138 -1.8243
  344MPD2    N1 5166   4.283   3.617  10.492 -0.2236  0.6624  0.1702
  344MPD2    H7 5167   4.297   3.548  10.419  0.2806 -0.2134  1.1015
  345TMC3    C1 5168   4.602   3.898   9.985  0.9262 -0.0520 -0.4150
  345TMC3    C2 5169   0.010   3.906  10.031  0.0396 -0.1778 -0.2442
  345TMC3    C3 5170   0.087   4.008   9.974  0.3260 -0.4540 -0.0388
  345TMC3    C4 5171   4.550   3.976   9.887  0.0610  0.2663 -0.0399
  345TMC3    C5 5172   4.631   4.073   9.822 -0.6528  0.6002 -0.9077
  345TMC3    C6 5173   0.040   4.077   9.865 -0.9482  0.1187 -0.9901
  345TMC3     C 5174   4.509   3.858  10.093 -0.0215 -0.1176 -0.2179
  345TMC3     O 5175   4.406   3.799  10.065 -0.2740 -0.6325  0.4145
  345TMC3     H 5176   0.054   3.832  10.096 -1.5057  0.6554  1.7390
  345TMC3    H1 5177   4.443   3.973   9.869 -0.2588  1.0747  1.7157
  345TMC3    H2 5178   0.097   4.156   9.818  0.4947 -0.1171  0.3405
  345TMC3    C7 5179   4.584   4.196   9.760  0.1053  0.0005 -0.6163
  345TMC3    C8 5180   0.156   4.076  10.079 -0.8950 -0.2065 -0.1609
  345TMC3    O1 5181   4.644   4.300   9.782  0.1903  0.3431 -0.6315
  345TMC3    O2 5182   0.098   4.066  10.183 -0.1598  0.2252  0.2417
  346MPD2     C 5183   0.767   0.620  13.605  0.2088  0.5062 -0.6509
  346MPD2    C1 5184   0.642   0.574  13.563 -0.2553 -0.3296 -0.0555
  346MPD2    C2 5185   0.558   0.519  13.658  0.4112 -0.6368 -0.5291
  346MPD2    C3 5186   0.584   0.526  13.794  0.3119 -0.2437 -0.8016
  346MPD2    C4 5187   0.709   0.571  13.833  0.2133  0.3088 -0.2707
  346MPD2    C5 5188   0.801   0.611  13.743 -0.3233 -0.5957  0.3264
  346MPD2     H 5189   0.463   0.486  13.617  0.1823 -2.8132  1.7482
  346MPD2    H1 5190   0.739   0.560  13.936 -1.5542 -0.5893  0.1515
  346MPD2    H2 5191   0.849   0.657  13.543 -0.1845 -0.8263 -1.9443
  346MPD2    H3 5192   0.898   0.646  13.779  0.4113 -0.6737 -1.5688
  346MPD2     N 5193   0.488   0.495  13.894 -0.5917  0.2044  0.8024
  346MPD2    H5 5194   0.527   0.498  13.988  1.6614 -3.0987 -0.0330
  346MPD2    N1 5195   0.602   0.587  13.427 -0.3743  0.3032  0.0670
  346MPD2    H7 5196   0.519   0.539  13.394 -0.3058 -1.2107  2.0825
  347TMC3    C1 5197   0.272   0.500  13.986  0.0137  0.4804  0.0112
  347TMC3    C2 5198   0.310   0.424  14.098  0.2238  0.7164 -1.0044
  347TMC3    C3 5199   0.216   0.428  14.200 -0.0344 -0.1046  0.5448
  347TMC3    C4 5200   0.153   0.568  13.969  0.1082  0.6635  0.3791
  347TMC3    C5 5201   0.066   0.560  14.071 -0.1388  0.6040 -0.5912
  347TMC3    C6 5202   0.108   0.507  14.193 -0.2873  0.0331 -0.4156
  347TMC3     C 5203   0.356   0.497  13.868  0.1486 -0.4095  0.0375
  347TMC3     O 5204   0.298   0.510  13.760 -0.0884  0.2284  0.2796
  347TMC3     H 5205   0.405   0.373  14.101 -1.6826 -2.7258  0.2463
  347TMC3    H1 5206   0.131   0.618  13.876 -1.3344 -1.6537 -0.5220
  347TMC3    H2 5207   0.054   0.522  14.286  0.4749 -0.9151  0.1899
  347TMC3    C7 5208   4.657   0.632  14.081 -0.2719  0.3919 -0.1377
  347TMC3    C8 5209   0.265   0.395  14.333 -0.3241 -0.3055 -0.2204
  347TMC3    O1 5210   4.640   0.691  14.188 -0.3793 -0.6247 -0.0078
  347TMC3    O2 5211   0.385   0.411  14.344  0.4160 -0.2420 -0.1560
  348MPD2     C 5212   3.619   0.109  12.354  0.0423  1.2922  0.2370
  348MPD2    C1 5213   3.487   0.109  12.315 -0.6999 -0.3187 -0.2095
  348MPD2    C2 5214   3.454   0.189  12.203 -0.2797 -0.0009 -1.3741
  348MPD2    C3 5215   3.556   0.262  12.148 -0.0795 -0.2031 -0.0873
  348MPD2    C4 5216   3.684   0.273  12.204 -0.1652 -0.5578  0.0928
  348MPD2    C5 5217   3.719   0.191  12.305  0.4420  0.0035  0.5005
  348MPD2     H 5218   3.352   0.196  12.165 -0.0270  3.7250 -1.3715
  348MPD2    H1 5219   3.761   0.343  12.174 -0.3021 -1.3585 -2.1289
  348MPD2    H2 5220   3.660   0.052  12.436  0.6616  0.0652 -0.9493
  348MPD2    H3 5221   3.818   0.187  12.350  1.2185 -1.3062 -1.2884
  348MPD2     N 5222   3.515   0.335  12.035  0.0174  0.0773  0.1570
  348MPD2    H5 5223   3.415   0.343  12.020 -0.0340  0.2164  0.5758
  348MPD2    N1 5224   3.391   0.024  12.377 -0.4995 -0.3464 -0.1348
  348MPD2    H7 5225   3.308   0.005  12.322 -0.9471  3.4492 -0.7580
  349TMC3    C1 5226   3.303   4.566  12.493  0.5362 -0.2265 -0.2683
  349TMC3    C2 5227   3.333   4.432  12.471 -0.2402  0.0177  0.2778
  349TMC3    C3 5228   3.241   4.352  12.418 -0.5373  0.5994 -0.8059
  349TMC3    C4 5229   3.176   4.616  12.466  0.3097 -0.3108 -0.0800
  349TMC3    C5 5230   3.084   4.531  12.429 -1.0141  0.2917  0.1259
  349TMC3    C6 5231   3.112   4.395  12.394  0.6319 -0.3081  0.4599
  349TMC3     C 5232   3.414   4.657  12.482  0.4223 -0.3846 -0.2567
  349TMC3     O 5233   3.510   4.639  12.558 -0.2334 -0.2185 -0.2932
  349TMC3     H 5234   3.436   4.398  12.477 -0.3470  0.0847  2.6196
  349TMC3    H1 5235   3.162   0.002  12.473 -0.4203 -0.5316  1.9391
  349TMC3    H2 5236   3.034   4.329  12.357  0.4869  0.0872  0.0576
  349TMC3    C7 5237   2.952   4.578  12.411  0.1207 -0.0882  0.3532
  349TMC3    C8 5238   3.260   4.209  12.427  0.0240  0.0368  1.0673
  349TMC3    O1 5239   2.870   4.507  12.350  0.3894 -0.5300  0.0831
  349TMC3    O2 5240   3.173   4.142  12.374 -0.4470 -0.0719  0.5887
  350MPD2     C 5241   2.021   3.436  10.259 -0.4328 -0.3048  0.4090
  350MPD2    C1 5242   2.095   3.320  10.246 -0.1359  0.6097  0.2005
  350MPD2    C2 5243   2.235   3.330  10.244 -0.2272  0.1073 -0.4330
  350MPD2    C3 5244   2.297   3.452  10.265  0.0995 -0.0438  0.0438
  350MPD2    C4 5245   2.223   3.567  10.280  0.7133 -0.0022  0.0545
  350MPD2    C5 5246   2.080   3.555  10.276 -0.5283 -0.2566 -0.3648
  350MPD2     H 5247   2.296   3.242  10.231  1.0363  0.9869 -0.5165
  350MPD2    H1 5248   2.268   3.664  10.299  1.6853 -0.2302 -1.0653
  350MPD2    H2 5249   1.914   3.446  10.245 -0.2644  1.5835  0.4616
  350MPD2    H3 5250   2.010   3.638  10.276 -0.4773 -0.2132 -0.1081
  350MPD2     N 5251   2.436   3.446  10.267 -0.0752 -0.4217  0.1196
  350MPD2    H5 5252   2.485   3.357  10.256 -0.9541 -0.7792 -0.8849
  350MPD2    N1 5253   2.047   3.189  10.221 -0.0619  0.6677  0.6037
  350MPD2    H7 5254   2.113   3.120  10.188  0.1906  2.3652 -2.4297
  351TMC3    C1 5255   1.903   3.015  10.187 -0.0989 -0.0685  0.0268
  351TMC3    C2 5256   2.009   2.930  10.186 -0.0838 -0.0948 -0.3409
  351TMC3    C3 5257   1.993   2.810  10.119 -0.9784 -0.3474 -0.0841
  351TMC3    C4 5258   1.787   2.982  10.117  0.9017 -0.0470  0.2352
  351TMC3    C5 5259   1.777   2.860  10.052  0.6862 -0.5987  0.3928
  351TMC3    C6 5260   1.884   2.772  10.046  0.3173 -0.8484  0.8301
  351TMC3     C 5261   1.915   3.153  10.221 -0.6766  0.3073 -0.5800
  351TMC3     O 5262   1.811   3.222  10.238 -0.7553 -0.0528 -0.6206
  351TMC3     H 5263   2.111   2.947  10.218 -0.3118  1.2065 -0.2807
  351TMC3    H1 5264   1.706   3.054  10.125  0.3291 -0.4609 -1.9390
  351TMC3    H2 5265   1.891   2.682   9.986  0.9329 -0.8403  0.8951
  351TMC3    C7 5266   1.647   2.819  10.001  0.1703  1.0534  0.0430
  351TMC3    C8 5267   2.113   2.728  10.099  0.1557 -0.9429  1.0804
  351TMC3    O1 5268   1.543   2.873  10.037 -0.4091  0.2092 -0.3769
  351TMC3    O2 5269   2.125   2.701   9.979  0.1417 -0.7817  0.0829
  352MPD2     C 5270   0.386   0.393   1.517 -0.2953  0.0117 -0.2243
  352MPD2    C1 5271   0.496   0.392   1.438  0.3488 -1.1044  0.0294
  352MPD2    C2 5272   0.616   0.329   1.486  0.1125 -0.3231 -0.4455
  352MPD2    C3 5273   0.611   0.268   1.608 -0.4823  0.2950 -0.2224
  352MPD2    C4 5274   0.488   0.271   1.681  0.4314  0.2216 -0.4026
  352MPD2    C5 5275   0.383   0.343   1.641  0.0461  0.6662  0.4055
  352MPD2     H 5276   0.712   0.332   1.435 -0.5688 -1.5951 -1.8155
  352MPD2    H1 5277   0.474   0.207   1.767  0.2260 -2.5546 -2.5288
  352MPD2    H2 5278   0.302   0.456   1.487  0.0817  0.2147 -0.8660
  352MPD2    H3 5279   0.289   0.360   1.691  0.6261  0.0639  1.7043
  352MPD2     N 5280   0.718   0.187   1.659  0.0817 -0.2714  0.3261
  352MPD2    H5 5281   0.701   0.138   1.746 -0.7249 -1.4384 -0.4775
  352MPD2    N1 5282   0.498   0.468   1.312 -0.2545  0.4417  0.6853
  352MPD2    H7 5283   0.405   0.493   1.279  0.1947 -0.0580 -0.9147
  353TMC3    C1 5284   0.920   0.078   1.675 -0.1669  0.5876  0.5084
  353TMC3    C2 5285   1.053   0.091   1.675 -0.0711  0.3430 -0.7627
  353TMC3    C3 5286   1.129   0.008   1.759 -0.5630 -0.1939 -0.2102
  353TMC3    C4 5287   0.861   4.682   1.727  0.1956 -0.1692 -0.6975
  353TMC3    C5 5288   0.938   4.589   1.795 -0.2232  0.6620 -0.1068
  353TMC3    C6 5289   1.075   4.608   1.800 -0.0668  0.6729  0.4517
  353TMC3     C 5290   0.837   0.164   1.598 -0.0143 -0.0201 -0.7323
  353TMC3     O 5291   0.882   0.220   1.499  0.0834  0.1447  0.7090
  353TMC3     H 5292   1.101   0.186   1.650  1.4269 -0.1563  0.2164
  353TMC3    H1 5293   0.756   4.664   1.708 -0.4136  1.0875  1.4393
  353TMC3    H2 5294   1.132   4.542   1.864 -1.4075 -1.4940 -0.6168
  353TMC3    C7 5295   0.902   4.452   1.780 -0.1047  0.0638 -0.3755
  353TMC3    C8 5296   1.272   0.013   1.746  0.8647  0.4566  0.2789
  353TMC3    O1 5297   0.995   4.375   1.770  0.1968  0.4519  0.0194
  353TMC3    O2 5298   1.319   0.123   1.732  0.6680  0.7488  0.1872
  354TMC3    C1 5299   2.359   1.392  13.761  0.0751  0.1764 -0.3831
  354TMC3    C2 5300   2.492   1.428  13.740  0.0795  0.0327 -0.3254
  354TMC3    C3 5301   2.525   1.535  13.657  0.0920 -0.3876 -0.3876
  354TMC3    C4 5302   2.262   1.472  13.707  0.2896 -0.5362 -0.4780
  354TMC3    C5 5303   2.287   1.586  13.638  0.4952  0.5763 -0.4113
  354TMC3    C6 5304   2.423   1.623  13.617 -0.1786  0.5402  0.3571
  354TMC3     C 5305   2.322   1.267  13.819 -0.2078  0.2258 -0.0026
  354TMC3     O 5306   2.212   1.264  13.868 -0.5950  0.4985  0.2426
  354TMC3     H 5307   2.571   1.361  13.773 -1.4510  1.4835  6.3913
  354TMC3    H1 5308   2.160   1.447  13.735  0.6907 -0.6316  0.8774
  354TMC3    H2 5309   2.435   1.698  13.540  0.7610  0.7950  0.7499
  354TMC3    C7 5310   2.210   1.595  13.519 -0.2981  0.5741  0.2168
  354TMC3    C8 5311   2.646   1.531  13.573 -1.0528 -0.5643 -0.3716
  354TMC3    O1 5312   2.133   1.685  13.503 -0.7740  0.4150  0.2534
  354TMC3    O2 5313   2.742   1.474  13.625  0.9616 -0.1263  0.1286
  355MPD2     C 5314   2.805   2.047  11.849  0.1692 -0.1471  0.4207
  355MPD2    C1 5315   2.841   2.130  11.746  0.2894 -0.3711 -0.1645
  355MPD2    C2 5316   2.953   2.098  11.662  0.0129  0.3029  0.6755
  355MPD2    C3 5317   3.047   2.003  11.714  0.1868 -0.2132 -0.2690
  355MPD2    C4 5318   3.015   1.928  11.824  0.6814  0.5109  0.1421
  355MPD2    C5 5319   2.895   1.952  11.888 -0.8184 -0.0586 -0.0084
  355MPD2     H 5320   2.974   2.151  11.570  1.9451  1.8273  2.0148
  355MPD2    H1 5321   3.081   1.851  11.861  0.0802  0.3673  0.9200
  355MPD2    H2 5322   2.716   2.072  11.905 -0.9704 -1.9627 -0.5630
  355MPD2    H3 5323   2.876   1.896  11.979  0.0108 -0.7049 -0.2398
  355MPD2     N 5324   3.178   1.986  11.672  0.3544 -0.1682  0.5031
  355MPD2    H5 5325   3.214   1.899  11.708 -0.8195 -0.7520  0.2682
  355MPD2    N1 5326   2.753   2.230  11.714 -0.2743  0.4814 -0.4434
  355MPD2    H7 5327   2.692   2.264  11.787  0.0204 -1.3797  0.6525
  356TMC3    C1 5328   3.226   2.196  11.567  0.1576  0.2403 -0.1985
  356TMC3    C2 5329   3.281   2.265  11.462  0.2313  0.4482  0.2347
  356TMC3    C3 5330   3.296   2.398  11.457 -0.4490  0.6069  0.2402
  356TMC3    C4 5331   3.191   2.274  11.673  0.1573  0.1116  0.0702
  356TMC3    C5 5332   3.205   2.412  11.669 -0.0070  0.7334 -0.4622
  356TMC3    C6 5333   3.263   2.478  11.564  0.3773 -0.5641 -0.4636
  356TMC3     C 5334   3.265   2.060  11.589 -0.0089  0.0482  0.6824
  356TMC3     O 5335   3.371   2.030  11.538  0.2731  0.4800  0.2503
  356TMC3     H 5336   3.311   2.204  11.377  0.1140 -0.1841  0.6440
  356TMC3    H1 5337   3.169   2.228  11.768  2.2043  2.0880  1.4934
  356TMC3    H2 5338   3.271   2.586  11.560 -1.5352 -0.3951  0.3277
  356TMC3    C7 5339   3.163   2.489  11.784  0.2426 -0.0592 -0.4828
  356TMC3    C8 5340   3.382   2.452  11.358  0.0287 -0.3925  0.5971
  356TMC3    O1 5341   3.069   2.443  11.843 -0.1966  0.7394  0.1835
  356TMC3    O2 5342   3.426   2.374  11.270  0.1687  0.4185  0.5047
  357MPD2     C 5343   2.915   0.268   0.581  0.2167 -0.1646 -0.4205
  357MPD2    C1 5344   2.950   0.354   0.685 -0.7136  0.5980  0.5202
  357MPD2    C2 5345   2.919   0.314   0.816  0.5126  0.0827 -0.0478
  357MPD2    C3 5346   2.856   0.188   0.835 -0.1528 -0.8925 -0.1181
  357MPD2    C4 5347   2.837   0.095   0.729 -0.3147 -0.2198 -1.0417
  357MPD2    C5 5348   2.866   0.140   0.605 -0.0043  0.5264 -0.4737
  357MPD2     H 5349   2.929   0.391   0.892 -0.0602  0.3884 -0.2764
  357MPD2    H1 5350   2.802   4.714   0.737 -0.3788 -0.2130 -1.2282
  357MPD2    H2 5351   2.934   0.299   0.479  1.1011  0.0714 -0.1791
  357MPD2    H3 5352   2.845   0.074   0.521 -0.2410 -0.9584  0.7566
  357MPD2     N 5353   2.822   0.136   0.966  0.5160  0.6301  0.1918
  357MPD2    H5 5354   2.807   0.036   0.976  0.3871  0.4539 -1.8529
  357MPD2    N1 5355   3.022   0.471   0.653 -0.5311 -0.1312  0.1680
  357MPD2    H7 5356   3.038   0.494   0.556 -0.4313 -0.8114  0.0246
  358TMC3    C1 5357   3.155   0.671   0.688 -0.4266  0.4552 -0.4407
  358TMC3    C2 5358   3.138   0.723   0.562 -0.1058  0.1525  0.1781
  358TMC3    C3 5359   3.179   0.850   0.543  0.5113  0.2941  0.0027
  358TMC3    C4 5360   3.213   0.740   0.786 -0.2518 -0.6202 -0.2055
  358TMC3    C5 5361   3.263   0.863   0.763 -0.2833  0.2009 -0.4466
  358TMC3    C6 5362   3.237   0.925   0.644  0.2050 -0.3188 -0.6982
  358TMC3     C 5363   3.062   0.576   0.743 -0.2916  0.1553  0.4546
  358TMC3     O 5364   3.034   0.578   0.864  0.2899  0.3924 -0.3798
  358TMC3     H 5365   3.073   0.681   0.486  0.7822  3.0297 -2.1443
  358TMC3    H1 5366   3.224   0.692   0.883 -1.0957  0.3301  0.3606
  358TMC3    H2 5367   3.299   1.013   0.632 -0.3418  0.1121 -0.4075
  358TMC3    C7 5368   3.301   0.933   0.884 -0.0025 -0.6593 -0.2442
  358TMC3    C8 5369   3.153   0.905   0.413  0.2977 -0.1665  0.2578
  358TMC3    O1 5370   3.265   0.892   0.997 -0.2726  0.0786  0.0650
  358TMC3    O2 5371   3.127   0.824   0.326  0.9583 -0.4045 -0.1161
  359MPD2     C 5372   2.618   1.194  11.599  0.1995  0.5236 -0.0603
  359MPD2    C1 5373   2.631   1.214  11.732  0.3388  0.0641 -0.0521
  359MPD2    C2 5374   2.535   1.288  11.792 -0.2628 -0.3667 -0.4400
  359MPD2    C3 5375   2.426   1.344  11.721  0.5861 -0.2529  1.3960
  359MPD2    C4 5376   2.413   1.314  11.590 -0.9815  0.2333 -0.0717
  359MPD2    C5 5377   2.512   1.236  11.528 -0.3997 -0.0889 -0.1243
  359MPD2     H 5378   2.550   1.300  11.899  2.1951  0.2784 -0.8577
  359MPD2    H1 5379   2.335   1.354  11.526 -0.5010  0.0644 -0.7661
  359MPD2    H2 5380   2.692   1.132  11.548 -1.3148 -0.9710 -0.4298
  359MPD2    H3 5381   2.511   1.217  11.421  0.2289 -2.7229  0.3217
  359MPD2     N 5382   2.320   1.416  11.780  0.3399  0.6012 -0.4253
  359MPD2    H5 5383   2.248   1.445  11.714 -1.1248 -0.1206  0.8622
  359MPD2    N1 5384   2.741   1.147  11.797 -0.9178 -0.2454 -0.1001
  359MPD2    H7 5385   2.811   1.108  11.735 -0.8223  1.6237 -1.1536
  360TMC3    C1 5386   2.897   1.079  11.963  0.9663 -0.0263 -0.8467
  360TMC3    C2 5387   2.995   1.129  12.049  0.8764  0.2436 -0.0245
  360TMC3    C3 5388   3.125   1.082  12.041  1.0004 -0.6209 -0.5193
  360TMC3    C4 5389   2.932   0.981  11.877 -0.2828 -0.5025  0.2561
  360TMC3    C5 5390   3.066   0.948  11.851  0.1936 -0.4800  0.1191
  360TMC3    C6 5391   3.163   0.993  11.939  0.0443  0.2591  0.0346
  360TMC3     C 5392   2.792   1.168  11.924  0.4006  0.3125  0.7558
  360TMC3     O 5393   2.763   1.256  12.010 -0.2936  0.0665 -1.0517
  360TMC3     H 5394   2.983   1.227  12.096  0.8124  0.9588 -1.5315
  360TMC3    H1 5395   2.860   0.943  11.806 -0.7687 -1.9425  1.5084
  360TMC3    H2 5396   3.267   0.977  11.914 -0.6010 -3.6178 -0.1463
  360TMC3    C7 5397   3.104   0.882  11.722  0.2504 -0.3654  0.1447
  360TMC3    C8 5398   3.234   1.157  12.105 -0.0506  0.6406  0.1296
  360TMC3    O1 5399   3.222   0.895  11.685  0.0940  0.5074 -0.7767
  360TMC3    O2 5400   3.204   1.265  12.155  0.0334 -0.7621  0.3268
  361MPD2     C 5401   0.238   4.595  16.679 -0.1291 -0.6252  0.0317
  361MPD2    C1 5402   0.192   4.601  16.812  0.6649 -0.4193 -0.5625
  361MPD2    C2 5403   0.212   4.489  16.887  0.8528  0.0501 -0.8717
  361MPD2    C3 5404   0.277   4.380  16.834  0.0191  0.2632  0.4846
  361MPD2    C4 5405   0.296   4.371  16.697  0.4085  0.4353  0.0517
  361MPD2    C5 5406   0.278   4.480  16.623 -0.7192 -0.6835 -0.3934
  361MPD2     H 5407   0.191   4.488  16.994 -0.7769  0.2227 -1.1796
  361MPD2    H1 5408   0.323   4.277  16.650 -2.3659  0.3415 -1.3741
  361MPD2    H2 5409   0.205   4.680  16.620 -2.5570  0.1925  2.6124
  361MPD2    H3 5410   0.303   4.469  16.518 -2.2091 -1.7563 -0.6429
  361MPD2     N 5411   0.305   4.262  16.909 -0.1637 -0.1605 -0.9495
  361MPD2    H5 5412   0.374   4.197  16.873  1.1964  1.9359 -2.1779
  361MPD2    N1 5413   0.141   0.005  16.864  0.2447  0.2694  1.0765
  361MPD2    H7 5414   0.120   0.089  16.811  0.9856 -0.1362  0.1472
  362TMC3    C1 5415   0.060   0.164  17.024 -0.0171  0.8148 -0.2594
  362TMC3    C2 5416   0.080   0.226  17.148  0.6780 -0.7855 -0.8947
  362TMC3    C3 5417   4.705   0.312  17.192 -0.5811  0.0976  0.6361
  362TMC3    C4 5418   4.685   0.209  16.935 -0.1047 -0.0189  0.0275
  362TMC3    C5 5419   4.616   0.318  16.972  0.2008 -0.0415 -0.6144
  362TMC3    C6 5420   4.617   0.360  17.102 -0.4990 -0.2029 -0.8641
  362TMC3     C 5421   0.142   0.042  17.000  0.6246  0.3096 -0.3303
  362TMC3     O 5422   0.212   4.714  17.091  0.0806  0.1400  0.0723
  362TMC3     H 5423   0.151   0.180  17.215 -0.5520 -0.0882  0.8682
  362TMC3    H1 5424   4.652   0.148  16.852  0.3418 -0.9277  0.5224
  362TMC3    H2 5425   4.559   0.447  17.132 -0.7802 -1.0873  1.1610
  362TMC3    C7 5426   4.518   0.374  16.892 -0.5532 -0.2057 -0.0679
  362TMC3    C8 5427   4.694   0.333  17.334  0.4142  0.2219 -0.4469
  362TMC3    O1 5428   4.420   0.419  16.951 -0.5278  0.9874 -0.6453
  362TMC3    O2 5429   0.061   0.299  17.406  0.7093  0.1669  0.0054
  363TMC3    C1 5430   3.363   2.448   9.780  0.4609 -0.4100 -0.2329
  363TMC3    C2 5431   3.387   2.368   9.886 -0.5199  0.4531 -0.5027
  363TMC3    C3 5432   3.278   2.338   9.962  1.0429 -0.5334 -0.5909
  363TMC3    C4 5433   3.248   2.522   9.754  0.2435  0.1995  1.0824
  363TMC3    C5 5434   3.144   2.496   9.843  0.4018  0.2358 -0.5440
  363TMC3    C6 5435   3.160   2.406   9.945 -0.5160 -0.6052 -0.0726
  363TMC3     C 5436   3.488   2.488   9.706  0.1207  0.3543 -0.1941
  363TMC3     O 5437   3.596   2.457   9.756 -0.2370 -0.6906 -0.7928
  363TMC3     H 5438   3.487   2.352   9.925 -1.5688 -0.1919  1.8930
  363TMC3    H1 5439   3.238   2.604   9.683  0.5563 -1.2858 -0.6555
  363TMC3    H2 5440   3.085   2.387  10.021 -0.4781 -1.9856 -0.3860
  363TMC3    C7 5441   3.031   2.587   9.832 -0.1134  0.4526 -0.1397
  363TMC3    C8 5442   3.294   2.268  10.085  0.7695 -0.2843 -0.1389
  363TMC3    O1 5443   3.045   2.673   9.750  0.4742  0.2296  0.2627
  363TMC3    O2 5444   3.245   2.323  10.182 -0.1568  0.0322 -0.5144
  364MPD2     C 5445   2.028   2.094  10.796  0.0187  0.0827  0.2200
  364MPD2    C1 5446   2.112   2.120  10.693  0.9393  0.6115 -0.3390
  364MPD2    C2 5447   2.238   2.058  10.693 -0.3326 -0.3088  0.0823
  364MPD2    C3 5448   2.276   1.978  10.798  0.3734  0.6314  0.5505
  364MPD2    C4 5449   2.187   1.969  10.903  0.3369  0.4648 -0.2289
  364MPD2    C5 5450   2.060   2.019  10.898 -0.2744 -0.0281  0.0933
  364MPD2     H 5451   2.304   2.064  10.608 -1.5567 -0.7094 -0.9033
  364MPD2    H1 5452   2.207   1.903  10.986  0.3429 -1.7077 -1.9699
  364MPD2    H2 5453   1.938   2.153  10.811  0.7735  1.0248  1.0926
  364MPD2    H3 5454   1.991   2.016  10.982 -0.0415 -0.9778  0.2438
  364MPD2     N 5455   2.401   1.913  10.812  0.3557 -0.2407  0.4409
  364MPD2    H5 5456   2.422   1.872  10.902  2.4706 -2.2804 -1.0053
  364MPD2    N1 5457   2.067   2.201  10.580 -0.3146  0.0618 -0.2952
  364MPD2    H7 5458   1.975   2.245  10.585  0.1456  0.8743  1.0715
  365TMC3    C1 5459   2.084   2.319  10.374 -0.2761 -0.1161  0.0580
  365TMC3    C2 5460   2.111   2.301  10.241  0.1925 -0.2595  0.3744
  365TMC3    C3 5461   2.029   2.359  10.153  0.6819  0.0410  0.3928
  365TMC3    C4 5462   1.980   2.398  10.410 -0.2301  0.4861 -0.0796
  365TMC3    C5 5463   1.894   2.453  10.317  0.1116  0.2903  0.8278
  365TMC3    C6 5464   1.921   2.437  10.186  0.3329 -0.7715  0.3951
  365TMC3     C 5465   2.144   2.224  10.469 -0.2586  0.7127 -0.3313
  365TMC3     O 5466   2.253   2.177  10.437 -0.5461  0.0435 -0.3515
  365TMC3     H 5467   2.202   2.245  10.218 -1.4259 -2.1579 -1.4372
  365TMC3    H1 5468   1.958   2.417  10.514  0.0941  0.6249 -0.0366
  365TMC3    H2 5469   1.861   2.484  10.108  0.6806  0.0772  0.6330
  365TMC3    C7 5470   1.782   2.546  10.349  0.0551 -0.4040  0.3877
  365TMC3    C8 5471   2.056   2.334  10.011 -0.0558 -0.0838 -0.7976
  365TMC3    O1 5472   1.717   2.595  10.259 -0.2207  0.0459 -0.3185
  365TMC3    O2 5473   1.980   2.388   9.933 -0.2909  0.3175 -0.7447
  366MPD2     C 5474   0.322   2.589  14.784 -0.2800  0.6147 -0.2410
  366MPD2    C1 5475   0.300   2.557  14.916  0.5660 -0.7188 -0.1990
  366MPD2    C2 5476   0.401   2.500  14.983  0.4605 -0.4489 -0.2572
  366MPD2    C3 5477   0.519   2.462  14.922 -0.1364  0.8050  0.2591
  366MPD2    C4 5478   0.536   2.487  14.793  0.3202 -0.2758  0.5711
  366MPD2    C5 5479   0.443   2.558  14.727 -0.3286 -1.2933 -1.1730
  366MPD2     H 5480   0.398   2.471  15.088 -2.6686  0.5577 -0.0689
  366MPD2    H1 5481   0.633   2.468  14.748 -0.1391 -2.1102  0.3594
  366MPD2    H2 5482   0.250   2.646  14.726  0.2773  0.3973 -1.1508
  366MPD2    H3 5483   0.456   2.581  14.622  0.1772  1.0120 -0.6207
  366MPD2     N 5484   0.625   2.400  14.996 -0.0559  0.0861  0.0867
  366MPD2    H5 5485   0.689   2.355  14.932 -2.7002 -0.5939 -2.0544
  366MPD2    N1 5486   0.197   2.612  14.993 -0.1744 -0.2325  0.2640
  366MPD2    H7 5487   0.197   2.589  15.092  1.7135 -1.0838  0.0574
  367TMC3    C1 5488   0.054   2.782  15.060 -1.1593 -0.1744 -0.6645
  367TMC3    C2 5489   0.145   2.811  15.162  0.1536 -0.0780  1.1053
  367TMC3    C3 5490   0.116   2.905  15.249 -0.4336  0.2861  0.0096
  367TMC3    C4 5491   4.671   2.866  15.042  0.2362  0.2320 -0.0646
  367TMC3    C5 5492   4.650   2.961  15.133 -0.1208 -0.9109 -0.4664
  367TMC3    C6 5493   0.009   2.988  15.239  0.1816  0.3235  0.4767
  367TMC3     C 5494   0.105   2.703  14.948 -0.6048  0.1432  0.8175
  367TMC3     O 5495   0.082   2.753  14.835  0.4056  0.2571 -0.0768
  367TMC3     H 5496   0.234   2.751  15.177 -0.9122 -1.5687  1.3663
  367TMC3    H1 5497   4.598   2.852  14.963  0.7110  0.4895 -0.5505
  367TMC3    H2 5498   4.698   3.058  15.315 -0.7703  2.3311 -1.7902
  367TMC3    C7 5499   4.555   3.066  15.114 -0.2940  0.5088 -0.1496
  367TMC3    C8 5500   0.210   2.924  15.358  0.4155  0.2644  0.2938
  367TMC3    O1 5501   4.585   3.175  15.163  0.3038  0.5087 -0.7986
  367TMC3    O2 5502   0.280   2.825  15.371  0.5241  0.8113  0.1939
  368MPD2     C 5503   1.083   0.538  13.019 -0.0153  0.1536 -0.1054
  368MPD2    C1 5504   1.029   0.556  12.895  0.1391 -0.1218 -0.4427
  368MPD2    C2 5505   1.111   0.576  12.789  0.1872  0.1585  0.8533
  368MPD2    C3 5506   1.248   0.585  12.809  0.0192 -0.0074  0.5288
  368MPD2    C4 5507   1.304   0.578  12.932 -0.2001  0.1433 -0.0573
  368MPD2    C5 5508   1.219   0.546  13.035  0.0114 -0.4283  0.5680
  368MPD2     H 5509   1.068   0.576  12.690  1.6832  2.0599  0.2054
  368MPD2    H1 5510   1.406   0.606  12.955 -1.2429  0.4367  4.2052
  368MPD2    H2 5511   1.020   0.512  13.104 -0.5883 -0.7385 -0.8083
  368MPD2    H3 5512   1.259   0.531  13.134  1.2095  0.9956  0.3005
  368MPD2     N 5513   1.337   0.633  12.710 -0.2935  1.1342  0.3209
  368MPD2    H5 5514   1.431   0.653  12.743 -0.3414  0.2063  0.9885
  368MPD2    N1 5515   0.889   0.547  12.889 -0.1879  0.1225 -0.3597
  368MPD2    H7 5516   0.835   0.514  12.968  0.7048 -2.6523 -0.8961
  369TMC3    C1 5517   0.673   0.592  12.791  0.8667 -1.1403  0.5137
  369TMC3    C2 5518   0.600   0.637  12.688 -0.5630 -0.2304 -0.3119
  369TMC3    C3 5519   0.462   0.613  12.686  0.0127  0.5034 -0.0361
  369TMC3    C4 5520   0.611   0.522  12.889  0.0561  1.2316  0.2603
  369TMC3    C5 5521   0.478   0.491  12.882 -0.3232 -0.3367 -0.1854
  369TMC3    C6 5522   0.392   0.543  12.783  0.2796  0.2613 -0.4140
  369TMC3     C 5523   0.818   0.588  12.781 -0.3401 -0.6149  0.6307
  369TMC3     O 5524   0.858   0.628  12.671 -0.1613  0.0615 -0.2525
  369TMC3     H 5525   0.644   0.704  12.614  0.1934  1.6966  1.8638
  369TMC3    H1 5526   0.655   0.507  12.987  1.4353 -3.5056 -1.0430
  369TMC3    H2 5527   0.287   0.520  12.769  0.4667  0.0602 -1.4749
  369TMC3    C7 5528   0.426   0.426  12.992 -0.4361 -0.7256 -0.3006
  369TMC3    C8 5529   0.393   0.662  12.567  0.3718  0.3459 -0.1995
  369TMC3    O1 5530   0.507   0.355  13.055 -0.0833 -0.2265  0.3418
  369TMC3    O2 5531   0.475   0.690  12.482  0.5535  0.2362  0.1085
  370TMC3    C1 5532   1.379   0.371  16.490 -0.9233 -0.6249 -0.7459
  370TMC3    C2 5533   1.304   0.333  16.598  0.6004 -0.4880 -0.0971
  370TMC3    C3 5534   1.179   0.300  16.560  0.2265 -0.5979  0.4298
  370TMC3    C4 5535   1.333   0.388  16.359 -0.3544 -0.0948  0.0835
  370TMC3    C5 5536   1.205   0.350  16.333  0.2069  0.2376 -0.3907
  370TMC3    C6 5537   1.125   0.303  16.435 -0.1313  0.5879  0.3263
  370TMC3     C 5538   1.519   0.375  16.515  0.7574 -0.3116 -0.0431
  370TMC3     O 5539   1.569   0.289  16.580 -0.4120  0.0139 -0.1943
  370TMC3     H 5540   1.359   0.316  16.690  0.6128 -2.2408 -0.4310
  370TMC3    H1 5541   1.399   0.412  16.277 -0.8863 -1.8894 -0.8757
  370TMC3    H2 5542   1.028   0.257  16.418 -0.6943  2.2940 -1.0853
  370TMC3    C7 5543   1.196   0.278  16.211  0.4276  0.3446  0.0607
  370TMC3    C8 5544   1.103   0.236  16.665  0.4747 -0.3795 -0.5684
  370TMC3    O1 5545   1.295   0.215  16.173 -0.0351 -0.1996  0.0139
  370TMC3    O2 5546   1.155   0.187  16.764 -0.0847  0.4494 -0.2252
  371TMC3    C1 5547   1.830   3.361  15.559 -0.2270 -0.6808 -0.0014
  371TMC3    C2 5548   1.704   3.363  15.607 -0.7196  0.4412  0.1464
  371TMC3    C3 5549   1.641   3.488  15.600 -0.5278 -0.3792  0.2660
  371TMC3    C4 5550   1.894   3.462  15.500 -0.2024  0.6952 -0.6475
  371TMC3    C5 5551   1.829   3.580  15.494 -0.7474 -1.0999  0.1215
  371TMC3    C6 5552   1.710   3.599  15.558 -0.0624 -0.6497  0.5402
  371TMC3     C 5553   1.903   3.235  15.561  0.4357  0.8789 -0.2713
  371TMC3     O 5554   1.995   3.221  15.482 -0.0224  0.2009  0.0201
  371TMC3     H 5555   1.648   3.284  15.655 -0.3977  0.8047  1.1271
  371TMC3    H1 5556   1.999   3.444  15.476  0.0332 -0.7436  1.4644
  371TMC3    H2 5557   1.656   3.692  15.548  0.4652 -0.5521 -1.5452
  371TMC3    C7 5558   1.903   3.699  15.461  1.1749  0.4982 -0.4253
  371TMC3    C8 5559   1.517   3.501  15.674  1.1329  0.3702  0.5844
  371TMC3    O1 5560   1.856   3.797  15.404 -0.1037  0.3414 -0.4688
  371TMC3    O2 5561   1.456   3.401  15.694 -0.3125  0.3577 -0.3099
  372MPD2     C 5562   1.671   0.457  13.467 -0.8832  0.4749 -0.5385
  372MPD2    C1 5563   1.763   0.409  13.560 -0.2206  0.0164  0.6969
  372MPD2    C2 5564   1.737   0.277  13.611 -0.0360 -0.2891 -0.1885
  372MPD2    C3 5565   1.617   0.211  13.588  0.4452 -0.2754  0.0150
  372MPD2    C4 5566   1.527   0.270  13.494 -0.3822  0.7991  0.3701
  372MPD2    C5 5567   1.559   0.388  13.433 -0.2781 -0.0989 -1.2888
  372MPD2     H 5568   1.813   0.236  13.676 -1.0896 -1.1211  0.5146
  372MPD2    H1 5569   1.436   0.213  13.479 -0.5526  1.5255 -1.3994
  372MPD2    H2 5570   1.690   0.548  13.412  0.2391 -0.5113 -1.7728
  372MPD2    H3 5571   1.495   0.435  13.359 -1.6838  1.9429  1.2300
  372MPD2     N 5572   1.607   0.077  13.634  0.4628 -0.0085 -0.1435
  372MPD2    H5 5573   1.678   0.037  13.695  1.7777 -1.5848 -2.7073
  372MPD2    N1 5574   1.889   0.476  13.588  0.3690  1.0412 -0.0434
  372MPD2    H7 5575   1.951   0.429  13.653 -0.0709  1.2882  0.5544
  373TMC3    C1 5576   1.502   4.596  13.692 -0.3811  0.7857  0.0860
  373TMC3    C2 5577   1.402   4.568  13.773 -0.4343  0.5456 -0.8959
  373TMC3    C3 5578   1.408   4.466  13.863 -0.5917 -0.1134 -0.4411
  373TMC3    C4 5579   1.615   4.518  13.685 -0.4830  0.3306 -0.6081
  373TMC3    C5 5580   1.616   4.407  13.772 -0.0449 -0.6283 -0.5153
  373TMC3    C6 5581   1.520   4.383  13.868  0.2648 -0.2216 -0.0110
  373TMC3     C 5582   1.490   0.004  13.619  0.4763  0.0649  0.2405
  373TMC3     O 5583   1.379   0.040  13.575 -0.1400 -0.4286  0.6460
  373TMC3     H 5584   1.309   4.623  13.765 -0.4282  0.7993  0.6797
  373TMC3    H1 5585   1.691   4.540  13.610 -0.1532 -2.3987 -1.0489
  373TMC3    H2 5586   1.523   4.299  13.936 -0.3274  0.7383  1.2093
  373TMC3    C7 5587   1.738   4.316  13.758 -0.6878 -0.5992 -0.0994
  373TMC3    C8 5588   1.395   4.510  13.998 -0.1080 -0.2082  0.0785
  373TMC3    O1 5589   1.784   4.294  13.647 -0.6089  0.0412 -0.0894
  373TMC3    O2 5590   1.497   4.496  14.063  0.4812 -0.0551 -0.0791
  374TMC3    C1 5591   2.055   0.911  10.325  0.7476  0.5761 -0.4537
  374TMC3    C2 5592   2.181   0.961  10.311 -0.0138 -0.5077  0.1997
  374TMC3    C3 5593   2.237   0.963  10.184  0.2331 -0.0895  0.0285
  374TMC3    C4 5594   1.985   0.870  10.218  0.1397  0.1710  0.0520
  374TMC3    C5 5595   2.044   0.876  10.095  0.1086  0.1618  0.3264
  374TMC3    C6 5596   2.170   0.931  10.070 -0.3342 -0.1883 -0.0341
  374TMC3     C 5597   1.990   0.931  10.454  0.3982  0.0862 -0.0093
  374TMC3     O 5598   2.049   1.006  10.531 -0.4015 -0.0662  0.7024
  374TMC3     H 5599   2.238   0.984  10.400 -0.2247 -0.7822  0.4073
  374TMC3    H1 5600   1.883   0.837  10.233  1.1093 -2.4033  0.9805
  374TMC3    H2 5601   2.220   0.936   9.974 -0.1256  0.0619  0.0866
  374TMC3    C7 5602   1.971   0.802   9.993  0.2338  0.2302  0.0686
  374TMC3    C8 5603   2.373   1.006  10.166 -0.9637 -0.6163  0.0315
  374TMC3    O1 5604   1.872   0.737  10.029  0.2635  0.5915  0.0848
  374TMC3    O2 5605   2.394   1.083  10.073  0.3633  0.5198 -0.0294
  375MPD2     C 5606   2.615   0.812  17.369 -0.2210  0.3378 -0.7341
  375MPD2    C1 5607   2.568   0.685  17.346  0.5591  0.1330 -0.2051
  375MPD2    C2 5608   2.626   0.605  17.247  0.4188 -0.4496  0.7213
  375MPD2    C3 5609   2.719   0.663  17.159  0.3587 -0.1440  0.6660
  375MPD2    C4 5610   2.760   0.800  17.173 -0.1683 -0.5436 -0.2483
  375MPD2    C5 5611   2.713   0.866  17.287  0.3213  0.1332  0.8334
  375MPD2     H 5612   2.590   0.504  17.229  0.9128 -0.8062  1.7180
  375MPD2    H1 5613   2.839   0.848  17.118  0.4952 -0.7299  0.5455
  375MPD2    H2 5614   2.562   0.881  17.434  1.7210 -1.0330  2.3240
  375MPD2    H3 5615   2.736   0.971  17.298 -0.1344  0.5065 -1.7050
  375MPD2     N 5616   2.775   0.594  17.047  0.2113  1.1675  0.3159
  375MPD2    H5 5617   2.838   0.651  16.992  0.9479 -0.5860 -0.6307
  375MPD2    N1 5618   2.464   0.620  17.420  0.7354  0.3766  0.1793
  375MPD2    H7 5619   2.442   0.524  17.396  2.5199  0.0246 -0.0712
  376TMC3    C1 5620   2.791   0.432  16.881 -0.3890  0.7093 -0.1896
  376TMC3    C2 5621   2.906   0.500  16.839 -0.3276  0.0766 -0.9542
  376TMC3    C3 5622   2.935   0.491  16.703 -0.8639  0.0081 -0.4368
  376TMC3    C4 5623   2.706   0.355  16.801  0.0142 -0.6102  0.7362
  376TMC3    C5 5624   2.737   0.359  16.673  0.5959 -0.5941 -0.8672
  376TMC3    C6 5625   2.848   0.421  16.623 -0.0954  0.0894  0.5512
  376TMC3     C 5626   2.760   0.461  17.018 -0.1101  0.0291 -0.0056
  376TMC3     O 5627   2.700   0.370  17.075  0.0098 -0.4212 -0.7255
  376TMC3     H 5628   2.967   0.556  16.910 -3.6677 -0.1074  2.0620
  376TMC3    H1 5629   2.615   0.310  16.838  0.2169 -1.3789  0.2932
  376TMC3    H2 5630   2.877   0.409  16.519  0.0699  0.3434  0.5684
  376TMC3    C7 5631   2.642   0.303  16.580  0.5123  0.0172 -0.0172
  376TMC3    C8 5632   3.036   0.572  16.642  0.0134  0.6371 -0.5113
  376TMC3    O1 5633   2.581   0.203  16.604  0.2363  0.1431 -0.5564
  376TMC3    O2 5634   3.013   0.615  16.530 -0.6789  0.0946 -0.6073
  377MPD2     C 5635   0.470   0.424  12.271  0.3928 -0.3203  0.0739
  377MPD2    C1 5636   0.525   0.363  12.379 -0.1758  0.7491  0.2948
  377MPD2    C2 5637   0.445   0.305  12.476  0.9851 -0.0928 -0.2433
  377MPD2    C3 5638   0.303   0.324  12.474 -0.0068  0.2974 -0.0074
  377MPD2    C4 5639   0.258   0.398  12.367  0.3017  0.5756  0.1286
  377MPD2    C5 5640   0.338   0.444  12.264  0.2192 -0.1925 -0.0104
  377MPD2     H 5641   0.485   0.254  12.563  0.0349  0.5415  0.5794
  377MPD2    H1 5642   0.154   0.424  12.354  0.5327  1.7723  0.7460
  377MPD2    H2 5643   0.525   0.476  12.193  2.4231 -1.3854  0.7843
  377MPD2    H3 5644   0.299   0.514  12.191 -3.3482 -0.3968  1.6606
  377MPD2     N 5645   0.205   0.302  12.575 -0.1439  0.0388 -0.3616
  377MPD2    H5 5646   0.109   0.330  12.561 -0.1729 -0.2108 -0.6550
  377MPD2    N1 5647   0.666   0.364  12.380  0.2671  0.6556 -0.2204
  377MPD2    H7 5648   0.722   0.415  12.312  1.5581  0.6867  0.8876
  378TMC3    C1 5649   1.045   0.300  12.290 -0.8275 -0.2539 -0.3310
  378TMC3    C2 5650   0.911   0.301  12.313 -0.5811  0.0772  0.1544
  378TMC3    C3 5651   0.874   0.310  12.446  0.3232  0.1367 -0.2507
  378TMC3    C4 5652   1.144   0.289  12.379 -0.8008 -0.0533  0.0695
  378TMC3    C5 5653   1.104   0.291  12.510 -0.2802 -0.3046  0.3730
  378TMC3    C6 5654   0.972   0.306  12.547  0.0043  0.2552 -0.8754
  378TMC3     C 5655   1.084   0.309  12.150 -0.7161  0.4904 -0.3472
  378TMC3     O 5656   1.011   0.369  12.074 -0.1251 -0.0963  0.2255
  378TMC3     H 5657   0.840   0.295  12.231 -0.3136  0.1556 -0.0798
  378TMC3    H1 5658   1.244   0.264  12.348 -0.7657 -2.4490  2.1026
  378TMC3    H2 5659   0.950   0.307  12.653  1.2406 -0.6665 -0.6185
  378TMC3    C7 5660   1.199   0.257  12.613 -0.0009 -0.0414  0.1643
  378TMC3    C8 5661   0.737   0.318  12.481 -0.4566 -0.2338  0.3825
  378TMC3    O1 5662   1.154   0.252  12.728  0.0901 -0.3375 -0.0514
  378TMC3    O2 5663   0.704   0.273  12.593  0.0748  0.0710 -0.2046
  379MPD2     C 5664   0.948   3.024  16.418  0.6539 -0.0157  0.4125
  379MPD2    C1 5665   1.026   2.956  16.327 -0.7833 -0.6725 -0.8288
  379MPD2    C2 5666   1.142   2.906  16.373  0.1291 -0.1475 -0.5366
  379MPD2    C3 5667   1.194   2.943  16.497 -0.1519  0.4350 -0.2096
  379MPD2    C4 5668   1.118   3.027  16.580  0.4249  0.6272  0.2306
  379MPD2    C5 5669   0.998   3.066  16.539  0.2635  0.0427  0.6309
  379MPD2     H 5670   1.212   2.861  16.304  0.1248  0.0482 -0.6693
  379MPD2    H1 5671   1.157   3.070  16.671  2.5195 -1.7027  0.4409
  379MPD2    H2 5672   0.847   3.058  16.397  0.4889  0.0072  1.2500
  379MPD2    H3 5673   0.945   3.134  16.604  2.1903 -0.7335  3.0622
  379MPD2     N 5674   1.331   2.934  16.540  0.1548  0.4088  0.2426
  379MPD2    H5 5675   1.347   2.967  16.634 -1.9455  1.2470  0.3041
  379MPD2    N1 5676   0.971   2.946  16.200  0.2525 -0.1534  0.0045
  379MPD2    H7 5677   0.889   3.002  16.177 -0.0467 -0.6651 -0.1768
  380TMC3    C1 5678   0.940   2.862  15.975 -0.7300  0.6868  0.0363
  380TMC3    C2 5679   0.998   2.808  15.861 -0.9113 -0.2214 -0.1711
  380TMC3    C3 5680   0.931   2.829  15.740 -0.4328 -0.1798 -0.2856
  380TMC3    C4 5681   0.812   2.912  15.980 -0.3661  0.9336  0.0009
  380TMC3    C5 5682   0.742   2.919  15.858  1.0645  0.3458 -0.3830
  380TMC3    C6 5683   0.804   2.884  15.738  0.4208 -0.1732  1.1399
  380TMC3     C 5684   1.019   2.860  16.099  0.1207 -0.4418  0.5646
  380TMC3     O 5685   1.108   2.773  16.108  0.7359  0.1699  0.0590
  380TMC3     H 5686   1.093   2.756  15.857 -2.0712 -2.3267 -0.3496
  380TMC3    H1 5687   0.762   2.941  16.072 -0.3042  1.6030 -0.1769
  380TMC3    H2 5688   0.754   2.889  15.643 -0.6963 -0.4472  1.7144
  380TMC3    C7 5689   0.628   3.005  15.852  0.1053  1.0041  0.8887
  380TMC3    C8 5690   0.993   2.785  15.621  0.6430  0.1384 -0.5825
  380TMC3    O1 5691   0.616   3.082  15.947  0.4215  0.2715  0.2199
  380TMC3    O2 5692   0.927   2.731  15.534  0.1614  0.1180  0.4260
  381TMC3    C1 5693   0.668   4.416  16.471  0.2878  0.8880  0.4757
  381TMC3    C2 5694   0.779   4.497  16.433 -0.1834 -0.3634 -0.6938
  381TMC3    C3 5695   0.886   4.490  16.517  0.1224  0.5837 -0.2662
  381TMC3    C4 5696   0.671   4.336  16.586  0.1697 -0.2076  0.0561
  381TMC3    C5 5697   0.778   4.337  16.662  0.0356  0.5229  0.8158
  381TMC3    C6 5698   0.887   4.419  16.639  0.3820  0.1144 -0.2959
  381TMC3     C 5699   0.551   4.417  16.375  0.3059 -0.2579  1.0089
  381TMC3     O 5700   0.467   4.330  16.389 -0.7922 -0.1015 -0.3714
  381TMC3     H 5701   0.781   4.553  16.340  0.4185  2.2222  0.8916
  381TMC3    H1 5702   0.583   4.282  16.620  0.8490 -0.3611  1.5866
  381TMC3    H2 5703   0.977   4.412  16.699  0.5022  0.2480 -0.4602
  381TMC3    C7 5704   0.757   4.288  16.795  0.3211  0.4254  0.4381
  381TMC3    C8 5705   0.997   4.575  16.487  0.6649  0.2491 -0.3172
  381TMC3    O1 5706   0.855   4.246  16.852 -0.3178  0.1384 -0.1322
  381TMC3    O2 5707   1.000   4.644  16.387  0.1751  0.5452  0.0270
  382MPD2     C 5708   0.573   2.629  16.760  0.0974 -0.6245  0.0906
  382MPD2    C1 5709   0.538   2.670  16.889  0.7053 -0.1142  0.8682
  382MPD2    C2 5710   0.505   2.576  16.981 -0.0192 -0.1132  0.4003
  382MPD2    C3 5711   0.511   2.441  16.953 -0.0828 -0.8827  0.6071
  382MPD2    C4 5712   0.551   2.400  16.826  0.5374  0.0306  0.4382
  382MPD2    C5 5713   0.577   2.496  16.731 -0.5143 -0.3440 -0.3473
  382MPD2     H 5714   0.471   2.617  17.075  1.0150  0.2840  0.6049
  382MPD2    H1 5715   0.566   2.294  16.814  0.9561  0.1284  0.0864
  382MPD2    H2 5716   0.593   2.695  16.676  3.0925 -1.8237 -0.1141
  382MPD2    H3 5717   0.616   2.459  16.637 -0.6158 -0.4358 -0.3524
  382MPD2     N 5718   0.474   2.340  17.045 -0.1172  0.2270  0.3505
  382MPD2    H5 5719   0.458   2.247  17.009  2.9272 -0.2700  0.3029
  382MPD2    N1 5720   0.551   2.804  16.924  0.2013 -0.3027 -0.5619
  382MPD2    H7 5721   0.566   2.835  17.020  0.9287  0.6766 -0.9824
  383TMC3    C1 5722   0.410   2.256  17.258  0.1155 -0.6183  0.4480
  383TMC3    C2 5723   0.361   2.142  17.200  0.1228 -0.3811  0.2785
  383TMC3    C3 5724   0.329   2.035  17.280 -0.4654 -0.5419 -0.2378
  383TMC3    C4 5725   0.403   2.269  17.396  0.2254 -0.0476  0.9965
  383TMC3    C5 5726   0.374   2.163  17.470 -0.5504  0.3115 -0.2652
  383TMC3    C6 5727   0.351   2.040  17.416  0.0556 -0.3475 -0.0969
  383TMC3     C 5728   0.463   2.369  17.183 -0.0352 -0.4964 -0.1976
  383TMC3     O 5729   0.512   2.465  17.242 -0.1942 -0.0301  0.0584
  383TMC3     H 5730   0.348   2.134  17.093 -1.0699  0.2758  0.3750
  383TMC3    H1 5731   0.426   2.364  17.443 -1.6184 -0.0608  1.9090
  383TMC3    H2 5732   0.311   1.960  17.478 -0.9405 -0.2339 -0.5956
  383TMC3    C7 5733   0.357   2.185  17.610  0.0933 -0.0686  0.3072
  383TMC3    C8 5734   0.230   1.943  17.226 -0.0683  0.1751  0.6367
  383TMC3    O1 5735   0.424   2.269  17.666  0.3905 -0.1354 -0.3347
  383TMC3    O2 5736   0.142   1.981  17.152 -0.0235  0.0228 -0.2478
  384MPD2     C 5737   2.090   3.691  12.529  0.0455 -0.1630 -0.3005
  384MPD2    C1 5738   1.982   3.613  12.534 -0.0454 -0.8500  0.5327
  384MPD2    C2 5739   1.932   3.553  12.427 -0.9814 -0.0664 -0.1990
  384MPD2    C3 5740   1.979   3.591  12.304 -0.3480  0.9055 -0.2853
  384MPD2    C4 5741   2.108   3.655  12.297 -1.0667 -0.0937  0.5908
  384MPD2    C5 5742   2.160   3.705  12.411 -0.1612 -0.4540 -0.0438
  384MPD2     H 5743   1.858   3.474  12.430 -1.4703  0.3753 -0.5311
  384MPD2    H1 5744   2.167   3.670  12.208 -1.6135 -0.4215  0.1730
  384MPD2    H2 5745   2.129   3.738  12.618  0.0081 -0.2520 -0.2376
  384MPD2    H3 5746   2.256   3.756  12.410 -0.4361  0.0585 -0.0072
  384MPD2     N 5747   1.916   3.535  12.188 -0.2162 -0.1109  0.7933
  384MPD2    H5 5748   1.836   3.476  12.207  1.4012 -3.3869 -2.6507
  384MPD2    N1 5749   1.930   3.579  12.659 -0.6558  0.1187  0.5816
  384MPD2    H7 5750   1.978   3.601  12.747  0.8623 -0.4664 -0.0973
  385TMC3    C1 5751   1.898   3.459  11.971 -0.5800  0.3451  0.3773
  385TMC3    C2 5752   1.996   3.400  11.882  0.8232  0.0233 -0.1802
  385TMC3    C3 5753   1.997   3.264  11.869 -0.1417 -0.1913 -0.2910
  385TMC3    C4 5754   1.796   3.389  12.021 -0.5000  0.5522 -0.0322
  385TMC3    C5 5755   1.812   3.252  12.019  0.0223 -0.7291 -0.5390
  385TMC3    C6 5756   1.903   3.189  11.936 -0.1587 -0.4507 -0.2145
  385TMC3     C 5757   1.949   3.561  12.053 -0.7869 -0.6872  0.3574
  385TMC3     O 5758   2.035   3.638  12.015  0.4755  0.2721  0.1106
  385TMC3     H 5759   2.066   3.460  11.825  0.6071  2.4438  2.0797
  385TMC3    H1 5760   1.717   3.423  12.087  1.8500 -0.2068  3.2152
  385TMC3    H2 5761   1.909   3.081  11.936  1.5566 -0.3356  1.8633
  385TMC3    C7 5762   1.774   3.197  12.147 -0.1715 -0.4013 -0.8783
  385TMC3    C8 5763   2.049   3.225  11.742 -0.1766  0.3174  0.7493
  385TMC3    O1 5764   1.758   3.274  12.242 -0.5463  0.0356 -0.2406
  385TMC3    O2 5765   2.123   3.296  11.678  0.0715 -0.3314 -0.1555
  386TMC3    C1 5766   1.301   0.797  11.156  0.3620  0.4449 -0.0395
  386TMC3    C2 5767   1.273   0.780  11.021  0.0681  0.0708  0.0079
  386TMC3    C3 5768   1.144   0.733  10.984 -0.2525  0.9974  0.6967
  386TMC3    C4 5769   1.216   0.759  11.258  0.2986  1.0032  0.0657
  386TMC3    C5 5770   1.090   0.710  11.215  0.1570  0.2608  0.0176
  386TMC3    C6 5771   1.052   0.692  11.081 -0.0696 -0.3373 -0.1650
  386TMC3     C 5772   1.426   0.850  11.196  0.4984  0.9525  0.3915
  386TMC3     O 5773   1.483   0.896  11.099  0.2854 -0.1897  0.6718
  386TMC3     H 5774   1.354   0.789  10.950 -1.0801 -1.9416 -1.5703
  386TMC3    H1 5775   1.232   0.810  11.352 -1.1438 -1.3137  1.5727
  386TMC3    H2 5776   0.961   0.641  11.053  1.6263 -1.9941 -2.6266
  386TMC3    C7 5777   0.997   0.686  11.320 -0.1088  0.4160 -0.2089
  386TMC3    C8 5778   1.103   0.716  10.848 -0.1078  0.2469 -0.3217
  386TMC3    O1 5779   0.882   0.705  11.292 -0.3786 -0.2627  0.1945
  386TMC3    O2 5780   1.013   0.638  10.815 -0.1356  0.2794 -0.0537
  387MPD2     C 5781   4.161   1.028   9.671  0.2158 -0.6942  0.4490
  387MPD2    C1 5782   4.177   0.956   9.787  0.2425 -0.5213  0.0931
  387MPD2    C2 5783   4.191   0.819   9.770 -0.4752 -0.8810  0.0007
  387MPD2    C3 5784   4.182   0.753   9.646  0.0680 -0.2936  0.2795
  387MPD2    C4 5785   4.135   0.821   9.537  0.1923  0.2137 -0.5020
  387MPD2    C5 5786   4.128   0.956   9.553 -0.0299 -0.7163 -0.2837
  387MPD2     H 5787   4.224   0.761   9.855 -0.7899 -0.7811  0.1911
  387MPD2    H1 5788   4.123   0.775   9.440  0.5585  0.5887 -0.7255
  387MPD2    H2 5789   4.160   1.137   9.674  0.2458 -0.6245 -1.8864
  387MPD2    H3 5790   4.107   1.017   9.466  1.8124  0.8344  0.3764
  387MPD2     N 5791   4.213   0.614   9.639 -0.5708  0.2666 -0.0436
  387MPD2    H5 5792   4.236   0.581   9.732 -0.4403  3.0171  0.9058
  387MPD2    N1 5793   4.178   1.014   9.918  0.8004  0.0115  0.0353
  387MPD2    H7 5794   4.184   0.946   9.993 -2.5966  0.5315  0.8129
  388TMC3    C1 5795   4.250   1.154  10.102  1.1044 -0.3551  0.6934
  388TMC3    C2 5796   4.290   1.275  10.148  0.1130  0.5228 -0.3067
  388TMC3    C3 5797   4.374   1.283  10.256 -0.2524 -0.0263 -0.1324
  388TMC3    C4 5798   4.307   1.045  10.147  0.6512 -0.1341 -0.2682
  388TMC3    C5 5799   4.394   1.055  10.254 -0.3636  0.7407 -0.7555
  388TMC3    C6 5800   4.427   1.173  10.313 -0.5817  0.0669 -0.4608
  388TMC3     C 5801   4.185   1.144   9.967 -0.6391 -0.2196  0.6217
  388TMC3     O 5802   4.172   1.246   9.904 -0.2146 -0.4797  0.5111
  388TMC3     H 5803   4.248   1.369  10.114 -0.1258  0.7884  0.7103
  388TMC3    H1 5804   4.265   0.947  10.128  1.1475 -0.6298  1.1299
  388TMC3    H2 5805   4.507   1.179  10.387 -0.4192 -1.4269 -0.5141
  388TMC3    C7 5806   4.473   0.943  10.288 -0.0006  0.5111 -0.5413
  388TMC3    C8 5807   4.460   1.403  10.260 -0.0043  0.2837 -0.2819
  388TMC3    O1 5808   4.515   0.924  10.402 -0.0398 -0.2013 -0.2176
  388TMC3    O2 5809   4.457   1.469  10.156 -0.2513 -0.3089  0.3227
  389MPD2     C 5810   3.598   3.865  11.373  0.0327 -0.2224 -0.1108
  389MPD2    C1 5811   3.520   3.804  11.276  0.3366  1.3053  0.9553
  389MPD2    C2 5812   3.432   3.711  11.318  0.2081 -0.0729  0.0187
  389MPD2    C3 5813   3.430   3.675  11.449 -0.1397 -0.0614  0.5435
  389MPD2    C4 5814   3.506   3.740  11.543 -0.0523 -0.4397  0.0159
  389MPD2    C5 5815   3.586   3.841  11.503  0.2110  0.9460 -0.2646
  389MPD2     H 5816   3.357   3.669  11.253  0.5726 -1.7508  0.6672
  389MPD2    H1 5817   3.499   3.722  11.650  0.0679 -1.2442 -0.1124
  389MPD2    H2 5818   3.675   3.939  11.355  1.7982 -2.8203 -3.2724
  389MPD2    H3 5819   3.643   3.897  11.576 -0.6085 -0.1845  1.2655
  389MPD2     N 5820   3.331   3.578  11.492 -0.6751 -0.4397  0.0931
  389MPD2    H5 5821   3.305   3.573  11.590 -0.8374  1.8028  0.1478
  389MPD2    N1 5822   3.522   3.858  11.143  0.0912  0.2257  0.7587
  389MPD2    H7 5823   3.597   3.923  11.122 -0.6908  0.7401 -0.4827
  390TMC3    C1 5824   3.211   3.379  11.493  0.1232  0.1516  0.3178
  390TMC3    C2 5825   3.201   3.391  11.629  0.0118 -0.2254 -0.1302
  390TMC3    C3 5826   3.076   3.352  11.676 -0.7209 -0.2436 -0.6727
  390TMC3    C4 5827   3.119   3.311  11.411  0.1541 -0.4168  0.0819
  390TMC3    C5 5828   3.004   3.269  11.467 -0.9580  0.0353 -0.5799
  390TMC3    C6 5829   2.971   3.296  11.598  0.4069 -0.0165  0.0971
  390TMC3     C 5830   3.296   3.467  11.415  0.1936  0.2248  1.1451
  390TMC3     O 5831   3.313   3.441  11.299  0.0417  0.3060  0.5185
  390TMC3     H 5832   3.276   3.432  11.695 -0.9772  0.0284  0.8446
  390TMC3    H1 5833   3.150   3.290  11.309 -0.4789 -0.7359 -0.0418
  390TMC3    H2 5834   2.874   3.268  11.639  0.4912 -0.4604 -0.0091
  390TMC3    C7 5835   2.927   3.168  11.395 -0.1242 -0.2413  0.6755
  390TMC3    C8 5836   3.087   3.283  11.805 -0.9863 -0.0559  0.4714
  390TMC3    O1 5837   2.974   3.127  11.289  0.1499 -0.2238 -0.3377
  390TMC3    O2 5838   3.173   3.192  11.811 -0.8080 -0.4917 -0.3815
  391MPD2     C 5839   3.043   0.360  11.435 -0.3841  0.6233 -0.8794
  391MPD2    C1 5840   3.159   0.425  11.393  0.1564  0.6118 -0.0045
  391MPD2    C2 5841   3.160   0.462  11.261 -0.0605  0.5712 -0.4823
  391MPD2    C3 5842   3.056   0.436  11.176  0.1037  0.2517 -0.1313
  391MPD2    C4 5843   2.950   0.359  11.210 -0.5713 -0.4286  0.4996
  391MPD2    C5 5844   2.952   0.320  11.343  0.5441  0.1972 -0.3517
  391MPD2     H 5845   3.246   0.520  11.228  0.9025  0.7630  2.3373
  391MPD2    H1 5846   2.874   0.327  11.139  0.1723 -3.4203  1.0399
  391MPD2    H2 5847   3.018   0.343  11.539 -1.1914  2.7500 -0.7338
  391MPD2    H3 5848   2.869   0.270  11.391  1.7944 -1.2051  0.3608
  391MPD2     N 5849   3.067   0.490  11.046 -0.3358  0.1730 -0.2610
  391MPD2    H5 5850   3.147   0.550  11.028 -0.7390  0.5274 -0.8853
  391MPD2    N1 5851   3.260   0.470  11.478 -0.0764  0.1349 -0.2299
  391MPD2    H7 5852   3.334   0.526  11.438  1.4972 -1.7884 -0.0638
  392TMC3    C1 5853   3.003   0.546  10.821 -0.4393  0.4090  0.4838
  392TMC3    C2 5854   2.913   0.591  10.727  0.5146 -0.3108 -0.3084
  392TMC3    C3 5855   2.951   0.666  10.620  0.0074 -0.3626 -0.5178
  392TMC3    C4 5856   3.134   0.579  10.802 -0.2579 -0.1361  0.0161
  392TMC3    C5 5857   3.170   0.650  10.691  0.9206  0.6790  0.3818
  392TMC3    C6 5858   3.078   0.709  10.603  0.0338  0.1116  0.3936
  392TMC3     C 5859   2.971   0.477  10.946 -0.5731  0.9135 -0.1157
  392TMC3     O 5860   2.861   0.427  10.938  0.1068  0.8907  0.2731
  392TMC3     H 5861   2.807   0.585  10.746  0.7369 -1.1416  0.6787
  392TMC3    H1 5862   3.210   0.539  10.868  0.3812  1.5175  0.2627
  392TMC3    H2 5863   3.110   0.775  10.524 -0.3214 -0.9971 -0.6708
  392TMC3    C7 5864   3.296   0.726  10.702 -0.5727  0.1967 -0.8592
  392TMC3    C8 5865   2.843   0.723  10.546 -0.2485  0.2249  0.0595
  392TMC3    O1 5866   3.329   0.756  10.815  0.0977  0.7274  0.4408
  392TMC3    O2 5867   2.738   0.660  10.534  0.0521 -0.1939  0.2673
  393TMC3    C1 5868   1.892   3.421  10.647  0.4496  0.1622  0.4014
  393TMC3    C2 5869   1.776   3.382  10.709 -0.5051  0.0208  0.0738
  393TMC3    C3 5870   1.756   3.245  10.706  0.3850 -0.0461 -0.6101
  393TMC3    C4 5871   1.991   3.336  10.596  0.6033 -0.6564 -1.1464
  393TMC3    C5 5872   1.958   3.209  10.597  1.1505  0.0934 -0.9634
  393TMC3    C6 5873   1.845   3.160  10.649 -1.3794  0.9495  0.2822
  393TMC3     C 5874   1.907   3.556  10.615 -0.2938 -0.4869  0.3647
  393TMC3     O 5875   1.813   3.621  10.569 -0.4493  0.0433  0.4047
  393TMC3     H 5876   1.709   3.457  10.750  0.9111 -0.0653  2.4980
  393TMC3    H1 5877   2.081   3.373  10.547  1.4761  0.7618  1.5358
  393TMC3    H2 5878   1.821   3.055  10.637  1.1154  0.4075  0.1061
  393TMC3    C7 5879   2.068   3.116  10.560  0.2515 -0.1024 -0.9136
  393TMC3    C8 5880   1.628   3.201  10.743  0.1311 -0.1026 -0.1401
  393TMC3    O1 5881   2.030   3.001  10.536 -0.3345  0.3049 -0.3395
  393TMC3    O2 5882   1.610   3.109  10.821  0.6049  0.3466  0.0435
  394TMC3    C1 5883   3.448   3.879  10.913  0.3991 -0.1147  0.3093
  394TMC3    C2 5884   3.336   3.871  10.834  0.3032 -0.7759  0.8336
  394TMC3    C3 5885   3.353   3.875  10.700  0.5265 -0.4737 -0.8815
  394TMC3    C4 5886   3.580   3.882  10.860  0.1525 -0.7288 -0.2956
  394TMC3    C5 5887   3.585   3.893  10.726 -0.1527  0.2519  0.1900
  394TMC3    C6 5888   3.474   3.874  10.644  0.3243  0.4801  0.7694
  394TMC3     C 5889   3.427   3.839  11.048  0.1104 -0.3229  0.6729
  394TMC3     O 5890   3.313   3.811  11.077  0.5087 -0.4520 -0.1747
  394TMC3     H 5891   3.238   3.879  10.880 -0.1261  0.0727 -0.2236
  394TMC3    H1 5892   3.669   3.883  10.921  0.5811 -0.9921 -0.9264
  394TMC3    H2 5893   3.492   3.879  10.537 -1.8906 -0.8765  0.3315
  394TMC3    C7 5894   3.717   3.880  10.665  0.2578 -0.0945 -0.2682
  394TMC3    C8 5895   3.240   3.843  10.614  0.2319 -0.2330 -0.2164
  394TMC3    O1 5896   3.793   3.968  10.690 -0.0804 -0.2330 -0.0574
  394TMC3    O2 5897   3.143   3.919  10.611  0.5130  0.5341 -0.0081
  395TMC3    C1 5898   3.072   0.833  14.833  0.1016  0.3318 -0.2196
  395TMC3    C2 5899   3.057   0.731  14.730  0.0065 -0.0946 -0.1201
  395TMC3    C3 5900   3.153   0.710  14.631  0.0749  0.2010  0.2794
  395TMC3    C4 5901   3.193   0.901  14.832  0.0920 -0.5261  0.2098
  395TMC3    C5 5902   3.280   0.884  14.733 -0.2219 -0.1265  0.0115
  395TMC3    C6 5903   3.270   0.790  14.633  0.0364  0.8621  0.6503
  395TMC3     C 5904   3.011   0.809  14.961 -0.3678  0.2185  0.3007
  395TMC3     O 5905   3.007   0.900  15.043 -0.0104  0.1839  0.5027
  395TMC3     H 5906   2.962   0.679  14.726  0.8846 -1.6393 -0.9863
  395TMC3    H1 5907   3.214   0.958  14.922 -0.7254 -2.1939  1.4602
  395TMC3    H2 5908   3.348   0.778  14.559 -0.7903 -0.0042 -0.0653
  395TMC3    C7 5909   3.405   0.961  14.747 -0.4863 -0.0172 -0.4719
  395TMC3    C8 5910   3.143   0.611  14.525  0.4961 -0.3181 -0.4209
  395TMC3    O1 5911   3.422   1.021  14.852 -0.0362  0.8184 -1.0305
  395TMC3    O2 5912   3.203   0.652  14.425 -0.3767  0.8011 -0.2498
  396MPD2     C 5913   3.157   2.144  17.319  0.1898  0.0951  0.0390
  396MPD2    C1 5914   3.281   2.180  17.269  0.3581  0.0999 -0.3525
  396MPD2    C2 5915   3.294   2.313  17.228  0.0215  0.2188 -0.1587
  396MPD2    C3 5916   3.187   2.402  17.227  0.6115 -0.4156  0.3758
  396MPD2    C4 5917   3.064   2.359  17.273  0.0940 -0.1130  0.3148
  396MPD2    C5 5918   3.054   2.230  17.325 -0.1023 -0.6192  0.7668
  396MPD2     H 5919   3.380   2.355  17.179  0.1162 -0.0076 -0.1837
  396MPD2    H1 5920   2.978   2.420  17.249  1.6656  1.1373 -2.1899
  396MPD2    H2 5921   3.136   2.047  17.362 -0.2578  0.3508  0.4022
  396MPD2    H3 5922   2.966   2.196  17.378 -0.4587  2.2099  1.9777
  396MPD2     N 5923   3.217   2.526  17.180 -0.1946  0.2497 -0.4691
  396MPD2    H5 5924   3.313   2.531  17.144 -1.3803  1.0410 -3.5615
  396MPD2    N1 5925   3.376   2.081  17.243 -0.1280 -0.2863 -0.0413
  396MPD2    H7 5926   3.341   1.986  17.254 -2.2171  0.7026  2.0619
  397TMC3    C1 5927   3.562   2.010  17.120 -0.2120  1.2086 -0.3818
  397TMC3    C2 5928   3.577   2.048  16.990  0.1917  0.1324  0.0062
  397TMC3    C3 5929   3.515   1.974  16.895  0.5098  0.5480  0.3341
  397TMC3    C4 5930   3.517   1.882  17.150 -0.2186 -0.2937 -0.3089
  397TMC3    C5 5931   3.480   1.803  17.044  0.0801 -0.1700  0.6425
  397TMC3    C6 5932   3.478   1.844  16.914 -0.5098 -0.2561 -0.1055
  397TMC3     C 5933   3.505   2.112  17.196  0.1350  0.3188  0.4894
  397TMC3     O 5934   3.563   2.222  17.194  0.1754  0.1309  0.3685
  397TMC3     H 5935   3.601   2.150  16.961 -2.8580  1.2072  1.2650
  397TMC3    H1 5936   3.532   1.844  17.251  1.7555  1.4427  0.0573
  397TMC3    H2 5937   3.419   1.788  16.842  0.3589 -1.6697  0.2792
  397TMC3    C7 5938   3.477   1.664  17.071  0.0913  0.1666 -0.7859
  397TMC3    C8 5939   3.420   2.046  16.811  0.1261  0.6379  0.3459
  397TMC3    O1 5940   3.507   1.595  16.978 -0.0444 -0.2254 -0.0406
  397TMC3    O2 5941   3.348   1.985  16.734  0.0671  0.2181  0.0504
  398MPD2     C 5942   1.628   2.801   0.755 -0.2548  0.0545 -0.4943
  398MPD2    C1 5943   1.624   2.664   0.779  0.0772 -1.2768  0.6742
  398MPD2    C2 5944   1.687   2.609   0.893  0.5331  0.3342  1.5340
  398MPD2    C3 5945   1.753   2.702   0.977 -0.2000 -0.0821 -0.4242
  398MPD2    C4 5946   1.747   2.836   0.952  0.1056  0.6469  0.8294
  398MPD2    C5 5947   1.677   2.887   0.849  0.3593 -0.3233 -1.1390
  398MPD2     H 5948   1.691   2.502   0.909  1.0962  0.1267  0.0182
  398MPD2    H1 5949   1.804   2.910   1.006 -0.6846  0.5305  1.8204
  398MPD2    H2 5950   1.576   2.845   0.671 -0.0024 -0.8756 -1.1411
  398MPD2    H3 5951   1.670   2.994   0.834  3.8713 -0.0765 -0.9902
  398MPD2     N 5952   1.822   2.649   1.087 -0.3626  0.5984 -0.4730
  398MPD2    H5 5953   1.823   2.548   1.093 -0.7900  0.7396  1.7627
  398MPD2    N1 5954   1.566   2.569   0.692 -0.3291 -0.2805  0.6074
  398MPD2    H7 5955   1.563   2.474   0.726  1.4830 -1.6830 -3.0984
  399TMC3    C1 5956   1.414   2.472   0.547 -0.4544  0.8727  0.4502
  399TMC3    C2 5957   1.433   2.349   0.611 -0.8156  0.2566  0.2542
  399TMC3    C3 5958   1.362   2.245   0.552  0.3020  0.2464  0.6875
  399TMC3    C4 5959   1.342   2.490   0.438 -0.9524 -0.0818 -0.4142
  399TMC3    C5 5960   1.278   2.381   0.387 -0.6514 -0.3461  0.3647
  399TMC3    C6 5961   1.285   2.256   0.441 -0.4144  0.2284  0.0901
  399TMC3     C 5962   1.485   2.593   0.585  0.0936  0.3371 -0.2425
  399TMC3     O 5963   1.463   2.696   0.525  0.7749  0.2553  0.2634
  399TMC3     H 5964   1.499   2.322   0.693 -0.3835 -1.0532 -0.5274
  399TMC3    H1 5965   1.319   2.589   0.399 -0.4164  0.2447  0.1049
  399TMC3    H2 5966   1.235   2.176   0.387  0.3934  0.5378 -1.1212
  399TMC3    C7 5967   1.180   2.408   0.283 -0.6287  0.4742 -0.1611
  399TMC3    C8 5968   1.401   2.112   0.592  0.0523 -0.4548 -0.0916
  399TMC3    O1 5969   1.182   2.517   0.228 -0.3343  0.3993 -0.4683
  399TMC3    O2 5970   1.505   2.100   0.653  0.2784  0.0940  0.3782
  400TMC3    C1 5971   0.182   1.579  16.854 -0.3391 -0.0931 -0.7822
  400TMC3    C2 5972   0.045   1.563  16.845  0.7598  0.1404  0.1184
  400TMC3    C3 5973   4.701   1.683  16.824  0.6887 -0.3339  0.3238
  400TMC3    C4 5974   0.254   1.695  16.850  0.2663  0.4454 -0.0729
  400TMC3    C5 5975   0.180   1.807  16.836  1.1440  0.5412 -0.1692
  400TMC3    C6 5976   0.043   1.804  16.825 -0.2925  0.2736 -0.0454
  400TMC3     C 5977   0.241   1.462  16.916 -0.3072 -0.1191  0.3240
  400TMC3     O 5978   0.181   1.355  16.905 -0.2699 -0.0581  0.3286
  400TMC3     H 5979   4.719   1.466  16.852  0.5110  0.3726  1.7089
  400TMC3    H1 5980   0.362   1.702  16.852  0.2636  0.1387  1.1966
  400TMC3    H2 5981   4.713   1.898  16.809 -0.5434 -0.6233 -4.4483
  400TMC3    C7 5982   0.250   1.924  16.812  0.2332  1.0346  0.4282
  400TMC3    C8 5983   4.565   1.677  16.773  0.0211  0.5203  0.2453
  400TMC3    O1 5984   0.305   1.920  16.702 -0.3878  0.5032  0.0026
  400TMC3    O2 5985   4.514   1.785  16.751  0.0413 -0.0253  0.9756
  401MPD2     C 5986   3.237   0.062   0.395 -0.0034  0.2335 -0.2808
  401MPD2    C1 5987   3.228   4.720   0.518  0.3481  0.2755 -0.0215
  401MPD2    C2 5988   3.211   4.587   0.520 -0.3450  0.2156  0.8524
  401MPD2    C3 5989   3.185   4.508   0.409 -0.8936  0.2840 -0.0261
  401MPD2    C4 5990   3.191   4.573   0.290  0.4807 -0.6489 -0.4627
  401MPD2    C5 5991   3.221   4.711   0.280 -0.5473  0.5234 -0.6957
  401MPD2     H 5992   3.213   4.531   0.613 -0.2935 -0.7837  0.2486
  401MPD2    H1 5993   3.183   4.511   0.202 -3.6062 -0.3672 -0.2582
  401MPD2    H2 5994   3.230   0.169   0.385  0.3263  0.2630 -0.2103
  401MPD2    H3 5995   3.237   0.030   0.181 -1.5007 -0.4438 -1.2457
  401MPD2     N 5996   3.138   4.369   0.403 -0.1973  0.3535  0.3871
  401MPD2    H5 5997   3.137   4.322   0.313  0.2535  2.5701 -0.7860
  401MPD2    N1 5998   3.236   0.068   0.639 -0.3534 -0.0208  0.7826
  401MPD2    H7 5999   3.232   0.013   0.724 -0.8048  1.1234  1.5099
  402TMC3    C1 6000   3.055   4.161   0.473 -0.5656 -0.4323  0.4553
  402TMC3    C2 6001   3.014   4.093   0.581  0.1338  0.1261 -0.7255
  402TMC3    C3 6002   3.039   3.960   0.585  0.3994  0.1252  0.9769
  402TMC3    C4 6003   3.120   4.106   0.366 -0.6636 -0.5782 -0.3950
  402TMC3    C5 6004   3.144   3.969   0.372 -0.2561  0.2950 -0.5148
  402TMC3    C6 6005   3.100   3.891   0.484 -0.3669  0.5611 -0.1493
  402TMC3     C 6006   3.072   4.303   0.500 -0.7285  0.5967 -0.0450
  402TMC3     O 6007   3.040   4.349   0.611 -0.5854  0.3294  0.2743
  402TMC3     H 6008   2.970   4.141   0.668 -0.9098 -0.5399 -0.8910
  402TMC3    H1 6009   3.136   4.150   0.269  2.7864  3.0513  1.8200
  402TMC3    H2 6010   3.104   3.783   0.473 -0.5512  0.1948  3.4391
  402TMC3    C7 6011   3.231   3.898   0.287 -0.5819  0.3385  0.4096
  402TMC3    C8 6012   2.970   3.879   0.684  0.0415  0.0171 -0.6587
  402TMC3    O1 6013   3.220   3.780   0.274  0.0773 -0.5076 -0.3759
  402TMC3    O2 6014   3.024   3.777   0.728 -0.5978  0.2110 -0.1482
  403MPD2     C 6015   1.433   3.275  13.392 -0.3571  0.5811  0.0305
  403MPD2    C1 6016   1.429   3.152  13.451 -0.6264  0.3173  0.2545
  403MPD2    C2 6017   1.474   3.133  13.580 -0.2022 -0.1349 -0.2702
  403MPD2    C3 6018   1.538   3.232  13.644  0.2703  0.4113  0.4382
  403MPD2    C4 6019   1.544   3.357  13.582  0.0168 -0.2497 -0.3192
  403MPD2    C5 6020   1.487   3.380  13.462  0.3126  0.3611 -0.3247
  403MPD2     H 6021   1.450   3.040  13.630 -0.8151  0.5014  0.6012
  403MPD2    H1 6022   1.593   3.433  13.641  2.1577 -1.2185 -0.8704
  403MPD2    H2 6023   1.404   3.289  13.288 -2.8410 -2.8083  0.2708
  403MPD2    H3 6024   1.489   3.477  13.413  2.2554  1.2050  1.4318
  403MPD2     N 6025   1.578   3.214  13.778  0.1061  0.2142 -0.6169
  403MPD2    H5 6026   1.618   3.290  13.832  1.0503 -1.6589  1.2727
  403MPD2    N1 6027   1.345   3.051  13.382 -0.1186 -0.8439 -0.3021
  403MPD2    H7 6028   1.301   3.080  13.295  1.5723  2.4566 -0.0668
  404TMC3    C1 6029   1.207   2.866  13.354  0.6187 -0.2198  0.1936
  404TMC3    C2 6030   1.157   2.748  13.406  1.3839 -0.6879  0.1185
  404TMC3    C3 6031   1.055   2.690  13.336  0.7237  0.6793 -0.4118
  404TMC3    C4 6032   1.149   2.926  13.243 -0.0490  0.2541 -0.1549
  404TMC3    C5 6033   1.054   2.863  13.178  0.0422  0.3752  0.1435
  404TMC3    C6 6034   1.014   2.741  13.215  0.0049  0.0217  0.1865
  404TMC3     C 6035   1.324   2.924  13.420  0.2365 -0.2437 -0.3424
  404TMC3     O 6036   1.359   2.866  13.524 -0.0122 -0.1328 -0.1239
  404TMC3     H 6037   1.196   2.703  13.496  0.5591 -2.6392 -0.4891
  404TMC3    H1 6038   1.185   3.022  13.207 -1.6862  0.7290 -0.5231
  404TMC3    H2 6039   0.940   2.692  13.153 -0.9075  1.6482 -0.0285
  404TMC3    C7 6040   1.028   2.915  13.045 -0.1564  0.4021 -0.8798
  404TMC3    C8 6041   1.015   2.555  13.363 -0.4606  0.2068  0.2609
  404TMC3    O1 6042   1.109   2.993  12.994  0.1184 -0.5129 -0.4089
  404TMC3    O2 6043   0.979   2.485  13.269 -0.2472 -0.6232 -0.3466
  405MPD2     C 6044   1.364   3.071  15.005  0.1765  0.0978 -0.4588
  405MPD2    C1 6045   1.363   3.065  14.870 -0.4822  0.0759 -0.2049
  405MPD2    C2 6046   1.284   3.152  14.803 -0.5151 -0.2610 -0.2668
  405MPD2    C3 6047   1.195   3.245  14.853 -0.9641  0.0287 -0.2360
  405MPD2    C4 6048   1.190   3.242  14.998  0.0463 -0.5072 -0.4910
  405MPD2    C5 6049   1.272   3.155  15.062 -0.4498 -0.2045  0.4101
  405MPD2     H 6050   1.283   3.137  14.696 -1.3486 -0.6201 -0.2076
  405MPD2    H1 6051   1.124   3.306  15.056  1.2384 -1.2347  1.6641
  405MPD2    H2 6052   1.423   3.008  15.071  0.5506  0.0759 -0.8207
  405MPD2    H3 6053   1.271   3.159  15.170 -1.3434  0.1850  0.3889
  405MPD2     N 6054   1.111   3.324  14.774 -0.1675 -0.7395  0.1685
  405MPD2    H5 6055   1.127   3.315  14.674 -0.5971  0.0555  0.0246
  405MPD2    N1 6056   1.441   2.975  14.791 -0.2085  0.5712 -0.1111
  405MPD2    H7 6057   1.442   2.993  14.691 -0.3196  1.2429  0.0084
  406TMC3    C1 6058   0.865   3.658  14.586 -0.4482 -0.3622 -0.0948
  406TMC3    C2 6059   0.885   3.597  14.461  0.4297 -0.0239 -0.2321
  406TMC3    C3 6060   0.936   3.469  14.460  0.0853  0.3567 -0.6043
  406TMC3    C4 6061   0.891   3.597  14.709 -0.4061 -0.1856  0.1660
  406TMC3    C5 6062   0.941   3.470  14.701 -0.1895 -0.4619  0.1990
  406TMC3    C6 6063   0.953   3.404  14.577 -0.4273 -1.0685  1.0234
  406TMC3     C 6064   0.759   3.750  14.594 -0.4235 -0.3954  0.3052
  406TMC3     O 6065   0.743   3.826  14.497 -0.3846  0.7178 -0.0281
  406TMC3     H 6066   0.875   3.654  14.370 -1.4812 -0.7976 -0.5125
  406TMC3    H1 6067   0.900   3.651  14.803 -0.6524 -0.3440  0.2812
  406TMC3    H2 6068   0.969   3.298  14.586  1.2385 -0.9288 -0.5304
  406TMC3    C7 6069   1.016   3.413  14.815  0.4571 -0.0790 -0.2097
  406TMC3    C8 6070   0.971   3.396  14.337 -0.5308  0.1170  0.4446
  406TMC3    O1 6071   0.984   3.446  14.932 -0.3352  0.5077  0.2779
  406TMC3    O2 6072   0.896   3.405  14.238  0.2359  0.4556 -0.7738
  407MPD2     C 6073   3.677   0.513   9.534 -0.6577  1.1216  0.3796
  407MPD2    C1 6074   3.811   0.486   9.532  0.0049  0.0747 -0.0750
  407MPD2    C2 6075   3.890   0.453   9.638 -0.3170  0.8365  0.5567
  407MPD2    C3 6076   3.827   0.458   9.766 -0.3578 -0.8628  0.3980
  407MPD2    C4 6077   3.691   0.476   9.762  0.8486  0.2033 -0.5383
  407MPD2    C5 6078   3.618   0.510   9.649  0.8442  0.0205 -0.1047
  407MPD2     H 6079   3.998   0.442   9.638 -0.4431 -0.2710 -1.5852
  407MPD2    H1 6080   3.641   0.480   9.858 -1.5315 -1.1269 -1.7370
  407MPD2    H2 6081   3.621   0.546   9.447 -3.1990 -1.1794  1.1664
  407MPD2    H3 6082   3.515   0.545   9.651  0.3298 -1.4955  0.4702
  407MPD2     N 6083   3.890   0.449   9.892  0.2809  0.3974 -0.2930
  407MPD2    H5 6084   3.833   0.470   9.973  0.4805  0.8770 -0.2826
  407MPD2    N1 6085   3.881   0.487   9.405  0.1608 -0.0219  0.8850
  407MPD2    H7 6086   3.982   0.481   9.415  0.4689  1.4605 -1.3097
  408TMC3    C1 6087   3.929   0.526   9.182  0.0523 -0.4580  0.2428
  408TMC3    C2 6088   4.015   0.422   9.175 -0.4803  0.3250 -0.4524
  408TMC3    C3 6089   4.137   0.441   9.105 -0.1117  0.2879 -0.7071
  408TMC3    C4 6090   3.957   0.649   9.148 -0.4997 -0.2406  0.7047
  408TMC3    C5 6091   4.078   0.663   9.092  0.3217  0.7588 -0.5045
  408TMC3    C6 6092   4.175   0.565   9.068 -0.1572  0.0719 -0.1685
  408TMC3     C 6093   3.828   0.511   9.284 -0.0125  0.6662  0.0375
  408TMC3     O 6094   3.718   0.559   9.252 -0.4185  0.2255  0.0290
  408TMC3     H 6095   3.978   0.324   9.202  2.1652  0.0390  2.0381
  408TMC3    H1 6096   3.893   0.733   9.172 -0.0295  0.6080 -0.9890
  408TMC3    H2 6097   4.252   0.576   8.993 -0.8671 -0.2655 -0.9454
  408TMC3    C7 6098   4.154   0.778   9.134  0.5809 -0.3944  0.5047
  408TMC3    C8 6099   4.235   0.344   9.130  0.4272 -0.0586  0.8497
  408TMC3    O1 6100   4.265   0.769   9.177  0.2416  0.6010  0.4674
  408TMC3    O2 6101   4.204   0.224   9.138 -0.4081  0.0283  0.4805
  409MPD2     C 6102   3.716   1.060  17.127  0.1142  0.5882 -0.6114
  409MPD2    C1 6103   3.825   1.078  17.203 -0.3947 -0.1969  0.8123
  409MPD2    C2 6104   3.912   1.187  17.177 -0.5147 -0.8012  0.8810
  409MPD2    C3 6105   3.886   1.274  17.079  0.4552  0.2045  0.0215
  409MPD2    C4 6106   3.761   1.260  17.011  0.7170  0.0176 -0.3695
  409MPD2    C5 6107   3.688   1.146  17.025  0.6052 -0.0748  0.4075
  409MPD2     H 6108   3.997   1.202  17.243  2.0378 -2.2981 -2.0286
  409MPD2    H1 6109   3.739   1.328  16.929  3.8966  2.0941  0.5085
  409MPD2    H2 6110   3.651   0.973  17.132 -0.5286  1.0008 -1.6723
  409MPD2    H3 6111   3.598   1.117  16.972 -0.0029  2.2221  0.2108
  409MPD2     N 6112   3.966   1.394  17.048  0.2063 -0.3229 -0.2945
  409MPD2    H5 6113   3.931   1.451  16.972 -0.5654 -0.7612 -0.2638
  409MPD2    N1 6114   3.852   0.987  17.305  0.2423  0.3154  0.0560
  409MPD2    H7 6115   3.930   1.011  17.366  0.4750 -1.7182  0.5550
  410TMC3    C1 6116   4.153   1.546  17.065 -0.9869 -0.5660  0.8510
  410TMC3    C2 6117   4.282   1.569  17.103  0.2805  0.1617  0.0839
  410TMC3    C3 6118   4.337   1.686  17.051  0.2769 -0.5923  0.4177
  410TMC3    C4 6119   4.085   1.635  16.982 -0.3296 -0.2026 -0.2145
  410TMC3    C5 6120   4.146   1.752  16.947  0.1151 -0.4370  0.2227
  410TMC3    C6 6121   4.279   1.783  16.977 -0.1480  0.3057  0.0952
  410TMC3     C 6122   4.087   1.424  17.108  1.1825  0.3584  0.4011
  410TMC3     O 6123   4.153   1.363  17.192  0.7586 -0.6386  0.3760
  410TMC3     H 6124   4.342   1.503  17.165 -0.8411  0.2657  1.2776
  410TMC3    H1 6125   3.983   1.610  16.955  0.9852 -3.3657 -2.3370
  410TMC3    H2 6126   4.342   1.853  16.924  1.0531 -0.6752  0.2105
  410TMC3    C7 6127   4.076   1.848  16.868 -0.2609 -0.0836 -0.5236
  410TMC3    C8 6128   4.463   1.720  17.100  0.6501  0.1913 -0.7689
  410TMC3    O1 6129   4.139   1.948  16.832 -0.4941  0.3589 -0.3999
  410TMC3    O2 6130   4.480   1.840  17.109  0.3517  0.2767  0.1508
  411MPD2     C 6131   3.879   2.039  14.645 -0.2870  0.5199  0.5918
  411MPD2    C1 6132   3.746   2.031  14.611  0.1148 -0.6536 -0.4370
  411MPD2    C2 6133   3.697   1.908  14.570 -0.3638 -0.1148 -0.7310
  411MPD2    C3 6134   3.778   1.799  14.568  0.0104  0.2362  0.0914
  411MPD2    C4 6135   3.917   1.820  14.575 -0.0884  0.5043  0.5039
  411MPD2    C5 6136   3.966   1.936  14.622  0.0267  0.2440  0.0705
  411MPD2     H 6137   3.589   1.899  14.557 -0.4973 -0.0776  0.3256
  411MPD2    H1 6138   3.987   1.752  14.530 -0.7013 -0.5670  1.1788
  411MPD2    H2 6139   3.926   2.126  14.690  0.2529  0.7525 -0.4330
  411MPD2    H3 6140   4.072   1.940  14.645 -0.0449 -2.2115  0.8548
  411MPD2     N 6141   3.726   1.675  14.521  0.0457 -0.1204  0.0315
  411MPD2    H5 6142   3.797   1.605  14.503 -1.2263 -1.2967 -0.3455
  411MPD2    N1 6143   3.667   2.150  14.612  0.1608 -1.1496  0.4762
  411MPD2    H7 6144   3.720   2.233  14.635 -2.8290  0.6120  1.0609
  412TMC3    C1 6145   3.567   1.512  14.461  0.2296 -0.2119 -0.9876
  412TMC3    C2 6146   3.450   1.441  14.492  0.6974  0.7279 -0.6397
  412TMC3    C3 6147   3.415   1.343  14.404  0.5007  0.3756 -0.0772
  412TMC3    C4 6148   3.636   1.487  14.342  0.0791  0.3742 -1.0528
  412TMC3    C5 6149   3.591   1.389  14.260 -0.7022 -0.2767 -0.1021
  412TMC3    C6 6150   3.487   1.301  14.300  0.3545 -0.7612  0.2078
  412TMC3     C 6151   3.596   1.644  14.528 -0.1127  0.4450  0.2050
  412TMC3     O 6152   3.507   1.671  14.611 -0.1383  0.2555  0.3461
  412TMC3     H 6153   3.402   1.467  14.586  0.8746 -2.6411  0.3841
  412TMC3    H1 6154   3.731   1.531  14.318 -0.2185 -0.2081 -3.2798
  412TMC3    H2 6155   3.438   1.238  14.227  1.0825 -1.3566  0.2310
  412TMC3    C7 6156   3.559   1.454  14.132 -0.0133 -0.1428  0.0080
  412TMC3    C8 6157   3.277   1.302  14.414  0.0661  0.4116 -0.4027
  412TMC3    O1 6158   3.477   1.391  14.066  0.2680  0.2642 -0.0154
  412TMC3    O2 6159   3.204   1.370  14.484 -0.3204  0.6276  0.2241
  413MPD2     C 6160   0.061   0.277  15.690  0.1074 -0.7097 -0.1954
  413MPD2    C1 6161   0.042   0.247  15.558  0.3638 -0.4804 -0.4864
  413MPD2    C2 6162   0.123   0.148  15.507 -0.2166 -0.1995 -0.1537
  413MPD2    C3 6163   0.234   0.096  15.576 -0.9260  0.1400  0.0956
  413MPD2    C4 6164   0.267   0.152  15.702 -0.8849  0.0028  0.1779
  413MPD2    C5 6165   0.169   0.228  15.762 -0.1368  0.7182  0.0995
  413MPD2     H 6166   0.091   0.103  15.414  0.4342  0.2038 -0.5719
  413MPD2    H1 6167   0.355   0.124  15.758 -0.2539  0.7462 -0.4558
  413MPD2    H2 6168   4.707   0.342  15.735  0.8086  1.1704 -1.7554
  413MPD2    H3 6169   0.189   0.260  15.864 -1.9461  0.7895  0.4219
  413MPD2     N 6170   0.303   4.712  15.511  0.2702 -0.2095 -0.0293
  413MPD2    H5 6171   0.282   4.675  15.419  0.3404  0.8215 -0.4548
  413MPD2    N1 6172   4.651   0.312  15.496 -0.2686  0.1229  0.7792
  413MPD2    H7 6173   4.585   0.363  15.555  1.4475  1.9656  1.1383
  414TMC3    C1 6174   0.461   4.548  15.487  0.3707 -0.1668  0.9960
  414TMC3    C2 6175   0.483   4.433  15.556  0.9587  0.0730 -0.7628
  414TMC3    C3 6176   0.524   4.320  15.491  0.4430 -0.2579 -0.8022
  414TMC3    C4 6177   0.472   4.561  15.353 -0.4937 -0.6788 -0.5324
  414TMC3    C5 6178   0.516   4.446  15.293 -0.9809 -0.2721 -0.5805
  414TMC3    C6 6179   0.544   4.330  15.355  0.5267  0.0476  0.3286
  414TMC3     C 6180   0.416   4.657  15.569  0.2419 -0.1464 -0.3979
  414TMC3     O 6181   0.466   4.668  15.681  0.2025 -0.6681 -0.0414
  414TMC3     H 6182   0.452   4.444  15.659 -0.7094 -0.2340 -1.2200
  414TMC3    H1 6183   0.454   4.647  15.290  0.7954 -0.2420 -0.3051
  414TMC3    H2 6184   0.573   4.246  15.294 -1.8599 -1.2897  1.0100
  414TMC3    C7 6185   0.596   4.476  15.176  0.7459  0.3081 -0.1841
  414TMC3    C8 6186   0.553   4.194  15.553 -0.9024  1.0505  0.7276
  414TMC3    O1 6187   0.557   4.554  15.091 -0.0794  0.8108 -0.2958
  414TMC3    O2 6188   0.576   4.103  15.477 -0.6500  0.2410 -0.2944
  415TMC3    C1 6189   1.188   2.866   9.816 -0.2142 -0.0567 -0.4120
  415TMC3    C2 6190   1.316   2.913   9.796  0.1686 -0.0424 -0.6610
  415TMC3    C3 6191   1.362   2.921   9.667  0.2826  0.2973  0.1041
  415TMC3    C4 6192   1.098   2.848   9.717 -0.7301  0.8802  0.0678
  415TMC3    C5 6193   1.154   2.851   9.587 -1.1132  0.7862 -0.3906
  415TMC3    C6 6194   1.283   2.888   9.557  1.0596  0.4980  0.8276
  415TMC3     C 6195   1.128   2.858   9.947  0.1817 -0.7410  0.3078
  415TMC3     O 6196   1.008   2.868   9.962 -0.2488  0.3027 -0.0283
  415TMC3     H 6197   1.388   2.942   9.872 -1.9494 -0.9658  1.6808
  415TMC3    H1 6198   0.992   2.836   9.737 -0.1686 -0.3066  2.3470
  415TMC3    H2 6199   1.326   2.891   9.457 -1.3610  1.3796 -0.1996
  415TMC3    C7 6200   1.064   2.826   9.474 -0.2683 -0.2252  0.0935
  415TMC3    C8 6201   1.506   2.936   9.634 -0.2344  0.1985  0.8291
  415TMC3    O1 6202   1.105   2.871   9.364 -0.1404  0.8491  0.3221
  415TMC3    O2 6203   1.538   2.896   9.522  0.3368  0.0310  0.4590
  416MPD2     C 6204   3.263   1.342  11.825  0.2158 -0.5476  1.0650
  416MPD2    C1 6205   3.187   1.386  11.718 -0.0174  0.0722 -0.1592
  416MPD2    C2 6206   3.213   1.340  11.594  0.4547  0.0481 -0.4101
  416MPD2    C3 6207   3.319   1.257  11.566 -0.0970  0.0400 -0.5693
  416MPD2    C4 6208   3.393   1.220  11.669  0.6285  0.0417 -0.3651
  416MPD2    C5 6209   3.371   1.269  11.798 -0.3636  0.0142 -0.0899
  416MPD2     H 6210   3.147   1.361  11.511 -1.5234  0.8637  1.3590
  416MPD2    H1 6211   3.481   1.159  11.651  0.1832 -0.2883 -1.4136
  416MPD2    H2 6212   3.255   1.380  11.926 -0.5795  0.6537  0.5557
  416MPD2    H3 6213   3.432   1.236  11.882  0.8181  2.7274  0.1438
  416MPD2     N 6214   3.368   1.211  11.438  0.1140 -0.4326 -0.8608
  416MPD2    H5 6215   3.447   1.148  11.441 -1.3351 -2.2330 -0.2575
  416MPD2    N1 6216   3.070   1.460  11.751 -0.3838  0.0676 -0.0681
  416MPD2    H7 6217   3.062   1.493  11.847 -1.2203  1.0424 -0.4757
  417TMC3    C1 6218   2.880   1.586  11.728  0.6176 -0.4455 -0.0832
  417TMC3    C2 6219   2.826   1.546  11.853 -0.5401 -0.4709 -0.1597
  417TMC3    C3 6220   2.707   1.605  11.893 -0.4918  0.8944  0.3588
  417TMC3    C4 6221   2.827   1.690  11.658  0.0876  0.1091  0.2901
  417TMC3    C5 6222   2.711   1.745  11.706 -0.0065  0.4213 -0.5237
  417TMC3    C6 6223   2.648   1.693  11.817  0.5373 -0.2456 -0.1850
  417TMC3     C 6224   2.983   1.507  11.662 -0.2108  0.1710 -0.4339
  417TMC3     O 6225   2.972   1.503  11.542 -0.1385  0.4285  0.1623
  417TMC3     H 6226   2.881   1.472  11.910 -2.1837 -1.0573  0.6589
  417TMC3    H1 6227   2.880   1.723  11.569  0.1137  1.1169  0.6834
  417TMC3    H2 6228   2.550   1.728  11.848  0.0545 -0.2262 -1.7105
  417TMC3    C7 6229   2.641   1.831  11.611  0.4376 -0.1743 -0.1993
  417TMC3    C8 6230   2.667   1.615  12.034 -0.3229 -0.1492 -0.4586
  417TMC3    O1 6231   2.700   1.848  11.509  0.2586 -0.7676 -0.5823
  417TMC3    O2 6232   2.589   1.702  12.071  0.1601 -0.0193  0.2478
  418TMC3    C1 6233   2.016   2.401   1.280 -0.0549  0.2014 -0.2178
  418TMC3    C2 6234   2.002   2.515   1.210  0.3182  0.2962  0.3470
  418TMC3    C3 6235   1.937   2.613   1.282 -0.1693  0.4124 -0.5789
  418TMC3    C4 6236   1.971   2.378   1.408  0.7479 -0.7780  0.9863
  418TMC3    C5 6237   1.899   2.482   1.469  0.1758 -0.5098 -0.2567
  418TMC3    C6 6238   1.870   2.600   1.398 -0.3944  1.1718  0.2664
  418TMC3     C 6239   2.096   2.309   1.210 -0.9082  0.5045 -0.1213
  418TMC3     O 6240   2.185   2.356   1.139  0.2416 -0.3165 -0.2864
  418TMC3     H 6241   2.068   2.539   1.127 -0.6314  1.7587  0.0159
  418TMC3    H1 6242   2.002   2.294   1.470  1.4366 -1.5966 -0.4585
  418TMC3    H2 6243   1.808   2.682   1.433  0.5494  0.7417  2.9918
  418TMC3    C7 6244   1.807   2.449   1.580  0.3464  0.4628  0.1007
  418TMC3    C8 6245   1.880   2.714   1.191 -0.5139  0.0232 -0.6595
  418TMC3    O1 6246   1.763   2.534   1.654 -0.1185 -0.3319 -0.6291
  418TMC3    O2 6247   1.897   2.829   1.223  0.4325 -0.2497 -0.4444
  419MPD2     C 6248   0.209   1.436  12.736 -0.1156 -0.0933 -0.2139
  419MPD2    C1 6249   0.248   1.567  12.743 -0.2926 -0.2038 -0.3598
  419MPD2    C2 6250   0.246   1.637  12.867  0.1623 -0.0820 -0.6122
  419MPD2    C3 6251   0.205   1.569  12.982 -0.3643 -0.6724 -0.0616
  419MPD2    C4 6252   0.172   1.431  12.970 -0.9004  0.1613  0.1279
  419MPD2    C5 6253   0.181   1.369  12.851 -0.1416 -0.4757  1.0700
  419MPD2     H 6254   0.266   1.743  12.872  0.3938 -0.0709 -1.6962
  419MPD2    H1 6255   0.151   1.371  13.057  1.4672 -0.7522  0.0551
  419MPD2    H2 6256   0.195   1.380  12.643 -2.1731  0.1225 -0.0394
  419MPD2    H3 6257   0.163   1.263  12.845 -2.7601 -0.0220  0.8887
  419MPD2     N 6258   0.179   1.643  13.099 -0.0253 -0.5612  0.1339
  419MPD2    H5 6259   0.182   1.743  13.083  0.5505 -0.7369 -0.8966
  419MPD2    N1 6260   0.265   1.648  12.627 -0.7517 -0.5114  0.3741
  419MPD2    H7 6261   0.249   1.747  12.644  0.4385 -0.4382  1.0802
  420TMC3    C1 6262   0.120   1.693  13.318  0.0359 -0.1025 -0.3789
  420TMC3    C2 6263   0.028   1.796  13.298 -0.6324 -0.1114  0.3619
  420TMC3    C3 6264   4.693   1.849  13.409  0.5050  0.3151  0.8170
  420TMC3    C4 6265   0.139   1.651  13.446  0.3817 -0.4531 -0.0723
  420TMC3    C5 6266   0.079   1.705  13.551  0.1179  0.4687  0.3503
  420TMC3    C6 6267   4.706   1.804  13.533  0.4587  0.8713 -0.0179
  420TMC3     C 6268   0.140   1.598  13.218 -0.5509  0.6988  0.8017
  420TMC3     O 6269   0.129   1.481  13.252 -0.1550  0.1672  0.4828
  420TMC3     H 6270   0.017   1.835  13.197 -1.8011 -0.4320  0.3707
  420TMC3    H1 6271   0.201   1.563  13.461 -0.5844 -0.9300  1.1438
  420TMC3    H2 6272   4.647   1.848  13.613 -1.4244 -0.4176 -0.6923
  420TMC3    C7 6273   0.090   1.632  13.677  0.7713  0.3114 -0.6040
  420TMC3    C8 6274   4.607   1.964  13.374 -0.5780 -0.2529  0.0663
  420TMC3    O1 6275   0.175   1.544  13.684  0.2817  0.2098 -0.3041
  420TMC3    O2 6276   4.622   2.018  13.266 -0.3028 -0.6016 -0.1790
  421TMC3    C1 6277   1.632   3.109  13.971  0.1436  0.7431 -0.4547
  421TMC3    C2 6278   1.547   3.173  14.051 -0.8131 -0.2637  0.6934
  421TMC3    C3 6279   1.560   3.147  14.185 -0.5898  0.1926 -0.3819
  421TMC3    C4 6280   1.727   3.025  14.026 -0.4141 -0.4891  1.3988
  421TMC3    C5 6281   1.729   2.987  14.153 -0.2258 -0.0541 -0.1257
  421TMC3    C6 6282   1.636   3.046  14.237 -0.1147  0.2338  0.0835
  421TMC3     C 6283   1.600   3.094  13.832 -0.0890 -0.0937 -0.3641
  421TMC3     O 6284   1.582   2.974  13.802 -0.3665 -0.3194  0.1814
  421TMC3     H 6285   1.484   3.245  14.002  2.2703  1.7241 -0.3763
  421TMC3    H1 6286   1.798   2.992  13.951 -0.3097 -1.1266  1.7790
  421TMC3    H2 6287   1.643   3.037  14.345  0.3078 -2.3584 -0.1611
  421TMC3    C7 6288   1.791   2.867  14.199  0.5237 -0.0162 -0.2530
  421TMC3    C8 6289   1.571   3.269  14.264  0.0805 -0.8283 -0.0025
  421TMC3    O1 6290   1.732   2.809  14.289 -0.3359 -0.2925 -0.0721
  421TMC3    O2 6291   1.614   3.364  14.203 -0.0075  0.2567 -0.1796
  422TMC3    C1 6292   4.001   4.463  12.722  0.2303 -0.0016  0.0261
  422TMC3    C2 6293   3.984   4.600  12.725 -0.2863  0.7777  0.2087
  422TMC3    C3 6294   3.856   4.649  12.754 -0.1808  0.1214 -0.7670
  422TMC3    C4 6295   3.891   4.384  12.752  0.1278 -0.4079  0.1220
  422TMC3    C5 6296   3.770   4.439  12.775  0.4513 -0.2353  0.0882
  422TMC3    C6 6297   3.752   4.571  12.794  0.6495 -0.0588  0.2552
  422TMC3     C 6298   4.115   4.411  12.655 -1.2849  0.4288 -0.6770
  422TMC3     O 6299   4.187   4.485  12.587 -0.3232  0.3133  0.1836
  422TMC3     H 6300   4.061   4.667  12.689  1.1817 -0.1846  1.5801
  422TMC3    H1 6301   3.904   4.278  12.739 -0.8727 -0.3632 -1.2332
  422TMC3    H2 6302   3.664   4.617  12.838  0.1613  0.4104 -1.2229
  422TMC3    C7 6303   3.659   4.340  12.809  0.2642 -0.3407 -0.0868
  422TMC3    C8 6304   3.838   0.069  12.749  0.2086 -0.2884  0.2984
  422TMC3    O1 6305   3.692   4.224  12.826 -0.3207 -0.2636 -0.2049
  422TMC3    O2 6306   3.941   0.130  12.749 -0.3604  0.3007  0.4755
  423MPD2     C 6307   0.902   0.688   0.576 -0.0667 -0.0149 -0.5866
  423MPD2    C1 6308   0.781   0.616   0.595 -0.5272  0.1395  0.2547
  423MPD2    C2 6309   0.746   0.524   0.497 -0.0332 -0.4443  0.3463
  423MPD2    C3 6310   0.817   0.502   0.382  0.7468  0.8524 -0.9694
  423MPD2    C4 6311   0.922   0.586   0.356  0.3071  0.3703 -0.2886
  423MPD2    C5 6312   0.965   0.671   0.453 -0.0743  0.1306 -0.2251
  423MPD2     H 6313   0.648   0.477   0.503  0.6895 -1.7482  1.6119
  423MPD2    H1 6314   0.977   0.582   0.263 -0.1449  1.3351 -0.5915
  423MPD2    H2 6315   0.938   0.765   0.644 -2.4464 -0.9556  1.6899
  423MPD2    H3 6316   1.057   0.725   0.435  0.4573 -0.1842  1.6374
  423MPD2     N 6317   0.777   0.406   0.284 -0.0229  1.5468 -0.0416
  423MPD2    H5 6318   0.835   0.404   0.201 -0.5157 -0.3951 -0.3416
  423MPD2    N1 6319   0.695   0.638   0.708 -0.0581 -0.0786  0.0886
  423MPD2    H7 6320   0.612   0.580   0.703  0.3715 -0.7875  1.3439
  424TMC3    C1 6321   0.619   0.680   0.917 -0.2566  0.3833 -0.1142
  424TMC3    C2 6322   0.650   0.633   1.041 -0.3173 -0.1351 -0.2461
  424TMC3    C3 6323   0.562   0.553   1.109  0.4919 -0.7803 -0.0381
  424TMC3    C4 6324   0.492   0.650   0.866 -0.2360  0.4076 -0.3599
  424TMC3    C5 6325   0.412   0.564   0.933 -0.3262  0.1135 -0.1271
  424TMC3    C6 6326   0.448   0.506   1.055 -0.0260  0.6721  0.0482
  424TMC3     C 6327   0.724   0.710   0.820 -0.0205  0.0472  0.0252
  424TMC3     O 6328   0.831   0.756   0.865  1.2492  0.2531  0.4471
  424TMC3     H 6329   0.745   0.663   1.084 -2.1208  0.1162  3.5463
  424TMC3    H1 6330   0.457   0.696   0.774 -0.2970  0.1623 -0.4582
  424TMC3    H2 6331   0.392   0.425   1.102  1.5062  0.6097  1.7535
  424TMC3    C7 6332   0.288   0.532   0.870  0.0807  0.1222  0.2824
  424TMC3    C8 6333   0.609   0.506   1.235  0.0409 -0.2488  0.3418
  424TMC3    O1 6334   0.279   0.560   0.750  0.0092 -0.0214  0.0166
  424TMC3    O2 6335   0.728   0.500   1.259 -0.4342 -0.7638  0.7258
  425MPD2     C 6336   4.706   4.503  17.244  0.1907 -0.0717  0.1001
  425MPD2    C1 6337   4.619   4.408  17.296  0.2476 -0.2450  0.8684
  425MPD2    C2 6338   4.512   4.455  17.376  0.2989  0.4805  0.3479
  425MPD2    C3 6339   4.492   4.591  17.404  0.6306 -0.2278  0.7390
  425MPD2    C4 6340   4.585   4.682  17.359 -0.1647 -0.2861 -0.1673
  425MPD2    C5 6341   4.694   4.637  17.287  0.3592 -0.1216 -0.2125
  425MPD2     H 6342   4.429   4.390  17.404 -0.1099  1.5851  1.6497
  425MPD2    H1 6343   4.573   0.068  17.365 -0.3479 -0.1675 -2.6016
  425MPD2    H2 6344   0.061   4.470  17.174  1.2182 -1.2988  1.7945
  425MPD2    H3 6345   0.048   4.710  17.259 -0.7594  1.8922  2.0665
  425MPD2     N 6346   4.369   4.623  17.469  0.0339 -0.1358 -0.7978
  425MPD2    H5 6347   4.321   4.543  17.509 -0.5348  0.2535 -0.6896
  425MPD2    N1 6348   4.635   4.271  17.263  0.2599 -0.2776 -0.4421
  425MPD2    H7 6349   4.709   4.255  17.195  0.5819  0.3194 -0.2331
  426TMC3    C1 6350   4.592   4.035  17.245  0.3865 -0.6534  0.1531
  426TMC3    C2 6351   4.641   4.037  17.119 -0.2665  0.4241  0.0584
  426TMC3    C3 6352   4.624   3.921  17.053  0.6131  0.2835 -0.5066
  426TMC3    C4 6353   4.542   3.921  17.305 -0.3667  1.3489 -0.4638
  426TMC3    C5 6354   4.529   3.807  17.233  0.3721  0.2044  0.3780
  426TMC3    C6 6355   4.574   3.809  17.107 -0.2019  0.5748  0.1479
  426TMC3     C 6356   4.580   4.162  17.322 -0.3415  0.9531 -0.2115
  426TMC3     O 6357   4.500   4.147  17.414 -0.2440 -0.5475  0.0825
  426TMC3     H 6358   4.682   4.128  17.076  1.5629 -0.4637 -0.0814
  426TMC3    H1 6359   4.521   3.914  17.411  0.5053  1.0916 -0.3015
  426TMC3    H2 6360   4.561   3.716  17.052  0.9936  0.5151 -0.0489
  426TMC3    C7 6361   4.521   3.685  17.297  0.3250  0.1463 -0.0538
  426TMC3    C8 6362   4.659   3.910  16.914  0.3634 -0.1242 -0.1119
  426TMC3    O1 6363   4.570   3.590  17.242 -0.8701 -0.1097 -0.2339
  426TMC3    O2 6364   4.705   3.803  16.875 -0.0904 -0.0582 -0.5414
  427MPD2     C 6365   2.562   2.122  15.469 -0.1920  0.4545  1.0204
  427MPD2    C1 6366   2.569   1.989  15.511  0.0504 -0.3236 -0.1228
  427MPD2    C2 6367   2.446   1.937  15.552 -0.2883 -0.0814 -0.1266
  427MPD2    C3 6368   2.324   2.006  15.542  0.2911  0.2547 -0.5356
  427MPD2    C4 6369   2.329   2.140  15.506  0.0406 -0.0965 -0.4743
  427MPD2    C5 6370   2.449   2.197  15.474 -0.4882 -0.4979 -0.3259
  427MPD2     H 6371   2.444   1.834  15.584  1.9381 -1.0224 -3.0364
  427MPD2    H1 6372   2.244   2.207  15.497  1.1756  1.1111 -2.3536
  427MPD2    H2 6373   2.651   2.178  15.442  0.2671 -0.1931  1.1830
  427MPD2    H3 6374   2.448   2.299  15.439 -0.1385  0.0570  1.2816
  427MPD2     N 6375   2.197   1.957  15.571  0.2485 -0.0090 -0.2337
  427MPD2    H5 6376   2.121   2.025  15.567  2.4021  2.4439  0.6599
  427MPD2    N1 6377   2.687   1.907  15.515 -0.0775  0.6967  0.0333
  427MPD2    H7 6378   2.680   1.810  15.545 -1.3261  0.4142 -1.1377
  428TMC3    C1 6379   2.922   1.867  15.521 -0.1842  0.0319  0.0173
  428TMC3    C2 6380   2.907   1.767  15.614  0.2987 -0.1975 -0.0191
  428TMC3    C3 6381   3.013   1.706  15.667 -1.0018  0.3193  0.0478
  428TMC3    C4 6382   3.045   1.923  15.506  0.1639  0.0049  0.2386
  428TMC3    C5 6383   3.153   1.866  15.563 -0.2868 -0.7115 -0.6071
  428TMC3    C6 6384   3.140   1.755  15.649  0.6623  0.2294  0.4788
  428TMC3     C 6385   2.808   1.957  15.488 -0.3949  0.7383  0.1351
  428TMC3     O 6386   2.841   2.061  15.434  0.2852  0.1276  0.3753
  428TMC3     H 6387   2.808   1.737  15.646 -0.8260  1.6074 -1.7568
  428TMC3    H1 6388   3.065   2.004  15.437  0.5802 -0.2080  0.1119
  428TMC3    H2 6389   3.227   1.705  15.690 -0.1105  0.7650  2.7583
  428TMC3    C7 6390   3.285   1.890  15.514  0.1914 -0.2186 -0.0989
  428TMC3    C8 6391   2.999   1.565  15.715 -0.7109  0.2893  0.3686
  428TMC3    O1 6392   3.373   1.836  15.573 -0.4533 -0.0775  0.3311
  428TMC3    O2 6393   2.922   1.496  15.649  0.2033  0.3613 -0.6997
  429MPD2     C 6394   4.312   2.181   0.176 -0.0204  0.5887  0.3224
  429MPD2    C1 6395   4.255   2.193   0.051  0.3436  0.4062  0.7219
  429MPD2    C2 6396   4.306   2.282  17.643  0.6864 -0.6728 -0.0065
  429MPD2    C3 6397   4.403   2.364  17.682 -0.0308  0.9208  0.0655
  429MPD2    C4 6398   4.456   2.360   0.122  0.4860 -1.0378  0.6890
  429MPD2    C5 6399   4.415   2.267   0.211  0.3197  0.0484 -0.4894
  429MPD2     H 6400   4.265   2.284  17.543 -0.8321  0.3817  0.6344
  429MPD2    H1 6401   4.544   2.418   0.150  0.8713 -0.2494 -2.1197
  429MPD2    H2 6402   4.280   2.116   0.257 -1.3060  1.4987  0.5499
  429MPD2    H3 6403   4.457   2.250   0.310  0.7457  0.9905 -0.5133
  429MPD2     N 6404   4.458   2.446  17.580  0.1317  0.7532 -0.2245
  429MPD2    H5 6405   4.404   2.448  17.494 -0.2528 -1.3653 -0.0182
  429MPD2    N1 6406   4.139   2.122   0.013 -0.4314  0.2091  0.0701
  429MPD2    H7 6407   4.094   2.144  17.611  2.6764  1.6384 -1.1592
  430TMC3    C1 6408   4.600   2.570  17.453 -0.7644 -0.6953  0.2845
  430TMC3    C2 6409   4.519   2.657  17.395 -0.0742  0.6031  0.0863
  430TMC3    C3 6410   4.540   2.705  17.275  0.4657 -0.0582 -0.1162
  430TMC3    C4 6411   4.712   2.530  17.390  0.0148  0.0523  0.7522
  430TMC3    C5 6412   0.015   2.562  17.259 -0.0896  0.4894  0.2301
  430TMC3    C6 6413   4.645   2.650  17.203  0.0830  0.9531  0.4115
  430TMC3     C 6414   4.577   2.513  17.580  0.1603 -0.0254  0.3035
  430TMC3     O 6415   4.670   2.520  17.656  0.0471  0.0398  0.3967
  430TMC3     H 6416   4.420   2.662  17.439 -1.1477 -0.5330 -2.1946
  430TMC3    H1 6417   0.025   2.436  17.430  0.6243  0.0502  0.2341
  430TMC3    H2 6418   4.657   2.677  17.099 -1.8180  2.4261  0.5749
  430TMC3    C7 6419   0.082   2.455  17.176 -0.2474 -0.1785 -0.1774
  430TMC3    C8 6420   4.418   2.724  17.205 -0.7993 -0.0634  0.2585
  430TMC3    O1 6421   0.123   2.356  17.231 -0.0598  0.4342  0.0933
  430TMC3    O2 6422   4.343   2.628  17.203 -0.6776  0.0846 -0.5010
  431MPD2     C 6423   4.637   2.250  12.887  0.6003 -0.3592 -0.0349
  431MPD2    C1 6424   4.705   2.290  12.773 -0.5534  0.0628 -0.2858
  431MPD2    C2 6425   4.709   2.201  12.667 -0.1006  0.3038 -0.1423
  431MPD2    C3 6426   4.665   2.072  12.682  0.4972  0.6362  0.4567
  431MPD2    C4 6427   4.608   2.028  12.805 -0.2385  0.1804 -0.0178
  431MPD2    C5 6428   4.599   2.122  12.907 -0.3937  0.9344 -0.0788
  431MPD2     H 6429   0.026   2.227  12.569  0.4537  0.8134  0.2017
  431MPD2    H1 6430   4.589   1.923  12.817  1.9597  0.0559  2.4890
  431MPD2    H2 6431   4.642   2.319  12.970 -0.6307 -0.2474 -0.0429
  431MPD2    H3 6432   4.556   2.094  13.002  1.2779  1.5891  0.8699
  431MPD2     N 6433   4.669   1.977  12.579  0.3306 -0.0727  0.2421
  431MPD2    H5 6434   4.634   1.885  12.605  1.9211 -1.3147 -1.9504
  431MPD2    N1 6435   0.022   2.420  12.741  0.0380 -0.5170 -0.0443
  431MPD2    H7 6436   0.040   2.440  12.643 -0.4648 -1.3593 -0.3092
  432TMC3    C1 6437   0.036   1.879  12.399  0.6677  0.0878 -0.0883
  432TMC3    C2 6438   0.065   1.886  12.267 -0.0547  0.4915  0.0016
  432TMC3    C3 6439   0.160   1.814  12.212  0.3885 -0.3292 -0.2858
  432TMC3    C4 6440   0.108   1.791  12.479  0.9795  0.0327  0.9036
  432TMC3    C5 6441   0.204   1.715  12.415  0.2564  0.3008  0.2152
  432TMC3    C6 6442   0.235   1.726  12.283 -0.5969 -0.0687  0.4595
  432TMC3     C 6443   4.694   2.002  12.449 -0.2359 -0.1544 -0.1341
  432TMC3     O 6444   0.007   2.102  12.390  0.0997 -0.5391  0.3127
  432TMC3     H 6445   0.004   1.942  12.197 -0.6757  1.2465  1.1504
  432TMC3    H1 6446   0.077   1.773  12.581 -0.7611 -0.2094  0.3345
  432TMC3    H2 6447   0.322   1.667  12.256  0.4322  2.2507 -1.3042
  432TMC3    C7 6448   0.271   1.614  12.492  0.0705 -0.5903 -0.7885
  432TMC3    C8 6449   0.178   1.829  12.066  0.3202  0.2054 -0.1611
  432TMC3    O1 6450   0.281   1.502  12.449 -0.0428 -0.1501 -0.2588
  432TMC3    O2 6451   0.087   1.865  11.994  0.3213  0.3988  0.4290
  433MPD2     C 6452   4.142   0.981  11.122  0.4246 -0.3857 -0.1352
  433MPD2    C1 6453   4.069   0.873  11.150  0.9446 -0.7090 -0.3340
  433MPD2    C2 6454   4.040   0.847  11.285 -0.1844 -0.3051 -0.2706
  433MPD2    C3 6455   4.078   0.931  11.386 -0.5252  0.6436  0.9015
  433MPD2    C4 6456   4.141   1.048  11.347 -0.5428  0.1617 -0.0394
  433MPD2    C5 6457   4.160   1.081  11.214  0.5905  0.6486 -0.0681
  433MPD2     H 6458   3.990   0.754  11.309  0.1446 -0.2907  0.4558
  433MPD2    H1 6459   4.169   1.116  11.427 -0.5819 -0.5763  0.6054
  433MPD2    H2 6460   4.157   1.008  11.018  1.5552  0.4390  0.2351
  433MPD2    H3 6461   4.208   1.174  11.188 -0.7231  0.8540 -1.7337
  433MPD2     N 6462   4.047   0.885  11.517 -0.1773  0.0284  0.7061
  433MPD2    H5 6463   4.001   0.796  11.532  1.9201 -1.4699 -1.6870
  433MPD2    N1 6464   4.035   0.790  11.036 -0.5026 -0.0418 -0.0153
  433MPD2    H7 6465   4.092   0.805  10.954 -0.9561  0.5764 -0.2173
  434TMC3    C1 6466   3.947   0.603  10.932 -0.7012  0.0828  0.4391
  434TMC3    C2 6467   3.938   0.469  10.964 -0.1656  0.1512  0.6794
  434TMC3    C3 6468   3.998   0.373  10.887  0.3583  1.0525 -0.1579
  434TMC3    C4 6469   3.996   0.646  10.812 -0.2386  0.2920  0.1561
  434TMC3    C5 6470   4.030   0.547  10.718 -0.1442 -0.1946  0.8055
  434TMC3    C6 6471   4.043   0.413  10.761  0.9365 -0.2472  0.0012
  434TMC3     C 6472   3.944   0.687  11.051  0.0152 -0.2764 -0.5405
  434TMC3     O 6473   3.873   0.654  11.144 -0.0962  0.2056 -0.2802
  434TMC3     H 6474   3.902   0.444  11.063 -1.7642 -1.7784 -0.3842
  434TMC3    H1 6475   3.997   0.747  10.775 -1.9143 -0.0224 -0.7443
  434TMC3    H2 6476   4.079   0.340  10.690  1.3076 -1.4250  1.4017
  434TMC3    C7 6477   3.993   0.574  10.581  0.0141 -0.0175 -0.1976
  434TMC3    C8 6478   4.063   0.264  10.959 -0.3679 -0.4160 -0.0020
  434TMC3    O1 6479   3.982   0.691  10.541 -0.0457 -0.1703 -0.3559
  434TMC3    O2 6480   4.045   0.259  11.083  0.2279  0.0107 -0.1373
  435MPD2     C 6481   1.008   0.273  15.508 -0.2641 -0.4926  0.9340
  435MPD2    C1 6482   0.969   0.250  15.639  0.6922 -0.1067  0.2664
  435MPD2    C2 6483   1.064   0.197  15.721 -0.3334  0.0154 -0.0174
  435MPD2    C3 6484   1.187   0.160  15.670  0.7667  0.1422  0.9514
  435MPD2    C4 6485   1.224   0.187  15.542  0.7308  0.1948  0.1432
  435MPD2    C5 6486   1.136   0.244  15.463 -0.6758 -0.8854 -0.9649
  435MPD2     H 6487   1.033   0.174  15.822  0.7231 -2.8919 -0.3257
  435MPD2    H1 6488   1.326   0.179  15.505  0.2215  0.1739 -1.2339
  435MPD2    H2 6489   0.953   0.317  15.425  0.8115 -0.5767  0.1664
  435MPD2    H3 6490   1.169   0.263  15.361 -0.7096  0.7707 -0.6616
  435MPD2     N 6491   1.276   0.097  15.760  0.0068 -0.1342 -0.0953
  435MPD2    H5 6492   1.243   0.086  15.855  1.8024  1.5286  0.7258
  435MPD2    N1 6493   0.839   0.280  15.701 -0.5967 -0.0561  0.0517
  435MPD2    H7 6494   0.839   0.284  15.803  1.0903  0.3786  0.0254
  436TMC3    C1 6495   0.542   0.446  15.932  0.7100 -0.6021 -0.6243
  436TMC3    C2 6496   0.623   0.363  15.850 -0.1237  0.7101  0.1687
  436TMC3    C3 6497   0.625   0.384  15.715  0.3240  0.0323  0.3147
  436TMC3    C4 6498   0.453   0.540  15.881  0.0865 -0.1445 -0.1799
  436TMC3    C5 6499   0.458   0.558  15.743  0.4826  0.1103  0.2020
  436TMC3    C6 6500   0.548   0.486  15.663  0.2472  0.3986  0.3637
  436TMC3     C 6501   0.539   0.416  16.074  0.1020 -0.1875 -0.4502
  436TMC3     O 6502   0.599   0.317  16.105 -0.6348 -0.1583 -0.1350
  436TMC3     H 6503   0.676   0.276  15.888 -0.7112 -1.6155 -4.2489
  436TMC3    H1 6504   0.385   0.601  15.938  0.0408  1.3918 -1.8884
  436TMC3    H2 6505   0.539   0.493  15.555  0.3224 -2.6323  0.1590
  436TMC3    C7 6506   0.385   0.671  15.682 -0.0483 -1.0780  0.1931
  436TMC3    C8 6507   0.740   0.346  15.625  0.3517  0.1330  0.9458
  436TMC3    O1 6508   0.277   0.706  15.729  0.3559  0.4820  0.4021
  436TMC3    O2 6509   0.746   0.396  15.514 -0.0113 -0.4471 -0.4707
  437TMC3    C1 6510   4.570   3.000  12.480  0.0025 -0.0638 -0.7327
  437TMC3    C2 6511   4.450   3.036  12.527  0.3277 -0.4924  0.6072
  437TMC3    C3 6512   4.389   3.148  12.480 -0.1234  0.2042  0.4365
  437TMC3    C4 6513   4.628   3.066  12.372 -0.0412 -0.2862  0.1220
  437TMC3    C5 6514   4.565   3.179  12.323  0.2494  0.4897 -0.6155
  437TMC3    C6 6515   4.450   3.226  12.384  0.8481 -0.5275  0.5391
  437TMC3     C 6516   4.673   2.980  12.583  0.1304 -0.3389 -0.7277
  437TMC3     O 6517   0.037   3.066  12.562 -0.3700 -0.2455 -0.1067
  437TMC3     H 6518   4.413   3.008  12.625  0.9288  1.1921  1.3097
  437TMC3    H1 6519   4.721   3.031  12.329  0.9025  2.5759 -0.1548
  437TMC3    H2 6520   4.408   3.316  12.341 -0.2645 -0.0453  2.6380
  437TMC3    C7 6521   4.659   3.276  12.284 -0.6573  0.2422 -0.9360
  437TMC3    C8 6522   4.256   3.180  12.526 -0.4610  0.2687  0.0595
  437TMC3    O1 6523   4.632   3.348  12.185  0.0928  0.3065  0.3768
  437TMC3    O2 6524   4.222   3.297  12.533  0.2068  0.5497  0.1045
  438MPD2     C 6525   1.755   3.470  17.121 -0.4611  0.9254  0.2801
  438MPD2    C1 6526   1.869   3.396  17.159  0.0763 -0.1432  0.5902
  438MPD2    C2 6527   1.909   3.394  17.294 -0.1422 -0.7378 -0.0828
  438MPD2    C3 6528   1.820   3.452  17.385  0.1364 -0.3228 -0.3346
  438MPD2    C4 6529   1.718   3.531  17.350 -0.3377 -1.0414  0.0206
  438MPD2    C5 6530   1.678   3.538  17.216  0.1113  0.6155 -0.5710
  438MPD2     H 6531   1.998   3.358  17.344  0.0197 -1.4322 -0.8623
  438MPD2    H1 6532   1.666   3.594  17.421  0.5937  0.0342 -0.2443
  438MPD2    H2 6533   1.729   3.476  17.017  0.3732  3.5650  0.2098
  438MPD2    H3 6534   1.598   3.605  17.185 -0.2049  0.8117  0.6774
  438MPD2     N 6535   1.829   3.421  17.523  0.0306 -0.4004  0.3551
  438MPD2    H5 6536   1.768   3.480  17.578  2.8622  0.9273  2.0866
  438MPD2    N1 6537   1.958   3.328  17.068  0.3187 -0.3202  0.0106
  438MPD2    H7 6538   2.052   3.307  17.097  0.9327  1.5258 -0.6290
  439TMC3    C1 6539   2.031   3.220  16.864 -0.3104  0.1852  0.5555
  439TMC3    C2 6540   2.023   3.210  16.725  0.1475 -0.6570 -0.3088
  439TMC3    C3 6541   2.102   3.118  16.669 -0.0148 -0.4560  0.4787
  439TMC3    C4 6542   2.113   3.150  16.949  0.0868 -0.0126  0.5784
  439TMC3    C5 6543   2.187   3.058  16.886  0.0220 -0.0497  0.5722
  439TMC3    C6 6544   2.182   3.034  16.750 -0.3690 -0.1049  0.3736
  439TMC3     C 6545   1.927   3.292  16.935 -0.1994  0.3181 -0.4783
  439TMC3     O 6546   1.816   3.300  16.888 -0.1321  0.0671  0.7666
  439TMC3     H 6547   1.951   3.265  16.665  0.8788  0.7779  0.1430
  439TMC3    H1 6548   2.112   3.159  17.057  0.3122  2.0622  0.4049
  439TMC3    H2 6549   2.259   2.965  16.719 -0.0292  0.0634  0.8492
  439TMC3    C7 6550   2.279   2.984  16.966  1.1488 -0.3753 -0.8245
  439TMC3    C8 6551   2.155   3.146  16.536  0.6356  0.0665  0.0103
  439TMC3    O1 6552   2.308   3.031  17.072  0.3126 -0.2337 -0.0659
  439TMC3    O2 6553   2.273   3.117  16.520  0.8638  0.7131 -0.8996
  440MPD2     C 6554   1.242   3.671  14.962 -1.0086 -0.1031 -1.0046
  440MPD2    C1 6555   1.165   3.745  15.049 -0.1081 -0.1089  0.5366
  440MPD2    C2 6556   1.164   3.728  15.187  0.6995  0.0516  0.6003
  440MPD2    C3 6557   1.243   3.632  15.245  0.1788  0.2724  0.4596
  440MPD2    C4 6558   1.326   3.558  15.165  0.2149  0.1196  0.7083
  440MPD2    C5 6559   1.321   3.574  15.024 -0.0537  0.9879 -0.8698
  440MPD2     H 6560   1.092   3.788  15.242 -1.8635 -1.2874 -1.2618
  440MPD2    H1 6561   1.396   3.488  15.207  1.2047 -0.1049 -1.3029
  440MPD2    H2 6562   1.234   3.683  14.855  1.0613  0.8544 -1.0511
  440MPD2    H3 6563   1.390   3.517  14.963  1.9158 -0.8969  3.2110
  440MPD2     N 6564   1.224   3.595  15.375 -0.1795  0.2251  0.0853
  440MPD2    H5 6565   1.267   3.511  15.412  0.2755 -0.3962 -1.8729
  440MPD2    N1 6566   1.072   3.840  15.004  0.1080 -0.4306 -0.1558
  440MPD2    H7 6567   1.019   3.894  15.072 -0.7349 -0.9714 -0.3938
  441TMC3    C1 6568   1.128   3.620  15.594  0.5213  0.1917  0.3390
  441TMC3    C2 6569   1.036   3.690  15.667 -0.2509 -0.5135  0.3973
  441TMC3    C3 6570   0.957   3.621  15.761 -0.9046 -0.1034 -0.0281
  441TMC3    C4 6571   1.145   3.490  15.610 -0.1478 -0.6251  0.1431
  441TMC3    C5 6572   1.071   3.425  15.703 -0.1014  0.1698 -0.3611
  441TMC3    C6 6573   0.974   3.487  15.784 -0.7123  0.4562  0.4142
  441TMC3     C 6574   1.177   3.686  15.469  0.2748 -0.0064 -0.8521
  441TMC3     O 6575   1.148   3.805  15.461 -0.2201 -0.2140 -0.6028
  441TMC3     H 6576   1.021   3.795  15.646 -1.7927 -0.7923  0.1269
  441TMC3    H1 6577   1.207   3.431  15.544 -2.2733 -0.2636 -2.2117
  441TMC3    H2 6578   0.918   3.429  15.856  0.7682  0.1519  1.3323
  441TMC3    C7 6579   1.111   3.282  15.736 -0.7427 -0.7428  0.3313
  441TMC3    C8 6580   0.858   3.685  15.841 -0.0920  0.2168 -0.0750
  441TMC3    O1 6581   1.024   3.217  15.797  0.0523  0.4114 -0.4425
  441TMC3    O2 6582   0.840   3.644  15.956 -0.5443 -0.1077  0.5403
  442MPD2     C 6583   4.123   3.358  16.155 -0.6870  0.3392  0.4213
  442MPD2    C1 6584   4.062   3.475  16.096  0.5183  0.6633  0.3798
  442MPD2    C2 6585   4.054   3.478  15.959  0.6291 -0.4053 -0.0823
  442MPD2    C3 6586   4.090   3.364  15.884  0.1141 -0.4767  0.2096
  442MPD2    C4 6587   4.136   3.251  15.945  0.4015 -0.1518 -0.7286
  442MPD2    C5 6588   4.153   3.248  16.076  0.0521 -0.0955  0.9226
  442MPD2     H 6589   4.010   3.564  15.910  1.0264 -0.3942 -0.4240
  442MPD2    H1 6590   4.155   3.161  15.887 -1.8080  0.2568 -2.1090
  442MPD2    H2 6591   4.133   3.344  16.262  2.2232 -1.3406 -0.0943
  442MPD2    H3 6592   4.190   3.162  16.130  0.7754  1.2761  2.6199
  442MPD2     N 6593   4.084   3.355  15.744  0.2756  0.1980  0.1098
  442MPD2    H5 6594   4.114   3.269  15.699 -0.5616 -0.6459  1.1489
  442MPD2    N1 6595   4.028   3.598  16.170 -0.2768 -0.6457  0.0808
  442MPD2    H7 6596   3.999   3.676  16.111  1.3509  1.3215  1.8858
  443TMC3    C1 6597   4.009   3.743  16.360 -0.9341  0.4423 -0.2440
  443TMC3    C2 6598   3.974   3.849  16.279  0.3133 -0.8738  0.1954
  443TMC3    C3 6599   3.929   3.967  16.334  0.6653  0.0136 -0.0395
  443TMC3    C4 6600   3.989   3.759  16.499  1.1104 -1.5201  0.0844
  443TMC3    C5 6601   3.927   3.877  16.548  0.0079 -0.2744  0.3968
  443TMC3    C6 6602   3.893   3.975  16.465 -0.5974  0.2293 -0.3267
  443TMC3     C 6603   4.032   3.604  16.315 -0.1824  0.9840 -0.4876
  443TMC3     O 6604   4.049   3.515  16.394  0.3087 -0.2054 -0.3909
  443TMC3     H 6605   4.018   3.855  16.180  3.4579  1.2740  1.7347
  443TMC3    H1 6606   4.018   3.679  16.566  0.0229 -1.4139  0.6888
  443TMC3    H2 6607   3.835   4.061  16.495  2.0808  1.4670  1.3070
  443TMC3    C7 6608   3.818   3.845  16.640  0.2997 -0.6886  0.9769
  443TMC3    C8 6609   3.859   4.051  16.242  0.4631  0.0994  0.3793
  443TMC3    O1 6610   3.783   3.728  16.628 -0.1908  0.4157 -0.2215
  443TMC3    O2 6611   3.816   4.001  16.132 -0.2401 -0.1755 -0.3258
  444MPD2     C 6612   4.182   3.801  16.876 -0.4512  0.1056 -0.0283
  444MPD2    C1 6613   4.084   3.704  16.887  0.2987 -0.1763  0.5233
  444MPD2    C2 6614   4.105   3.584  16.825 -0.2603 -1.0797  0.2681
  444MPD2    C3 6615   4.228   3.555  16.760 -0.1750  0.1617 -1.0310
  444MPD2    C4 6616   4.326   3.651  16.756 -0.1413  0.5428 -0.1863
  444MPD2    C5 6617   4.298   3.774  16.807 -0.0052 -0.6120 -0.3123
  444MPD2     H 6618   4.025   3.511  16.819 -0.3278 -0.9710 -0.1332
  444MPD2    H1 6619   4.424   3.633  16.714  0.2467  0.8314  0.5908
  444MPD2    H2 6620   4.169   3.894  16.930 -0.2362  0.6041 -0.8210
  444MPD2    H3 6621   4.379   3.845  16.794  1.2531 -1.6243  2.0231
  444MPD2     N 6622   4.233   3.431  16.698 -0.2668  0.3618 -0.4028
  444MPD2    H5 6623   4.145   3.382  16.684  1.0908 -1.7158 -1.6567
  444MPD2    N1 6624   3.962   3.706  16.964  0.7588  0.1333 -0.4215
  444MPD2    H7 6625   3.901   3.624  16.966 -0.2496  0.8931 -0.0195
  445TMC3    C1 6626   4.321   3.241  16.577  0.4627  0.4916 -0.6003
  445TMC3    C2 6627   4.199   3.205  16.518  0.1591 -0.0930 -0.1482
  445TMC3    C3 6628   4.183   3.076  16.477 -0.2768 -0.1971  0.2880
  445TMC3    C4 6629   4.427   3.155  16.587  0.1083 -0.5310  0.1031
  445TMC3    C5 6630   4.397   3.024  16.560  0.0290  0.1073 -0.9276
  445TMC3    C6 6631   4.281   2.983  16.495 -0.0003  0.1647  0.4406
  445TMC3     C 6632   4.344   3.371  16.644  0.2364  0.3072 -0.0342
  445TMC3     O 6633   4.461   3.407  16.649 -0.4005 -0.2484  0.8118
  445TMC3     H 6634   4.133   3.280  16.474 -1.2960 -1.4608 -0.2937
  445TMC3    H1 6635   4.519   3.178  16.640  1.4580 -0.5149 -2.2678
  445TMC3    H2 6636   4.273   2.877  16.472  0.6673  0.6015 -1.7695
  445TMC3    C7 6637   4.507   2.936  16.574  0.3242  0.5801  0.1413
  445TMC3    C8 6638   4.077   3.046  16.374 -0.3845 -0.5626 -0.5069
  445TMC3    O1 6639   4.613   2.985  16.609 -0.6799 -0.4551  0.0331
  445TMC3    O2 6640   3.979   3.118  16.377 -0.2286  0.1030  0.5386
  446MPD2     C 6641   3.716   0.337  11.563 -0.0710 -0.4890 -0.4959
  446MPD2    C1 6642   3.720   0.308  11.428  0.4157 -0.2065  0.4034
  446MPD2    C2 6643   3.832   0.345  11.345 -0.9296  0.0918 -0.4727
  446MPD2    C3 6644   3.949   0.397  11.396 -0.8231  0.2418  0.0520
  446MPD2    C4 6645   3.934   0.428  11.531 -0.4008 -0.1568  0.5625
  446MPD2    C5 6646   3.826   0.400  11.606 -0.4368  0.6721 -0.1487
  446MPD2     H 6647   3.811   0.317  11.242  2.1132  0.8103 -1.2827
  446MPD2    H1 6648   4.013   0.484  11.578 -0.2030 -0.9125  1.1274
  446MPD2    H2 6649   3.633   0.321  11.630  1.3010  3.0463  2.0327
  446MPD2    H3 6650   3.836   0.438  11.707 -2.2092  1.0683 -0.1193
  446MPD2     N 6651   4.065   0.419  11.321  0.0937 -0.3989  0.4546
  446MPD2    H5 6652   4.065   0.364  11.235  0.3548  0.2728  0.0222
  446MPD2    N1 6653   3.611   0.248  11.360 -0.2055  0.1247 -0.0416
  446MPD2    H7 6654   3.609   0.243  11.258  0.9331  0.7724 -0.0994
  447TMC3    C1 6655   4.292   0.454  11.273 -0.6871 -0.1380  0.4301
  447TMC3    C2 6656   4.281   0.456  11.142 -0.0107 -0.1245 -0.1206
  447TMC3    C3 6657   4.397   0.432  11.066 -0.4456 -0.2142 -0.4353
  447TMC3    C4 6658   4.403   0.415  11.341 -0.4371 -0.0998 -0.1147
  447TMC3    C5 6659   4.516   0.375  11.263  0.2749  0.3089 -0.4451
  447TMC3    C6 6660   4.511   0.392  11.127 -0.1679  0.9152  0.6309
  447TMC3     C 6661   4.179   0.487  11.356  0.0971 -0.3206  0.0568
  447TMC3     O 6662   4.202   0.541  11.462 -0.3689 -0.2947  0.0681
  447TMC3     H 6663   4.188   0.491  11.097 -1.1894 -1.9045  0.8983
  447TMC3    H1 6664   4.407   0.419  11.449  0.6159  0.8106 -0.1900
  447TMC3    H2 6665   4.604   0.360  11.080 -0.2925 -0.0875  1.0569
  447TMC3    C7 6666   4.631   0.300  11.309  0.2398  0.1276  0.3673
  447TMC3    C8 6667   4.395   0.434  10.923 -0.2163  0.5755  0.3021
  447TMC3    O1 6668   4.711   0.252  11.227 -0.0788  0.2125 -0.1456
  447TMC3    O2 6669   4.315   0.508  10.872  0.1622  0.4372 -0.2374
  448TMC3    C1 6670   1.690   4.134  16.823 -0.1558 -0.4363  0.0474
  448TMC3    C2 6671   1.629   4.116  16.705 -0.1798  0.3755  0.2850
  448TMC3    C3 6672   1.572   3.996  16.677  0.3520 -0.0140  0.2744
  448TMC3    C4 6673   1.691   4.034  16.927 -0.2678  0.2814  0.8324
  448TMC3    C5 6674   1.617   3.920  16.900 -0.3064 -0.1909 -0.4615
  448TMC3    C6 6675   1.556   3.897  16.777 -0.0893 -0.2155 -0.0077
  448TMC3     C 6676   1.781   4.242  16.840 -0.0806  0.0723 -0.1761
  448TMC3     O 6677   1.873   4.230  16.920  0.0539  0.2522 -0.4503
  448TMC3     H 6678   1.677   4.171  16.624 -1.3412 -0.7303 -1.1552
  448TMC3    H1 6679   1.746   4.061  17.016  0.5311 -1.3233  0.8082
  448TMC3    H2 6680   1.504   3.806  16.753  1.0978  0.7133 -6.0043
  448TMC3    C7 6681   1.559   3.843  17.006 -0.7312 -0.3503  0.8021
  448TMC3    C8 6682   1.506   3.978  16.550  0.6863 -0.3737 -0.1211
  448TMC3    O1 6683   1.476   3.756  16.984  0.6739  0.7509  0.4745
  448TMC3    O2 6684   1.472   3.862  16.529  0.2078  0.2059 -0.1448
  449MPD2     C 6685   3.687   3.635  13.926 -0.7966  0.0929  0.6601
  449MPD2    C1 6686   3.549   3.636  13.905  0.7920 -0.5529 -0.4803
  449MPD2    C2 6687   3.458   3.579  14.001  0.5644  0.5550 -0.3232
  449MPD2    C3 6688   3.506   3.507  14.111  0.4511  1.1093 -0.7776
  449MPD2    C4 6689   3.638   3.502  14.131 -0.5501 -0.4159  0.8138
  449MPD2    C5 6690   3.724   3.558  14.034 -0.0777 -0.1607  0.3726
  449MPD2     H 6691   3.359   3.577  13.958  0.9932 -1.1175 -1.2461
  449MPD2    H1 6692   3.681   3.455  14.218  0.4897 -1.1707 -0.1118
  449MPD2    H2 6693   3.763   3.664  13.854  0.2276 -3.2900  0.3819
  449MPD2    H3 6694   3.830   3.535  14.038 -0.5518 -2.7950 -2.0518
  449MPD2     N 6695   3.403   3.455  14.193  0.1335  0.2972  0.0811
  449MPD2    H5 6696   3.312   3.465  14.149 -1.1995 -0.8464  2.5559
  449MPD2    N1 6697   3.483   3.701  13.794  0.6909 -0.3537  0.3210
  449MPD2    H7 6698   3.382   3.696  13.786  0.6667 -1.9581  1.5888
  450TMC3    C1 6699   3.459   3.802  13.578 -0.1205 -0.6878  0.5306
  450TMC3    C2 6700   3.498   3.730  13.469 -0.3167  0.2401  0.3786
  450TMC3    C3 6701   3.405   3.653  13.403 -0.4435 -0.1083  0.1851
  450TMC3    C4 6702   3.327   3.809  13.617 -0.2347 -0.9238  0.0819
  450TMC3    C5 6703   3.234   3.727  13.552 -0.9649 -0.0433 -0.0368
  450TMC3    C6 6704   3.275   3.653  13.444 -0.1773 -0.2770 -0.1871
  450TMC3     C 6705   3.547   3.765  13.689 -0.0612 -0.0930 -0.7895
  450TMC3     O 6706   3.667   3.773  13.671  0.2696 -0.7016  0.1881
  450TMC3     H 6707   3.603   3.713  13.447 -0.4384  0.0990 -0.0899
  450TMC3    H1 6708   3.311   3.860  13.711  2.1652 -0.9434  0.4973
  450TMC3    H2 6709   3.199   3.586  13.404 -0.7869 -0.3061  1.0173
  450TMC3    C7 6710   3.153   3.660  13.651  0.1821  0.2595 -0.1524
  450TMC3    C8 6711   3.435   3.551  13.305 -0.0602  0.2164  0.0086
  450TMC3    O1 6712   3.192   3.681  13.765  0.4105  0.1515 -0.7133
  450TMC3    O2 6713   3.342   3.499  13.240  0.6721 -0.3557  0.2807
  451MPD2     C 6714   0.509   2.324   1.550 -0.0445 -0.4013 -0.9765
  451MPD2    C1 6715   0.397   2.333   1.464 -0.3832  0.2063  0.3749
  451MPD2    C2 6716   0.331   2.219   1.427  0.4175 -0.1772  0.0540
  451MPD2    C3 6717   0.375   2.090   1.467  0.7605  0.1735  0.2690
  451MPD2    C4 6718   0.484   2.085   1.560 -0.0686  0.6555 -0.0858
  451MPD2    C5 6719   0.542   2.198   1.596 -0.8714  0.1498  0.3552
  451MPD2     H 6720   0.240   2.231   1.370  0.2492 -0.9649  0.1640
  451MPD2    H1 6721   0.516   1.990   1.599 -0.0724 -0.3023 -2.4409
  451MPD2    H2 6722   0.573   2.405   1.584 -1.2939  0.4629 -0.6977
  451MPD2    H3 6723   0.625   2.183   1.663 -2.9418 -0.8967  2.6953
  451MPD2     N 6724   0.330   1.969   1.417 -0.1120  0.9542  0.5490
  451MPD2    H5 6725   0.373   1.880   1.442 -0.8597  0.9272  1.7442
  451MPD2    N1 6726   0.347   2.458   1.425  0.1869 -0.2802 -0.0361
  451MPD2    H7 6727   0.255   2.469   1.383  0.6533  1.6002 -0.5960
  452TMC3    C1 6728   0.236   1.816   1.258 -0.5806  0.2919  0.5446
  452TMC3    C2 6729   0.230   1.706   1.343 -0.0301 -0.1921 -0.6513
  452TMC3    C3 6730   0.224   1.583   1.289  0.3405  0.0310  0.3068
  452TMC3    C4 6731   0.239   1.798   1.124 -0.5135  0.4241 -0.1448
  452TMC3    C5 6732   0.242   1.676   1.069 -0.3182  0.6783  0.1527
  452TMC3    C6 6733   0.228   1.562   1.153  0.7271  0.2541  0.5072
  452TMC3     C 6734   0.244   1.955   1.309  0.1140 -0.5394 -0.1365
  452TMC3     O 6735   0.196   2.042   1.243  0.2961  0.0637  0.3887
  452TMC3     H 6736   0.228   1.716   1.451  2.1152  1.1097 -0.7470
  452TMC3    H1 6737   0.234   1.884   1.057  0.1166  1.3838  1.0392
  452TMC3    H2 6738   0.217   1.462   1.113  0.7998  0.1832  0.6671
  452TMC3    C7 6739   0.254   1.665   0.929  0.3708  0.4715 -0.7317
  452TMC3    C8 6740   0.257   1.480   1.382 -0.0437  0.1434  0.5228
  452TMC3    O1 6741   0.231   1.769   0.869  0.3044  0.3222 -0.5227
  452TMC3    O2 6742   0.235   1.506   1.500 -1.0054  0.4833 -0.0739
  453TMC3    C1 6743   1.575   3.783  12.092 -0.3757 -0.1624 -0.3095
  453TMC3    C2 6744   1.470   3.702  12.111 -0.7751 -0.6385  0.8438
  453TMC3    C3 6745   1.377   3.709  12.016 -0.6853 -0.6770  0.8183
  453TMC3    C4 6746   1.598   3.849  11.974  0.2063 -0.4326  0.2504
  453TMC3    C5 6747   1.504   3.850  11.874 -0.1206 -0.2705 -0.6648
  453TMC3    C6 6748   1.394   3.776  11.893 -0.6739  0.3488  0.2704
  453TMC3     C 6749   1.659   3.823  12.200  0.5042 -0.0865 -0.3956
  453TMC3     O 6750   1.771   3.862  12.173 -0.1385  0.2842 -0.2371
  453TMC3     H 6751   1.451   3.642  12.199 -0.7608 -0.6391  0.8466
  453TMC3    H1 6752   1.680   3.917  11.959 -0.7728  0.1663 -2.3808
  453TMC3    H2 6753   1.316   3.786  11.819 -0.1996 -1.9711 -0.5640
  453TMC3    C7 6754   1.515   3.915  11.740 -0.7603 -0.1614  0.4349
  453TMC3    C8 6755   1.237   3.678  12.037 -0.1148  0.1648  0.3479
  453TMC3    O1 6756   1.417   3.952  11.677  0.5422  0.1919 -0.0892
  453TMC3    O2 6757   1.164   3.763  11.988  0.1232 -0.7380 -0.0856
  454MPD2     C 6758   0.253   3.011  16.246 -0.0133  0.2842 -0.2367
  454MPD2    C1 6759   0.232   3.069  16.125 -0.3563 -0.5098 -0.6691
  454MPD2    C2 6760   0.232   3.206  16.114  0.4673  0.3131 -0.5736
  454MPD2    C3 6761   0.218   3.282  16.228  1.0006 -0.3507  0.0117
  454MPD2    C4 6762   0.218   3.222  16.359  0.6753  0.3148 -0.2102
  454MPD2    C5 6763   0.243   3.083  16.361  0.6649 -0.5694 -0.4069
  454MPD2     H 6764   0.238   3.251  16.016 -1.5053  3.3902  0.7392
  454MPD2    H1 6765   0.205   3.294  16.438  2.2770 -0.8838  1.1548
  454MPD2    H2 6766   0.248   2.904  16.261 -0.2605  0.1508 -1.2665
  454MPD2    H3 6767   0.234   3.035  16.458 -0.1774  2.0495  0.8136
  454MPD2     N 6768   0.180   3.417  16.214  0.3561  0.2693  0.0254
  454MPD2    H5 6769   0.158   3.470  16.297  2.3277 -1.1139  1.4178
  454MPD2    N1 6770   0.212   3.000  16.008 -0.1658  0.2409 -0.3701
  454MPD2    H7 6771   0.182   3.055  15.928  0.0110  0.4639 -0.2853
  455TMC3    C1 6772   0.053   3.576  16.125  0.0914 -0.5450 -0.4431
  455TMC3    C2 6773   0.046   3.650  16.240 -0.4393  0.0593 -0.0870
  455TMC3    C3 6774   4.650   3.655  16.312 -0.0109 -0.3063  0.3825
  455TMC3    C4 6775   4.660   3.523  16.075  1.4253 -0.4351 -0.4667
  455TMC3    C5 6776   4.550   3.518  16.155  0.0353 -0.6364  0.0254
  455TMC3    C6 6777   4.544   3.581  16.279  0.1799  0.3595  0.2847
  455TMC3     C 6778   0.163   3.487  16.096  0.1996 -0.1903  0.1336
  455TMC3     O 6779   0.185   3.458  15.981 -0.1136 -0.3735 -0.0125
  455TMC3     H 6780   0.138   3.691  16.281 -0.2215 -1.4656  0.9225
  455TMC3    H1 6781   4.658   3.471  15.980 -1.1879 -2.2281  0.5550
  455TMC3    H2 6782   4.458   3.582  16.345 -0.6660  1.5332 -0.8125
  455TMC3    C7 6783   4.467   3.403  16.118  0.1116 -0.4826  0.6734
  455TMC3    C8 6784   4.644   3.737  16.424  0.2799 -0.2495 -0.2004
  455TMC3    O1 6785   4.418   3.402  16.005 -0.5143 -0.4031  0.3680
  455TMC3    O2 6786   4.583   3.698  16.523 -0.3660  0.7853 -0.2673
  456MPD2     C 6787   2.472   3.270  15.599  0.1534 -0.1597 -0.0444
  456MPD2    C1 6788   2.528   3.335  15.701  0.3489  0.0714  0.1201
  456MPD2    C2 6789   2.448   3.393  15.794  0.3644  1.0047 -0.5633
  456MPD2    C3 6790   2.314   3.402  15.781 -0.8088  0.4825  0.4857
  456MPD2    C4 6791   2.248   3.323  15.680 -0.5148 -0.2835 -0.3492
  456MPD2    C5 6792   2.337   3.260  15.592  0.3634 -0.3710 -0.1007
  456MPD2     H 6793   2.493   3.451  15.874  1.1590  1.2643 -1.1939
  456MPD2    H1 6794   2.142   3.301  15.672 -0.0375 -2.3234 -1.3135
  456MPD2    H2 6795   2.533   3.230  15.519  0.6543 -0.3546  0.4374
  456MPD2    H3 6796   2.300   3.217  15.500  1.5205  3.4940 -2.3253
  456MPD2     N 6797   2.239   3.466  15.880  0.6367  0.4634  0.0078
  456MPD2    H5 6798   2.288   3.500  15.961  0.0969  1.3450 -0.0342
  456MPD2    N1 6799   2.672   3.336  15.701 -0.0242  0.6406 -0.8945
  456MPD2    H7 6800   2.715   3.286  15.625 -1.5657  0.6707 -1.7850
  457TMC3    C1 6801   2.039   3.592  15.951  0.0985  0.1138 -1.2889
  457TMC3    C2 6802   1.929   3.673  15.908 -0.1922 -0.5139  0.1530
  457TMC3    C3 6803   1.852   3.717  16.011 -0.1737  0.3647  0.3791
  457TMC3    C4 6804   2.063   3.558  16.082  0.5079  0.2921 -0.6941
  457TMC3    C5 6805   1.974   3.598  16.177 -0.5957  0.1076 -0.1085
  457TMC3    C6 6806   1.876   3.682  16.142  0.1372 -0.5260 -0.7067
  457TMC3     C 6807   2.110   3.514  15.848 -0.2259  0.3619 -0.0715
  457TMC3     O 6808   2.058   3.515  15.735 -0.3432  0.0179 -0.9960
  457TMC3     H 6809   1.910   3.692  15.803  0.4029 -0.4659  0.0567
  457TMC3    H1 6810   2.150   3.495  16.100 -1.6479 -3.0231 -1.8545
  457TMC3    H2 6811   1.839   3.744  16.223  1.0120  0.4870 -1.0859
  457TMC3    C7 6812   1.996   3.582  16.320  0.4613  0.0076  0.4285
  457TMC3    C8 6813   1.757   3.820  15.991  0.2183 -0.5897 -0.3438
  457TMC3    O1 6814   2.101   3.616  16.370 -0.5279 -0.2460 -0.3811
  457TMC3    O2 6815   1.727   3.866  15.882  1.3193 -0.0092 -0.5631
  458MPD2     C 6816   0.424   3.447  12.329  0.3921  1.1609 -0.0400
  458MPD2    C1 6817   0.393   3.355  12.428  0.8105  0.9316 -0.5816
  458MPD2    C2 6818   0.265   3.296  12.427  0.6847  0.2414  0.3390
  458MPD2    C3 6819   0.168   3.336  12.347 -0.0459 -0.0341 -0.1423
  458MPD2    C4 6820   0.197   3.422  12.247 -0.1507 -0.1815  0.2738
  458MPD2    C5 6821   0.330   3.474  12.235 -0.1009 -0.0469 -0.0163
  458MPD2     H 6822   0.225   3.255  12.519  0.1770  0.2016  0.1044
  458MPD2    H1 6823   0.125   3.461  12.175  0.9970 -0.2512 -0.9074
  458MPD2    H2 6824   0.524   3.489  12.319 -0.2676  2.2270 -2.3665
  458MPD2    H3 6825   0.349   3.541  12.151  0.7381 -0.9216 -0.5163
  458MPD2     N 6826   0.047   3.266  12.363 -0.0031 -0.2764 -0.4074
  458MPD2    H5 6827   0.045   3.202  12.442 -1.0421 -0.3270 -0.4655
  458MPD2    N1 6828   0.493   3.319  12.528  0.1987  0.3106 -0.3010
  458MPD2    H7 6829   0.569   3.385  12.541 -0.1621  0.9736 -1.5714
  459TMC3    C1 6830   0.580   3.228  12.735 -0.2119 -0.2675  0.4057
  459TMC3    C2 6831   0.709   3.265  12.702 -0.6700 -0.6903  0.1439
  459TMC3    C3 6832   0.795   3.278  12.804 -0.0253  0.2620 -0.4098
  459TMC3    C4 6833   0.541   3.187  12.860  0.3262 -0.2018  0.5542
  459TMC3    C5 6834   0.635   3.195  12.957  1.0093 -0.1262 -0.0663
  459TMC3    C6 6835   0.762   3.237  12.927 -1.0565 -0.4006 -0.4979
  459TMC3     C 6836   0.472   3.231  12.630 -0.2486 -0.1659 -0.3128
  459TMC3     O 6837   0.384   3.153  12.657 -0.2613 -0.5388 -0.0662
  459TMC3     H 6838   0.743   3.288  12.602  0.2325  0.5886  0.7428
  459TMC3    H1 6839   0.451   3.128  12.870  0.4343 -1.0831 -3.5122
  459TMC3    H2 6840   0.832   3.236  13.010 -1.4233  3.9970 -0.1181
  459TMC3    C7 6841   0.612   3.100  13.064 -0.0589 -0.7137 -0.6778
  459TMC3    C8 6842   0.936   3.299  12.771  0.5067 -0.9758  0.3970
  459TMC3    O1 6843   0.528   3.009  13.058 -0.0167 -0.0243 -0.5774
  459TMC3    O2 6844   1.023   3.250  12.847  0.1906 -0.3275 -0.3000
  460MPD2     C 6845   4.603   0.241  10.698 -0.6803 -0.1781  0.5435
  460MPD2    C1 6846   4.501   0.321  10.732  0.0148 -0.1227  0.0861
  460MPD2    C2 6847   4.423   0.379  10.634  0.6236 -0.1533  0.6248
  460MPD2    C3 6848   4.420   0.335  10.505 -0.3536  0.3413  0.1028
  460MPD2    C4 6849   4.506   0.231  10.475  0.7064 -0.2599  0.2486
  460MPD2    C5 6850   4.595   0.188  10.573 -0.0751 -0.2120  0.0941
  460MPD2     H 6851   4.355   0.461  10.654 -0.2689 -1.1848  1.7863
  460MPD2    H1 6852   4.520   0.192  10.375 -0.9789 -2.4738  0.8766
  460MPD2    H2 6853   4.674   0.210  10.773  1.1170 -0.4215 -1.2739
  460MPD2    H3 6854   4.666   0.112  10.543  0.5253 -0.0885  1.2378
  460MPD2     N 6855   4.328   0.396  10.420 -0.4595 -0.9628  0.0407
  460MPD2    H5 6856   4.283   0.484  10.442 -0.0355 -0.7529  0.0836
  460MPD2    N1 6857   4.484   0.344  10.871  0.0618 -0.0872 -0.8306
  460MPD2    H7 6858   4.543   0.292  10.935 -0.6062  0.0779 -0.0957
  461TMC3    C1 6859   4.225   0.454  10.219 -0.2077  0.7746 -0.9337
  461TMC3    C2 6860   4.173   0.409  10.102 -0.2699  0.3879  0.5053
  461TMC3    C3 6861   4.073   0.478  10.046 -0.1752  0.2495 -0.4993
  461TMC3    C4 6862   4.184   0.575  10.269 -0.2825  0.5460 -0.3342
  461TMC3    C5 6863   4.083   0.643  10.203  0.1924  0.3971 -0.0551
  461TMC3    C6 6864   4.028   0.599  10.087  0.5166 -0.7187  0.3472
  461TMC3     C 6865   4.313   0.363  10.289  0.2974  0.1561 -0.0064
  461TMC3     O 6866   4.336   0.259  10.229 -0.2695 -0.0780  0.3927
  461TMC3     H 6867   4.197   0.312  10.060 -0.8096  0.0517  0.9874
  461TMC3    H1 6868   4.237   0.618  10.353 -0.5183  1.4805 -0.6699
  461TMC3    H2 6869   3.947   0.650  10.037  0.7244 -1.9359 -1.2253
  461TMC3    C7 6870   4.070   0.788  10.213 -0.8885  0.3083  0.6862
  461TMC3    C8 6871   4.026   0.427   9.917 -0.1628  0.3010 -0.0299
  461TMC3    O1 6872   4.057   0.846  10.107 -0.6318  0.1331  0.3041
  461TMC3    O2 6873   4.119   0.400   9.842  0.6770  0.2010 -0.1136
  462TMC3    C1 6874   4.173   1.432  17.609 -0.3761 -0.3445 -0.2980
  462TMC3    C2 6875   4.147   1.313  17.544 -0.9328  0.1093  0.2911
  462TMC3    C3 6876   4.212   1.200  17.580  0.1773  0.8198  0.2535
  462TMC3    C4 6877   4.257   1.436   0.029 -0.6711 -0.4262  0.1868
  462TMC3    C5 6878   4.310   1.316   0.069 -0.0028  0.0753  0.2958
  462TMC3    C6 6879   4.289   1.194   0.007  0.2048 -0.7884  0.0496
  462TMC3     C 6880   4.137   1.556  17.552  0.0812 -0.2744  0.1148
  462TMC3     O 6881   4.176   1.653  17.613  0.3888  0.2841 -0.2170
  462TMC3     H 6882   4.087   1.316  17.454 -4.5987 -1.5656  2.7159
  462TMC3    H1 6883   4.276   1.525   0.088 -0.3354 -0.4801  0.1605
  462TMC3    H2 6884   4.302   1.099   0.056 -0.1166 -1.3475 -0.9587
  462TMC3    C7 6885   4.369   1.295   0.197  0.4091 -0.7809  0.0886
  462TMC3    C8 6886   4.182   1.082  17.512  0.4784 -0.2235  0.2132
  462TMC3    O1 6887   4.451   1.203   0.208  0.1720 -0.1350 -0.3777
  462TMC3    O2 6888   4.078   1.083  17.447  0.2233  0.1132  0.1213
  463MPD2     C 6889   0.024   0.297   2.052  0.7037 -0.2716  0.3142
  463MPD2    C1 6890   4.707   0.335   1.929  0.0609  0.2830 -0.3107
  463MPD2    C2 6891   0.059   0.430   1.858 -0.2913  0.1198 -0.5948
  463MPD2    C3 6892   0.162   0.498   1.920 -0.3433  0.0653 -0.1832
  463MPD2    C4 6893   0.192   0.463   2.048 -0.4199  0.5420  1.1938
  463MPD2    C5 6894   0.122   0.366   2.114  0.8077 -0.2521 -0.2631
  463MPD2     H 6895   0.025   0.455   1.759 -2.0784  0.8429  0.1931
  463MPD2    H1 6896   0.272   0.506   2.107  0.9506 -0.0784 -0.2167
  463MPD2    H2 6897   4.692   0.218   2.103 -3.0232  1.8176 -0.3742
  463MPD2    H3 6898   0.151   0.330   2.212 -0.1700 -0.9658 -0.2361
  463MPD2     N 6899   0.243   0.601   1.856  0.1407  0.3443  0.2011
  463MPD2    H5 6900   0.330   0.621   1.903  0.2132 -0.0734  0.2441
  463MPD2    N1 6901   4.600   0.280   1.865  0.5053 -0.1099  0.3147
  463MPD2    H7 6902   4.592   0.304   1.766 -1.3991 -0.6717  0.3277
  464TMC3    C1 6903   4.386   0.166   1.842  0.0521 -0.7645 -0.1578
  464TMC3    C2 6904   4.408   0.135   1.713 -0.5484  0.4788  0.5181
  464TMC3    C3 6905   4.312   0.079   1.639 -0.5357  0.0540  0.0816
  464TMC3    C4 6906   4.269   0.149   1.907 -0.7219 -0.2834  1.0897
  464TMC3    C5 6907   4.166   0.109   1.828 -0.0501 -0.5572 -0.3668
  464TMC3    C6 6908   4.180   0.075   1.691  0.3877 -0.2258  0.6118
  464TMC3     C 6909   4.488   0.228   1.926 -0.5660  0.0177  0.3007
  464TMC3     O 6910   4.468   0.224   2.049  0.5669  0.3528  0.6404
  464TMC3     H 6911   4.505   0.144   1.666  0.1592 -0.5358  1.8177
  464TMC3    H1 6912   4.261   0.167   2.013  3.2219  1.3451  1.0904
  464TMC3    H2 6913   4.102   0.043   1.623  1.1783  1.3559 -1.0146
  464TMC3    C7 6914   4.033   0.105   1.886  0.2710  0.0918 -0.3350
  464TMC3    C8 6915   4.333   0.061   1.497 -0.4081  0.2407  0.2655
  464TMC3    O1 6916   4.012   0.161   1.991 -0.4543  0.6965  0.1412
  464TMC3    O2 6917   4.429   0.123   1.458 -0.1104  0.1827 -0.3225
  465MPD2     C 6918   1.910   2.913  17.362 -0.6456 -0.1985 -0.3087
  465MPD2    C1 6919   1.838   2.930  17.477  0.1893 -0.7938 -0.2013
  465MPD2    C2 6920   1.733   3.016  17.472 -0.8166  0.3843 -0.4570
  465MPD2    C3 6921   1.696   3.082  17.356 -0.3931  0.9907 -0.0299
  465MPD2    C4 6922   1.760   3.049  17.233 -1.0998  0.0847  0.0687
  465MPD2    C5 6923   1.877   2.964  17.241 -0.1720  0.1378 -0.3895
  465MPD2     H 6924   1.681   3.041  17.564  4.0440  0.7750  2.2204
  465MPD2    H1 6925   1.737   3.083  17.132 -1.7856  2.0123  0.8829
  465MPD2    H2 6926   1.996   2.847  17.360  0.9395  1.8671  0.2915
  465MPD2    H3 6927   1.928   2.929  17.152 -0.9681 -0.1045 -0.7477
  465MPD2     N 6928   1.580   3.165  17.353 -0.5412 -0.5032  0.1323
  465MPD2    H5 6929   1.537   3.180  17.444 -1.6246  0.2014 -0.4824
  465MPD2    N1 6930   1.844   2.855  17.599  0.0872 -0.3137 -0.4310
  465MPD2    H7 6931   1.775   2.875  17.670 -0.4128  0.0082 -1.0061
  466TMC3    C1 6932   1.278   3.415  17.428 -0.3429  0.1751  0.2681
  466TMC3    C2 6933   1.203   3.472  17.329  0.3553 -0.4839  0.2688
  466TMC3    C3 6934   1.229   3.435  17.200 -0.7534 -0.0039  0.0887
  466TMC3    C4 6935   1.385   3.339  17.405 -0.1784 -0.7817 -0.4998
  466TMC3    C5 6936   1.419   3.321  17.274  0.0418  0.0660  0.5489
  466TMC3    C6 6937   1.345   3.376  17.170  0.4756  0.8495 -0.2474
  466TMC3     C 6938   1.251   3.455  17.565  1.3372 -0.0549  0.1039
  466TMC3     O 6939   1.189   3.559  17.586  0.4621 -0.4282 -0.3525
  466TMC3     H 6940   1.115   3.525  17.365 -0.4561 -0.7267 -1.3447
  466TMC3    H1 6941   1.461   3.314  17.478  0.4097  1.5892 -0.3036
  466TMC3    H2 6942   1.374   3.348  17.069 -1.4805  0.5553 -0.7278
  466TMC3    C7 6943   1.530   3.232  17.244  0.1703  0.5929 -0.6221
  466TMC3    C8 6944   1.158   3.500  17.092  0.4881  0.0497 -0.4293
  466TMC3    O1 6945   1.559   3.217  17.124  0.7857 -0.0099 -0.0208
  466TMC3    O2 6946   1.180   3.459  16.978 -0.5594  0.6732 -0.2030
  467TMC3    C1 6947   2.102   2.070  13.730 -0.0388 -0.2340 -0.8906
  467TMC3    C2 6948   2.190   2.135  13.656 -0.6589  0.5133  0.0154
  467TMC3    C3 6949   2.145   2.248  13.590  0.4901 -0.7112  0.1099
  467TMC3    C4 6950   1.974   2.106  13.753 -0.3587 -0.6538  0.1308
  467TMC3    C5 6951   1.935   2.216  13.695 -0.0797  0.7215 -0.1983
  467TMC3    C6 6952   2.016   2.294  13.619 -0.1354  0.3325 -0.0356
  467TMC3     C 6953   2.167   1.977  13.819 -0.5132  0.5686  0.2521
  467TMC3     O 6954   2.103   1.877  13.860 -0.0453 -0.1966 -0.6460
  467TMC3     H 6955   2.289   2.096  13.635 -0.6383  0.0839  0.9260
  467TMC3    H1 6956   1.908   2.043  13.811  0.5338 -0.4903  1.3390
  467TMC3    H2 6957   1.982   2.391  13.585 -1.0407 -0.5352 -1.6011
  467TMC3    C7 6958   1.792   2.246  13.695 -0.4371 -0.4443 -0.8245
  467TMC3    C8 6959   2.234   2.329  13.508  0.5617 -0.3764  0.4607
  467TMC3    O1 6960   1.759   2.336  13.616  0.1511 -0.3761  0.3982
  467TMC3    O2 6961   2.199   2.449  13.491  0.0305 -0.1639 -0.8574
  468MPD2     C 6962   1.104   4.699  10.113 -0.1628 -0.8301  0.1451
  468MPD2    C1 6963   1.129   0.083  10.197  0.3880 -0.6577  1.2266
  468MPD2    C2 6964   1.188   0.058  10.318 -0.8779  0.3830 -0.1397
  468MPD2    C3 6965   1.194   4.648  10.359 -0.0291  0.0628 -0.5136
  468MPD2    C4 6966   1.151   4.542  10.282  0.7598 -0.6457  0.9364
  468MPD2    C5 6967   1.108   4.568  10.160 -0.4301 -0.2965  0.6998
  468MPD2     H 6968   1.210   0.142  10.383  0.4491 -1.6211  1.9888
  468MPD2    H1 6969   1.157   4.440  10.319 -1.2277 -0.3251  2.1600
  468MPD2    H2 6970   1.070   4.718  10.011  2.2704 -0.0525 -0.5204
  468MPD2    H3 6971   1.068   4.490  10.097  2.5306 -1.1397 -0.1170
  468MPD2     N 6972   1.240   4.612  10.491 -0.0448 -0.3530  0.4357
  468MPD2    H5 6973   1.205   4.522  10.522 -1.5211 -0.1090 -0.5317
  468MPD2    N1 6974   1.095   0.210  10.152  0.0063 -0.2667  0.6309
  468MPD2    H7 6975   1.113   0.286  10.216  1.2504  0.0674 -0.1175
  469TMC3    C1 6976   1.000   0.376  10.026  0.5651 -0.1685  0.1055
  469TMC3    C2 6977   1.033   0.477  10.117  0.0952 -0.3123 -0.3001
  469TMC3    C3 6978   0.956   0.588  10.108  0.1827  0.4666 -0.1718
  469TMC3    C4 6979   0.901   0.393   9.928  0.0095  0.3386 -0.2085
  469TMC3    C5 6980   0.822   0.506   9.934  0.3132  0.0994 -0.4213
  469TMC3    C6 6981   0.859   0.608  10.013 -0.8183 -0.1457 -0.3979
  469TMC3     C 6982   1.064   0.243  10.022  0.9776 -0.3905  0.2548
  469TMC3     O 6983   1.039   0.187   9.915  0.3296 -0.4122 -0.6576
  469TMC3     H 6984   1.111   0.467  10.193 -0.6878  1.2376  0.7204
  469TMC3    H1 6985   0.871   0.320   9.855 -0.2764 -0.3175  0.5617
  469TMC3    H2 6986   0.781   0.679  10.038  1.2517  2.2962 -0.8802
  469TMC3    C7 6987   0.699   0.522   9.852  1.2631  0.2333 -0.8530
  469TMC3    C8 6988   0.988   0.711  10.180 -0.3034 -0.1564  0.1542
  469TMC3    O1 6989   0.665   0.414   9.807  0.5621 -0.1797  0.1989
  469TMC3    O2 6990   0.958   0.818  10.130 -0.2748 -0.1844  0.6356
  470TMC3    C1 6991   4.622   1.618   0.425 -0.6535 -0.7389  0.6916
  470TMC3    C2 6992   4.635   1.686   0.538  0.3179 -0.4341  0.5677
  470TMC3    C3 6993   4.678   1.615   0.646  1.0311 -0.2445 -0.2388
  470TMC3    C4 6994   4.645   1.481   0.414  0.2131 -0.0742  0.0835
  470TMC3    C5 6995   4.676   1.413   0.524 -0.0524  0.2059 -0.4914
  470TMC3    C6 6996   4.697   1.479   0.642  0.2749 -0.9796 -0.4172
  470TMC3     C 6997   4.566   1.694   0.320  0.3936  0.0929 -0.6396
  470TMC3     O 6998   4.501   1.792   0.347  0.3048 -0.4980 -0.2628
  470TMC3     H 6999   4.614   1.792   0.547 -0.8392 -0.7541  1.7549
  470TMC3    H1 7000   4.624   1.427   0.322  0.9699  1.0383 -0.7549
  470TMC3    H2 7001   0.012   1.432   0.733 -0.1453  2.7537  1.7198
  470TMC3    C7 7002   4.713   1.273   0.515 -0.3436 -1.5476 -0.7357
  470TMC3    C8 7003   4.616   1.674   0.758 -0.3029  0.5117  0.7739
  470TMC3    O1 7004   0.035   1.239   0.407 -0.0872  0.0689  0.1215
  470TMC3    O2 7005   4.618   1.794   0.770 -0.5290 -0.9380  0.4319
  471MPD2     C 7006   4.149   2.988  16.836  0.6290  0.1827  0.1243
  471MPD2    C1 7007   4.116   2.866  16.906  0.0655 -0.0026 -0.5307
  471MPD2    C2 7008   4.197   2.829  17.013 -0.0813  0.1174 -0.0569
  471MPD2    C3 7009   4.309   2.902  17.053  0.0222 -0.2097  0.6911
  471MPD2    C4 7010   4.331   3.019  16.989 -0.7798  0.8268 -0.0960
  471MPD2    C5 7011   4.255   3.067  16.881  0.6622  0.0691  0.6684
  471MPD2     H 7012   4.176   2.737  17.066 -0.5807  0.8075  0.9419
  471MPD2    H1 7013   4.414   3.079  17.025 -0.9546  0.4258  0.9587
  471MPD2    H2 7014   4.104   3.028  16.746 -1.3910  0.4841  1.2893
  471MPD2    H3 7015   4.278   3.163  16.837  0.6859 -0.4356 -0.4304
  471MPD2     N 7016   4.409   2.845  17.140  0.0621  0.2293  0.2727
  471MPD2    H5 7017   4.484   2.910  17.165  0.8761 -0.6203  0.0339
  471MPD2    N1 7018   4.023   2.766  16.855  0.6200  0.6901 -0.5444
  471MPD2    H7 7019   4.007   2.682  16.909 -1.0592  1.0033 -0.5446
  472TMC3    C1 7020   3.851   2.667  16.740  0.3755 -0.8613 -0.3002
  472TMC3    C2 7021   3.722   2.711  16.704 -0.6826 -0.2535 -0.1938
  472TMC3    C3 7022   3.629   2.618  16.685  0.1804 -0.0768 -0.0507
  472TMC3    C4 7023   3.885   2.540  16.769  0.2180 -0.4329  0.1254
  472TMC3    C5 7024   3.787   2.453  16.739  0.4450 -0.1695 -0.3823
  472TMC3    C6 7025   3.665   2.493  16.696  0.8563 -0.4955 -0.4001
  472TMC3     C 7026   3.945   2.778  16.750  0.2339  0.4459  0.2241
  472TMC3     O 7027   3.923   2.875  16.687  0.1236 -0.2259  0.6737
  472TMC3     H 7028   3.710   2.818  16.691  2.3957  0.3056  1.4798
  472TMC3    H1 7029   3.985   2.510  16.798 -0.9837 -3.1528  1.4083
  472TMC3    H2 7030   3.584   2.423  16.679 -0.6069  0.7885  1.2529
  472TMC3    C7 7031   3.817   2.312  16.756 -0.6325 -0.7015 -0.2568
  472TMC3    C8 7032   3.507   2.662  16.623  0.0869 -0.5860  0.2771
  472TMC3    O1 7033   3.882   2.293  16.855 -0.2331  0.8922  0.2375
  472TMC3    O2 7034   3.475   2.775  16.654  0.6288 -0.2540  0.1305
  473MPD2     C 7035   4.041   4.357  14.069 -0.4738  0.3174  0.1861
  473MPD2    C1 7036   4.058   4.441  13.963  1.1486 -0.1020 -0.1059
  473MPD2    C2 7037   4.102   4.569  13.991  0.0747 -0.0885  0.2131
  473MPD2    C3 7038   4.134   4.611  14.120 -0.7462 -1.0517 -0.6758
  473MPD2    C4 7039   4.113   4.519  14.223  0.6580  0.3529  0.4489
  473MPD2    C5 7040   4.059   4.395  14.197 -0.3376  0.8127 -0.0895
  473MPD2     H 7041   4.120   4.637  13.908 -1.3181  2.3692  1.8950
  473MPD2    H1 7042   4.130   4.540  14.328 -0.5701  1.4123  0.4382
  473MPD2    H2 7043   4.027   4.250  14.059 -0.9939  0.3827  0.1695
  473MPD2    H3 7044   4.051   4.325  14.279  1.3695  0.0508 -0.5714
  473MPD2     N 7045   4.172   0.015  14.159  0.6003  0.0613  0.3985
  473MPD2    H5 7046   4.162   0.022  14.260  0.1550  0.1677  0.3446
  473MPD2    N1 7047   4.030   4.420  13.826  0.1019 -0.0023  0.0866
  473MPD2    H7 7048   4.032   4.504  13.769 -1.5605  0.0132  0.0566
  474TMC3    C1 7049   4.222   0.245  14.158 -0.0142 -0.1639  0.2407
  474TMC3    C2 7050   4.172   0.358  14.108  0.2263  0.3717 -0.1073
  474TMC3    C3 7051   4.138   0.463  14.189 -0.1827 -0.2377 -0.0140
  474TMC3    C4 7052   4.240   0.227  14.296  0.3082 -0.1175 -0.1157
  474TMC3    C5 7053   4.199   0.328  14.376 -0.1046 -0.4119  0.3287
  474TMC3    C6 7054   4.151   0.447  14.329 -0.7848  0.0118  0.5526
  474TMC3     C 7055   4.183   0.129  14.081 -0.8076  0.2984  0.2533
  474TMC3     O 7056   4.169   0.141  13.959  0.2354  0.5033 -0.3395
  474TMC3     H 7057   4.147   0.367  14.003  1.0389  0.8510 -0.2656
  474TMC3    H1 7058   4.288   0.139  14.338 -1.0272 -0.4242  0.7600
  474TMC3    H2 7059   4.109   0.524  14.393 -1.6380 -2.1499  2.6020
  474TMC3    C7 7060   4.289   0.351  14.487 -0.3260  0.1112  0.3046
  474TMC3    C8 7061   4.052   0.562  14.129  1.7265  0.4522 -0.1899
  474TMC3    O1 7062   4.394   0.285  14.487 -0.3708 -0.4050 -0.1566
  474TMC3    O2 7063   3.996   0.528  14.027  0.1556 -0.4743 -0.1315
  475MPD2     C 7064   2.527   2.988  10.336 -0.1626  0.4994 -0.3157
  475MPD2    C1 7065   2.530   3.116  10.396  0.0963 -0.0180  0.1156
  475MPD2    C2 7066   2.417   3.167  10.458  0.4016 -0.0986 -0.3012
  475MPD2    C3 7067   2.306   3.099  10.486  0.2721 -0.2684 -0.4503
  475MPD2    C4 7068   2.307   2.967  10.445 -0.4451  0.2227  0.0538
  475MPD2    C5 7069   2.410   2.921  10.367 -0.0561  0.2221  0.3446
  475MPD2     H 7070   2.417   3.272  10.488 -1.0837 -0.2671  0.3113
  475MPD2    H1 7071   2.227   2.894  10.455 -0.6026  0.4132  0.1796
  475MPD2    H2 7072   2.609   2.940  10.285 -0.4933 -0.6988  0.2895
  475MPD2    H3 7073   2.393   2.824  10.320  0.6856  0.1135  0.2963
  475MPD2     N 7074   2.193   3.170  10.543  0.3064 -0.0326  0.0296
  475MPD2    H5 7075   2.201   3.270  10.562 -0.9238  0.2927 -1.2163
  475MPD2    N1 7076   2.634   3.202  10.373  0.2446  0.2515 -0.1158
  475MPD2    H7 7077   2.626   3.290  10.422 -0.1703 -0.8095  1.7473
  476TMC3    C1 7078   2.787   3.327  10.246 -0.1124  0.0900 -0.0193
  476TMC3    C2 7079   2.686   3.405  10.200 -0.1783  0.2600  0.1132
  476TMC3    C3 7080   2.662   3.529  10.259 -0.5522 -0.2341 -0.5778
  476TMC3    C4 7081   2.864   3.371  10.351  0.5109 -0.0456  0.6037
  476TMC3    C5 7082   2.844   3.495  10.402  0.3228 -0.1449  0.1334
  476TMC3    C6 7083   2.745   3.581  10.356 -0.5363  0.6442  0.1206
  476TMC3     C 7084   2.737   3.193  10.273 -0.2847  0.4174 -0.1846
  476TMC3     O 7085   2.766   3.116  10.181  0.1194  0.4709  0.2219
  476TMC3     H 7086   2.623   3.367  10.120  0.7102 -1.4960  0.2485
  476TMC3    H1 7087   2.934   3.299  10.393 -0.0154 -1.2650 -0.6129
  476TMC3    H2 7088   2.736   3.680  10.399  0.7100  0.1475  1.5242
  476TMC3    C7 7089   2.904   3.512  10.535  0.2421  0.2146  0.9302
  476TMC3    C8 7090   2.522   3.552  10.283 -1.2444 -0.1584 -0.1259
  476TMC3    O1 7091   2.981   3.423  10.568 -0.3108  0.4200  0.6005
  476TMC3    O2 7092   2.493   3.663  10.335  0.0574 -1.1270  0.2887
  477MPD2     C 7093   0.358   4.468  11.624 -0.2186 -0.8874  0.0639
  477MPD2    C1 7094   0.260   4.518  11.711  0.2724  0.6031 -0.0746
  477MPD2    C2 7095   0.281   4.525  11.852 -0.6402  0.4774  0.5795
  477MPD2    C3 7096   0.409   4.497  11.903 -0.0777  0.4936  0.1262
  477MPD2    C4 7097   0.508   4.467  11.808 -0.1824  0.1216 -0.1823
  477MPD2    C5 7098   0.486   4.447  11.670  0.0758 -0.1929  0.6477
  477MPD2     H 7099   0.203   4.551  11.922 -0.4042  0.4889  0.8380
  477MPD2    H1 7100   0.605   4.438  11.847 -0.7011 -0.0297  0.9948
  477MPD2    H2 7101   0.358   4.447  11.517  0.7327  0.1266 -0.1311
  477MPD2    H3 7102   0.558   4.396  11.607 -1.0559 -0.0766 -0.7396
  477MPD2     N 7103   0.433   4.466  12.039  0.4440 -0.5108 -0.0984
  477MPD2    H5 7104   0.520   4.415  12.048  0.7470 -0.1619 -1.1486
  477MPD2    N1 7105   0.128   4.541  11.656  0.0084  0.2894 -0.6534
  477MPD2    H7 7106   0.117   4.517  11.558 -0.2168 -0.2808 -0.4876
  478TMC3    C1 7107   4.625   4.583  11.629  0.2852  0.1874 -0.3846
  478TMC3    C2 7108   4.506   4.624  11.688  0.1291  0.6277  0.2112
  478TMC3    C3 7109   4.420   4.697  11.617  0.5697 -0.0418  0.4530
  478TMC3    C4 7110   4.645   4.597  11.499 -0.0671  0.1052 -0.0847
  478TMC3    C5 7111   4.552   4.668  11.424  0.3339 -0.6131 -0.0580
  478TMC3    C6 7112   4.446   0.011  11.487 -0.0605 -0.6036 -1.0196
  478TMC3     C 7113   0.010   4.569  11.724 -0.4050  0.2097  0.5318
  478TMC3     O 7114   4.721   4.601  11.843  0.0448 -0.1005 -0.0657
  478TMC3     H 7115   4.492   4.605  11.794 -1.6659 -0.4560 -0.2399
  478TMC3    H1 7116   0.005   4.550  11.444  0.1446  0.1118  0.2267
  478TMC3    H2 7117   4.388   0.088  11.438 -0.5048  1.9090  3.4677
  478TMC3    C7 7118   4.555   4.653  11.277 -0.7751 -0.3481  0.8358
  478TMC3    C8 7119   4.333   0.066  11.683  0.5116  0.1676  0.0595
  478TMC3    O1 7120   4.643   4.587  11.220 -0.2710 -0.4934  0.2692
  478TMC3    O2 7121   4.314   0.178  11.631 -0.0695 -0.2879  0.0461
  479MPD2     C 7122   3.401   1.961  15.176 -0.0216  0.3130 -0.2603
  479MPD2    C1 7123   3.418   1.947  15.310  0.7802  0.1773  0.1255
  479MPD2    C2 7124   3.548   1.937  15.363  0.0656 -0.3949  0.2165
  479MPD2    C3 7125   3.660   1.964  15.286 -0.5158  0.6264 -0.2431
  479MPD2    C4 7126   3.641   1.992  15.152 -0.9752 -0.6024  0.0292
  479MPD2    C5 7127   3.514   1.984  15.104  0.7481  0.9215 -0.3411
  479MPD2     H 7128   3.565   1.904  15.465  0.8821  0.7957  0.4784
  479MPD2    H1 7129   3.723   2.004  15.081 -1.0985 -1.3659 -0.2463
  479MPD2    H2 7130   3.306   1.954  15.124 -1.0692  2.3613  1.3638
  479MPD2    H3 7131   3.497   1.997  14.997  0.4058  1.0927 -0.2647
  479MPD2     N 7132   3.794   1.960  15.328 -0.0163 -0.0644  0.3829
  479MPD2    H5 7133   3.861   1.938  15.254  1.6620  2.6506  1.1100
  479MPD2    N1 7134   3.295   1.921  15.377 -0.1105  0.6360  0.5874
  479MPD2    H7 7135   3.213   1.939  15.320 -1.5598  0.8049  2.7393
  480TMC3    C1 7136   3.727   2.044  15.796  0.5210 -0.2702 -1.0203
  480TMC3    C2 7137   3.628   2.130  15.772  0.5405 -0.3003 -0.1380
  480TMC3    C3 7138   3.615   2.182  15.645 -0.2890 -0.1248  0.5890
  480TMC3    C4 7139   3.810   2.000  15.695 -0.2333  0.3201  0.2494
  480TMC3    C5 7140   3.786   2.039  15.567 -0.3326  0.3213 -0.2086
  480TMC3    C6 7141   3.695   2.136  15.541  0.7097  0.5946 -0.2836
  480TMC3     C 7142   3.700   1.944  15.894 -0.0140  0.1586 -0.2700
  480TMC3     O 7143   3.587   1.907  15.919  0.2273  0.4870 -0.6670
  480TMC3     H 7144   3.554   2.153  15.847 -2.1755 -0.8874 -2.6206
  480TMC3    H1 7145   3.871   1.911  15.707 -0.4353  0.0338 -0.8121
  480TMC3    H2 7146   3.688   2.179  15.442  3.5998  0.0003 -0.7231
  480TMC3    C7 7147   3.835   1.957  15.456 -0.5464  0.0008 -0.4428
  480TMC3    C8 7148   3.487   2.236  15.614  0.7328 -0.1491 -0.3009
  480TMC3    O1 7149   3.946   1.915  15.486 -0.4644 -0.4740 -0.1579
  480TMC3    O2 7150   3.398   2.248  15.697  0.4406  0.0665  0.0710
  481MPD2     C 7151   0.575   0.868  14.344  0.2599 -0.0409 -0.0290
  481MPD2    C1 7152   0.445   0.867  14.388  0.0496 -0.0075  0.5150
  481MPD2    C2 7153   0.412   0.799  14.505  0.5474 -0.0971  0.6000
  481MPD2    C3 7154   0.510   0.752  14.593  0.0219 -0.4554  0.5085
  481MPD2    C4 7155   0.636   0.755  14.550 -1.1186 -0.1279  0.3808
  481MPD2    C5 7156   0.663   0.801  14.426  0.1171  0.2734 -0.2457
  481MPD2     H 7157   0.309   0.779  14.534 -0.2411 -0.4256 -2.4219
  481MPD2    H1 7158   0.718   0.707  14.602 -0.7304 -3.2190 -3.1427
  481MPD2    H2 7159   0.601   0.903  14.245  1.7907  3.2360  1.5378
  481MPD2    H3 7160   0.764   0.792  14.387 -0.9618  2.3382 -3.5714
  481MPD2     N 7161   0.494   0.694  14.719  0.4333  0.1970 -0.1561
  481MPD2    H5 7162   0.577   0.658  14.765 -0.2604  0.9014  1.6206
  481MPD2    N1 7163   0.348   0.909  14.287  0.1657  0.2886  0.5657
  481MPD2    H7 7164   0.386   0.949  14.202  3.2475 -1.6313  1.0555
  482TMC3    C1 7165   0.135   0.927  14.187  0.8375  0.0565 -0.5846
  482TMC3    C2 7166   0.179   0.895  14.062 -0.0999 -0.5005 -0.1147
  482TMC3    C3 7167   0.099   0.925  13.959 -0.1237 -0.3071  0.5238
  482TMC3    C4 7168   0.013   0.982  14.216  0.1635  0.1389  0.0532
  482TMC3    C5 7169   4.659   1.024  14.109 -0.0096  0.6400 -0.3737
  482TMC3    C6 7170   4.702   0.996  13.979  0.2294  0.0111  0.1573
  482TMC3     C 7171   0.209   0.898  14.307  0.3729 -0.1026 -0.6878
  482TMC3     O 7172   0.148   0.856  14.403  0.3611  0.0974 -0.6464
  482TMC3     H 7173   0.252   0.816  14.047 -1.1427 -0.8467 -3.2596
  482TMC3    H1 7174   4.699   0.997  14.317 -3.1005 -1.7286 -0.8035
  482TMC3    H2 7175   4.640   1.023  13.895 -0.5143 -0.1962  0.6421
  482TMC3    C7 7176   4.604   1.150  14.118 -0.4083 -0.0023 -0.3870
  482TMC3    C8 7177   0.141   0.891  13.821  0.8054  0.3320  0.1441
  482TMC3    O1 7178   4.488   1.159  14.160  0.0394  0.1344 -0.1243
  482TMC3    O2 7179   0.252   0.835  13.815 -0.0532  0.1247 -1.0681
  483TMC3    C1 7180   3.279   0.246   0.792  0.2660  0.2545 -0.3495
  483TMC3    C2 7181   3.393   0.311   0.817  0.4637 -0.0618 -0.2801
  483TMC3    C3 7182   3.434   0.332   0.945 -0.2263 -0.1653 -0.1995
  483TMC3    C4 7183   3.201   0.193   0.888 -0.4698 -0.2668 -0.4662
  483TMC3    C5 7184   3.251   0.211   1.019 -0.3187 -0.5315 -0.0081
  483TMC3    C6 7185   3.361   0.282   1.049  0.2933 -0.6477  0.1836
  483TMC3     C 7186   3.258   0.205   0.656  0.3157 -0.1148  0.4069
  483TMC3     O 7187   3.303   0.281   0.565  0.0689  0.3702  0.0198
  483TMC3     H 7188   3.433   0.375   0.739 -0.7180 -0.3191 -1.0853
  483TMC3    H1 7189   3.122   0.124   0.862 -1.3637  0.0240  1.4708
  483TMC3    H2 7190   3.382   0.307   1.153  1.0389 -0.3463 -0.0354
  483TMC3    C7 7191   3.202   0.128   1.124 -0.5378  0.6592  0.6034
  483TMC3    C8 7192   3.559   0.405   0.962  0.0410  0.3653  0.0150
  483TMC3    O1 7193   3.211   0.169   1.239 -0.1022 -0.4892 -0.4605
  483TMC3    O2 7194   3.615   0.448   0.862 -0.1001  0.0766 -0.0429
  484MPD2     C 7195   1.091   3.489  12.495  0.7834 -0.2044  0.0115
  484MPD2    C1 7196   1.088   3.411  12.612 -0.3605  0.1310 -0.1766
  484MPD2    C2 7197   1.206   3.382  12.670 -0.7333 -0.2180  0.2446
  484MPD2    C3 7198   1.324   3.432  12.623 -0.3403 -0.5159 -0.2498
  484MPD2    C4 7199   1.326   3.516  12.516 -0.3647  0.0168  0.2229
  484MPD2    C5 7200   1.207   3.551  12.459 -0.3690 -0.0963  0.3800
  484MPD2     H 7201   1.213   3.337  12.768  1.1895 -0.7346 -0.1322
  484MPD2    H1 7202   1.423   3.551  12.484 -0.5558  1.5006  1.2690
  484MPD2    H2 7203   1.000   3.517  12.443  0.2226 -0.1665  1.0144
  484MPD2    H3 7204   1.221   3.616  12.373 -2.0820  3.0805  2.5184
  484MPD2     N 7205   1.452   3.412  12.680  0.8506 -0.0604  0.3333
  484MPD2    H5 7206   1.534   3.452  12.636  1.0253  0.9284  1.5519
  484MPD2    N1 7207   0.958   3.366  12.655  0.2471 -0.1486  0.1847
  484MPD2    H7 7208   0.884   3.401  12.596 -1.3814 -1.8878  1.2170
  485TMC3    C1 7209   1.610   3.350  12.849 -0.1242 -0.1609  0.2155
  485TMC3    C2 7210   1.682   3.237  12.837  0.0512 -0.5363 -0.0975
  485TMC3    C3 7211   1.818   3.253  12.812 -0.3187 -0.0733 -0.0918
  485TMC3    C4 7212   1.665   3.472  12.831 -0.6215 -0.2379  0.5043
  485TMC3    C5 7213   1.797   3.482  12.809  0.0620 -0.2819 -0.6743
  485TMC3    C6 7214   1.875   3.374  12.827 -0.0512 -0.5999  0.1323
  485TMC3     C 7215   1.473   3.349  12.801 -0.2375 -0.6707 -0.3131
  485TMC3     O 7216   1.398   3.265  12.850  0.0548 -0.2531 -0.0636
  485TMC3     H 7217   1.631   3.144  12.856  1.0061 -1.4510 -1.9751
  485TMC3    H1 7218   1.600   3.557  12.817  2.5355  1.7843 -2.1201
  485TMC3    H2 7219   1.983   3.375  12.815 -0.5269 -0.0009 -4.0358
  485TMC3    C7 7220   1.807   3.536  12.678 -0.1917  0.4285 -0.9855
  485TMC3    C8 7221   1.842   3.190  12.682  0.6420  0.5489  0.3344
  485TMC3    O1 7222   1.715   3.510  12.603  0.1413 -0.0276  0.4750
  485TMC3    O2 7223   1.909   3.252  12.600 -0.1022  0.2936 -0.6833
  486MPD2     C 7224   3.300   1.682  12.736 -0.4569 -0.6751  0.1525
  486MPD2    C1 7225   3.164   1.683  12.723 -0.8070  0.0340  0.3279
  486MPD2    C2 7226   3.099   1.786  12.651  0.4975  0.2274 -0.2028
  486MPD2    C3 7227   3.185   1.886  12.600 -0.2292 -0.7043  0.3328
  486MPD2    C4 7228   3.320   1.874  12.600  0.0228  0.5272 -0.6032
  486MPD2    C5 7229   3.375   1.772  12.669  0.2636 -0.3398  0.5079
  486MPD2     H 7230   2.992   1.798  12.640  0.3160 -0.8441  0.4111
  486MPD2    H1 7231   3.394   1.937  12.553  2.9434 -0.4851  2.6527
  486MPD2    H2 7232   3.354   1.602  12.786 -0.1763 -0.5107  0.1154
  486MPD2    H3 7233   3.483   1.770  12.675  0.4378 -0.1553 -2.5309
  486MPD2     N 7234   3.120   1.985  12.529 -0.1350 -0.4154  0.0421
  486MPD2    H5 7235   3.019   1.973  12.527 -0.1106 -0.8361  1.2337
  486MPD2    N1 7236   3.103   1.568  12.784  0.1803 -0.4456 -0.2841
  486MPD2    H7 7237   3.157   1.508  12.845 -1.9691 -1.7080  0.3615
  487TMC3    C1 7238   2.901   1.445  12.877 -0.4403  0.5246 -0.0721
  487TMC3    C2 7239   2.774   1.445  12.914 -0.2438 -0.2201  0.3199
  487TMC3    C3 7240   2.729   1.337  12.993 -0.7682 -0.7290  0.2143
  487TMC3    C4 7241   2.988   1.354  12.933 -0.2256 -0.2962 -0.2178
  487TMC3    C5 7242   2.946   1.253  13.019  0.0629  0.0644  0.2612
  487TMC3    C6 7243   2.816   1.250  13.052 -0.1509 -0.2074 -0.0317
  487TMC3     C 7244   2.968   1.563  12.800  0.2368  0.1377 -0.0507
  487TMC3     O 7245   2.887   1.650  12.781 -0.4431 -0.5609  0.0495
  487TMC3     H 7246   2.713   1.531  12.887  0.4715  0.3445  0.4975
  487TMC3    H1 7247   3.091   1.352  12.898  0.1270  0.2204  0.7856
  487TMC3    H2 7248   2.779   1.161  13.102 -0.2367 -1.1109 -1.6762
  487TMC3    C7 7249   3.039   1.222  13.126  1.1790 -0.2664  0.3508
  487TMC3    C8 7250   2.613   1.348  13.069  0.4846 -0.3346  0.4586
  487TMC3    O1 7251   3.158   1.221  13.108  0.0736 -0.2397  0.2264
  487TMC3    O2 7252   2.603   1.279  13.166 -0.3369 -0.0946  0.3115
  488MPD2     C 7253   2.912   3.552  16.130 -0.6905  0.3765 -0.1246
  488MPD2    C1 7254   3.027   3.606  16.180 -0.1888  0.2734 -0.5401
  488MPD2    C2 7255   3.063   3.582  16.310 -0.3481 -0.3654  0.3998
  488MPD2    C3 7256   2.998   3.488  16.385  0.2206 -0.0009 -0.1826
  488MPD2    C4 7257   2.897   3.411  16.324  0.6688  0.4280 -0.4167
  488MPD2    C5 7258   2.857   3.451  16.199  0.1598 -0.9456  0.2238
  488MPD2     H 7259   3.140   3.640  16.359  1.2747  0.1987 -2.8805
  488MPD2    H1 7260   2.853   3.319  16.359 -1.0765  2.0385  1.6347
  488MPD2    H2 7261   2.868   3.581  16.035 -1.7076 -1.6846 -0.2792
  488MPD2    H3 7262   2.768   3.409  16.155  2.7548 -3.5196 -2.6281
  488MPD2     N 7263   3.041   3.481  16.522  0.0964 -0.2182  0.0022
  488MPD2    H5 7264   3.115   3.544  16.550 -1.6343  0.6889  2.5749
  488MPD2    N1 7265   3.096   3.709  16.115  0.3398 -0.1478  1.0048
  488MPD2    H7 7266   3.177   3.747  16.162  1.2539 -1.3164  0.3958
  489TMC3    C1 7267   3.046   3.429  16.742 -0.1442  0.6076 -0.8926
  489TMC3    C2 7268   3.173   3.479  16.736  0.1319 -0.7035 -0.4446
  489TMC3    C3 7269   3.230   3.533  16.853 -0.0939  0.1269 -0.3396
  489TMC3    C4 7270   2.974   3.424  16.858 -0.4138  0.2076 -0.0346
  489TMC3    C5 7271   3.035   3.467  16.971  0.0449  0.2201  0.4514
  489TMC3    C6 7272   3.161   3.525  16.973  0.1834  0.3198 -0.7126
  489TMC3     C 7273   2.979   3.409  16.622 -0.7477  0.4900  0.2733
  489TMC3     O 7274   2.866   3.359  16.624  0.1142  0.3859 -0.2620
  489TMC3     H 7275   3.227   3.468  16.642  1.3813 -0.2643  0.2279
  489TMC3    H1 7276   2.875   3.380  16.859  0.3752 -1.5241  1.1257
  489TMC3    H2 7277   3.216   3.555  17.062 -0.3176  0.3434 -0.4122
  489TMC3    C7 7278   2.975   3.435  17.097  0.5163 -0.1892  0.9649
  489TMC3    C8 7279   3.351   3.615  16.834 -0.7720  0.1167  0.3236
  489TMC3    O1 7280   2.854   3.417  17.095  0.1618 -0.7560  0.5384
  489TMC3    O2 7281   3.417   3.593  16.733 -0.8080  0.9585  0.0075
  490MPD2     C 7282   4.483   2.820   0.113  0.5056 -0.4276 -0.3129
  490MPD2    C1 7283   4.415   2.936   0.124  1.1124 -0.0876 -0.4849
  490MPD2    C2 7284   4.483   3.045   0.171  0.5858 -0.2364 -0.3140
  490MPD2    C3 7285   4.617   3.046   0.191  0.3847  0.0731 -0.1184
  490MPD2    C4 7286   4.682   2.926   0.175  0.2084  0.0026 -0.2087
  490MPD2    C5 7287   4.613   2.820   0.131  0.5760 -0.7330  0.1999
  490MPD2     H 7288   4.430   3.138   0.190 -1.3194 -1.6201  1.0371
  490MPD2    H1 7289   0.069   2.917   0.176  0.1422 -0.6716  3.4802
  490MPD2    H2 7290   4.448   2.721   0.086 -0.6036 -0.3570  0.8600
  490MPD2    H3 7291   4.675   2.735   0.103  0.7302 -0.0774 -1.4761
  490MPD2     N 7292   4.691   3.151   0.246 -0.7502  0.7152 -0.1709
  490MPD2    H5 7293   0.071   3.146   0.255 -0.7470 -1.1501 -1.2330
  490MPD2    N1 7294   4.285   2.958   0.077 -0.0082 -0.4317  0.6190
  490MPD2    H7 7295   4.250   3.053   0.077 -1.5460 -0.9739 -1.2522
  491TMC3    C1 7296   4.106   2.916  17.626 -0.4508 -0.3329 -0.0841
  491TMC3    C2 7297   4.048   3.023  17.685 -0.0613  1.4794  0.9655
  491TMC3    C3 7298   4.017   3.124  17.607 -0.4214  0.2985  0.5991
  491TMC3    C4 7299   4.113   2.901  17.490 -0.7784  0.6225 -0.5659
  491TMC3    C5 7300   4.068   3.004  17.409  0.0610 -0.0008 -0.1901
  491TMC3    C6 7301   4.025   3.115  17.470  0.0523 -0.8265  0.5503
  491TMC3     C 7302   4.216   2.865   0.006 -0.4030 -0.4905  0.0079
  491TMC3     O 7303   4.242   2.750  17.653  0.5827  0.1188 -0.1212
  491TMC3     H 7304   4.039   3.022   0.107 -2.2272  2.5581  0.7985
  491TMC3    H1 7305   4.157   2.817  17.438  2.7739  1.3552  1.3046
  491TMC3    H2 7306   3.997   3.205  17.416 -2.0646 -2.7231 -1.5223
  491TMC3    C7 7307   3.992   2.966  17.294 -0.1974  0.3798 -0.3923
  491TMC3    C8 7308   3.913   3.223  17.646  0.5109  0.1291 -0.4434
  491TMC3    O1 7309   3.961   2.846  17.288 -0.1464 -0.3737 -0.1128
  491TMC3    O2 7310   3.900   3.328  17.588 -0.9199  0.1355 -0.0020
  492MPD2     C 7311   4.125   3.454  11.215  0.3757  0.6879  0.3715
  492MPD2    C1 7312   4.106   3.339  11.147  0.0438 -0.2551  0.0314
  492MPD2    C2 7313   4.083   3.221  11.221  0.0708 -0.1563  0.0848
  492MPD2    C3 7314   4.070   3.231  11.360  0.0751 -0.9216 -0.1510
  492MPD2    C4 7315   4.080   3.352  11.419  0.1981 -0.0729 -1.0895
  492MPD2    C5 7316   4.100   3.464  11.346  0.3649 -0.2390 -0.4855
  492MPD2     H 7317   4.068   3.135  11.157  0.3270  1.5764 -2.3081
  492MPD2    H1 7318   4.054   3.356  11.524  1.6156 -0.9199 -0.7043
  492MPD2    H2 7319   4.143   3.544  11.157  1.5503 -0.4961 -1.1159
  492MPD2    H3 7320   4.099   3.561  11.394 -1.9808 -1.4205  1.8279
  492MPD2     N 7321   4.044   3.114  11.433  0.4047 -0.0769 -1.1140
  492MPD2    H5 7322   4.060   3.126  11.533  0.9838  1.3400 -1.3835
  492MPD2    N1 7323   4.106   3.348  11.005 -0.1350 -0.4237  0.1885
  492MPD2    H7 7324   4.129   3.438  10.964  3.0091 -0.5388  1.7481
  493TMC3    C1 7325   4.099   3.289  10.769  0.0049 -0.2562 -0.0954
  493TMC3    C2 7326   4.181   3.395  10.743  0.4153  0.1067  0.0795
  493TMC3    C3 7327   4.182   3.447  10.615 -0.1678 -0.1010 -0.8195
  493TMC3    C4 7328   4.011   3.249  10.672  0.3029 -0.7670  0.2695
  493TMC3    C5 7329   4.018   3.298  10.549 -1.3698  0.2845 -0.3890
  493TMC3    C6 7330   4.101   3.399  10.522  0.1593  0.3682 -0.1270
  493TMC3     C 7331   4.077   3.247  10.910  0.2977  0.4041  0.1774
  493TMC3     O 7332   4.024   3.138  10.942  0.4474 -0.3014  0.1755
  493TMC3     H 7333   4.257   3.423  10.816 -0.1689  0.3925  0.5742
  493TMC3    H1 7334   3.939   3.173  10.702 -2.2654  1.8538  0.6583
  493TMC3    H2 7335   4.096   3.464  10.435 -1.0772 -0.3981 -0.6323
  493TMC3    C7 7336   3.942   3.233  10.446  0.1619  0.3758 -0.0452
  493TMC3    C8 7337   4.224   3.580  10.610  0.1509  0.3255  0.8708
  493TMC3    O1 7338   3.835   3.188  10.485  0.1199  0.0922  0.1900
  493TMC3    O2 7339   4.227   3.641  10.714  0.0650 -0.8792 -0.3976
  494TMC3    C1 7340   0.624   0.135   0.810  0.0313 -0.2562  0.4169
  494TMC3    C2 7341   0.635   0.007   0.852 -0.0858 -0.4053 -0.5415
  494TMC3    C3 7342   0.583   4.631   0.770  0.0937  0.1635  0.7350
  494TMC3    C4 7343   0.563   0.179   0.695  0.2200  0.2128 -0.2785
  494TMC3    C5 7344   0.510   0.078   0.616 -0.4283  0.4998 -0.1356
  494TMC3    C6 7345   0.520   4.666   0.649  0.7300  0.4665 -0.1824
  494TMC3     C 7346   0.676   0.236   0.904  0.0934  0.9855  0.5342
  494TMC3     O 7347   0.787   0.276   0.870  0.0050  0.4157  1.0577
  494TMC3     H 7348   0.693   4.711   0.942  0.1283 -0.5772 -0.7109
  494TMC3    H1 7349   0.564   0.283   0.667 -1.4876 -0.0708 -1.4287
  494TMC3    H2 7350   0.486   4.589   0.580  0.6945  0.9631 -0.7142
  494TMC3    C7 7351   0.431   0.111   0.502  0.7138 -0.4874 -0.3019
  494TMC3    C8 7352   0.564   4.500   0.829  0.2615  0.0717 -0.7359
  494TMC3    O1 7353   0.408   0.017   0.424  0.3551  0.8331 -0.6351
  494TMC3    O2 7354   0.634   4.476   0.928  0.3332  0.2446 -0.4171
  495TMC3    C1 7355   3.473   2.295  14.619 -0.0823  0.0770  0.9021
  495TMC3    C2 7356   3.358   2.300  14.548  0.2483 -0.2010  0.6341
  495TMC3    C3 7357   3.243   2.294  14.623 -0.6010 -0.8670 -0.7105
  495TMC3    C4 7358   3.477   2.312  14.753  0.3275  0.9847  0.2009
  495TMC3    C5 7359   3.360   2.322  14.826  0.3754  0.2240 -0.0646
  495TMC3    C6 7360   3.237   2.314  14.760  0.2097 -0.3478 -0.0722
  495TMC3     C 7361   3.537   2.165  14.580 -1.0164  0.2120 -0.2413
  495TMC3     O 7362   3.471   2.087  14.514 -0.6912 -0.1868 -0.7342
  495TMC3     H 7363   3.361   2.265  14.446 -2.7809  1.0437  0.1478
  495TMC3    H1 7364   3.574   2.308  14.801 -0.2332  0.5059  1.2946
  495TMC3    H2 7365   3.151   2.286  14.820  0.5028 -0.7744  0.1493
  495TMC3    C7 7366   3.373   2.325  14.966 -0.0249  0.4635 -0.0112
  495TMC3    C8 7367   3.141   2.200  14.581 -0.4199  0.3058  0.7265
  495TMC3    O1 7368   3.491   2.340  15.005  0.1774  0.1028 -0.1412
  495TMC3    O2 7369   3.025   2.210  14.617  0.0940 -0.1895 -0.0151
  496MPD2     C 7370   1.063   1.978  15.560  0.1107  0.3669  0.3492
  496MPD2    C1 7371   0.959   1.905  15.613 -0.3873  0.4899 -0.4130
  496MPD2    C2 7372   0.933   1.906  15.746 -0.4200 -0.1114  0.0414
  496MPD2    C3 7373   1.018   1.979  15.827 -0.4912  0.1057 -0.1465
  496MPD2    C4 7374   1.121   2.048  15.772 -0.1690 -0.5950  0.1327
  496MPD2    C5 7375   1.131   2.062  15.639 -0.4863 -0.1721 -0.0295
  496MPD2     H 7376   0.856   1.841  15.786 -2.9494  2.7141 -0.3136
  496MPD2    H1 7377   1.194   2.105  15.828  0.6493  0.0223 -1.5265
  496MPD2    H2 7378   1.091   1.979  15.455 -1.0799  0.6542  0.0358
  496MPD2    H3 7379   1.209   2.127  15.601 -0.1728 -0.4853  0.0720
  496MPD2     N 7380   1.008   1.983  15.969 -0.3153  0.1613 -0.1069
  496MPD2    H5 7381   1.071   2.047  16.017  1.5882 -1.0873 -0.9519
  496MPD2    N1 7382   0.894   1.811  15.521 -0.3494  0.5146 -0.2788
  496MPD2    H7 7383   0.939   1.796  15.431 -1.0883  0.0142 -0.5597
  497TMC3    C1 7384   0.917   1.951  16.177  0.1136 -0.5669  0.1506
  497TMC3    C2 7385   0.939   1.846  16.256 -0.0567  0.7101  0.2792
  497TMC3    C3 7386   1.013   1.863  16.371 -0.1474 -0.8847  0.0435
  497TMC3    C4 7387   0.977   2.075  16.203 -0.1477  0.4551 -0.1067
  497TMC3    C5 7388   1.035   2.090  16.330 -0.0653  0.3518 -0.1427
  497TMC3    C6 7389   1.052   1.983  16.414 -0.0017 -0.3004  0.1418
  497TMC3     C 7390   0.905   1.926  16.041  0.6142  0.1725 -0.1424
  497TMC3     O 7391   0.806   1.860  16.010 -0.4965 -0.5115 -0.2295
  497TMC3     H 7392   0.908   1.747  16.226  0.4878  0.8784 -0.8252
  497TMC3    H1 7393   0.955   2.160  16.139 -1.4860  0.5131  0.4261
  497TMC3    H2 7394   1.113   1.993  16.502 -0.8658 -1.7147  0.9094
  497TMC3    C7 7395   1.100   2.219  16.339  0.1283 -0.4100  0.5818
  497TMC3    C8 7396   1.061   1.747  16.443 -0.1249  0.5809 -0.7353
  497TMC3    O1 7397   1.089   2.292  16.244  0.3699  0.0839  1.1188
  497TMC3    O2 7398   1.070   1.776  16.562  0.1301  0.4341  0.7136
  498MPD2     C 7399   1.992   3.040   9.763 -0.2810 -0.1640  0.4103
  498MPD2    C1 7400   1.911   3.140   9.823  0.1763 -0.0533  0.5254
  498MPD2    C2 7401   1.776   3.125   9.815  0.0377  0.1545  0.0468
  498MPD2    C3 7402   1.714   3.025   9.736  0.7243  0.6229  0.0158
  498MPD2    C4 7403   1.799   2.923   9.694  0.7218 -0.4012 -0.0216
  498MPD2    C5 7404   1.934   2.932   9.701  0.3556  0.5353  0.2060
  498MPD2     H 7405   1.713   3.204   9.853 -0.9524 -1.5873  2.0592
  498MPD2    H1 7406   1.766   2.842   9.631 -1.6431  1.3445 -1.0392
  498MPD2    H2 7407   2.098   3.039   9.782 -0.2182  0.4306  0.0856
  498MPD2    H3 7408   1.998   2.873   9.637 -0.3050  2.5671 -2.3528
  498MPD2     N 7409   1.571   3.020   9.723 -0.3891  0.1567  0.1357
  498MPD2    H5 7410   1.510   3.084   9.775  0.2121  0.5224  0.3872
  498MPD2    N1 7411   1.958   3.253   9.887 -0.2336 -0.1759  0.0398
  498MPD2    H7 7412   1.890   3.322   9.918 -1.5303 -2.1793  1.7495
  499TMC3    C1 7413   2.111   3.434   9.888 -0.3786  0.2444 -0.2050
  499TMC3    C2 7414   2.245   3.470   9.917  0.7254  0.7255 -0.1617
  499TMC3    C3 7415   2.287   3.598   9.879  0.0169 -0.6662  0.4109
  499TMC3    C4 7416   2.029   3.521   9.817  0.3252 -0.1519 -0.1939
  499TMC3    C5 7417   2.085   3.642   9.786 -0.3135  0.1096  0.3327
  499TMC3    C6 7418   2.213   3.685   9.815 -0.0756 -0.4749  0.0728
  499TMC3     C 7419   2.089   3.294   9.880 -0.0789 -0.3533 -0.2443
  499TMC3     O 7420   2.188   3.231   9.841 -0.8500 -0.3854 -0.0482
  499TMC3     H 7421   2.311   3.398   9.963  2.2241  1.2825 -1.4116
  499TMC3    H1 7422   1.930   3.485   9.792 -0.0979  0.7406  0.2151
  499TMC3    H2 7423   2.248   3.776   9.767 -1.8558  0.7348  1.0810
  499TMC3    C7 7424   2.007   3.737   9.715 -0.5486  0.1067 -0.3041
  499TMC3    C8 7425   2.423   3.628   9.916 -0.1352 -0.1633  0.2112
  499TMC3    O1 7426   2.032   3.857   9.726 -0.9337 -0.2637  0.0749
  499TMC3    O2 7427   2.489   3.538   9.969  0.1211 -0.3956  0.3095
  500MPD2     C 7428   3.187   4.604  10.407  0.7895  0.3626  0.1090
  500MPD2    C1 7429   3.195   4.556  10.281 -0.7643 -0.3427  0.3418
  500MPD2    C2 7430   3.078   4.511  10.222 -0.9898  0.0390 -0.4046
  500MPD2    C3 7431   2.962   4.510  10.295 -0.0521 -0.1686  0.3543
  500MPD2    C4 7432   2.958   4.572  10.415  0.3426  0.3348 -0.3305
  500MPD2    C5 7433   3.070   4.614  10.475 -0.1891 -0.7809 -0.0594
  500MPD2     H 7434   3.083   4.485  10.117  3.0274  0.0539 -0.2075
  500MPD2    H1 7435   2.869   4.586  10.475  0.9945  2.5374  0.1163
  500MPD2    H2 7436   3.272   4.646  10.458  0.2836  1.3244  0.1594
  500MPD2    H3 7437   3.064   4.677  10.563  2.7466 -1.4548  0.6166
  500MPD2     N 7438   2.839   4.468  10.243  0.3746  0.3885  0.4087
  500MPD2    H5 7439   2.765   4.465  10.311  0.7931  1.1528  0.9006
  500MPD2    N1 7440   3.320   4.566  10.206 -0.3745 -0.0052  0.1689
  500MPD2    H7 7441   3.314   4.550  10.106  1.6471 -1.5304  0.3036
  501TMC3    C1 7442   3.543   4.590  10.165 -0.2845  0.3689  0.7626
  501TMC3    C2 7443   3.580   4.717  10.119  0.4744  0.5420 -0.0567
  501TMC3    C3 7444   3.703   0.014  10.070  0.2838 -0.0469  0.7599
  501TMC3    C4 7445   3.639   4.492  10.174  0.2802 -0.1850  0.5205
  501TMC3    C5 7446   3.762   4.508  10.121  0.0269  0.5568 -0.0620
  501TMC3    C6 7447   3.797   4.631  10.066 -0.5105 -0.3477  0.1603
  501TMC3     C 7448   3.440   4.592  10.264 -0.4077 -0.2839 -0.4997
  501TMC3     O 7449   3.477   4.583  10.377 -0.1225  0.1430  0.0063
  501TMC3     H 7450   3.513   0.080  10.133 -0.8344 -0.8412  1.8725
  501TMC3    H1 7451   3.607   4.405  10.230 -1.1750 -0.5668 -0.9005
  501TMC3    H2 7452   3.894   4.647  10.020 -1.2075 -0.7895 -1.4381
  501TMC3    C7 7453   3.853   4.461  10.221  0.1140  0.0053  0.1765
  501TMC3    C8 7454   3.781   0.129  10.119  0.3096  0.4326 -0.4466
  501TMC3    O1 7455   3.821   4.360  10.289 -0.2436 -0.4060 -0.1629
  501TMC3    O2 7456   3.891   0.097  10.157  0.1268 -0.2900  0.6488
  502TMC3    C1 7457   2.837   2.910  15.088  0.8332 -0.0627 -0.4174
  502TMC3    C2 7458   2.807   3.019  15.021  1.0551  0.4656 -0.3915
  502TMC3    C3 7459   2.676   3.025  14.981 -0.2285  0.0003 -0.1646
  502TMC3    C4 7460   2.758   2.803  15.119  0.0746  0.2169 -0.4205
  502TMC3    C5 7461   2.634   2.807  15.068 -0.1498  0.2590 -0.3854
  502TMC3    C6 7462   2.587   2.920  15.005  0.0293 -0.5126  0.3132
  502TMC3     C 7463   2.955   2.916  15.173  0.3679 -0.4550  0.0364
  502TMC3     O 7464   3.073   2.917  15.129 -0.1581  0.4249  0.6737
  502TMC3     H 7465   2.879   3.099  15.011  2.1111 -0.4540 -0.0904
  502TMC3    H1 7466   2.798   2.718  15.174  0.8977  2.0185  1.7410
  502TMC3    H2 7467   2.495   2.920  14.949  0.1798  2.1183  0.0468
  502TMC3    C7 7468   2.549   2.714  15.135  0.3599  0.1065 -0.0075
  502TMC3    C8 7469   2.640   3.125  14.888  0.2707 -0.3458  0.7590
  502TMC3    O1 7470   2.577   2.596  15.129  0.1092 -0.8710  0.3913
  502TMC3    O2 7471   2.732   3.174  14.824 -0.3298 -0.3696 -0.2292
  503MPD2     C 7472   0.644   3.573  16.928  0.0464 -0.5203 -0.0635
  503MPD2    C1 7473   0.639   3.609  17.063  0.1616  0.4082  0.1264
  503MPD2    C2 7474   0.718   3.545  17.161 -0.4135  0.4554  0.0015
  503MPD2    C3 7475   0.789   3.429  17.131 -0.1410  1.0838 -0.2297
  503MPD2    C4 7476   0.799   3.392  16.997 -0.2771 -0.2312  0.3377
  503MPD2    C5 7477   0.725   3.460  16.906  0.9201  0.3604 -0.2962
  503MPD2     H 7478   0.712   3.577  17.265  0.3721  0.8528 -0.0711
  503MPD2    H1 7479   0.853   3.308  16.954 -1.5851 -0.8945 -0.0028
  503MPD2    H2 7480   0.585   3.604  16.843 -0.8209  1.6555  1.3344
  503MPD2    H3 7481   0.723   3.420  16.806  0.1519  0.1559 -0.1942
  503MPD2     N 7482   0.850   3.354  17.238 -0.1014 -0.9138 -0.1943
  503MPD2    H5 7483   0.832   3.390  17.331 -0.2367  0.3263 -0.7004
  503MPD2    N1 7484   0.562   3.725  17.100 -0.5540  0.8653 -0.2521
  503MPD2    H7 7485   0.568   3.764  17.194 -0.3856 -0.1419  0.1647
  504TMC3    C1 7486   0.971   3.171  17.342 -0.3674  0.3727 -0.0088
  504TMC3    C2 7487   0.941   3.225  17.462 -0.1801  0.2031 -1.2176
  504TMC3    C3 7488   0.984   3.153  17.575  0.4306 -0.5971  0.8842
  504TMC3    C4 7489   1.033   3.049  17.336 -0.0153  0.2914  0.5599
  504TMC3    C5 7490   1.095   2.995  17.446 -0.1268 -0.2224 -0.1680
  504TMC3    C6 7491   1.072   3.049  17.567 -0.0021  0.8119  0.2054
  504TMC3     C 7492   0.919   3.233  17.223 -0.2962  0.9319 -0.0188
  504TMC3     O 7493   0.957   3.183  17.118  0.2380  0.5455 -0.9655
  504TMC3     H 7494   0.892   3.321  17.475  0.1642  0.2857 -0.5275
  504TMC3    H1 7495   1.043   3.016  17.233  2.4928  1.4760  0.4182
  504TMC3    H2 7496   1.120   3.010  17.656 -1.0955 -4.1732 -1.3812
  504TMC3    C7 7497   1.209   2.918  17.441  0.1810 -0.3472 -0.2395
  504TMC3    C8 7498   0.939   3.194   0.021 -0.6493 -0.0218  1.0201
  504TMC3    O1 7499   1.264   2.883  17.549  0.6991 -0.5340  0.5062
  504TMC3    O2 7500   0.906   3.317   0.032 -0.0796  0.1748 -0.6037
  505MPD2     C 7501   0.127   2.769   9.902 -0.0369 -0.4903  0.2591
  505MPD2    C1 7502   0.185   2.641   9.902 -0.2521 -0.1820  0.0630
  505MPD2    C2 7503   0.254   2.600  10.019  0.3812  0.1143  0.0723
  505MPD2    C3 7504   0.283   2.685  10.122 -0.2098  0.3206  0.1357
  505MPD2    C4 7505   0.226   2.812  10.120 -0.6991  0.1661  0.8004
  505MPD2    C5 7506   0.145   2.841  10.013  0.4005  0.2266  0.1678
  505MPD2     H 7507   0.286   2.497  10.023 -0.1561 -0.1031 -1.4847
  505MPD2    H1 7508   0.235   2.872  10.210 -1.3858  0.8764  0.3876
  505MPD2    H2 7509   0.072   2.816   9.822  0.8618  0.9915  0.5182
  505MPD2    H3 7510   0.097   2.938  10.011 -0.4139 -0.1685  0.4794
  505MPD2     N 7511   0.352   2.649  10.242 -0.0788 -0.2567 -0.5108
  505MPD2    H5 7512   0.373   2.724  10.307  1.8799 -0.7833 -0.5292
  505MPD2    N1 7513   0.163   2.558   9.787  0.1534  0.6319 -0.1616
  505MPD2    H7 7514   0.107   2.585   9.707 -1.2651 -2.5523 -0.2672
  506TMC3    C1 7515   0.206   2.368   9.638  0.5202 -0.1630 -0.0088
  506TMC3    C2 7516   0.257   2.441   9.531 -0.3688  0.4038 -0.0371
  506TMC3    C3 7517   0.354   2.389   9.452  0.4482  0.2942 -0.0834
  506TMC3    C4 7518   0.260   2.239   9.659  0.3362 -0.7370 -0.3649
  506TMC3    C5 7519   0.372   2.199   9.589  0.4400  0.0526  0.1391
  506TMC3    C6 7520   0.412   2.270   9.482  0.4927  0.0406 -0.0857
  506TMC3     C 7521   0.200   2.428   9.772 -0.8881 -0.4354  0.1656
  506TMC3     O 7522   0.239   2.357   9.868 -0.2966  0.2730  1.1691
  506TMC3     H 7523   0.229   2.545   9.516  1.4394  1.1630  1.8480
  506TMC3    H1 7524   0.209   2.172   9.727  0.8748 -0.5222  0.2446
  506TMC3    H2 7525   0.499   2.227   9.433  1.1287  1.6919 -0.3984
  506TMC3    C7 7526   0.471   2.141   9.671 -0.0432 -0.5763 -0.0664
  506TMC3    C8 7527   0.418   2.479   9.364 -0.7765  0.1809 -0.5589
  506TMC3    O1 7528   0.564   2.086   9.611 -0.8748 -0.6411  0.6534
  506TMC3    O2 7529   0.362   2.511   9.261 -0.4210  0.0840 -0.1439
  507TMC3    C1 7530   1.335   2.646  14.627  0.1932  0.3476 -0.7856
  507TMC3    C2 7531   1.353   2.707  14.504 -0.0574 -0.4995  0.1402
  507TMC3    C3 7532   1.447   2.799  14.500  0.1942  0.3463 -0.3791
  507TMC3    C4 7533   1.407   2.678  14.747 -0.8277  0.5190  0.1394
  507TMC3    C5 7534   1.517   2.766  14.734  0.2422 -0.0985 -0.7886
  507TMC3    C6 7535   1.527   2.828  14.612  0.6404 -0.4464 -0.7165
  507TMC3     C 7536   1.193   2.640  14.660  0.4405 -0.0075  0.7152
  507TMC3     O 7537   1.121   2.592  14.575  0.0335 -0.3365  0.4081
  507TMC3     H 7538   1.276   2.705  14.428 -0.3913  0.4435  0.4572
  507TMC3    H1 7539   1.383   2.620  14.835  1.1267 -0.1471  0.2413
  507TMC3    H2 7540   1.613   2.893  14.599 -1.6768  3.2248  2.0258
  507TMC3    C7 7541   1.506   2.865  14.842 -0.3606  0.5570  0.2633
  507TMC3    C8 7542   1.398   2.927  14.451 -0.1870  0.2880  1.0870
  507TMC3    O1 7543   1.504   2.823  14.957  0.3069  0.5286  0.3450
  507TMC3    O2 7544   1.425   3.024  14.522  0.0225  0.2586  0.7339
  508MPD2     C 7545   2.442   0.268  16.357 -0.1103  0.3983  0.5617
  508MPD2    C1 7546   2.537   0.373  16.361 -0.0442 -0.3131  0.2815
  508MPD2    C2 7547   2.554   0.453  16.249  0.6688 -0.5936 -0.0123
  508MPD2    C3 7548   2.468   0.448  16.140 -0.5063  0.1381 -0.1223
  508MPD2    C4 7549   2.372   0.351  16.132  0.9797 -0.0792 -0.6337
  508MPD2    C5 7550   2.360   0.257  16.244 -0.6253 -0.1598 -0.2000
  508MPD2     H 7551   2.632   0.528  16.244  2.7732 -2.7800 -0.4290
  508MPD2    H1 7552   2.308   0.356  16.045  2.2138  0.7317 -1.5096
  508MPD2    H2 7553   2.426   0.198  16.438 -3.1657  1.5928  0.9879
  508MPD2    H3 7554   2.277   0.187  16.248 -0.2977 -0.5006  0.6147
  508MPD2     N 7555   2.475   0.551  16.047  0.7567 -0.1082  0.1489
  508MPD2    H5 7556   2.552   0.617  16.058 -0.4159  1.0838  1.0651
  508MPD2    N1 7557   2.629   0.386  16.468 -0.1115  0.2830 -0.3196
  508MPD2    H7 7558   2.675   0.477  16.464  1.4064 -0.3981  1.8402
  509TMC3    C1 7559   2.327   0.852  15.727  0.5575  0.7866  0.1864
  509TMC3    C2 7560   2.390   0.957  15.789 -0.2763 -0.1408 -0.6621
  509TMC3    C3 7561   2.475   0.919  15.893  0.4505 -0.3509 -0.3519
  509TMC3    C4 7562   2.343   0.721  15.757 -1.0028  0.9794  0.5607
  509TMC3    C5 7563   2.420   0.690  15.863 -0.2599 -0.1819  0.8902
  509TMC3    C6 7564   2.496   0.788  15.929  0.2905 -0.1422 -0.6522
  509TMC3     C 7565   2.235   0.877  15.621 -0.6690 -0.8880 -0.2638
  509TMC3     O 7566   2.213   0.783  15.546 -0.2763  0.1843 -0.2770
  509TMC3     H 7567   2.375   1.061  15.762 -1.0702 -0.8376 -2.9087
  509TMC3    H1 7568   2.261   0.656  15.728 -0.7939  2.0131 -2.3734
  509TMC3    H2 7569   2.556   0.770  16.017 -2.0786  2.3826  1.5268
  509TMC3    C7 7570   2.407   0.561  15.929 -0.4017 -0.2806  1.1961
  509TMC3    C8 7571   2.558   1.019  15.965  0.0792  0.6275 -0.7556
  509TMC3    O1 7572   2.332   0.484  15.872 -0.0187 -0.5799  0.1612
  509TMC3    O2 7573   2.645   0.982  16.046  0.2352  0.3208  0.7213
  510MPD2     C 7574   0.131   2.420  14.496  0.3158  0.1824 -0.2258
  510MPD2    C1 7575   0.215   2.330  14.571 -0.3110 -0.0629 -0.0736
  510MPD2    C2 7576   0.336   2.305  14.515  0.2652 -0.6005 -0.1131
  510MPD2    C3 7577   0.368   2.351  14.394 -0.0365 -0.9100 -0.1927
  510MPD2    C4 7578   0.285   2.429  14.319 -0.2001 -0.2597  0.7914
  510MPD2    C5 7579   0.164   2.463  14.374 -0.0691  0.1066  0.2386
  510MPD2     H 7580   0.411   2.250  14.572 -1.9785 -1.4984  1.9603
  510MPD2    H1 7581   0.304   2.470  14.220  0.7763 -1.9901  0.2644
  510MPD2    H2 7582   0.027   2.440  14.520  0.1984 -0.7925  0.0836
  510MPD2    H3 7583   0.091   2.522  14.321  0.1525 -1.2953 -1.6006
  510MPD2     N 7584   0.488   2.303  14.350  0.0284  0.5995 -0.2871
  510MPD2    H5 7585   0.545   2.240  14.406 -0.4457  0.4547  0.0285
  510MPD2    N1 7586   0.159   2.276  14.692 -0.2121  0.3994 -0.7205
  510MPD2    H7 7587   0.058   2.279  14.701 -0.0719 -1.4834  1.5762
  511TMC3    C1 7588   0.170   2.154  14.894 -0.0056  0.1885 -0.1321
  511TMC3    C2 7589   0.068   2.223  14.950  0.2590 -0.1003  0.2402
  511TMC3    C3 7590   4.716   2.161  15.052 -0.2475  0.2722  0.1031
  511TMC3    C4 7591   0.215   2.032  14.930 -0.4707  0.0823 -1.0535
  511TMC3    C5 7592   0.145   1.975  15.036 -0.1220  0.7083  0.0313
  511TMC3    C6 7593   0.034   2.040  15.096 -0.8551 -0.6965 -0.8367
  511TMC3     C 7594   0.244   2.217  14.782 -0.9256 -0.1363 -0.9426
  511TMC3     O 7595   0.364   2.192  14.779  0.0474  0.5002 -0.5766
  511TMC3     H 7596   0.045   2.325  14.922 -2.8400 -0.2944  2.1839
  511TMC3    H1 7597   0.276   1.979  14.858  0.1435 -0.5688 -0.0593
  511TMC3    H2 7598   4.701   1.990  15.175 -2.3930 -2.9662 -3.3139
  511TMC3    C7 7599   0.166   1.833  15.053  0.3865 -1.4529 -0.1227
  511TMC3    C8 7600   4.631   2.235  15.143  0.0603 -0.2404 -0.1834
  511TMC3    O1 7601   0.260   1.788  14.982 -0.2181 -0.2841  0.0425
  511TMC3    O2 7602   4.631   2.359  15.135  0.1146  0.2996 -0.6031
  512TMC3    C1 7603   3.287   1.607  13.663  0.5199 -0.3910  0.1569
  512TMC3    C2 7604   3.381   1.574  13.752 -0.5751 -0.3499 -0.4720
  512TMC3    C3 7605   3.481   1.487  13.705  0.2891 -0.1891 -0.0318
  512TMC3    C4 7606   3.278   1.550  13.537 -0.1425  0.2383 -0.0455
  512TMC3    C5 7607   3.374   1.464  13.495 -0.6679 -0.5000  0.4698
  512TMC3    C6 7608   3.477   1.431  13.579  0.2646 -0.1802  0.6386
  512TMC3     C 7609   3.196   1.712  13.709  0.5775 -0.0955  0.1058
  512TMC3     O 7610   3.217   1.778  13.809 -0.2084 -0.2917 -0.0142
  512TMC3     H 7611   3.381   1.609  13.855  0.4059 -2.1275  0.1443
  512TMC3    H1 7612   3.201   1.566  13.462  1.3374  0.7333 -1.4709
  512TMC3    H2 7613   3.564   1.379  13.541 -0.3168 -2.5427  2.6201
  512TMC3    C7 7614   3.416   1.467  13.354  0.4338 -0.2470  0.0573
  512TMC3    C8 7615   3.615   1.469  13.770 -0.1141 -0.6069  0.1345
  512TMC3    O1 7616   3.369   1.565  13.301  0.4253  0.3162  0.3106
  512TMC3    O2 7617   3.684   1.372  13.747  0.5235 -0.4684 -0.7027
  513MPD2     C 7618   0.537   1.592  13.138  0.1555  0.1037 -0.0870
  513MPD2    C1 7619   0.669   1.577  13.089  0.0370 -1.0120 -0.1444
  513MPD2    C2 7620   0.774   1.637  13.161  0.0666 -0.1936  0.7090
  513MPD2    C3 7621   0.745   1.698  13.281  0.2220 -0.3144  0.0320
  513MPD2    C4 7622   0.624   1.695  13.334 -0.6553  0.3851  1.0580
  513MPD2    C5 7623   0.522   1.645  13.264 -0.2607  0.3721 -0.1652
  513MPD2     H 7624   0.878   1.622  13.132 -0.8231 -1.0000 -1.9885
  513MPD2    H1 7625   0.609   1.713  13.440  1.0495 -1.3648  1.5937
  513MPD2    H2 7626   0.451   1.550  13.088 -0.2559 -0.9591  1.4963
  513MPD2    H3 7627   0.424   1.634  13.308  0.6111  0.1186  1.7141
  513MPD2     N 7628   0.844   1.765  13.347  0.2684 -0.2243  0.3471
  513MPD2    H5 7629   0.936   1.746  13.308  0.4363  1.6556 -0.1840
  513MPD2    N1 7630   0.689   1.495  12.971  0.3792  0.1941 -0.7537
  513MPD2    H7 7631   0.604   1.461  12.927  0.4943 -0.4121 -0.5130
  514TMC3    C1 7632   0.796   1.334  12.826 -0.4953 -0.5159 -0.0164
  514TMC3    C2 7633   0.788   1.387  12.701 -0.3075 -1.1187 -0.2821
  514TMC3    C3 7634   0.887   1.348  12.612  0.3017 -0.3730  0.2335
  514TMC3    C4 7635   0.896   1.250  12.859 -0.5591  0.8410 -0.0507
  514TMC3    C5 7636   0.994   1.221  12.769 -0.2893 -0.2251  0.3044
  514TMC3    C6 7637   0.991   1.266  12.644 -0.0167  0.7016  0.1582
  514TMC3     C 7638   0.807   1.438  12.926  0.0933 -1.4957  0.0562
  514TMC3     O 7639   0.921   1.455  12.964  0.0287 -0.3163 -0.3324
  514TMC3     H 7640   0.712   1.463  12.685  0.5297 -0.2984 -0.3182
  514TMC3    H1 7641   0.897   1.223  12.964 -1.1261  0.0073 -0.2586
  514TMC3    H2 7642   1.064   1.248  12.567  0.4990  0.7006  0.6438
  514TMC3    C7 7643   1.128   1.221  12.819  0.5222 -0.3458 -0.1571
  514TMC3    C8 7644   0.890   1.390  12.477 -0.0449 -0.2597  0.2321
  514TMC3    O1 7645   1.212   1.144  12.775  0.0045 -0.6447 -0.1186
  514TMC3    O2 7646   0.990   1.379  12.408  0.0517 -0.2399  0.4709
  515MPD2     C 7647   3.450   3.690  15.334  0.0276  0.1292  1.0608
  515MPD2    C1 7648   3.521   3.690  15.214  0.2463  0.5549 -0.0564
  515MPD2    C2 7649   3.656   3.709  15.215  0.0445 -0.5732 -1.0964
  515MPD2    C3 7650   3.719   3.741  15.334  0.5696  0.2690  0.2370
  515MPD2    C4 7651   3.645   3.742  15.452 -0.0942  0.4389 -0.1424
  515MPD2    C5 7652   3.511   3.714  15.446  0.0475 -0.0352  0.4799
  515MPD2     H 7653   3.720   3.689  15.130  2.0905 -3.1142  1.0310
  515MPD2    H1 7654   3.696   3.751  15.548 -1.2426  0.2727  0.4781
  515MPD2    H2 7655   3.347   3.657  15.336 -0.5683  1.8969 -0.1146
  515MPD2    H3 7656   3.460   3.700  15.541  2.1333 -0.1528  1.5639
  515MPD2     N 7657   3.861   3.756  15.351  0.3342  0.0296  0.2121
  515MPD2    H5 7658   3.896   3.755  15.447 -1.1891 -2.3940  0.7450
  515MPD2    N1 7659   3.447   3.666  15.097 -0.7156  0.0322 -0.3143
  515MPD2    H7 7660   3.348   3.645  15.105 -0.8182  0.2760 -0.8975
  516TMC3    C1 7661   3.407   3.612  14.877  0.8071  1.1178 -0.2204
  516TMC3    C2 7662   3.417   3.658  14.745 -0.1464  0.3007  0.0727
  516TMC3    C3 7663   3.361   3.578  14.650  0.6265  0.4867  0.1680
  516TMC3    C4 7664   3.343   3.499  14.913  0.2089  0.4151  0.0225
  516TMC3    C5 7665   3.291   3.423  14.809  0.5978  0.5818 -0.4269
  516TMC3    C6 7666   3.299   3.460  14.679 -0.7563  0.3164 -0.4111
  516TMC3     C 7667   3.495   3.677  14.968  0.4350  0.2669 -0.0936
  516TMC3     O 7668   3.607   3.712  14.926 -0.3261  0.3182  0.5889
  516TMC3     H 7669   3.464   3.751  14.715 -0.8562  1.1927  1.7484
  516TMC3    H1 7670   3.354   3.463  15.015 -0.6819 -1.0575 -0.4053
  516TMC3    H2 7671   3.254   3.403  14.599  0.3459 -2.1905  0.7621
  516TMC3    C7 7672   3.277   3.275  14.837  0.8395 -0.6191  0.3652
  516TMC3    C8 7673   3.334   3.632  14.521 -0.0007 -0.0658 -0.1413
  516TMC3    O1 7674   3.195   3.253  14.927  0.0244 -0.0792  0.2385
  516TMC3    O2 7675   3.221   3.608  14.474  0.7233 -0.2752  0.0434
  517MPD2     C 7676   3.862   0.489   0.160 -0.4709  0.0579  0.6618
  517MPD2    C1 7677   3.983   0.436   0.165 -0.1287  0.1956  0.5230
  517MPD2    C2 7678   4.072   0.482   0.266  0.0707  0.0802  0.3901
  517MPD2    C3 7679   4.037   0.581   0.355  0.1945 -0.1716  0.0682
  517MPD2    C4 7680   3.908   0.632   0.350  0.0147 -0.3944 -0.8616
  517MPD2    C5 7681   3.824   0.586   0.253 -0.0606 -0.5476 -0.0131
  517MPD2     H 7682   4.168   0.433   0.275  0.7668  1.6616  1.5832
  517MPD2    H1 7683   3.875   0.703   0.424  1.9583 -3.0160  2.5161
  517MPD2    H2 7684   3.784   0.461   0.090 -0.2768 -0.6592  0.7315
  517MPD2    H3 7685   3.722   0.623   0.248 -0.0809 -0.5475  0.4312
  517MPD2     N 7686   4.131   0.619   0.449  0.2542  0.3809 -0.1875
  517MPD2    H5 7687   4.224   0.579   0.447  0.5129  0.9684  0.0616
  517MPD2    N1 7688   4.026   0.329   0.084 -0.3660  0.4536 -0.0071
  517MPD2    H7 7689   4.122   0.300   0.097 -0.5264  0.4401  1.1161
  518TMC3    C1 7690   3.996   0.133  17.641  0.2129 -0.3265 -0.0866
  518TMC3    C2 7691   3.910   0.038  17.594  0.0576  0.2796  0.3503
  518TMC3    C3 7692   3.967   4.647  17.530 -0.1786 -0.1045  0.0339
  518TMC3    C4 7693   4.127   0.130  17.611  0.0508  0.3113  0.2387
  518TMC3    C5 7694   4.181   0.021  17.546 -0.1042 -0.4281  0.0602
  518TMC3    C6 7695   4.100   4.637  17.508 -0.3244 -0.3072 -0.2107
  518TMC3     C 7696   3.939   0.255   0.009 -0.7255  0.4779  0.2653
  518TMC3     O 7697   3.821   0.267  17.671  0.2238 -0.3714 -0.5999
  518TMC3     H 7698   3.807   0.038  17.626 -0.1530  3.4740 -0.3079
  518TMC3    H1 7699   4.192   0.213  17.636  0.0894  0.3500  0.0032
  518TMC3    H2 7700   4.150   4.548  17.473 -0.1140  0.1249 -1.0021
  518TMC3    C7 7701   4.314   0.030  17.484 -0.0732 -0.0755 -0.8760
  518TMC3    C8 7702   3.885   4.531  17.479 -0.5339  0.2754 -0.7579
  518TMC3    O1 7703   4.360   0.140  17.455  0.2138  0.2636  0.3070
  518TMC3    O2 7704   3.939   4.456  17.404  0.3353 -0.1572  0.3887
  519MPD2     C 7705   0.547   3.396  14.754  0.0405 -0.2328  0.0922
  519MPD2    C1 7706   0.542   3.449  14.629  0.2775 -0.0497  0.4067
  519MPD2    C2 7707   0.609   3.383  14.530 -0.5710 -0.6127 -0.3972
  519MPD2    C3 7708   0.661   3.256  14.553  0.0718 -0.7605  0.9391
  519MPD2    C4 7709   0.681   3.209  14.684  0.1448 -0.3369  0.0240
  519MPD2    C5 7710   0.620   3.282  14.781  0.7035  0.9991  0.3572
  519MPD2     H 7711   0.601   3.400  14.423  0.4271 -0.2118 -0.4003
  519MPD2    H1 7712   0.733   3.120  14.716  1.4268  0.4236  0.0397
  519MPD2    H2 7713   0.495   3.448  14.834  1.8311  0.7389  0.6404
  519MPD2    H3 7714   0.628   3.246  14.884  2.1434  3.3944  1.0648
  519MPD2     N 7715   0.700   3.169  14.449 -0.3218  0.1035  0.0924
  519MPD2    H5 7716   0.750   3.085  14.475 -0.4207 -0.3245 -1.1013
  519MPD2    N1 7717   0.457   3.552  14.603  0.4528 -0.2368 -0.2113
  519MPD2    H7 7718   0.406   3.592  14.682  1.6061 -0.3996  0.6105
  520TMC3    C1 7719   0.704   3.065  14.232 -0.1902 -0.0831  0.4428
  520TMC3    C2 7720   0.598   3.021  14.157 -0.7447  0.9262  0.1592
  520TMC3    C3 7721   0.607   2.893  14.112 -0.5305 -0.5145 -0.2112
  520TMC3    C4 7722   0.809   2.992  14.271  0.1508  0.2498 -0.5024
  520TMC3    C5 7723   0.808   2.863  14.216  0.5778 -0.2100  0.3043
  520TMC3    C6 7724   0.720   2.817  14.127  0.6601 -1.2632  0.2438
  520TMC3     C 7725   0.670   3.179  14.315 -0.0373 -0.2053 -0.4195
  520TMC3     O 7726   0.599   3.262  14.264  0.2362 -0.4725 -0.3215
  520TMC3     H 7727   0.508   3.076  14.131 -0.4108  1.3037 -0.1995
  520TMC3    H1 7728   0.891   3.036  14.328  1.9448 -1.9342 -1.4079
  520TMC3    H2 7729   0.710   2.712  14.102 -0.3598 -1.0042 -0.4558
  520TMC3    C7 7730   0.925   2.781  14.248  0.7189 -1.0827  0.1731
  520TMC3    C8 7731   0.521   2.844  14.014 -0.3223  0.4494  0.0437
  520TMC3    O1 7732   0.971   2.789  14.360  0.0112  0.6756 -0.4031
  520TMC3    O2 7733   0.578   2.775  13.930 -0.1381  0.1804  0.1155
  521MPD2     C 7734   1.610   1.176  17.625 -0.5584 -0.9471  0.4396
  521MPD2    C1 7735   1.550   1.058  17.597 -0.1971  0.1826 -0.0180
  521MPD2    C2 7736   1.634   0.953  17.569  0.4101 -0.4916  0.1773
  521MPD2    C3 7737   1.772   0.952  17.595  0.3857  0.1211 -0.4295
  521MPD2    C4 7738   1.823   1.077  17.624  0.0426  0.8499  0.2407
  521MPD2    C5 7739   1.747   1.186  17.636 -0.7471 -0.1127  0.4213
  521MPD2     H 7740   1.585   0.856  17.564 -3.2247  1.4343 -1.6088
  521MPD2    H1 7741   1.927   1.091  17.648  0.2060 -1.8129  1.1432
  521MPD2    H2 7742   1.554   1.268  17.638 -1.0710 -0.9501 -1.7000
  521MPD2    H3 7743   1.809   1.273  17.657 -2.3976  2.0400 -3.4860
  521MPD2     N 7744   1.846   0.836  17.585  0.4436 -0.9354 -0.3770
  521MPD2    H5 7745   1.793   0.751  17.572 -1.9421  0.7308 -1.4312
  521MPD2    N1 7746   1.409   1.057  17.579  0.6929  0.5363  0.1079
  521MPD2    H7 7747   1.354   1.137  17.608  0.5271  0.8743 -1.1613
  522TMC3    C1 7748   2.050   0.703  17.569  0.4996  0.2971  0.3079
  522TMC3    C2 7749   2.181   0.676  17.616 -0.2499 -0.0495 -0.1825
  522TMC3    C3 7750   2.269   0.606  17.539  0.1047 -0.8300 -0.1470
  522TMC3    C4 7751   2.010   0.645  17.448 -0.2927 -0.6510 -0.7299
  522TMC3    C5 7752   2.092   0.558  17.386  0.2937 -0.3507 -0.0856
  522TMC3    C6 7753   2.227   0.544  17.427  0.5681  0.6178 -0.0592
  522TMC3     C 7754   1.977   0.816  17.628  0.1925  0.8906  0.2620
  522TMC3     O 7755   2.046   0.895   0.005 -0.4677  0.0077 -0.4721
  522TMC3     H 7756   2.212   0.704   0.029  0.8963  2.6569 -1.2887
  522TMC3    H1 7757   1.907   0.653  17.415 -0.1136  2.2255 -0.6100
  522TMC3    H2 7758   2.278   0.462  17.377  0.9324  0.3062  0.8203
  522TMC3    C7 7759   2.049   0.486  17.269 -0.8945 -0.6794  0.0085
  522TMC3    C8 7760   2.388   0.684  17.523  0.0869 -0.6561  0.2606
  522TMC3    O1 7761   2.118   0.385  17.238 -0.3525 -0.2575 -0.0968
  522TMC3    O2 7762   2.390   0.803  17.557  0.2089 -0.4388 -0.5139
  523MPD2     C 7763   4.091   1.019  10.497 -0.0411  0.1670 -0.3798
  523MPD2    C1 7764   4.053   0.969  10.376  0.0390 -0.4895 -0.2401
  523MPD2    C2 7765   3.966   1.046  10.305  0.7427 -0.4237 -0.0763
  523MPD2    C3 7766   3.941   1.173  10.332 -0.3332 -0.3234  0.6720
  523MPD2    C4 7767   3.990   1.230  10.447  0.1364  0.2944 -0.0668
  523MPD2    C5 7768   4.067   1.151  10.530 -0.7127 -0.4633  0.0153
  523MPD2     H 7769   3.915   0.997  10.224  1.1289  0.9255 -1.1286
  523MPD2    H1 7770   3.975   1.334  10.473  0.8418  0.8242 -1.8387
  523MPD2    H2 7771   4.143   0.956  10.568 -0.9674 -0.0015  0.1393
  523MPD2    H3 7772   4.096   1.191  10.626  2.5064 -0.0638 -1.1169
  523MPD2     N 7773   3.862   1.255  10.250 -0.6134 -0.6311 -0.9005
  523MPD2    H5 7774   3.843   1.349  10.284  1.4494 -0.4623 -0.2015
  523MPD2    N1 7775   4.089   0.837  10.337 -0.0048  0.0498  0.1631
  523MPD2    H7 7776   4.107   0.770  10.411  1.0202 -1.0522 -1.0877
  524TMC3    C1 7777   3.727   1.324  10.074 -0.1731 -0.4335  0.9473
  524TMC3    C2 7778   3.727   1.341   9.936 -0.1315 -0.5961  1.3826
  524TMC3    C3 7779   3.634   1.434   9.891  0.3749  0.1747  0.3192
  524TMC3    C4 7780   3.655   1.396  10.163  0.1031 -0.3321 -0.0295
  524TMC3    C5 7781   3.584   1.502  10.115 -0.5913  0.5318  0.7698
  524TMC3    C6 7782   3.567   1.525   9.979 -0.6956  0.8773  0.2154
  524TMC3     C 7783   3.816   1.224  10.125 -0.1690  0.1025  0.5013
  524TMC3     O 7784   3.841   1.137  10.043 -0.0294  0.3677  0.3899
  524TMC3     H 7785   3.767   1.259   9.879  1.1201 -0.1746  1.6398
  524TMC3    H1 7786   3.666   1.386  10.271  2.4533  0.5432 -0.1670
  524TMC3    H2 7787   3.499   1.600   9.939 -0.0952  1.6068  0.5695
  524TMC3    C7 7788   3.521   1.595  10.211 -0.0631  0.4258  0.0675
  524TMC3    C8 7789   3.645   1.476   9.753 -0.4927  0.3372 -0.6898
  524TMC3    O1 7790   3.516   1.563  10.330  0.0772 -0.4721 -0.5473
  524TMC3    O2 7791   3.600   1.588   9.726  0.2156  0.3698  0.8271
  525MPD2     C 7792   1.580   2.404  14.697  0.2304  0.0847  0.6793
  525MPD2    C1 7793   1.693   2.437  14.769  0.4547 -0.0222 -0.6385
  525MPD2    C2 7794   1.782   2.527  14.715 -0.0354  0.2187 -0.1664
  525MPD2    C3 7795   1.765   2.582  14.587  0.0368 -0.1897  1.1721
  525MPD2    C4 7796   1.663   2.539  14.509 -0.2980 -0.6644 -0.0262
  525MPD2    C5 7797   1.575   2.450  14.563  0.3501  0.0259 -0.5222
  525MPD2     H 7798   1.870   2.555  14.773  0.6172  1.1203 -1.5885
  525MPD2    H1 7799   1.651   2.592  14.415 -1.9823 -1.1420 -0.0741
  525MPD2    H2 7800   1.500   2.342  14.735 -1.0186 -0.3130 -2.6005
  525MPD2    H3 7801   1.500   2.417  14.491 -0.5281  0.2973  0.2690
  525MPD2     N 7802   1.837   2.687  14.528 -0.9054  0.0537 -0.2456
  525MPD2    H5 7803   1.808   2.720  14.437 -2.4626  2.2967  1.0560
  525MPD2    N1 7804   1.707   2.398  14.907  0.0482 -0.0693  0.3412
  525MPD2    H7 7805   1.800   2.411  14.948 -0.1051  0.9223  0.3813
  526TMC3    C1 7806   1.673   2.275  15.102  0.0450  0.1031 -0.1211
  526TMC3    C2 7807   1.588   2.262  15.206 -0.5907 -0.3678  0.3948
  526TMC3    C3 7808   1.647   2.228  15.327  0.5244  0.7506  0.3096
  526TMC3    C4 7809   1.800   2.231  15.100  0.1583  0.5532  0.0364
  526TMC3    C5 7810   1.857   2.204  15.222  0.4337  0.0431 -0.2336
  526TMC3    C6 7811   1.784   2.196  15.337  0.3642 -0.5338 -0.6573
  526TMC3     C 7812   1.619   2.340  14.988 -0.5820  0.0878  0.0707
  526TMC3     O 7813   1.499   2.328  14.965  0.1892  0.4099 -0.2679
  526TMC3     H 7814   1.489   2.304  15.197 -0.1677  0.5478 -0.0037
  526TMC3    H1 7815   1.859   2.244  15.009  0.3020  2.6069  0.4113
  526TMC3    H2 7816   1.836   2.185  15.431  1.5573  1.0996 -1.1323
  526TMC3    C7 7817   2.002   2.201  15.227 -0.7300  0.0719  0.4022
  526TMC3    C8 7818   1.591   2.265  15.453  0.4177 -0.1497 -0.5480
  526TMC3    O1 7819   2.047   2.201  15.345  0.0878  0.2052 -0.2801
  526TMC3    O2 7820   1.662   2.264  15.554  0.3206 -0.0459 -0.5429
  527MPD2     C 7821   4.509   0.482   0.893 -0.1420  0.2323 -0.5972
  527MPD2    C1 7822   4.558   0.451   1.017  0.8175  0.4734  0.0531
  527MPD2    C2 7823   4.697   0.424   1.028 -0.0855 -0.3575  0.6312
  527MPD2    C3 7824   0.060   0.461   0.927  0.4058  0.9982 -0.4071
  527MPD2    C4 7825   0.012   0.478   0.797  0.3479 -0.1634  0.5399
  527MPD2    C5 7826   4.597   0.485   0.783  0.0179  0.4160 -0.7882
  527MPD2     H 7827   0.016   0.394   1.124 -0.3799 -0.7914  0.6163
  527MPD2    H1 7828   0.069   0.501   0.708  0.3573  0.0033  0.5897
  527MPD2    H2 7829   4.407   0.499   0.863 -0.4330 -2.3649 -1.0559
  527MPD2    H3 7830   4.553   0.512   0.687 -1.4022  3.0463  0.5778
  527MPD2     N 7831   0.192   0.492   0.959  0.1004  0.0976 -0.1805
  527MPD2    H5 7832   0.208   0.485   1.059  1.1759 -0.9424 -0.4233
  527MPD2    N1 7833   4.476   0.433   1.131 -0.5261 -0.1734  1.0743
  527MPD2    H7 7834   4.533   0.412   1.212 -1.4298 -2.0243  1.2340
  528TMC3    C1 7835   4.283   0.413   1.269  0.2459 -0.6599  0.4424
  528TMC3    C2 7836   4.359   0.461   1.372  0.6507  0.0490 -0.0083
  528TMC3    C3 7837   4.308   0.439   1.496 -0.5512  0.2997  0.1455
  528TMC3    C4 7838   4.165   0.354   1.274  0.4947 -0.0445  0.5989
  528TMC3    C5 7839   4.115   0.341   1.401  0.2986  0.2462  0.6248
  528TMC3    C6 7840   4.189   0.376   1.518  0.1623  0.4788 -0.4728
  528TMC3     C 7841   4.340   0.408   1.135 -0.0625  0.3824  0.1224
  528TMC3     O 7842   4.272   0.392   1.034 -0.0455 -0.1572  0.3438
  528TMC3     H 7843   4.454   0.508   1.348  0.7050  0.8669  1.7476
  528TMC3    H1 7844   4.120   0.329   1.179  0.0082  2.5015  0.1644
  528TMC3    H2 7845   4.154   0.348   1.616  2.7992 -0.4767  0.2040
  528TMC3    C7 7846   3.992   0.265   1.421  0.5276  0.2796 -0.1380
  528TMC3    C8 7847   4.394   0.467   1.607  0.2896  0.9394 -0.0776
  528TMC3    O1 7848   3.961   0.227   1.536  0.5042  0.7866  0.3878
  528TMC3    O2 7849   4.514   0.484   1.589  0.2824  0.4854 -0.0444
  529MPD2     C 7850   1.609   4.142   0.929 -0.3850 -0.1265  0.5501
  529MPD2    C1 7851   1.698   4.045   0.899 -0.2255  0.0551 -0.2763
  529MPD2    C2 7852   1.727   4.010   0.766 -0.3458  0.0133 -0.2045
  529MPD2    C3 7853   1.665   4.068   0.659 -0.5355 -0.1299 -0.5346
  529MPD2    C4 7854   1.567   4.162   0.681  0.4908  0.1136 -0.0019
  529MPD2    C5 7855   1.541   4.198   0.817  0.0851 -0.2928  0.0869
  529MPD2     H 7856   1.801   3.934   0.742 -2.0123 -1.6900  0.1208
  529MPD2    H1 7857   1.502   4.204   0.605  1.7437  2.7403  0.3753
  529MPD2    H2 7858   1.572   4.173   1.027  0.9250  2.0157  0.3579
  529MPD2    H3 7859   1.464   4.270   0.841  0.6741  0.4815 -0.3386
  529MPD2     N 7860   1.690   4.038   0.521 -0.0946  0.3006  0.0975
  529MPD2    H5 7861   1.642   4.083   0.444 -2.3150  1.3812  2.0893
  529MPD2    N1 7862   1.779   3.990   1.006  0.0541  0.6241 -0.5802
  529MPD2    H7 7863   1.843   3.915   0.983 -2.5063 -1.6724 -0.2833
  530TMC3    C1 7864   1.881   3.966   1.219  0.1062 -0.2196 -1.2850
  530TMC3    C2 7865   1.928   4.031   1.327 -0.2454  0.1446  0.1584
  530TMC3    C3 7866   2.023   3.968   1.394  0.4387  0.5367  0.2865
  530TMC3    C4 7867   1.910   3.834   1.186 -0.2877  0.0361  0.1302
  530TMC3    C5 7868   2.004   3.769   1.265  0.3114 -0.4621  0.0675
  530TMC3    C6 7869   2.070   3.840   1.364  0.2287 -0.8548  0.3660
  530TMC3     C 7870   1.784   4.040   1.133  0.0760  1.2450 -0.9002
  530TMC3     O 7871   1.729   4.135   1.190  0.2479  0.0931  0.3294
  530TMC3     H 7872   1.891   4.125   1.366  0.0922 -0.2839  1.5272
  530TMC3    H1 7873   1.843   3.772   1.129  0.4101 -1.9204  1.4335
  530TMC3    H2 7874   2.131   3.787   1.437  1.6249 -0.3470 -0.4412
  530TMC3    C7 7875   2.024   3.622   1.258  0.7406  0.0205 -0.0977
  530TMC3    C8 7876   2.093   4.043   1.502  0.1082 -0.6573 -0.5113
  530TMC3    O1 7877   1.925   3.566   1.213 -0.3549 -0.4218  0.0364
  530TMC3    O2 7878   2.031   4.141   1.540 -0.5615 -0.2491 -0.6118
  531MPD2     C 7879   1.440   1.438  13.181 -1.0357  0.4479  0.1044
  531MPD2    C1 7880   1.318   1.486  13.196 -0.2970 -0.1568 -0.1002
  531MPD2    C2 7881   1.220   1.441  13.106 -0.3398  0.1361  0.0258
  531MPD2    C3 7882   1.244   1.358  13.001 -0.0141  0.1961 -0.5257
  531MPD2    C4 7883   1.367   1.305  12.998 -0.2617 -0.0082  0.0098
  531MPD2    C5 7884   1.466   1.344  13.084 -0.2359 -0.0612  1.0297
  531MPD2     H 7885   1.116   1.468  13.116 -0.7421 -1.3039 -0.3287
  531MPD2    H1 7886   1.395   1.226  12.928 -0.3063  0.7440 -0.8612
  531MPD2    H2 7887   1.528   1.450  13.243 -1.1778  2.8881 -0.1821
  531MPD2    H3 7888   1.567   1.307  13.074 -0.1122  0.4417  0.4218
  531MPD2     N 7889   1.135   1.322  12.911 -0.5745  0.3941  0.3409
  531MPD2    H5 7890   1.051   1.378  12.923 -0.0804  1.3309 -0.5419
  531MPD2    N1 7891   1.292   1.586  13.300 -0.4035 -0.6197  0.7025
  531MPD2    H7 7892   1.361   1.611  13.370  2.2438 -1.4534 -1.6305
  532TMC3    C1 7893   1.168   1.741  13.427  0.9631  0.6216  0.0157
  532TMC3    C2 7894   1.069   1.831  13.414 -0.2662  0.0800  0.3764
  532TMC3    C3 7895   0.975   1.864  13.510 -0.1897  0.0195 -0.1968
  532TMC3    C4 7896   1.169   1.669  13.544  0.7443 -0.6242 -0.3372
  532TMC3    C5 7897   1.084   1.702  13.647 -0.7756 -0.1024 -0.3698
  532TMC3    C6 7898   1.001   1.805  13.630  0.3079  0.3347 -0.5074
  532TMC3     C 7899   1.176   1.660  13.310  0.8220  0.3390  0.6221
  532TMC3     O 7900   1.096   1.683  13.223  0.1130  0.1150 -0.1218
  532TMC3     H 7901   1.058   1.886  13.321 -0.0281 -2.2503 -1.0029
  532TMC3    H1 7902   1.219   1.573  13.548  1.7531 -0.2987 -4.5468
  532TMC3    H2 7903   0.927   1.820  13.709  1.0784  0.6435  0.1553
  532TMC3    C7 7904   1.130   1.693  13.783 -0.4601 -0.5288  0.1849
  532TMC3    C8 7905   0.841   1.825  13.473 -0.1122  0.2264  0.2190
  532TMC3    O1 7906   1.077   1.753  13.874 -0.1152 -0.2700  0.2097
  532TMC3    O2 7907   0.748   1.845  13.549 -0.4715 -0.7280  0.4835
  533TMC3    C1 7908   1.989   2.875  14.531 -0.1645 -0.2868 -0.1347
  533TMC3    C2 7909   2.116   2.902  14.548  0.0356 -1.0709  1.0084
  533TMC3    C3 7910   2.152   3.030  14.576 -0.1433 -0.0683 -1.1717
  533TMC3    C4 7911   1.892   2.971  14.552 -0.3509  0.8555  0.0172
  533TMC3    C5 7912   1.927   3.094  14.598  0.2981  0.5398 -0.7104
  533TMC3    C6 7913   2.055   3.125  14.600 -0.1260 -0.1817 -0.1475
  533TMC3     C 7914   1.947   2.747  14.590  0.2244 -1.0052  0.0201
  533TMC3     O 7915   2.018   2.693  14.675  0.1031  1.0471 -0.2973
  533TMC3     H 7916   2.185   2.822  14.521  0.1968 -1.2208  1.8599
  533TMC3    H1 7917   1.787   2.944  14.543  0.1597 -0.4072 -2.1015
  533TMC3    H2 7918   2.085   3.225  14.629  0.2395 -0.0725 -0.8965
  533TMC3    C7 7919   1.833   3.133  14.695 -0.3550 -0.4798 -0.5932
  533TMC3    C8 7920   2.266   3.085  14.509  0.4856 -0.8573  0.2805
  533TMC3    O1 7921   1.741   3.053  14.722  0.2018 -0.2111 -0.4975
  533TMC3    O2 7922   2.239   3.180  14.436  0.1373 -0.0512 -0.3080
  534MPD2     C 7923   3.750   4.717   1.954 -0.4432  0.7879  0.4784
  534MPD2    C1 7924   3.820   4.688   1.841  0.0128  0.0891  0.7327
  534MPD2    C2 7925   3.766   4.611   1.749  0.1515  0.2787  0.0667
  534MPD2    C3 7926   3.632   4.571   1.746 -0.1612  0.5128  0.5035
  534MPD2    C4 7927   3.555   4.611   1.853 -0.1687 -0.2168 -0.6123
  534MPD2    C5 7928   3.626   4.669   1.962  0.4643 -0.4710  0.3427
  534MPD2     H 7929   3.836   4.590   1.669 -0.4963 -1.3594 -0.0697
  534MPD2    H1 7930   3.450   4.587   1.857 -0.4258  1.0038 -0.0207
  534MPD2    H2 7931   3.793   0.051   2.036 -1.9354  0.1202  1.7105
  534MPD2    H3 7932   3.567   4.709   2.043  0.8894  0.1535  0.3352
  534MPD2     N 7933   3.569   4.514   1.635 -0.5481 -0.1762  0.2959
  534MPD2    H5 7934   3.470   4.495   1.646 -0.3681  0.4850  3.1862
  534MPD2    N1 7935   3.954   0.013   1.818 -0.3790  0.3441 -1.0039
  534MPD2    H7 7936   3.990   4.703   1.728 -0.2733  1.2156 -1.2536
  535TMC3    C1 7937   3.558   4.418   1.422 -0.1403  0.6144 -0.2211
  535TMC3    C2 7938   3.467   4.320   1.458 -0.7362  0.2411  0.2775
  535TMC3    C3 7939   3.442   4.228   1.354  0.0138  0.5042  0.6041
  535TMC3    C4 7940   3.605   4.441   1.296 -0.0617  0.3131  0.2925
  535TMC3    C5 7941   3.571   4.350   1.199  0.1869 -0.2327 -0.0134
  535TMC3    C6 7942   3.483   4.252   1.223  0.8449 -0.3550  0.5227
  535TMC3     C 7943   3.637   4.468   1.525 -1.2027 -0.0612 -0.5128
  535TMC3     O 7944   3.757   4.431   1.514 -0.2919 -0.1099 -0.0845
  535TMC3     H 7945   3.433   4.314   1.561  0.8648  0.8888  0.8386
  535TMC3    H1 7946   3.679   4.519   1.281  1.8245 -1.5455 -0.1208
  535TMC3    H2 7947   3.449   4.184   1.146 -0.5439  0.3373  0.5280
  535TMC3    C7 7948   3.681   4.313   1.113 -0.3437  0.9938  0.5678
  535TMC3    C8 7949   3.372   4.110   1.376 -0.2576 -0.8523  0.1386
  535TMC3    O1 7950   3.668   4.267   1.002 -0.0834 -0.4800 -0.8097
  535TMC3    O2 7951   3.276   4.084   1.308  0.3357 -0.3726  0.1262
  536MPD2     C 7952   3.254   3.212  16.584 -0.4097 -1.2303  0.4268
  536MPD2    C1 7953   3.186   3.095  16.606  0.1640  0.0701 -1.1158
  536MPD2    C2 7954   3.101   3.038  16.513 -0.2903 -0.0472 -0.2658
  536MPD2    C3 7955   3.099   3.102  16.388  0.0852 -0.3723 -0.9336
  536MPD2    C4 7956   3.174   3.215  16.370  0.0149 -0.2059 -0.4122
  536MPD2    C5 7957   3.254   3.271  16.462 -0.6148  0.5284 -0.4975
  536MPD2     H 7958   3.046   2.945  16.522 -0.0009 -0.0599  1.4723
  536MPD2    H1 7959   3.192   3.264  16.275  2.7179 -0.4169 -0.0118
  536MPD2    H2 7960   3.317   3.241  16.667 -0.0725 -0.1332 -0.2183
  536MPD2    H3 7961   3.315   3.360  16.446 -0.2215  0.4970  0.8592
  536MPD2     N 7962   3.013   3.074  16.277 -0.6102  0.6416 -0.1553
  536MPD2    H5 7963   3.029   3.122  16.189  1.4475 -0.1142 -0.1969
  536MPD2    N1 7964   3.197   3.039  16.730  0.3162 -0.4737  0.1748
  536MPD2    H7 7965   3.275   3.069  16.787  1.1114 -3.1432  0.5157
  537TMC3    C1 7966   3.207   2.864  16.887  0.1479 -0.2506  0.3694
  537TMC3    C2 7967   3.341   2.876  16.895  0.6392  0.3245  0.1233
  537TMC3    C3 7968   3.406   2.796  16.984  0.0361  0.5073 -0.1480
  537TMC3    C4 7969   3.140   2.792  16.980 -0.0167 -0.2807  0.0315
  537TMC3    C5 7970   3.208   2.731  17.078  0.1180 -0.3030 -0.4985
  537TMC3    C6 7971   3.341   2.721  17.079  0.2748 -0.1478 -0.1746
  537TMC3     C 7972   3.130   2.928  16.780  0.0314  0.5000  0.0567
  537TMC3     O 7973   3.020   2.874  16.746 -0.4805  0.0411 -0.6748
  537TMC3     H 7974   3.397   2.931  16.820  0.1578  0.3368 -0.2267
  537TMC3    H1 7975   3.032   2.787  16.971 -0.0688  0.3898  0.3026
  537TMC3    H2 7976   3.395   2.679  17.163  1.0391  1.2122  0.0179
  537TMC3    C7 7977   3.134   2.629  17.150 -0.0195  0.2676  0.0163
  537TMC3    C8 7978   3.542   2.838  17.016  0.5646 -0.3654  0.3919
  537TMC3    O1 7979   3.010   2.624  17.140  0.2143  0.1242  0.3296
  537TMC3    O2 7980   3.603   2.770  17.100 -0.2111  0.3905 -0.3779
  538TMC3    C1 7981   0.165   0.994  11.242  0.7827 -0.3868  0.5196
  538TMC3    C2 7982   0.278   1.021  11.177 -0.4861 -0.6577 -0.0617
  538TMC3    C3 7983   0.258   1.086  11.056  0.2731 -0.0089  0.8450
  538TMC3    C4 7984   0.046   1.038  11.197  1.0366  0.2494  0.2658
  538TMC3    C5 7985   0.030   1.097  11.070  0.8502 -0.0561  0.4000
  538TMC3    C6 7986   0.144   1.131  10.998  0.6997 -0.7916 -0.2166
  538TMC3     C 7987   0.169   0.893  11.354 -0.4185  0.0899  0.0282
  538TMC3     O 7988   0.070   0.884  11.430 -0.5116 -0.2345 -0.4353
  538TMC3     H 7989   0.374   0.979  11.204  0.6925  0.4440 -2.5639
  538TMC3    H1 7990   4.679   1.018  11.257  1.9075  1.1745  1.8596
  538TMC3    H2 7991   0.135   1.157  10.893 -0.4500 -1.8349 -0.3884
  538TMC3    C7 7992   4.629   1.165  11.031 -0.6505 -0.9039 -0.6537
  538TMC3    C8 7993   0.370   1.071  10.960  0.0011 -0.6861  0.3816
  538TMC3    O1 7994   4.531   1.138  11.100  0.9146  0.0809 -0.3359
  538TMC3    O2 7995   0.451   0.986  10.987  0.1313 -0.0838  0.1379
  539MPD2     C 7996   4.134   0.020  11.981  0.0861 -0.3922  0.2089
  539MPD2    C1 7997   4.192   0.087  11.887 -0.6066 -0.2353  0.1916
  539MPD2    C2 7998   4.154   0.220  11.869  0.9799 -0.3640  1.0118
  539MPD2    C3 7999   4.058   0.283  11.950  0.3222 -0.0014 -0.7176
  539MPD2    C4 8000   3.992   0.212  12.044 -0.0940  0.5544  0.0119
  539MPD2    C5 8001   4.038   0.077  12.063  1.1406  0.7707 -0.3763
  539MPD2     H 8002   4.187   0.265  11.776  0.2019 -0.7419  0.5622
  539MPD2    H1 8003   3.921   0.266  12.105  0.2177  0.1136  0.7599
  539MPD2    H2 8004   4.163   4.638  11.998 -2.6214 -1.0880  0.6495
  539MPD2    H3 8005   3.986   0.027  12.144 -0.0364  1.5015 -0.6772
  539MPD2     N 8006   4.016   0.421  11.935  0.0711  0.3622 -0.0256
  539MPD2    H5 8007   3.927   0.457  11.969 -0.1946 -1.3033  0.9986
  539MPD2    N1 8008   4.275   0.018  11.801  0.5631  0.0100  0.1711
  539MPD2    H7 8009   4.301   4.642  11.816  0.3918 -0.4876 -2.6991
  540TMC3    C1 8010   4.025   0.646  11.846 -0.1680  0.1726 -0.1008
  540TMC3    C2 8011   4.070   0.727  11.742 -0.3684  0.3650  0.5729
  540TMC3    C3 8012   4.048   0.861  11.748 -0.7714 -0.6924  0.5949
  540TMC3    C4 8013   3.962   0.702  11.947 -0.5536  0.6642  0.0774
  540TMC3    C5 8014   3.940   0.840  11.956 -0.0651  0.2343 -0.3567
  540TMC3    C6 8015   3.992   0.916  11.856  0.5148 -0.5573 -0.2509
  540TMC3     C 8016   4.089   0.516  11.866 -0.2746 -0.6822  0.1898
  540TMC3     O 8017   4.201   0.496  11.812 -0.0860 -0.3434 -0.0955
  540TMC3     H 8018   4.124   0.679  11.661  1.5992  1.6132  1.1615
  540TMC3    H1 8019   3.933   0.645  12.035 -2.4238 -2.3156 -2.4952
  540TMC3    H2 8020   3.981   1.024  11.869  2.1876 -0.6063  1.6394
  540TMC3    C7 8021   3.827   0.886  12.034  0.2938  0.5773 -0.3087
  540TMC3    C8 8022   4.083   0.945  11.632  0.0999 -0.9646 -0.0077
  540TMC3    O1 8023   3.739   0.800  12.048  0.1933 -0.0331  0.1042
  540TMC3    O2 8024   4.123   1.059  11.657 -0.0434  0.0221  0.6116
  541MPD2     C 8025   2.863   1.576  13.377 -0.2375 -0.4311 -0.0484
  541MPD2    C1 8026   2.729   1.610  13.357  0.3021 -0.0826 -0.0328
  541MPD2    C2 8027   2.685   1.678  13.244  0.1693  0.1300  0.1986
  541MPD2    C3 8028   2.781   1.710  13.147 -0.7663  0.2295  0.0056
  541MPD2    C4 8029   2.910   1.671  13.162 -0.2999 -0.2528  0.5539
  541MPD2    C5 8030   2.956   1.615  13.281 -0.3164  0.0953  0.4676
  541MPD2     H 8031   2.580   1.698  13.225  0.2028 -0.5524 -0.7324
  541MPD2    H1 8032   2.987   1.699  13.091 -0.9154 -2.0400 -0.8013
  541MPD2    H2 8033   2.906   1.535  13.467 -1.5725  0.0599  0.8174
  541MPD2    H3 8034   3.060   1.591  13.296 -0.4583 -1.2300 -0.7058
  541MPD2     N 8035   2.743   1.772  13.020 -0.2853  0.1809  0.4264
  541MPD2    H5 8036   2.802   1.751  12.940 -1.5077  0.0384 -0.4454
  541MPD2    N1 8037   2.630   1.590  13.452  0.2512  0.2454 -0.1751
  541MPD2    H7 8038   2.539   1.626  13.423  0.2161 -0.7112 -1.2299
  542TMC3    C1 8039   2.643   1.930  12.881 -0.5758  0.1517 -0.5180
  542TMC3    C2 8040   2.676   1.851  12.774  0.5513  0.7791  0.4341
  542TMC3    C3 8041   2.705   1.917  12.658  0.1926  0.7811 -0.3120
  542TMC3    C4 8042   2.625   2.064  12.881  0.3341 -0.1403  0.0780
  542TMC3    C5 8043   2.651   2.122  12.764  0.2459  0.4710 -0.6654
  542TMC3    C6 8044   2.701   2.055  12.653  0.3940  0.3709  0.3810
  542TMC3     C 8045   2.653   1.870  13.012  0.4268 -0.4609 -0.2831
  542TMC3     O 8046   2.591   1.918  13.105 -0.4425 -0.6439  0.3911
  542TMC3     H 8047   2.648   1.746  12.780 -0.6290  1.1170  0.8558
  542TMC3    H1 8048   2.594   2.112  12.973  2.5900  0.8465  0.3288
  542TMC3    H2 8049   2.718   2.107  12.559 -1.4419 -0.5786 -0.4743
  542TMC3    C7 8050   2.649   2.264  12.754 -0.1868 -0.3862 -0.1472
  542TMC3    C8 8051   2.708   1.839  12.536 -0.0802  0.1515 -0.3331
  542TMC3    O1 8052   2.724   2.312  12.674  0.9150 -0.1737  0.0122
  542TMC3    O2 8053   2.712   1.892  12.425  0.4292 -0.3317  0.4882
  543TMC3    C1 8054   1.892   3.330   0.041  0.8860 -0.2713 -0.1721
  543TMC3    C2 8055   2.008   3.308   0.103 -0.3519 -0.7902 -0.3774
  543TMC3    C3 8056   1.997   3.316   0.235 -0.5589  0.2653 -0.1401
  543TMC3    C4 8057   1.778   3.374   0.098  0.4229  0.2468  0.5134
  543TMC3    C5 8058   1.772   3.383   0.233 -0.1157  0.7600  0.1576
  543TMC3    C6 8059   1.884   3.352   0.301  0.4843  0.7957 -0.0096
  543TMC3     C 8060   1.902   3.321  17.585  0.3007  0.7212  0.0309
  543TMC3     O 8061   1.984   3.241  17.540 -0.2042  0.1155  0.3608
  543TMC3     H 8062   2.098   3.268   0.057 -0.0664 -1.2097  0.5450
  543TMC3    H1 8063   1.688   3.396   0.041  2.5186  3.1782 -1.7145
  543TMC3    H2 8064   1.885   3.356   0.409 -1.1051  0.4885  0.0130
  543TMC3    C7 8065   1.655   3.454   0.292  0.1400  0.1592  0.6751
  543TMC3    C8 8066   2.086   3.220   0.298 -0.3387  0.2289  0.0709
  543TMC3    O1 8067   1.587   3.512   0.205 -0.7927 -0.3787 -0.4191
  543TMC3    O2 8068   2.113   3.115   0.240  0.3437 -0.1091 -0.7752
  544MPD2     C 8069   2.298   3.002   0.709 -0.2177 -0.0904 -0.1067
  544MPD2    C1 8070   2.259   2.945   0.589 -0.2537 -1.1794  0.5765
  544MPD2    C2 8071   2.200   3.026   0.497  0.1536 -0.0350  0.5510
  544MPD2    C3 8072   2.177   3.163   0.516 -0.4625  0.6702  0.0738
  544MPD2    C4 8073   2.220   3.218   0.634 -0.9611  0.0876 -0.5598
  544MPD2    C5 8074   2.287   3.137   0.724  0.1630  0.5397 -0.3462
  544MPD2     H 8075   2.174   2.981   0.402 -0.3677  1.4520 -0.0191
  544MPD2    H1 8076   2.195   3.321   0.657 -0.3965 -0.4187  2.2619
  544MPD2    H2 8077   2.335   2.941   0.790  1.4927  1.0248 -0.0455
  544MPD2    H3 8078   2.319   3.194   0.811  0.9386 -0.6778  0.1748
  544MPD2     N 8079   2.114   3.250   0.430 -1.2055  0.1177 -0.0583
  544MPD2    H5 8080   2.096   3.345   0.463  0.2033 -0.5135  2.5110
  544MPD2    N1 8081   2.275   2.806   0.569  0.1923 -0.6638  0.0846
  544MPD2    H7 8082   2.308   2.762   0.655 -2.6150 -1.0881  0.9696
  545TMC3    C1 8083   2.292   2.602   0.472 -0.2426 -0.0515 -0.4665
  545TMC3    C2 8084   2.269   2.528   0.583  0.0048  0.1732 -0.7414
  545TMC3    C3 8085   2.321   2.402   0.587 -0.7167  0.3870 -0.3938
  545TMC3    C4 8086   2.362   2.548   0.366 -0.5434 -0.0114 -0.2217
  545TMC3    C5 8087   2.417   2.427   0.376  0.8272  0.2599 -0.3498
  545TMC3    C6 8088   2.396   2.350   0.485  0.0028 -0.1893 -0.0010
  545TMC3     C 8089   2.255   2.733   0.455 -0.2585  0.0784  0.2900
  545TMC3     O 8090   2.233   2.778   0.342 -0.4213 -0.5425  0.0830
  545TMC3     H 8091   2.207   2.567   0.663  0.1231 -0.3440 -0.3994
  545TMC3    H1 8092   2.385   2.609   0.280 -2.0846 -1.6988 -1.8442
  545TMC3    H2 8093   2.440   2.251   0.493 -1.3328 -0.8129 -0.3220
  545TMC3    C7 8094   2.477   2.381   0.254 -0.1682  1.0315  0.2302
  545TMC3    C8 8095   2.263   2.296   0.667  0.6589 -0.1399 -0.1974
  545TMC3    O1 8096   2.441   2.431   0.147 -0.4447  0.2205  0.0878
  545TMC3    O2 8097   2.312   2.186   0.674  0.9682 -0.6112  0.3444
  546MPD2     C 8098   3.559   3.041  17.389  1.1724 -0.2118 -0.4088
  546MPD2    C1 8099   3.464   3.111  17.315  0.2286  0.3996  0.5874
  546MPD2    C2 8100   3.481   3.235  17.261 -1.2081 -0.5131  0.3966
  546MPD2    C3 8101   3.604   3.292  17.281 -0.0653 -0.5981  0.4880
  546MPD2    C4 8102   3.700   3.220  17.357 -0.2141 -0.0467  0.0800
  546MPD2    C5 8103   3.680   3.100  17.409  0.5316  0.3364 -0.3240
  546MPD2     H 8104   3.403   3.282  17.202 -0.8663  0.7480  0.9361
  546MPD2    H1 8105   3.788   3.275  17.388 -1.1740 -0.2798  3.2393
  546MPD2    H2 8106   3.536   2.942  17.429  0.5394 -0.0869 -0.4561
  546MPD2    H3 8107   3.746   3.050  17.478 -0.1033 -1.3910 -0.9823
  546MPD2     N 8108   3.642   3.424  17.229 -0.1349  0.6338  0.1801
  546MPD2    H5 8109   3.732   3.461  17.254  0.8042 -0.2972 -1.7880
  546MPD2    N1 8110   3.342   3.035  17.294  0.2820  0.2422 -0.2705
  546MPD2    H7 8111   3.337   2.952  17.353  0.5088  0.7410  0.4615
  547TMC3    C1 8112   3.097   3.019  17.287  1.4059 -0.2325 -0.3114
  547TMC3    C2 8113   2.996   3.012  17.195 -0.0685 -0.4073 -0.2790
  547TMC3    C3 8114   2.880   2.950  17.238  0.3782  0.0866 -0.3491
  547TMC3    C4 8115   3.095   2.961  17.408  0.3800 -0.5069 -0.0654
  547TMC3    C5 8116   2.974   2.899  17.441  0.7812 -0.4197 -0.0536
  547TMC3    C6 8117   2.869   2.887  17.355 -0.1615  0.0516  0.0619
  547TMC3     C 8118   3.219   3.082  17.241  0.2199 -0.3011  0.1387
  547TMC3     O 8119   3.211   3.168  17.152  0.7044  0.0689 -0.2525
  547TMC3     H 8120   2.988   3.053  17.095 -1.6357  1.2739  0.5434
  547TMC3    H1 8121   3.179   2.982  17.473 -0.1156  0.4270  0.2813
  547TMC3    H2 8122   2.775   2.839  17.381 -0.3923  0.6700  0.3536
  547TMC3    C7 8123   2.943   2.891  17.585 -0.4772  0.1856  0.4287
  547TMC3    C8 8124   2.778   2.914  17.138  0.4079  0.0272  0.4661
  547TMC3    O1 8125   2.826   2.888  17.620  0.2052  0.1375  0.0241
  547TMC3    O2 8126   2.764   2.979  17.035  0.4507 -0.0949  0.2870
  548MPD2     C 8127   3.483   3.504  12.718 -0.2099  0.8545  0.2979
  548MPD2    C1 8128   3.399   3.407  12.659  0.1654  0.6660 -0.2269
  548MPD2    C2 8129   3.435   3.341  12.546  0.0245  0.3539  0.2986
  548MPD2    C3 8130   3.555   3.375  12.481 -0.0445 -0.3137  0.2155
  548MPD2    C4 8131   3.633   3.479  12.532 -0.1691 -0.3375  0.2545
  548MPD2    C5 8132   3.601   3.532  12.651 -0.3202 -0.0134  0.8329
  548MPD2     H 8133   3.371   3.266  12.502  3.1411 -2.4702  0.5322
  548MPD2    H1 8134   3.724   3.509  12.481  1.0163  0.2979  2.7183
  548MPD2    H2 8135   3.457   3.562  12.806 -1.2561  2.7291 -1.2403
  548MPD2    H3 8136   3.670   3.604  12.695 -0.4599  1.0309 -0.6479
  548MPD2     N 8137   3.587   3.299  12.361  0.2084 -0.1237 -0.4206
  548MPD2    H5 8138   3.504   3.256  12.321 -0.1128 -0.1605  0.2892
  548MPD2    N1 8139   3.277   3.381  12.729  0.6829 -0.2640  0.0721
  548MPD2    H7 8140   3.258   3.450  12.801 -1.0569 -1.7577  1.0761
  549TMC3    C1 8141   3.084   3.283  12.806  0.1264  0.4543 -0.3960
  549TMC3    C2 8142   3.029   3.405  12.826  0.6434 -0.0364 -0.5955
  549TMC3    C3 8143   2.897   3.414  12.860 -0.5230  1.2046 -0.4223
  549TMC3    C4 8144   3.006   3.170  12.791 -0.0481 -0.3519 -0.5290
  549TMC3    C5 8145   2.870   3.179  12.807 -0.4277 -0.1654  0.3462
  549TMC3    C6 8146   2.815   3.305  12.844 -0.0422  0.3143 -0.1276
  549TMC3     C 8147   3.196   3.272  12.721  0.3696 -0.0880  0.1365
  549TMC3     O 8148   3.198   3.174  12.650  0.1664  0.3063 -0.0508
  549TMC3     H 8149   3.088   3.495  12.820 -2.9531  2.3172 -0.4779
  549TMC3    H1 8150   3.046   3.072  12.764 -0.2828 -0.7706  0.6316
  549TMC3    H2 8151   2.708   3.319  12.856 -0.0083 -1.5989  2.4712
  549TMC3    C7 8152   2.790   3.119  12.701  0.2584 -0.2000  0.0855
  549TMC3    C8 8153   2.832   3.545  12.874  0.1063  0.0490 -0.5616
  549TMC3    O1 8154   2.697   3.184  12.661 -0.0774 -0.1389  0.2123
  549TMC3    O2 8155   2.718   3.559  12.830  0.2086  0.2491  0.5323
  550TMC3    C1 8156   1.693   1.613  12.459 -0.4624  0.3851 -0.6609
  550TMC3    C2 8157   1.662   1.690  12.571 -0.2359 -0.2737 -0.1812
  550TMC3    C3 8158   1.696   1.823  12.574 -0.1726  0.4612  0.5235
  550TMC3    C4 8159   1.768   1.668  12.362 -0.6850  0.6529 -0.6166
  550TMC3    C5 8160   1.777   1.803  12.353 -0.2527  0.0107  0.2170
  550TMC3    C6 8161   1.753   1.881  12.465  0.1180  0.5391 -0.2909
  550TMC3     C 8162   1.600   1.510  12.417 -0.1152 -0.1674  0.0765
  550TMC3     O 8163   1.569   1.432  12.504 -0.0179  0.1262  0.3143
  550TMC3     H 8164   1.590   1.647  12.639 -2.1227  1.2570 -1.2128
  550TMC3    H1 8165   1.787   1.610  12.273 -0.0547  1.0144 -0.7146
  550TMC3    H2 8166   1.789   1.984  12.468  0.8048  0.2541  1.7715
  550TMC3    C7 8167   1.737   1.847  12.212  0.4890  0.0167  0.7496
  550TMC3    C8 8168   1.691   1.903  12.698 -0.3845  0.0876  0.0825
  550TMC3    O1 8169   1.691   1.756  12.146  0.6046  0.9722  0.4274
  550TMC3    O2 8170   1.756   2.006  12.701  0.7011  0.2696 -0.5707
  551TMC3    C1 8171   4.427   4.325  13.684  0.0054  0.0405  0.0294
  551TMC3    C2 8172   4.550   4.369  13.641 -0.5036  0.5776 -0.1327
  551TMC3    C3 8173   4.632   4.438  13.728  0.5186 -1.0914 -0.5053
  551TMC3    C4 8174   4.397   4.341  13.814  0.2182 -0.1304  0.2854
  551TMC3    C5 8175   4.481   4.415  13.901  1.0475  0.9282  0.4460
  551TMC3    C6 8176   4.597   4.466  13.857 -0.2707 -0.0221 -0.0999
  551TMC3     C 8177   4.327   4.293  13.585  0.1567 -0.6766  0.2479
  551TMC3     O 8178   4.274   4.182  13.589  0.3809  0.0473  0.1137
  551TMC3     H 8179   4.587   4.336  13.544  1.1379  1.6831  0.1191
  551TMC3    H1 8180   4.304   4.302  13.853 -0.2805  0.9699  0.2109
  551TMC3    H2 8181   4.676   4.508  13.918 -0.4693  0.2419 -0.0241
  551TMC3    C7 8182   4.445   4.423  14.038  0.7461 -0.1071  0.8702
  551TMC3    C8 8183   0.036   4.491  13.690  0.1012  0.4213  0.5398
  551TMC3    O1 8184   4.400   4.317  14.081 -0.3651 -0.0515  0.4784
  551TMC3    O2 8185   0.137   4.452  13.745 -0.2014  0.1049  0.0348
  552MPD2     C 8186   1.071   1.362  14.241  0.3436  0.1867 -0.4147
  552MPD2    C1 8187   1.150   1.265  14.186 -0.9287  0.1225 -0.2188
  552MPD2    C2 8188   1.252   1.205  14.265 -0.0898 -0.6146  0.7236
  552MPD2    C3 8189   1.281   1.253  14.389 -0.4035 -0.2238 -0.4323
  552MPD2    C4 8190   1.200   1.350  14.439  0.7591  1.2430 -0.8489
  552MPD2    C5 8191   1.091   1.401  14.375  0.3007 -0.8827 -0.5498
  552MPD2     H 8192   1.305   1.119  14.227  2.0022 -0.0201  2.2955
  552MPD2    H1 8193   1.235   1.401  14.528  1.5417 -2.3764  0.9383
  552MPD2    H2 8194   0.986   1.401  14.186 -1.3677 -3.3475 -0.2559
  552MPD2    H3 8195   1.026   1.470  14.427  1.0187 -1.9551  1.7713
  552MPD2     N 8196   1.386   1.208  14.474 -0.8759 -0.4373 -0.7978
  552MPD2    H5 8197   1.413   1.255  14.560 -1.6727  0.6360 -1.1410
  552MPD2    N1 8198   1.132   1.211  14.059 -0.1539  0.7945  0.2771
  552MPD2    H7 8199   1.199   1.139  14.037  0.5974  1.8769 -0.9704
  553TMC3    C1 8200   1.051   1.178  13.835 -0.0698  0.8932 -0.1098
  553TMC3    C2 8201   1.096   1.251  13.734  0.2264  0.6765 -0.2766
  553TMC3    C3 8202   1.140   1.198  13.621 -0.5945 -0.1267 -0.1146
  553TMC3    C4 8203   1.074   1.043  13.847  0.0436  0.2017  0.3190
  553TMC3    C5 8204   1.132   0.989  13.731  0.7331 -0.2030 -0.3784
  553TMC3    C6 8205   1.156   1.061  13.612 -0.2688  0.0440 -0.3723
  553TMC3     C 8206   1.036   1.250  13.964  0.1805  0.7189 -0.2726
  553TMC3     O 8207   0.953   1.342  13.965  0.5157  0.0516  0.6955
  553TMC3     H 8208   1.090   1.359  13.736 -2.2932  0.5339  1.0114
  553TMC3    H1 8209   1.052   0.987  13.937 -0.4442 -0.5735 -0.2807
  553TMC3    H2 8210   1.196   1.000  13.532 -0.7778 -0.4363 -0.2661
  553TMC3    C7 8211   1.180   0.853  13.738 -0.5405  0.7820  0.1419
  553TMC3    C8 8212   1.253   1.267  13.569 -1.0588 -0.0804  0.1551
  553TMC3    O1 8213   1.141   0.782  13.649  0.6344 -0.1142  0.4363
  553TMC3    O2 8214   1.291   1.360  13.636  0.3803 -0.2685  0.5682
  554TMC3    C1 8215   3.523   0.499  11.864  0.4839  0.8450  0.1331
  554TMC3    C2 8216   3.420   0.444  11.793  0.2164  0.5188 -0.0408
  554TMC3    C3 8217   3.378   0.503  11.679 -0.4345 -0.0149  0.3689
  554TMC3    C4 8218   3.562   0.625  11.839 -0.1486  0.4236  0.0619
  554TMC3    C5 8219   3.501   0.693  11.732 -1.1771  0.4313  0.4771
  554TMC3    C6 8220   3.414   0.626  11.650  0.1135 -0.1201 -0.0946
  554TMC3     C 8221   3.595   0.423  11.963  0.0273  0.3687 -0.0362
  554TMC3     O 8222   3.713   0.459  11.967  0.3534  0.3194 -0.0881
  554TMC3     H 8223   3.377   0.346  11.811  0.4283  0.9784  3.0207
  554TMC3    H1 8224   3.646   0.668  11.894 -0.0068 -1.4184  1.2737
  554TMC3    H2 8225   3.360   0.681  11.574 -1.4558 -0.4511  0.7833
  554TMC3    C7 8226   3.569   0.795  11.661 -0.6957 -0.1145 -0.7238
  554TMC3    C8 8227   3.262   0.443  11.612  0.0061 -0.7632  0.7246
  554TMC3    O1 8228   3.588   0.765  11.546 -0.2165 -0.3310 -0.2244
  554TMC3    O2 8229   3.190   0.368  11.675 -0.2998 -0.4246 -0.4086
  555TMC3    C1 8230   1.874   4.410  15.234  0.5646  0.2271  0.3376
  555TMC3    C2 8231   1.911   4.515  15.313 -0.4592  0.0189 -0.1797
  555TMC3    C3 8232   2.011   4.480  15.406  0.1527 -0.0959  0.6592
  555TMC3    C4 8233   1.930   4.293  15.225 -0.6702  0.0781 -0.9234
  555TMC3    C5 8234   2.054   4.282  15.293 -0.3497  0.0786 -0.0544
  555TMC3    C6 8235   2.091   4.362  15.397 -0.3961 -0.0494 -0.3654
  555TMC3     C 8236   1.756   4.419  15.160  0.1919 -0.1327 -0.5971
  555TMC3     O 8237   1.677   4.326  15.154  0.7531 -0.0586  0.4718
  555TMC3     H 8238   1.863   4.612  15.305 -0.4104  0.1219  0.8672
  555TMC3    H1 8239   1.874   4.217  15.170  0.0499 -0.9543 -0.2237
  555TMC3    H2 8240   2.192   4.359  15.437 -0.9051 -0.5473  0.9020
  555TMC3    C7 8241   2.101   4.145  15.297  0.1912 -0.0694 -0.3069
  555TMC3    C8 8242   2.048   4.587  15.497 -0.0846  0.5037  0.3922
  555TMC3    O1 8243   2.065   4.067  15.207  0.1708 -0.7934  0.2625
  555TMC3    O2 8244   2.010   4.701  15.472  0.1964 -0.0869  0.4775
  556MPD2     C 8245   0.156   2.303  10.540  0.1029  0.3102 -0.8110
  556MPD2    C1 8246   0.223   2.222  10.625  0.0162  0.5616 -0.5292
  556MPD2    C2 8247   0.276   2.099  10.578  0.0492  1.1233  0.7356
  556MPD2    C3 8248   0.273   2.074  10.441  0.6731  0.2403  0.4010
  556MPD2    C4 8249   0.207   2.168  10.354 -0.0327 -0.6230  0.3293
  556MPD2    C5 8250   0.155   2.277  10.408 -0.2691  0.7276 -0.5057
  556MPD2     H 8251   0.321   2.026  10.645 -3.1359 -1.3274  0.1904
  556MPD2    H1 8252   0.195   2.156  10.247  1.8401  0.9076 -0.0523
  556MPD2    H2 8253   0.090   2.382  10.575  0.4681 -0.0985  0.8239
  556MPD2    H3 8254   0.099   2.338  10.337  1.3235 -0.6963 -2.9873
  556MPD2     N 8255   0.342   1.963  10.385  0.0859  0.4984 -0.2585
  556MPD2    H5 8256   0.398   1.909  10.450  1.7126  1.9283 -0.4720
  556MPD2    N1 8257   0.224   2.257  10.759 -0.1321  0.0458 -0.0472
  556MPD2    H7 8258   0.264   2.187  10.821  0.4893 -0.7940 -1.3843
  557TMC3    C1 8259   0.413   1.790  10.235  0.2632 -0.0582  0.1760
  557TMC3    C2 8260   0.394   1.735  10.110  1.2181 -0.2406 -0.6589
  557TMC3    C3 8261   0.404   1.602  10.096 -0.0481 -0.0636 -0.3029
  557TMC3    C4 8262   0.437   1.707  10.342 -0.1873 -0.8637 -0.3167
  557TMC3    C5 8263   0.440   1.573  10.330 -0.0321  0.2668 -0.0006
  557TMC3    C6 8264   0.415   1.516  10.206  0.0132  0.1606 -0.8032
  557TMC3     C 8265   0.342   1.923  10.258  0.1632  0.0408 -0.9149
  557TMC3     O 8266   0.275   1.968  10.165  0.0669  0.6391 -0.0213
  557TMC3     H 8267   0.381   1.804  10.028  3.4128  0.2169 -0.6330
  557TMC3    H1 8268   0.446   1.748  10.442 -0.0774  0.1352 -0.7345
  557TMC3    H2 8269   0.436   1.411  10.190  1.3816  0.3569 -0.2428
  557TMC3    C7 8270   0.448   1.501  10.453  1.2985  0.6191 -0.0429
  557TMC3    C8 8271   0.328   1.555   9.983 -0.1197 -0.6358 -0.5025
  557TMC3    O1 8272   0.389   1.557  10.542 -0.6038  0.3347 -0.1984
  557TMC3    O2 8273   0.285   1.641   9.909 -0.2437  0.1102 -0.0833
  558TMC3    C1 8274   2.672   4.407  10.092  0.3186 -0.4432  0.3539
  558TMC3    C2 8275   2.610   4.308  10.164 -0.0027  0.9140 -0.1128
  558TMC3    C3 8276   2.475   4.281  10.150  0.2216  0.1939 -0.3555
  558TMC3    C4 8277   2.607   4.467   9.988  0.4174 -1.2602  0.1699
  558TMC3    C5 8278   2.474   4.433   9.965  0.2072 -0.1936 -0.8747
  558TMC3    C6 8279   2.409   4.346  10.054  0.2004 -0.7967  0.5803
  558TMC3     C 8280   2.812   4.443  10.111  0.0592  0.7484  0.2296
  558TMC3     O 8281   2.879   4.485  10.013  0.1334 -0.2301 -0.3489
  558TMC3     H 8282   2.670   4.260  10.241 -0.1369 -0.5504 -0.9216
  558TMC3    H1 8283   2.654   4.551   9.938  0.5016 -2.0925 -1.1331
  558TMC3    H2 8284   2.301   4.342  10.045  0.4584 -0.9092 -2.5700
  558TMC3    C7 8285   2.399   4.525   9.887 -0.2801  0.4618  0.5522
  558TMC3    C8 8286   2.390   4.255  10.263 -0.4208 -0.4939 -1.0140
  558TMC3    O1 8287   2.440   4.637   9.863  0.6165 -0.0820  0.3162
  558TMC3    O2 8288   2.277   4.202  10.253  0.0171  0.4531 -0.2370
  559MPD2     C 8289   3.016   0.235  10.550 -0.1511  0.7944  0.0253
  559MPD2    C1 8290   2.934   0.177  10.643 -0.0375 -0.3919  0.6304
  559MPD2    C2 8291   2.980   0.167  10.774 -0.9729  0.3474  0.0953
  559MPD2    C3 8292   3.106   0.201  10.808  0.0082 -0.4023 -0.7923
  559MPD2    C4 8293   3.186   0.265  10.714  0.4503  0.7173  0.0886
  559MPD2    C5 8294   3.140   0.284  10.589 -0.4557 -0.3367 -0.2671
  559MPD2     H 8295   2.913   0.134  10.852 -0.5651  0.0595  0.3288
  559MPD2    H1 8296   3.292   0.286  10.726  0.4984  0.3621  0.2978
  559MPD2    H2 8297   2.991   0.240  10.445  0.2476 -1.7358 -0.2003
  559MPD2    H3 8298   3.204   0.345  10.526 -0.7778  0.5844  0.3042
  559MPD2     N 8299   3.156   0.167  10.935 -0.0981 -0.4026 -0.1110
  559MPD2    H5 8300   3.099   0.099  10.985 -0.1264 -0.0495  0.3383
  559MPD2    N1 8301   2.807   0.131  10.597  0.2740 -0.1328 -0.6558
  559MPD2    H7 8302   2.777   0.144  10.501  1.2513  1.6987 -0.7099
  560TMC3    C1 8303   3.279   0.167  11.143  0.0869 -0.5895  0.0508
  560TMC3    C2 8304   3.172   0.095  11.198  0.3195 -0.2166 -0.7049
  560TMC3    C3 8305   3.179   0.062  11.326 -0.2565 -0.3507  0.5150
  560TMC3    C4 8306   3.393   0.185  11.206 -0.1550  0.0509 -0.3954
  560TMC3    C5 8307   3.401   0.142  11.337 -0.1609  0.0575  0.1676
  560TMC3    C6 8308   3.299   0.068  11.394  0.4502  0.4869 -0.2988
  560TMC3     C 8309   3.273   0.210  11.000 -0.5100 -0.1805  0.1928
  560TMC3     O 8310   3.369   0.273  10.950  0.2464  0.2751 -0.8521
  560TMC3     H 8311   3.075   0.088  11.149  0.4499 -0.4014 -0.9380
  560TMC3    H1 8312   3.471   0.227  11.144  0.5167 -0.1230  0.3460
  560TMC3    H2 8313   3.301   0.032  11.496 -3.9977 -1.3750 -0.8773
  560TMC3    C7 8314   3.503   0.191  11.427 -0.7052 -0.6700 -0.0249
  560TMC3    C8 8315   3.092   4.673  11.357 -0.8208 -0.2905 -0.6703
  560TMC3    O1 8316   3.483   0.166  11.545  0.5965 -0.5738 -0.4568
  560TMC3    O2 8317   3.030   4.628  11.260 -0.1081  0.2774 -0.0701
  561TMC3    C1 8318   0.837   3.804  11.311  0.8385  0.3102  0.2217
  561TMC3    C2 8319   0.791   3.736  11.419  0.2713 -0.5690  0.0652
  561TMC3    C3 8320   0.793   3.808  11.535 -0.1678 -0.2931  0.1411
  561TMC3    C4 8321   0.891   3.932  11.307  0.2146 -0.7396  0.3075
  561TMC3    C5 8322   0.904   3.994  11.424 -0.4590 -0.3104  0.5506
  561TMC3    C6 8323   0.856   3.931  11.541 -0.0803 -0.3813  0.0119
  561TMC3     C 8324   0.858   3.729  11.189 -0.7108 -0.6993 -0.7678
  561TMC3     O 8325   0.768   3.650  11.167  0.0628 -0.7572  0.4451
  561TMC3     H 8326   0.749   3.636  11.408 -0.1643 -0.2850 -0.8547
  561TMC3    H1 8327   0.898   3.993  11.218  1.7564 -1.2670  0.0611
  561TMC3    H2 8328   0.882   3.970  11.638 -0.5246 -0.8780  0.3254
  561TMC3    C7 8329   0.881   4.141  11.425 -0.0489 -0.1053 -0.5486
  561TMC3    C8 8330   0.730   3.758  11.661 -0.0336 -0.3925  0.5215
  561TMC3    O1 8331   0.835   4.189  11.527  0.1990 -0.2115  0.1238
  561TMC3    O2 8332   0.693   3.642  11.654 -0.6453 -0.3919  0.0504
  562TMC3    C1 8333   2.115   0.263  16.503  0.1835  0.2075 -0.7829
  562TMC3    C2 8334   2.098   0.362  16.407 -0.1456 -0.0082 -0.3117
  562TMC3    C3 8335   1.983   0.347  16.329 -0.1472  0.4910  0.5515
  562TMC3    C4 8336   2.032   0.159  16.523  0.2531  0.1137 -1.0290
  562TMC3    C5 8337   1.927   0.145  16.430  0.0105  0.3975 -0.2308
  562TMC3    C6 8338   1.902   0.236  16.335 -0.4615 -0.3835 -0.4301
  562TMC3     C 8339   2.198   0.299  16.613 -0.2431  0.0502  0.9817
  562TMC3     O 8340   2.188   0.228  16.713 -0.2420 -0.1201  0.4197
  562TMC3     H 8341   2.165   0.444  16.389  0.7577 -0.7831 -0.4697
  562TMC3    H1 8342   2.043   0.085  16.601 -1.3656 -0.4578 -1.3444
  562TMC3    H2 8343   1.801   0.236  16.297  0.0457  0.7238 -1.7936
  562TMC3    C7 8344   1.867   0.015  16.404 -0.6002 -0.2735  0.1861
  562TMC3    C8 8345   1.933   0.471  16.263 -0.8047 -0.6167 -0.3050
  562TMC3    O1 8346   1.761   0.012  16.341  0.1211  0.1398 -0.0036
  562TMC3    O2 8347   1.994   0.576  16.287 -0.0005  0.5126  0.2721
  563MPD2     C 8348   0.002   1.422  15.746  0.0713 -0.1351  0.2809
  563MPD2    C1 8349   4.702   1.386  15.877  0.2045 -0.2192  0.0771
  563MPD2    C2 8350   0.069   1.301  15.942  0.3306  0.2917  0.7400
  563MPD2    C3 8351   0.179   1.247  15.882 -0.7027  0.2611 -0.4533
  563MPD2    C4 8352   0.185   1.273  15.746  0.6848  0.6950  0.2944
  563MPD2    C5 8353   0.101   1.358  15.678  0.5059 -0.1778 -1.1397
  563MPD2     H 8354   0.032   1.268  16.038 -0.2838  0.2934  0.5002
  563MPD2    H1 8355   0.271   1.241  15.689 -0.4100 -0.1582 -0.8837
  563MPD2    H2 8356   4.664   1.492  15.688  0.4089  0.6919  0.9393
  563MPD2    H3 8357   0.126   1.380  15.575 -0.6495  0.7567 -1.2170
  563MPD2     N 8358   0.277   1.173  15.956 -0.1280 -0.3192  0.2779
  563MPD2    H5 8359   0.242   1.141  16.045  1.2185  1.0970  1.3085
  563MPD2    N1 8360   4.604   1.444  15.959 -0.7542  0.0936  0.4843
  563MPD2    H7 8361   4.575   1.385  16.037  2.6508  0.1069  1.7547
  564TMC3    C1 8362   4.428   1.576  16.021 -0.5187  0.0075 -0.1582
  564TMC3    C2 8363   4.315   1.511  16.053 -0.1074  0.2398 -0.7936
  564TMC3    C3 8364   4.266   1.527  16.180  0.1925 -0.2208  0.2979
  564TMC3    C4 8365   4.505   1.628  16.122 -0.9079  0.1612 -0.2239
  564TMC3    C5 8366   4.472   1.617  16.256 -0.2854 -0.2311  0.0770
  564TMC3    C6 8367   4.343   1.573  16.283  0.2480  0.4455  0.3845
  564TMC3     C 8368   4.508   1.530  15.910  0.2177 -0.2978  0.2222
  564TMC3     O 8369   4.493   1.577  15.793 -0.4636  0.0246  0.6673
  564TMC3     H 8370   4.269   1.459  15.969 -1.1398 -0.0404 -0.0536
  564TMC3    H1 8371   4.600   1.674  16.102 -0.1306 -1.4339 -0.2315
  564TMC3    H2 8372   4.307   1.566  16.385 -0.0687 -0.9048  0.1659
  564TMC3    C7 8373   4.570   1.612  16.363 -0.1034  1.2598  0.4113
  564TMC3    C8 8374   4.181   1.415  16.224 -0.2111  0.4019 -0.0384
  564TMC3    O1 8375   4.537   1.543  16.451  0.1073  0.0416 -0.3401
  564TMC3    O2 8376   4.219   1.344  16.319 -0.5764 -0.8652  0.1247
  565TMC3    C1 8377   4.614   2.872  10.408  0.0408 -0.2855 -0.3392
  565TMC3    C2 8378   4.642   2.844  10.540  0.1089 -0.3096 -0.5465
  565TMC3    C3 8379   4.567   2.751  10.601  0.7206 -0.2811  0.3718
  565TMC3    C4 8380   4.517   2.813  10.337  0.2157  0.3356 -0.4657
  565TMC3    C5 8381   4.441   2.719  10.399 -0.2779 -0.2763 -0.3405
  565TMC3    C6 8382   4.462   2.680  10.535 -0.1295 -0.3104 -0.1451
  565TMC3     C 8383   4.691   2.972  10.330  0.4763  0.1251  0.5051
  565TMC3     O 8384   4.665   2.995  10.210  0.0990 -0.6155 -0.3694
  565TMC3     H 8385   4.716   2.894  10.601  0.7658 -1.4765 -0.3905
  565TMC3    H1 8386   4.489   2.844  10.236  1.6514 -1.1819 -1.3289
  565TMC3    H2 8387   4.384   2.638  10.598 -0.1360 -1.0268 -0.6376
  565TMC3    C7 8388   4.317   2.672  10.338  1.2402  0.3875 -0.2113
  565TMC3    C8 8389   4.596   2.723  10.739  0.2160 -0.0463  0.3835
  565TMC3    O1 8390   4.271   2.729  10.237 -0.2742 -0.4496 -0.0891
  565TMC3    O2 8391   4.662   2.805  10.796 -0.2620 -0.3259 -0.5604
  566MPD2     C 8392   1.343   0.227  14.265 -0.2710  0.1130 -0.3905
  566MPD2    C1 8393   1.431   0.126  14.272  0.1378  0.0350 -0.4443
  566MPD2    C2 8394   1.422   0.017  14.188  0.1260  0.3596 -0.1258
  566MPD2    C3 8395   1.314   0.003  14.101 -0.3797 -0.6619  0.3479
  566MPD2    C4 8396   1.216   0.108  14.098 -0.1736  0.2501 -0.1899
  566MPD2    C5 8397   1.234   0.215  14.180 -0.1126  0.3807  0.7933
  566MPD2     H 8398   1.503   4.667  14.188 -0.2784 -0.0994  2.9414
  566MPD2    H1 8399   1.123   0.105  14.042 -0.8468  0.4388  0.9353
  566MPD2    H2 8400   1.338   0.302  14.342 -0.3517 -0.7340  0.4356
  566MPD2    H3 8401   1.154   0.286  14.197 -0.0374  0.6526 -0.0038
  566MPD2     N 8402   1.304   4.612  14.011 -0.2955 -0.0685  0.3654
  566MPD2    H5 8403   1.217   4.616  13.959 -1.0227  0.1561  1.5993
  566MPD2    N1 8404   1.537   0.138  14.365 -0.2810  0.3371 -0.3343
  566MPD2    H7 8405   1.587   0.225  14.381  0.5842 -0.1565 -0.3193
  567TMC3    C1 8406   1.731   0.045  14.462  0.2125 -0.6865 -0.2992
  567TMC3    C2 8407   1.813   0.101  14.368 -0.6370  0.1389 -0.1374
  567TMC3    C3 8408   1.943   0.080  14.379  0.6463  0.1332  0.6987
  567TMC3    C4 8409   1.777   4.660  14.541 -0.1636  0.2047 -0.1239
  567TMC3    C5 8410   1.911   4.633  14.534  0.7442  0.2076  0.0502
  567TMC3    C6 8411   2.000   4.706  14.462 -0.4263 -0.2472 -0.3134
  567TMC3     C 8412   1.598   0.027  14.426 -0.3353 -0.3356  0.0866
  567TMC3     O 8413   1.545   4.641  14.450  0.1453 -0.3305  0.3827
  567TMC3     H 8414   1.776   0.181  14.305  1.3198  0.9018 -0.3191
  567TMC3    H1 8415   1.710   4.608  14.608  0.6770 -0.1041  0.4774
  567TMC3    H2 8416   2.104   4.676  14.454 -0.3608  0.1043 -0.8002
  567TMC3    C7 8417   1.969   4.530  14.612 -0.8517 -0.2193 -0.3167
  567TMC3    C8 8418   2.023   0.120  14.256 -0.8682  0.4379 -0.1857
  567TMC3    O1 8419   2.092   4.516  14.597 -0.5493  0.4507  0.0951
  567TMC3    O2 8420   1.958   0.144  14.159 -0.5313 -1.1451  0.1354
  568MPD2     C 8421   4.511   0.378  16.524  0.2131  0.3355 -0.3305
  568MPD2    C1 8422   4.470   0.410  16.653  0.1064  0.0118  0.0272
  568MPD2    C2 8423   4.356   0.495  16.669 -0.5860  0.2445 -0.1697
  568MPD2    C3 8424   4.280   0.541  16.560  0.2339  0.2691 -0.2354
  568MPD2    C4 8425   4.323   0.495  16.430 -0.1257 -0.0443 -0.5981
  568MPD2    C5 8426   4.439   0.418  16.411  0.1851 -0.3205  1.0236
  568MPD2     H 8427   4.323   0.522  16.769  0.1163 -1.8193  0.6125
  568MPD2    H1 8428   4.272   0.526  16.340 -0.6782  0.2466 -0.1866
  568MPD2    H2 8429   4.600   0.318  16.507  1.8342  2.9453 -1.0116
  568MPD2    H3 8430   4.464   0.394  16.308  0.3636  2.2688  0.4512
  568MPD2     N 8431   4.180   0.640  16.560 -0.6812 -0.1393 -0.3839
  568MPD2    H5 8432   4.129   0.656  16.474 -2.3606  0.6494  0.7575
  568MPD2    N1 8433   4.552   0.371  16.758  0.5366  0.3990  0.8516
  568MPD2    H7 8434   4.632   0.316  16.729 -0.4526 -0.4094 -0.3010
  569TMC3    C1 8435   4.061   0.835  16.636 -0.5561 -0.5316 -1.3143
  569TMC3    C2 8436   4.070   0.949  16.711 -0.3872  0.3246  0.4001
  569TMC3    C3 8437   3.975   1.043  16.687  0.2543  0.2294  0.3904
  569TMC3    C4 8438   3.961   0.814  16.543 -0.1162  0.8121  0.4294
  569TMC3    C5 8439   3.855   0.899  16.545  0.8758 -0.4295  0.9679
  569TMC3    C6 8440   3.863   1.018  16.616 -0.1673 -0.4921  0.0878
  569TMC3     C 8441   4.153   0.724  16.664  0.0746  0.1326  0.9950
  569TMC3     O 8442   4.210   0.733  16.772  0.2237  0.6483 -0.2329
  569TMC3     H 8443   4.151   0.961  16.782 -0.8778  0.9794  0.8536
  569TMC3    H1 8444   3.959   0.717  16.496 -0.9648  0.9235  0.2291
  569TMC3    H2 8445   3.776   1.081  16.631 -1.5273 -2.3421 -0.0277
  569TMC3    C7 8446   3.818   0.923  16.414 -0.6845 -0.6729 -0.4599
  569TMC3    C8 8447   4.008   1.188  16.672 -0.2515 -0.0685  0.2925
  569TMC3    O1 8448   3.799   0.831  16.335 -0.1011  0.4860  0.6908
  569TMC3    O2 8449   3.920   1.239  16.604  0.4403  0.2912  0.1132
  570TMC3    C1 8450   3.148   3.867  15.960  0.8892  0.1968  0.3620
  570TMC3    C2 8451   3.114   3.940  15.846 -0.2543 -0.3924 -0.1496
  570TMC3    C3 8452   3.138   4.076  15.841  0.2917 -0.4020 -0.2998
  570TMC3    C4 8453   3.210   3.935  16.068  0.1290  0.1481 -0.2926
  570TMC3    C5 8454   3.235   4.068  16.050  0.8813  0.1174 -0.4862
  570TMC3    C6 8455   3.197   4.139  15.946  0.8466  0.2675 -0.4147
  570TMC3     C 8456   3.084   3.743  15.986  0.6231 -0.3126 -0.1644
  570TMC3     O 8457   3.026   3.690  15.894  0.2297  0.2819 -0.0397
  570TMC3     H 8458   3.053   3.893  15.770 -0.6204  1.3384 -0.9348
  570TMC3    H1 8459   3.221   3.902  16.170 -3.2039  0.9633  0.3478
  570TMC3    H2 8460   3.203   4.247  15.942 -2.0329  0.4390 -0.2540
  570TMC3    C7 8461   3.348   4.116  16.130 -0.1950 -0.0527 -0.1150
  570TMC3    C8 8462   3.155   4.140  15.709 -0.1377 -0.2486 -0.1138
  570TMC3    O1 8463   3.383   4.053  16.227 -0.3390  0.3763  0.2082
  570TMC3    O2 8464   3.118   4.257  15.712 -0.2230  0.3930 -0.0679
  571MPD2     C 8465   2.114   0.261   0.205  0.1316  0.6576 -0.7199
  571MPD2    C1 8466   2.134   0.366   0.294  0.0516  0.4455 -0.1753
  571MPD2    C2 8467   2.064   0.483   0.281  0.5026 -0.3628  0.5617
  571MPD2    C3 8468   1.972   0.503   0.178  0.0508  0.2682  0.3024
  571MPD2    C4 8469   1.955   0.395   0.091 -1.1755 -0.1980 -0.1743
  571MPD2    C5 8470   2.023   0.281   0.108  1.2879 -0.6636  0.0027
  571MPD2     H 8471   2.081   0.568   0.347 -0.3124 -1.7600  2.5883
  571MPD2    H1 8472   1.879   0.399   0.013 -0.8888 -2.6777 -0.5777
  571MPD2    H2 8473   2.161   0.164   0.201  1.5381  1.2821  1.0178
  571MPD2    H3 8474   2.000   0.203   0.037  1.9126  0.8619 -1.8687
  571MPD2     N 8475   1.883   0.616   0.168  0.3256  0.6926 -0.3641
  571MPD2    H5 8476   1.808   0.610   0.100  1.2974 -0.7692 -1.2974
  571MPD2    N1 8477   2.239   0.343   0.385  0.2769  0.1819 -0.4002
  571MPD2    H7 8478   2.286   0.254   0.390 -0.3787 -0.2061 -1.2304
  572TMC3    C1 8479   1.773   0.808   0.232 -0.2279  0.3451 -0.5062
  572TMC3    C2 8480   1.649   0.754   0.188  0.0339  0.3812 -0.2734
  572TMC3    C3 8481   1.546   0.846   0.193  0.2493 -0.2457 -0.3012
  572TMC3    C4 8482   1.793   0.939   0.270  0.0200  0.1654 -0.1973
  572TMC3    C5 8483   1.687   1.027   0.265  0.6253 -0.0001  0.0393
  572TMC3    C6 8484   1.566   0.977   0.224  0.7475 -0.2853 -0.5133
  572TMC3     C 8485   1.888   0.722   0.257 -0.0410  0.2449 -0.6222
  572TMC3     O 8486   1.963   0.756   0.346  0.0581 -0.1086  0.0359
  572TMC3     H 8487   1.624   0.649   0.180  0.3490  0.1951  1.2239
  572TMC3    H1 8488   1.894   0.977   0.276  0.9598 -1.9724 -2.3409
  572TMC3    H2 8489   1.492   1.052   0.203 -0.7339 -1.8762 -0.9620
  572TMC3    C7 8490   1.693   1.164   0.301 -0.0015  0.6860 -0.2103
  572TMC3    C8 8491   1.414   0.797   0.147 -0.8391  0.3662 -0.6941
  572TMC3    O1 8492   1.607   1.240   0.254 -0.4039 -0.5059  0.3022
  572TMC3    O2 8493   1.399   0.703   0.075  0.1069 -0.5029 -0.3551
  573MPD2     C 8494   3.111   1.075   0.174 -0.4815  0.1565 -0.3763
  573MPD2    C1 8495   3.151   1.119   0.299 -0.5969 -0.6927  0.0405
  573MPD2    C2 8496   3.176   1.252   0.320 -0.0690  0.7894  0.7419
  573MPD2    C3 8497   3.169   1.338   0.214  0.6350  0.0690 -0.1256
  573MPD2    C4 8498   3.144   1.289   0.090 -0.3771 -0.0593 -0.3199
  573MPD2    C5 8499   3.125   1.158   0.068  0.2399  0.3967  0.4129
  573MPD2     H 8500   3.209   1.283   0.419  0.1452 -0.4580  1.0580
  573MPD2    H1 8501   3.159   1.352   0.003  0.0207  1.2203  0.6904
  573MPD2    H2 8502   3.099   0.969   0.159 -2.0168  0.8026 -3.5655
  573MPD2    H3 8503   3.119   1.121  17.653 -1.5401 -0.6370  0.9051
  573MPD2     N 8504   3.171   1.475   0.226 -0.9905 -0.3177  0.1737
  573MPD2    H5 8505   3.160   1.523   0.138  2.2607  0.3709  0.1559
  573MPD2    N1 8506   3.173   1.040   0.411  0.9489  0.3724 -0.1717
  573MPD2    H7 8507   3.194   1.086   0.499 -1.4043  0.3719  0.4118
  574TMC3    C1 8508   3.200   1.694   0.315 -0.3571 -0.7723 -0.5154
  574TMC3    C2 8509   3.141   1.751   0.202 -0.7683  0.0645 -0.2821
  574TMC3    C3 8510   3.135   1.884   0.199 -0.3145  0.6498 -0.1088
  574TMC3    C4 8511   3.264   1.762   0.406 -0.3413 -0.1742 -0.3080
  574TMC3    C5 8512   3.278   1.902   0.384 -0.1069  0.4135  0.1585
  574TMC3    C6 8513   3.205   1.964   0.282 -0.2794 -0.1001 -0.1931
  574TMC3     C 8514   3.185   1.550   0.340  0.3266 -0.0152  0.3914
  574TMC3     O 8515   3.204   1.509   0.455 -0.3673 -0.0680  0.7267
  574TMC3     H 8516   3.081   1.689   0.136 -0.4138  0.3045 -0.8266
  574TMC3    H1 8517   3.319   1.705   0.480 -1.8304  0.1269  1.0385
  574TMC3    H2 8518   3.209   2.070   0.260 -0.4354 -0.0668 -0.0610
  574TMC3    C7 8519   3.347   1.968   0.497 -0.9764 -0.1268 -0.5664
  574TMC3    C8 8520   3.024   1.943   0.120  0.4528 -0.5229 -0.2872
  574TMC3    O1 8521   3.345   1.911   0.607 -0.1448  0.1792 -0.3513
  574TMC3    O2 8522   2.970   1.876   0.031  0.4306 -0.4787  0.5581
  575TMC3    C1 8523   0.149   2.890  11.542  0.6676 -0.2609  0.2561
  575TMC3    C2 8524   0.124   2.802  11.645 -0.7991 -0.6668  0.1857
  575TMC3    C3 8525   0.029   2.708  11.639 -0.1359 -1.2819  1.3839
  575TMC3    C4 8526   0.086   2.884  11.424  0.5731  0.8612  0.5415
  575TMC3    C5 8527   4.719   2.782  11.411 -0.4709  0.4221  1.0158
  575TMC3    C6 8528   4.696   2.692  11.512 -0.1400 -0.4442  0.6879
  575TMC3     C 8529   0.223   3.009  11.577 -0.3139  0.0972 -0.8816
  575TMC3     O 8530   0.290   3.014  11.677  0.4259 -0.2866 -0.0628
  575TMC3     H 8531   0.186   2.816  11.733 -0.6254 -0.2227 -0.0111
  575TMC3    H1 8532   0.119   2.942  11.338 -1.7386  2.5004  0.7424
  575TMC3    H2 8533   4.615   2.622  11.497 -0.8547  0.7832 -1.1913
  575TMC3    C7 8534   4.674   2.748  11.275 -1.0114  0.5436 -0.4011
  575TMC3    C8 8535   0.029   2.597  11.727  0.5670  0.1062  1.2183
  575TMC3    O1 8536   4.674   2.845  11.200  1.3149  0.5954  0.0222
  575TMC3    O2 8537   4.697   2.493  11.694 -0.1613  0.8836 -0.6998
  576MPD2     C 8538   4.712   4.366  12.762  0.3262 -0.2718 -0.2003
  576MPD2    C1 8539   0.038   4.459  12.667  0.1255 -0.1333 -0.6293
  576MPD2    C2 8540   4.688   4.579  12.662 -0.4862  0.2580 -0.0464
  576MPD2    C3 8541   4.567   4.596  12.733  0.3803 -0.0167 -1.1414
  576MPD2    C4 8542   4.524   4.495  12.813  0.5412  0.1606  0.2799
  576MPD2    C5 8543   4.599   4.384  12.831 -0.5753 -0.0082  1.1857
  576MPD2     H 8544   4.715   4.664  12.600 -0.0256  0.1297 -0.0183
  576MPD2    H1 8545   4.425   4.513  12.854  0.8614  1.2875  0.5855
  576MPD2    H2 8546   0.029   4.266  12.778 -0.9615 -0.6042  0.8361
  576MPD2    H3 8547   4.566   4.303  12.896  1.1712  0.1657  2.2942
  576MPD2     N 8548   4.493   4.715  12.710  0.0296 -0.5018 -0.3600
  576MPD2    H5 8549   4.533   0.055  12.640  1.2552  0.3048  1.0640
  576MPD2    N1 8550   0.154   4.443  12.582  0.2684 -0.2573  0.2966
  576MPD2    H7 8551   0.179   4.518  12.518  0.1212 -0.1678  0.3441
  577TMC3    C1 8552   0.326   4.330  12.472 -0.5017  0.4107  0.0289
  577TMC3    C2 8553   0.367   4.205  12.440  0.4671  0.1460 -0.1906
  577TMC3    C3 8554   0.414   4.177  12.312  0.1225 -0.1908  0.6847
  577TMC3    C4 8555   0.330   4.426  12.377 -0.0550  0.3201  0.7371
  577TMC3    C5 8556   0.363   4.397  12.247 -0.0204  0.1165  0.7456
  577TMC3    C6 8557   0.414   4.274  12.215 -0.7183  0.1843 -0.2569
  577TMC3     C 8558   0.215   4.326  12.568  0.2457 -0.1019  0.3910
  577TMC3     O 8559   0.192   4.221  12.626  0.3481 -0.2604  0.0542
  577TMC3     H 8560   0.357   4.125  12.511  0.3364  0.4853  0.1718
  577TMC3    H1 8561   0.298   4.528  12.395 -0.8859  0.2540 -0.3777
  577TMC3    H2 8562   0.409   4.236  12.113  0.6597 -0.2983 -0.1506
  577TMC3    C7 8563   0.339   4.492  12.141  0.0769 -0.1109 -0.1967
  577TMC3    C8 8564   0.452   4.046  12.280  0.1389  0.7134 -0.5185
  577TMC3    O1 8565   0.241   4.565  12.138 -0.1336  0.7787  0.3143
  577TMC3    O2 8566   0.412   3.961  12.358 -0.4682  0.3145 -0.8385
  578MPD2     C 8567   2.626   3.910   0.786 -0.3590 -0.3731  0.6074
  578MPD2    C1 8568   2.760   3.883   0.808  0.6194  0.3484 -0.0382
  578MPD2    C2 8569   2.803   3.797   0.915 -0.8722 -0.9006  0.5194
  578MPD2    C3 8570   2.709   3.760   1.009 -0.4402 -0.6905 -0.1727
  578MPD2    C4 8571   2.575   3.788   0.986 -0.0546  0.0128 -0.1512
  578MPD2    C5 8572   2.539   3.863   0.877  0.3563 -0.4984 -0.1981
  578MPD2     H 8573   2.905   3.761   0.920 -0.5924 -0.1291  0.3015
  578MPD2    H1 8574   2.500   3.776   1.064 -0.4947  1.2160 -0.3842
  578MPD2    H2 8575   2.581   3.968   0.706  0.1672  0.9224  1.2470
  578MPD2    H3 8576   2.435   3.888   0.858  0.7392  0.1400 -1.4645
  578MPD2     N 8577   2.749   3.687   1.121 -0.2784 -0.1331  0.0193
  578MPD2    H5 8578   2.847   3.700   1.140 -0.3771 -0.4153  0.7035
  578MPD2    N1 8579   2.843   3.930   0.705 -0.2706  0.7531  0.2206
  578MPD2    H7 8580   2.810   4.014   0.659  0.1527  0.9628  0.3019
  579TMC3    C1 8581   2.747   3.535   1.301 -0.2983 -0.1233 -0.1705
  579TMC3    C2 8582   2.866   3.581   1.361 -0.5003  0.9988  0.1469
  579TMC3    C3 8583   2.943   3.496   1.433  0.0646  0.1684  0.2203
  579TMC3    C4 8584   2.710   3.407   1.310  0.3506  0.4121  0.5808
  579TMC3    C5 8585   2.797   3.320   1.372  0.1520 -0.2426  0.1657
  579TMC3    C6 8586   2.916   3.358   1.432 -0.6719 -0.6617 -0.6346
  579TMC3     C 8587   2.665   3.612   1.207 -0.2388  0.1342  0.5379
  579TMC3     O 8588   2.547   3.583   1.195 -0.6779 -0.6227 -0.2200
  579TMC3     H 8589   2.883   3.687   1.377  0.3335  0.9924 -0.7251
  579TMC3    H1 8590   2.614   3.379   1.267  0.4777 -2.8786  2.4232
  579TMC3    H2 8591   2.986   3.302   1.493  0.6899  0.4737 -1.1757
  579TMC3    C7 8592   2.750   3.187   1.367 -0.2302 -0.4021  0.6982
  579TMC3    C8 8593   3.051   3.543   1.520 -0.9746 -0.4325  0.2016
  579TMC3    O1 8594   2.796   3.118   1.457  0.1902 -0.6117 -0.0756
  579TMC3    O2 8595   3.085   3.462   1.607  0.1015 -0.3619 -0.4532
  580TMC3    C1 8596   2.241   2.887  11.837 -0.5188 -0.3000 -0.5831
  580TMC3    C2 8597   2.234   2.870  11.704  0.6177  0.4723  0.6742
  580TMC3    C3 8598   2.249   2.741  11.662  0.4217  0.6344 -0.3155
  580TMC3    C4 8599   2.266   2.789  11.924 -0.5702 -0.0746  0.0309
  580TMC3    C5 8600   2.278   2.660  11.886  0.3313  0.1279  0.1367
  580TMC3    C6 8601   2.270   2.637  11.748 -0.1031 -0.2649  0.4957
  580TMC3     C 8602   2.307   3.007  11.870  0.2123 -0.5579  0.5003
  580TMC3     O 8603   2.361   3.061  11.773 -0.1367 -0.2239 -0.0334
  580TMC3     H 8604   2.218   2.952  11.634  0.7194 -1.2107 -1.3327
  580TMC3    H1 8605   2.296   2.809  12.027  0.7609 -0.6070 -0.2514
  580TMC3    H2 8606   2.288   2.538  11.708 -1.4370 -0.4099  0.2710
  580TMC3    C7 8607   2.316   2.564  11.985  0.7342 -0.1879 -0.0616
  580TMC3    C8 8608   2.338   2.746  11.546 -0.5407 -0.2420  0.0087
  580TMC3    O1 8609   2.377   2.591  12.086 -0.7381 -0.8836  0.2474
  580TMC3    O2 8610   2.328   2.653  11.466 -0.2400  0.0856 -0.5193
  581MPD2     C 8611   0.445   2.932  14.840  0.1851  0.1676 -0.1620
  581MPD2    C1 8612   0.447   2.960  14.973  0.1348  0.3387  0.2960
  581MPD2    C2 8613   0.395   3.083  15.021 -0.3252  0.1113  0.1695
  581MPD2    C3 8614   0.338   3.168  14.927 -0.2164 -0.1848 -0.8452
  581MPD2    C4 8615   0.342   3.136  14.796 -0.5810  0.1233  0.0211
  581MPD2    C5 8616   0.396   3.019  14.747  0.2482  0.6777  0.1577
  581MPD2     H 8617   0.394   3.101  15.128 -1.6419  0.1725  0.1475
  581MPD2    H1 8618   0.303   3.204  14.721  1.5002 -1.5973 -2.6305
  581MPD2    H2 8619   0.490   2.842  14.799 -1.4505  0.3309 -2.2829
  581MPD2    H3 8620   0.401   2.996  14.641 -0.1602 -0.8579  0.4608
  581MPD2     N 8621   0.267   3.277  14.977  0.1941 -0.1355  0.5154
  581MPD2    H5 8622   0.242   3.281  15.076  2.8050  2.4460  1.0507
  581MPD2    N1 8623   0.492   2.849  15.050 -0.0927 -0.0601  0.1059
  581MPD2    H7 8624   0.507   2.758  15.008  0.4527  0.5133 -0.9290
  582TMC3    C1 8625   0.576   2.734  15.244 -0.3067 -0.0447 -0.3575
  582TMC3    C2 8626   0.571   2.722  15.385  0.1094 -0.1890  0.1241
  582TMC3    C3 8627   0.604   2.596  15.430 -0.7303  0.3561 -0.1847
  582TMC3    C4 8628   0.602   2.630  15.163 -0.4610  0.2240 -0.5515
  582TMC3    C5 8629   0.619   2.502  15.220  1.5432 -0.1056  0.1315
  582TMC3    C6 8630   0.612   2.480  15.354 -0.2835 -0.3635 -0.5209
  582TMC3     C 8631   0.530   2.855  15.185  0.0503  0.4645  0.2364
  582TMC3     O 8632   0.526   2.955  15.257  0.2913 -0.1590 -0.0920
  582TMC3     H 8633   0.571   2.813  15.445 -0.0247  1.1279 -1.8508
  582TMC3    H1 8634   0.626   2.651  15.059  0.6638  2.2545  0.1204
  582TMC3    H2 8635   0.627   2.385  15.404 -1.7264  0.2594  1.0735
  582TMC3    C7 8636   0.645   2.390  15.132 -0.0358  0.3962  0.6335
  582TMC3    C8 8637   0.611   2.584  15.576 -0.8874  0.0921 -0.0981
  582TMC3    O1 8638   0.717   2.309  15.187 -1.2242 -0.3014 -0.1810
  582TMC3    O2 8639   0.574   2.681  15.638  0.0554  0.1345  0.6681
  583MPD2     C 8640   0.656   4.252  17.069  0.2825 -0.3170  0.5985
  583MPD2    C1 8641   0.622   4.358  16.990 -0.3688  0.3317  0.1548
  583MPD2    C2 8642   0.546   4.459  17.034 -0.6355  0.5507  0.7135
  583MPD2    C3 8643   0.517   4.468  17.171  0.1841  0.7783 -0.0176
  583MPD2    C4 8644   0.581   4.378  17.262 -0.6247  0.6751  0.1070
  583MPD2    C5 8645   0.639   4.264  17.208 -0.7988  0.4108  0.3907
  583MPD2     H 8646   0.520   4.540  16.967  3.7521 -0.3995 -2.1373
  583MPD2    H1 8647   0.578   4.389  17.370 -0.4767 -1.0873  0.2858
  583MPD2    H2 8648   0.718   4.169  17.037  0.8904 -0.6753  2.7570
  583MPD2    H3 8649   0.672   4.199  17.288  2.5077  1.6202 -0.0061
  583MPD2     N 8650   0.456   4.584  17.217  0.3737  0.0461 -0.0926
  583MPD2    H5 8651   0.398   4.638  17.154 -0.6141 -1.4431 -0.4546
  583MPD2    N1 8652   0.650   4.354  16.851  0.4456  0.0521 -0.3666
  583MPD2    H7 8653   0.619   4.426  16.787  0.7601  0.9197  0.4579
  584TMC3    C1 8654   0.376   0.025  17.347 -0.0562  1.2665 -0.0682
  584TMC3    C2 8655   0.422   0.123  17.262  0.3147 -0.1511  0.0196
  584TMC3    C3 8656   0.410   0.254  17.303 -0.9083 -0.2917 -0.3703
  584TMC3    C4 8657   0.350   0.050  17.479 -0.4823 -0.1964 -0.0439
  584TMC3    C5 8658   0.344   0.185  17.517 -0.4078  0.0474  0.1883
  584TMC3    C6 8659   0.374   0.287  17.434  0.9101 -0.1184 -0.1016
  584TMC3     C 8660   0.463   4.634  17.339  0.5912  0.3212  0.1130
  584TMC3     O 8661   0.517   4.590  17.443 -0.0327 -0.3924  0.0820
  584TMC3     H 8662   0.455   0.103  17.161 -0.6181 -1.2965 -0.0485
  584TMC3    H1 8663   0.324   4.687  17.542  0.0568  0.4930  1.1191
  584TMC3    H2 8664   0.387   0.385  17.476 -1.5217  0.7520 -1.3550
  584TMC3    C7 8665   0.348   0.196  17.665 -0.5734 -0.0223 -0.3449
  584TMC3    C8 8666   0.439   0.362  17.214  0.4964 -0.5545 -0.2618
  584TMC3    O1 8667   0.368   0.095   0.040  0.3274  0.0431 -0.6203
  584TMC3    O2 8668   0.392   0.358  17.101  0.3672  0.0173  0.2115
  585MPD2     C 8669   4.174   3.824   0.462  0.2254  0.1752 -0.6183
  585MPD2    C1 8670   4.266   3.914   0.420 -0.1535  0.1396  0.5291
  585MPD2    C2 8671   4.387   3.857   0.373 -0.1863  0.2604 -0.1940
  585MPD2    C3 8672   4.396   3.724   0.360  0.6248  0.3414  0.1711
  585MPD2    C4 8673   4.298   3.633   0.401 -0.2184  0.5337  0.3095
  585MPD2    C5 8674   4.181   3.690   0.446 -0.1913 -0.1608 -0.0419
  585MPD2     H 8675   4.472   3.914   0.335  0.1506  0.5899  1.0495
  585MPD2    H1 8676   4.308   3.528   0.377  0.6658  0.3256  1.5633
  585MPD2    H2 8677   4.080   3.862   0.501 -0.8867 -1.6330 -1.5420
  585MPD2    H3 8678   4.101   3.625   0.478 -0.4841 -0.1746 -0.8213
  585MPD2     N 8679   4.511   3.658   0.309 -0.0690 -0.2141  0.0860
  585MPD2    H5 8680   4.518   3.558   0.326  0.7025 -0.3763 -1.2105
  585MPD2    N1 8681   4.243   4.052   0.435  0.9818  0.3467  0.0599
  585MPD2    H7 8682   4.155   4.089   0.470 -0.6667 -0.9111 -2.7268
  586TMC3    C1 8683   4.698   3.601   0.211 -0.5422 -0.6384  0.5738
  586TMC3    C2 8684   0.021   3.596   0.083 -1.1243 -0.1674  0.5390
  586TMC3    C3 8685   0.069   3.478   0.040  0.0891  0.1268  0.5338
  586TMC3    C4 8686   4.692   3.500   0.298 -0.2450  0.5154  0.0044
  586TMC3    C5 8687   0.021   3.381   0.252  0.3429 -0.2032 -0.5346
  586TMC3    C6 8688   0.072   3.368   0.122 -0.1813  0.2240 -0.0854
  586TMC3     C 8689   4.620   3.710   0.243  0.1157 -0.3833 -0.7408
  586TMC3     O 8690   4.640   3.819   0.191 -0.2605  0.5821 -0.1302
  586TMC3     H 8691   4.710   3.673   0.014  0.8742  1.1023  1.0388
  586TMC3    H1 8692   4.660   3.504   0.401 -2.0994  3.0149 -0.6762
  586TMC3    H2 8693   0.106   3.275   0.077  0.5705  1.3250 -1.8128
  586TMC3    C7 8694   4.647   3.279   0.270 -0.9727  0.5302 -0.2498
  586TMC3    C8 8695   0.111   3.454  17.590  0.1163 -0.0591  0.0691
  586TMC3    O1 8696   4.534   3.316   0.299 -0.4625  0.0250 -0.1745
  586TMC3    O2 8697   0.109   3.338  17.550 -0.0205 -0.3957  0.2355
  587TMC3    C1 8698   2.474   2.296  16.424 -0.2501 -0.8580  0.0176
  587TMC3    C2 8699   2.440   2.429  16.380 -0.1423  0.2048 -0.8582
  587TMC3    C3 8700   2.479   2.467  16.254  0.0666 -0.0810  0.3597
  587TMC3    C4 8701   2.539   2.210  16.344 -0.9092  0.3270 -0.2558
  587TMC3    C5 8702   2.589   2.259  16.226 -1.3560 -0.8986 -0.1676
  587TMC3    C6 8703   2.552   2.384  16.178 -0.3133  0.1815 -0.7128
  587TMC3     C 8704   2.465   2.253  16.566  0.1363  0.3384  0.4321
  587TMC3     O 8705   2.536   2.159  16.602  0.1158  0.0906  0.3815
  587TMC3     H 8706   2.422   2.510  16.450  0.8729  0.4140 -0.8429
  587TMC3    H1 8707   2.578   2.113  16.372 -0.5830 -0.2431 -2.6709
  587TMC3    H2 8708   2.583   2.408  16.076  1.5020  0.0556 -0.1815
  587TMC3    C7 8709   2.679   2.176  16.150 -0.3420  0.0057 -0.5822
  587TMC3    C8 8710   2.425   2.578  16.185  0.1785 -0.5757 -0.6047
  587TMC3    O1 8711   2.695   2.060  16.177  0.4271  0.2825 -0.1153
  587TMC3    O2 8712   2.466   2.608  16.076 -0.3092  0.1944  0.1639
  588TMC3    C1 8713   4.310   0.415   9.574 -0.0892  0.2406 -0.1456
  588TMC3    C2 8714   4.267   0.290   9.540 -0.3166 -0.3687  0.3992
  588TMC3    C3 8715   4.325   0.182   9.609  0.2532  0.6908 -0.5157
  588TMC3    C4 8716   4.402   0.435   9.673 -0.4544  0.2796  0.4596
  588TMC3    C5 8717   4.459   0.327   9.742  1.4031 -0.0254  0.2940
  588TMC3    C6 8718   4.420   0.199   9.707  0.3089  0.1092 -0.4560
  588TMC3     C 8719   4.231   0.529   9.532  0.6284 -0.5112 -0.5145
  588TMC3     O 8720   4.169   0.525   9.426 -0.7128  0.2349  0.5596
  588TMC3     H 8721   4.208   0.279   9.450  0.9346 -0.7659 -0.3672
  588TMC3    H1 8722   4.449   0.533   9.681  0.4229 -0.1289  0.3381
  588TMC3    H2 8723   4.466   0.117   9.761  2.4867  1.5034 -0.1522
  588TMC3    C7 8724   4.542   0.347   9.866 -0.9790  0.4381 -0.2319
  588TMC3    C8 8725   4.289   0.049   9.566  0.2724  0.8250  0.3860
  588TMC3    O1 8726   4.579   0.247   9.923 -0.7975 -0.1516 -0.4148
  588TMC3    O2 8727   4.198   0.044   9.487 -0.0284  0.1254 -0.4274
  589TMC3    C1 8728   3.950   2.111   1.148 -0.3023 -0.5513  0.0342
  589TMC3    C2 8729   3.992   2.231   1.204 -0.5604  0.3246 -0.2396
  589TMC3    C3 8730   4.120   2.266   1.203 -0.3758  0.2137 -0.2124
  589TMC3    C4 8731   4.039   2.023   1.101 -0.3276 -0.8720  0.2361
  589TMC3    C5 8732   4.171   2.066   1.102  0.1219 -0.0910  0.6929
  589TMC3    C6 8733   4.214   2.184   1.143  0.5522 -0.1606 -0.0912
  589TMC3     C 8734   3.808   2.089   1.113  0.1849  0.0849 -0.4838
  589TMC3     O 8735   3.775   1.972   1.089 -0.2083  0.0952 -0.1906
  589TMC3     H 8736   3.924   2.300   1.253 -0.1422 -1.3711  2.7172
  589TMC3    H1 8737   4.002   1.926   1.071 -1.0468 -0.6999  0.5460
  589TMC3    H2 8738   4.316   2.220   1.137 -0.0355  1.4494 -0.6313
  589TMC3    C7 8739   4.263   1.985   1.045 -0.3169 -0.1601  0.3934
  589TMC3    C8 8740   4.142   2.409   1.217 -0.4284  0.5389  1.0281
  589TMC3    O1 8741   4.364   2.031   0.994  0.8218 -0.0846 -0.1473
  589TMC3    O2 8742   4.043   2.483   1.203  0.2182  0.1921 -0.1826
  590MPD2     C 8743   3.358   0.649  16.787 -0.1983 -0.5083  0.6773
  590MPD2    C1 8744   3.252   0.674  16.707  0.3791 -0.1553  0.5988
  590MPD2    C2 8745   3.263   0.761  16.599 -0.1252  0.1012 -0.0373
  590MPD2    C3 8746   3.381   0.836  16.587 -0.2667  0.2051  0.1444
  590MPD2    C4 8747   3.482   0.816  16.680 -0.0022 -0.0951  0.0211
  590MPD2    C5 8748   3.475   0.716  16.774  0.8500 -0.0888 -0.5347
  590MPD2     H 8749   3.180   0.766  16.529  0.0603  1.6928 -0.1581
  590MPD2    H1 8750   3.578   0.866  16.678  0.4836 -1.1617 -2.8311
  590MPD2    H2 8751   3.354   0.581  16.872 -1.2036  1.2328  2.0216
  590MPD2    H3 8752   3.561   0.700  16.838  1.2048  1.3840 -0.6493
  590MPD2     N 8753   3.377   0.943  16.489 -0.3871 -0.0552 -0.1490
  590MPD2    H5 8754   3.298   0.938  16.425 -0.2634  0.4097 -0.3378
  590MPD2    N1 8755   3.139   0.588  16.725 -0.1090  0.1262  0.4962
  590MPD2    H7 8756   3.151   0.523  16.803  2.1625 -2.2211 -1.7950
  591TMC3    C1 8757   3.467   1.125  16.360  0.1188 -0.2132 -0.1536
  591TMC3    C2 8758   3.442   1.068  16.241  0.1964 -0.1707  0.4650
  591TMC3    C3 8759   3.485   1.138  16.127  0.2707  0.8097  0.7693
  591TMC3    C4 8760   3.541   1.240  16.373  0.5313 -0.2883 -0.8461
  591TMC3    C5 8761   3.582   1.307  16.256 -0.1156 -0.5723  0.4686
  591TMC3    C6 8762   3.564   1.254  16.134  0.0415 -0.6073  0.7727
  591TMC3     C 8763   3.466   1.044  16.484 -0.4646  0.6879 -0.3785
  591TMC3     O 8764   3.558   1.074  16.560  0.1432 -0.6616 -0.0446
  591TMC3     H 8765   3.383   0.978  16.229 -1.3037  0.8670  0.1531
  591TMC3    H1 8766   3.556   1.282  16.472 -0.2337 -0.2159 -0.7576
  591TMC3    H2 8767   3.594   1.304  16.043  1.8035 -0.4258  1.4538
  591TMC3    C7 8768   3.678   1.419  16.270  0.1228  0.1763  0.2764
  591TMC3    C8 8769   3.470   1.083  15.999  0.2488 -1.0054 -0.0440
  591TMC3    O1 8770   3.720   1.429  16.386  0.2186  0.5521 -0.4101
  591TMC3    O2 8771   3.458   0.961  15.979 -0.7964 -0.1914 -0.0230
  592MPD2     C 8772   3.643   2.838  11.128  0.2308 -0.2591  0.9098
  592MPD2    C1 8773   3.585   2.884  11.244  0.0022 -0.5207 -0.1770
  592MPD2    C2 8774   3.511   2.793  11.314  0.0882  0.0778  0.4470
  592MPD2    C3 8775   3.499   2.660  11.282 -0.0874 -0.0679 -0.1865
  592MPD2    C4 8776   3.547   2.619  11.158 -0.0383  0.1741 -0.0081
  592MPD2    C5 8777   3.620   2.711  11.086 -0.7981 -0.4093 -0.3577
  592MPD2     H 8778   3.464   2.825  11.407  2.5036  2.0778  0.9941
  592MPD2    H1 8779   3.528   2.518  11.125 -0.2233  0.9684 -2.4234
  592MPD2    H2 8780   3.698   2.911  11.069 -2.7104  0.2778 -1.1529
  592MPD2    H3 8781   3.666   2.676  10.994 -1.4406 -2.6453  0.1600
  592MPD2     N 8782   3.427   2.584  11.380  0.1363  0.1309  0.5261
  592MPD2    H5 8783   3.394   2.628  11.466 -1.9174  0.4850 -0.4457
  592MPD2    N1 8784   3.617   3.016  11.289 -0.5235  0.1691  0.1365
  592MPD2    H7 8785   3.677   3.074  11.229 -0.6530 -0.3741 -0.5184
  593TMC3    C1 8786   3.635   3.200  11.449  0.6877  0.8174 -0.6501
  593TMC3    C2 8787   3.593   3.249  11.569  0.2923  0.1828 -0.0964
  593TMC3    C3 8788   3.636   3.377  11.604 -0.2536  0.1620 -0.0790
  593TMC3    C4 8789   3.702   3.277  11.353 -0.2853  0.1096  0.2159
  593TMC3    C5 8790   3.723   3.408  11.387  0.6073  0.2589 -0.0578
  593TMC3    C6 8791   3.697   3.457  11.510  0.2451 -0.1635 -0.9482
  593TMC3     C 8792   3.607   3.059  11.426 -0.2493  0.1528 -0.0296
  593TMC3     O 8793   3.561   2.996  11.523  0.4449 -0.0538 -0.5024
  593TMC3     H 8794   3.534   3.191  11.639 -2.8447 -0.0803 -2.9802
  593TMC3    H1 8795   3.743   3.240  11.260  0.6225 -0.4670  0.8415
  593TMC3    H2 8796   3.718   3.561  11.533  1.0051 -0.5395  0.0406
  593TMC3    C7 8797   3.784   3.504  11.293  0.2279  0.3668 -0.3264
  593TMC3    C8 8798   3.613   3.439  11.733 -0.5082  0.5837 -0.5694
  593TMC3    O1 8799   3.834   3.605  11.342  0.2301  0.4200  0.3438
  593TMC3    O2 8800   3.504   3.420  11.790  0.1794 -0.0060  0.3143
  594MPD2     C 8801   2.033   1.206  14.294  0.8318 -0.0789  0.3128
  594MPD2    C1 8802   2.012   1.230  14.426 -0.3670 -0.0893  0.1336
  594MPD2    C2 8803   2.105   1.318  14.490  1.2502  0.4234  0.3137
  594MPD2    C3 8804   2.212   1.381  14.420 -0.7682 -0.1551  0.1093
  594MPD2    C4 8805   2.228   1.351  14.285  0.7869 -0.3339 -0.0859
  594MPD2    C5 8806   2.139   1.265  14.230 -0.5543  0.2042 -0.6508
  594MPD2     H 8807   2.081   1.353  14.590  1.1087 -0.6861  0.6746
  594MPD2    H1 8808   2.301   1.392  14.216  0.3671  0.9752  0.2493
  594MPD2    H2 8809   1.980   1.129  14.240  1.0755  0.9092 -1.3350
  594MPD2    H3 8810   2.155   1.233  14.127  0.1616 -1.1232 -0.1286
  594MPD2     N 8811   2.300   1.477  14.478 -0.2223  0.1845 -0.2099
  594MPD2    H5 8812   2.278   1.509  14.572  3.3091 -2.1131  1.3936
  594MPD2    N1 8813   1.902   1.176  14.489 -0.1730  0.4591 -0.1361
  594MPD2    H7 8814   1.837   1.125  14.430  0.4683 -0.6254  0.0856
  595TMC3    C1 8815   2.616   1.808  14.540  0.0399 -0.4980 -0.2803
  595TMC3    C2 8816   2.566   1.711  14.462  0.0867 -0.9990 -0.1595
  595TMC3    C3 8817   2.448   1.649  14.499  0.2864  0.8298  0.4420
  595TMC3    C4 8818   2.556   1.844  14.650 -0.0738  0.9855  0.3718
  595TMC3    C5 8819   2.439   1.786  14.684  0.3630 -0.8661  0.2458
  595TMC3    C6 8820   2.375   1.693  14.606  0.0390  0.0171 -0.1660
  595TMC3     C 8821   2.743   1.873  14.515 -0.0225  0.3827  0.4678
  595TMC3     O 8822   2.745   1.988  14.533  0.3615  0.7798 -0.4967
  595TMC3     H 8823   2.616   1.679  14.371  1.7428 -0.7472  0.6714
  595TMC3    H1 8824   2.611   1.921  14.702 -0.4350  0.9621  0.7890
  595TMC3    H2 8825   2.279   1.648  14.627 -0.5752  1.8957  1.0753
  595TMC3    C7 8826   2.353   1.862  14.778  0.5401  0.5270 -0.1531
  595TMC3    C8 8827   2.406   1.535  14.421  0.3743 -0.4762  0.3897
  595TMC3    O1 8828   2.231   1.862  14.761 -0.4324  0.5123 -0.6137
  595TMC3    O2 8829   2.465   1.515  14.314 -0.1954  0.1797 -0.6799
  596MPD2     C 8830   1.359   4.175  16.935 -0.4875  0.5924  0.0599
  596MPD2    C1 8831   1.355   4.291  16.862  0.5360  0.3392 -0.2860
  596MPD2    C2 8832   1.277   4.289  16.748 -0.0684  0.5979  0.0773
  596MPD2    C3 8833   1.227   4.171  16.694 -0.0017 -0.1302  0.3766
  596MPD2    C4 8834   1.233   4.056  16.772  0.4343  0.7276 -0.1172
  596MPD2    C5 8835   1.294   4.062  16.895 -0.3407 -1.0326 -0.8133
  596MPD2     H 8836   1.251   4.385  16.704  1.0770  0.3921 -1.0453
  596MPD2    H1 8837   1.189   3.962  16.740  1.3046  0.2370  0.1381
  596MPD2    H2 8838   1.411   4.164  17.029  0.0057  0.2719 -0.2489
  596MPD2    H3 8839   1.302   3.968  16.948  0.6541  0.3387  1.4666
  596MPD2     N 8840   1.176   4.162  16.567  0.2900  0.3021  0.7357
  596MPD2    H5 8841   1.126   4.080  16.534  0.7388  0.3915 -0.1754
  596MPD2    N1 8842   1.411   4.410  16.904  0.3991  0.2589 -0.0380
  596MPD2    H7 8843   1.387   4.491  16.848  2.0961  1.6366  1.2444
  597TMC3    C1 8844   1.519   4.565  17.044  0.5391  0.1934  0.5180
  597TMC3    C2 8845   1.638   4.595  17.108  0.5237  0.1464  0.7937
  597TMC3    C3 8846   1.634   4.689  17.201 -0.4345 -0.0172 -0.4869
  597TMC3    C4 8847   1.404   4.635  17.067 -0.4834 -0.9308 -0.4948
  597TMC3    C5 8848   1.409   0.016  17.158 -0.2394 -0.7288  0.4421
  597TMC3    C6 8849   1.520   0.045  17.224  0.4277  0.7028  0.2739
  597TMC3     C 8850   1.495   4.424  17.008  0.3456  0.1020  0.0009
  597TMC3     O 8851   1.576   4.339  17.056  0.2202  0.0462  0.4451
  597TMC3     H 8852   1.722   4.533  17.078 -0.7343 -1.5306  0.7082
  597TMC3    H1 8853   1.308   4.591  17.042 -0.0216 -2.0218 -0.3761
  597TMC3    H2 8854   1.524   0.128  17.293  0.6794  0.7698  0.1790
  597TMC3    C7 8855   1.289   0.070  17.213  0.1799 -0.0367 -0.2107
  597TMC3    C8 8856   1.746   0.004  17.270  0.4188 -0.5300  0.0750
  597TMC3    O1 8857   1.289   0.087  17.338  0.8385  0.1792  0.0657
  597TMC3    O2 8858   1.743   0.104  17.339 -0.5855 -0.0685  0.0380
  598TMC3    C1 8859   4.471   1.130  15.698  0.3293 -0.0554 -0.5384
  598TMC3    C2 8860   4.353   1.197  15.702  0.5102 -0.8410 -0.5817
  598TMC3    C3 8861   4.329   1.264  15.592  0.0763 -0.2593  0.1928
  598TMC3    C4 8862   4.557   1.121  15.595  0.1493  0.8604 -0.6316
  598TMC3    C5 8863   4.521   1.194  15.487 -0.3937  0.1691 -0.3132
  598TMC3    C6 8864   4.415   1.280  15.484 -0.3283 -0.7039 -0.7151
  598TMC3     C 8865   4.517   1.078  15.822  0.3597 -0.0556 -0.0332
  598TMC3     O 8866   4.635   1.041  15.831 -0.3748 -0.1436  0.4573
  598TMC3     H 8867   4.288   1.207  15.788  2.6669  2.2427  0.6986
  598TMC3    H1 8868   4.654   1.073  15.596 -0.5298 -0.4870  0.2047
  598TMC3    H2 8869   4.382   1.322  15.390  0.3884  0.4972 -0.4304
  598TMC3    C7 8870   4.622   1.219  15.392  0.1210 -0.5600  0.6898
  598TMC3    C8 8871   4.191   1.312  15.564 -0.3082  0.8271 -0.0354
  598TMC3    O1 8872   4.689   1.126  15.356  0.6777  0.0824 -0.3264
  598TMC3    O2 8873   4.192   1.403  15.481  0.0044  0.0376 -0.0935
  599MPD2     C 8874   4.452   2.702  15.326  0.5698 -0.5666  0.1350
  599MPD2    C1 8875   4.497   2.796  15.408 -0.3142 -0.0789  0.4918
  599MPD2    C2 8876   4.419   2.907  15.419  0.5412 -0.5231  0.5756
  599MPD2    C3 8877   4.301   2.922  15.347 -0.3573 -0.3185  0.0765
  599MPD2    C4 8878   4.263   2.819  15.258  0.0793 -0.6075 -0.2918
  599MPD2    C5 8879   4.343   2.716  15.247 -0.0208 -0.3444  0.2401
  599MPD2     H 8880   4.452   2.986  15.486  2.7917 -1.3923  0.4799
  599MPD2    H1 8881   4.169   2.828  15.206  1.1187  0.5383 -1.9911
  599MPD2    H2 8882   4.511   2.611  15.327 -2.2479 -2.4113 -0.6022
  599MPD2    H3 8883   4.320   2.643  15.170  1.2078 -1.2995  0.7829
  599MPD2     N 8884   4.230   3.041  15.350  0.8279  0.4737 -0.0956
  599MPD2    H5 8885   4.142   3.045  15.301  0.9966 -0.2481 -0.4481
  599MPD2    N1 8886   4.606   2.771  15.497 -0.7843  0.7716  0.4855
  599MPD2    H7 8887   4.647   2.678  15.490 -0.4586  1.0213 -0.9154
  600TMC3    C1 8888   4.160   3.261  15.401 -0.0889  0.4412  0.2554
  600TMC3    C2 8889   4.043   3.248  15.324  0.6517 -0.2083  0.7621
  600TMC3    C3 8890   3.935   3.321  15.359 -0.2232 -0.5305 -0.0041
  600TMC3    C4 8891   4.168   3.350  15.503  0.3317 -0.8860  0.2615
  600TMC3    C5 8892   4.059   3.425  15.527 -0.0795 -0.1455  0.6149
  600TMC3    C6 8893   3.941   3.421  15.453 -0.3924  0.2424  0.1910
  600TMC3     C 8894   4.267   3.157  15.408 -0.2308  0.0442 -0.5079
  600TMC3     O 8895   4.380   3.197  15.433 -0.9651 -0.2714 -0.2562
  600TMC3     H 8896   4.047   3.187  15.234  1.9788  0.8818  0.0858
  600TMC3    H1 8897   4.254   3.361  15.567  0.6307  0.2616 -0.3377
  600TMC3    H2 8898   3.857   3.483  15.481 -0.7973 -0.7554  1.2054
  600TMC3    C7 8899   4.036   3.455  15.667  0.2225  1.1689 -0.0474
  600TMC3    C8 8900   3.814   3.277  15.300  0.3649  0.3358 -0.2395
  600TMC3    O1 8901   3.940   3.532  15.689 -0.4529  0.1763  0.2554
  600TMC3    O2 8902   3.827   3.208  15.199 -0.2344 -0.0489 -0.1632
  601MPD2     C 8903   1.850   1.562   0.572  0.1612  0.4271 -0.1680
  601MPD2    C1 8904   1.789   1.556   0.449 -0.1356  0.2175 -0.1975
  601MPD2    C2 8905   1.784   1.427   0.390  0.2319  0.1490  0.0685
  601MPD2    C3 8906   1.828   1.313   0.454  0.1767 -0.4395  0.3474
  601MPD2    C4 8907   1.891   1.332   0.574 -0.8790  0.0141 -0.0869
  601MPD2    C5 8908   1.906   1.456   0.634 -0.1519  0.2259 -0.0530
  601MPD2     H 8909   1.748   1.410   0.289  1.1992  0.3302 -0.3025
  601MPD2    H1 8910   1.919   1.245   0.632 -4.5362  0.0737  1.7638
  601MPD2    H2 8911   1.866   1.658   0.619 -1.2614  0.4459  0.2576
  601MPD2    H3 8912   1.961   1.467   0.727 -1.4863 -3.1851  1.1172
  601MPD2     N 8913   1.799   1.191   0.389  0.9979  0.3846  0.2032
  601MPD2    H5 8914   1.849   1.110   0.424  0.8589  0.1965 -0.0372
  601MPD2    N1 8915   1.732   1.668   0.375 -0.4698  0.1998 -0.4945
  601MPD2    H7 8916   1.679   1.649   0.291  1.3351  1.1943 -1.8485
  602TMC3    C1 8917   1.651   1.886   0.350  0.0153  0.0024  0.0750
  602TMC3    C2 8918   1.676   2.019   0.342 -0.9481  0.6370 -0.0271
  602TMC3    C3 8919   1.597   2.094   0.263 -0.7379  0.2213 -0.0554
  602TMC3    C4 8920   1.540   1.837   0.287 -0.5734  0.3185  0.0371
  602TMC3    C5 8921   1.463   1.921   0.210 -0.2366  0.3291 -0.6291
  602TMC3    C6 8922   1.486   2.052   0.197  0.5246 -0.2024 -0.1291
  602TMC3     C 8923   1.742   1.798   0.421 -0.1027  0.2875  0.1656
  602TMC3     O 8924   1.814   1.845   0.506 -0.3021 -0.4103  0.3945
  602TMC3     H 8925   1.759   2.064   0.394 -1.1471 -0.4564  1.2447
  602TMC3    H1 8926   1.508   1.735   0.305 -0.8014  0.1511 -1.3044
  602TMC3    H2 8927   1.415   2.124   0.159  1.7884  0.9484 -0.3323
  602TMC3    C7 8928   1.347   1.874   0.149 -0.5995 -0.2407  0.1442
  602TMC3    C8 8929   1.630   2.233   0.256  0.4913 -1.2595 -0.4545
  602TMC3    O1 8930   1.283   1.782   0.201  0.0606  0.1572 -0.1590
  602TMC3    O2 8931   1.680   2.289   0.353  0.2303 -0.0431 -0.0878
  603TMC3    C1 8932   4.223   2.591  10.908  0.0508  0.2420  0.0079
  603TMC3    C2 8933   4.238   2.595  11.045  0.8091  0.6055  0.3497
  603TMC3    C3 8934   4.255   2.718  11.105  0.8405  0.5728  0.8573
  603TMC3    C4 8935   4.216   2.709  10.839  0.2833  0.2205  0.3347
  603TMC3    C5 8936   4.227   2.822  10.903 -0.5158 -0.3464 -0.1139
  603TMC3    C6 8937   4.262   2.835  11.032 -0.1752 -0.3454  0.1846
  603TMC3     C 8938   4.216   2.467  10.833  0.1492  0.2753 -0.0413
  603TMC3     O 8939   4.270   2.468  10.720  0.4641  0.2339 -0.0541
  603TMC3     H 8940   4.242   2.502  11.101  0.1101  1.3935  1.7132
  603TMC3    H1 8941   4.186   2.698  10.736  0.2916  0.8885  0.2555
  603TMC3    H2 8942   4.258   2.934  11.075  1.5521 -1.6255  3.2917
  603TMC3    C7 8943   4.273   2.936  10.817 -0.9562  0.4953  0.3437
  603TMC3    C8 8944   4.283   2.710  11.247  0.1418 -0.6006  0.6916
  603TMC3    O1 8945   4.363   3.003  10.865  0.1311 -0.3005  0.0589
  603TMC3    O2 8946   4.288   2.595  11.291  0.1559 -0.5102  0.4719
  604MPD2     C 8947   0.474   0.525  16.565  0.0868 -0.4057 -0.3642
  604MPD2    C1 8948   0.412   0.627  16.495 -0.6339  0.4213 -0.2892
  604MPD2    C2 8949   0.410   0.617  16.357 -0.2572 -0.6520 -0.2820
  604MPD2    C3 8950   0.459   0.508  16.289 -0.7440 -0.0877 -0.3584
  604MPD2    C4 8951   0.511   0.407  16.366 -0.1441  0.0503  0.0269
  604MPD2    C5 8952   0.530   0.423  16.499 -0.0705 -0.3835 -0.4316
  604MPD2     H 8953   0.378   0.705  16.301  1.0973 -0.1518 -0.2716
  604MPD2    H1 8954   0.555   0.318  16.325  0.3796  0.1293  0.4085
  604MPD2    H2 8955   0.478   0.524  16.674  0.4546 -0.0123 -0.3716
  604MPD2    H3 8956   0.572   0.342  16.558 -3.0763 -1.3372  0.4325
  604MPD2     N 8957   0.473   0.510  16.145 -0.2837 -0.0308 -0.1574
  604MPD2    H5 8958   0.445   0.598  16.103  0.6442  0.8413  1.0483
  604MPD2    N1 8959   0.367   0.736  16.573  0.2997  0.6203 -0.2266
  604MPD2    H7 8960   0.378   0.733  16.674 -0.5643 -1.4966 -0.2040
  605TMC3    C1 8961   0.280   0.952  16.636  0.3265 -0.3883  0.4283
  605TMC3    C2 8962   0.371   0.950  16.735  0.5792 -0.2604 -0.0125
  605TMC3    C3 8963   0.422   1.068  16.778 -0.0739 -0.1587 -0.4114
  605TMC3    C4 8964   0.234   1.066  16.574 -0.2213  0.6558  0.1380
  605TMC3    C5 8965   0.290   1.186  16.622  0.1685 -0.2099  0.2073
  605TMC3    C6 8966   0.382   1.188  16.730  0.3527 -0.0707  0.0885
  605TMC3     C 8967   0.289   0.842  16.534  0.5561 -0.3333  0.1127
  605TMC3     O 8968   0.241   0.858  16.421 -0.0707  0.9349 -0.1764
  605TMC3     H 8969   0.396   0.856  16.782  0.3739  0.0806  0.7708
  605TMC3    H1 8970   0.166   1.066  16.490  0.3645 -1.4976 -0.3194
  605TMC3    H2 8971   0.422   1.282  16.765 -0.7206  1.0109 -1.5981
  605TMC3    C7 8972   0.217   1.300  16.578  0.2259  0.1119  0.3870
  605TMC3    C8 8973   0.564   1.060  16.815 -0.1236  0.3256 -0.1234
  605TMC3    O1 8974   0.108   1.273  16.523  0.7519  0.3583  0.1757
  605TMC3    O2 8975   0.618   0.949  16.790 -0.3005 -0.4188  0.4345
  606TMC3    C1 8976   1.564   0.122   0.930 -0.5385  0.8405  0.1216
  606TMC3    C2 8977   1.613   0.100   0.804  0.2541 -0.2703 -0.3167
  606TMC3    C3 8978   1.553   4.709   0.744 -0.0813  0.1011 -0.7671
  606TMC3    C4 8979   1.466   0.049   0.993 -0.7482 -0.2133 -0.1338
  606TMC3    C5 8980   1.410   4.665   0.926 -0.9547 -0.0614  0.4919
  606TMC3    C6 8981   1.456   4.631   0.797  1.1916 -0.4132 -0.3664
  606TMC3     C 8982   1.619   0.233   0.992  0.1599 -0.4781  0.3168
  606TMC3     O 8983   1.712   0.284   0.938  0.0249  0.1064 -0.3535
  606TMC3     H 8984   1.709   0.142   0.774 -0.2801  1.2130  0.0462
  606TMC3    H1 8985   1.446   0.061   1.099 -3.7686 -0.3535 -0.6829
  606TMC3    H2 8986   1.410   4.552   0.739 -0.3748  0.9205 -0.9415
  606TMC3    C7 8987   1.347   4.561   1.006 -0.1614 -0.1351 -0.5331
  606TMC3    C8 8988   1.617   4.636   0.637 -0.6159 -0.1757  0.6423
  606TMC3    O1 8989   1.369   4.559   1.124 -0.3025 -0.2450  0.1205
  606TMC3    O2 8990   1.604   4.512   0.649 -0.4247  0.3069  0.2083
  607MPD2     C 8991   3.667   2.360  11.605  0.6880  0.1796 -0.1730
  607MPD2    C1 8992   3.675   2.483  11.666 -0.6274  0.0672  0.4412
  607MPD2    C2 8993   3.613   2.505  11.788  0.0351 -0.2858  0.1271
  607MPD2    C3 8994   3.538   2.407  11.842  0.2655  0.4827  0.4787
  607MPD2    C4 8995   3.533   2.281  11.791 -0.8536 -0.0085  0.0765
  607MPD2    C5 8996   3.591   2.260  11.669  0.5420  0.5912 -0.3982
  607MPD2     H 8997   3.623   2.600  11.840 -0.9338 -0.1766  0.1025
  607MPD2    H1 8998   3.502   2.193  11.847 -1.6415 -1.5241 -2.7629
  607MPD2    H2 8999   3.732   2.335  11.521 -1.6825 -0.5731 -1.7648
  607MPD2    H3 9000   3.586   2.160  11.629  1.2960  0.4145 -0.0496
  607MPD2     N 9001   3.481   2.440  11.969  0.0239 -0.1781 -0.3407
  607MPD2    H5 9002   3.494   2.537  11.995  1.7445 -1.1635  2.5014
  607MPD2    N1 9003   3.765   2.586  11.626 -0.7798  0.8749  0.0758
  607MPD2    H7 9004   3.766   2.676  11.672 -1.1490  1.3235 -0.8092
  608TMC3    C1 9005   3.947   2.687  11.548 -0.2633  0.8127  0.9592
  608TMC3    C2 9006   3.968   2.722  11.677  0.0456 -0.5233 -0.3012
  608TMC3    C3 9007   4.050   2.836  11.708  0.1930 -0.0013  0.0282
  608TMC3    C4 9008   3.970   2.772  11.448  0.2876 -1.0731 -0.3966
  608TMC3    C5 9009   4.025   2.892  11.482 -0.1435 -0.6578 -0.2422
  608TMC3    C6 9010   4.070   2.923  11.606 -1.3574 -0.5136 -0.0297
  608TMC3     C 9011   3.854   2.577  11.520  0.5940 -0.9174  1.3603
  608TMC3     O 9012   3.866   2.506  11.421  0.4934 -0.3620 -0.3262
  608TMC3     H 9013   3.948   2.658  11.762  2.6921 -0.1729  0.5956
  608TMC3    H1 9014   3.911   2.761  11.357  0.8673  0.7814 -1.0088
  608TMC3    H2 9015   4.128   3.010  11.634  1.2437 -1.3686 -2.7399
  608TMC3    C7 9016   4.011   2.989  11.385  0.3661  0.7307 -0.3735
  608TMC3    C8 9017   4.070   2.879  11.843 -0.2335 -0.2473 -0.9461
  608TMC3    O1 9018   3.974   2.957  11.275 -0.2519 -1.0872 -1.0489
  608TMC3    O2 9019   4.168   2.937  11.884  0.3379 -0.3203 -1.0105
  609TMC3    C1 9020   2.407   1.738   9.005  0.0420 -0.3160  0.7689
  609TMC3    C2 9021   2.465   1.856   8.970 -0.2751  0.1829 -0.0266
  609TMC3    C3 9022   2.597   1.873   8.981 -0.4813 -0.0224 -0.3559
  609TMC3    C4 9023   2.472   1.634   9.073 -0.2364  0.5878 -0.1767
  609TMC3    C5 9024   2.610   1.656   9.077 -0.0590  0.6581  0.7516
  609TMC3    C6 9025   2.668   1.777   9.041 -0.4510 -0.2447 -0.0890
  609TMC3     C 9026   2.272   1.699   8.961 -0.5582  0.7775  0.2568
  609TMC3     O 9027   2.201   1.624   9.028  0.3167 -0.1259  0.3133
  609TMC3     H 9028   2.404   1.930   8.920 -1.9428 -1.0601  0.1688
  609TMC3    H1 9029   2.434   1.537   9.103 -0.9650  0.7032 -0.7463
  609TMC3    H2 9030   2.775   1.771   9.057 -0.5060 -0.3335  0.2510
  609TMC3    C7 9031   2.694   1.570   9.158  0.6051 -0.1779  0.6378
  609TMC3    C8 9032   2.645   1.994   8.924 -0.4547 -0.4659 -0.1057
  609TMC3    O1 9033   2.785   1.628   9.217 -0.2588 -0.3957 -0.1449
  609TMC3    O2 9034   2.589   2.039   8.823  0.2178  0.4641 -0.2421
  610TMC3    C1 9035   4.193   2.730  13.057 -0.1795 -0.4411  0.2570
  610TMC3    C2 9036   4.254   2.741  12.937 -0.5991  0.2026  0.0471
  610TMC3    C3 9037   4.359   2.656  12.912 -0.3086  0.2778  0.1865
  610TMC3    C4 9038   4.240   2.639  13.152 -0.4198 -0.4724 -0.1969
  610TMC3    C5 9039   4.355   2.567  13.123 -0.3937  0.5191  0.2433
  610TMC3    C6 9040   4.415   2.572  12.998 -0.4160  0.5592 -0.3458
  610TMC3     C 9041   4.085   2.820  13.078  0.4947 -0.0369 -0.5930
  610TMC3     O 9042   4.079   2.920  13.007 -0.4626 -0.1982 -0.1618
  610TMC3     H 9043   4.232   2.818  12.864  1.0633  1.9538  1.4013
  610TMC3    H1 9044   4.203   2.645  13.254  0.8775 -0.3700  0.2646
  610TMC3    H2 9045   4.505   2.516  12.974 -1.4824 -1.3669  0.1924
  610TMC3    C7 9046   4.402   2.463  13.218  0.1072 -0.8482 -0.1132
  610TMC3    C8 9047   4.398   2.644  12.780 -0.2041  0.4737 -0.0612
  610TMC3    O1 9048   4.519   2.423  13.200 -0.1626 -0.0648  0.0316
  610TMC3    O2 9049   4.422   2.748  12.714 -0.4973 -0.2978  0.6785
  611MPD2     C 9050   3.364   2.743   9.950  0.8636  0.0969 -0.2736
  611MPD2    C1 9051   3.453   2.671  10.028 -0.1946  0.3058 -0.1442
  611MPD2    C2 9052   3.583   2.698  10.003 -0.8904 -0.7035  0.1908
  611MPD2    C3 9053   3.627   2.778   9.895  0.3774  0.2541  0.3921
  611MPD2    C4 9054   3.536   2.839   9.816 -0.3582 -0.0721 -0.1392
  611MPD2    C5 9055   3.402   2.813   9.839  0.0011 -0.3671  0.2274
  611MPD2     H 9056   3.659   2.667  10.074  0.1727  2.1129  0.2729
  611MPD2    H1 9057   3.560   2.912   9.739  0.6708  0.4673  0.6985
  611MPD2    H2 9058   3.256   2.743   9.959  0.8007 -0.4817 -0.9966
  611MPD2    H3 9059   3.325   2.866   9.785  1.3316  1.8286  0.4800
  611MPD2     N 9060   3.763   2.824   9.870  0.1071  0.3774  0.1140
  611MPD2    H5 9061   3.785   2.873   9.784  2.8123  0.8586  1.0870
  611MPD2    N1 9062   3.405   2.620  10.153  0.0258  0.7027 -0.3480
  611MPD2    H7 9063   3.315   2.651  10.188 -0.1550 -1.2106  0.9177
  612TMC3    C1 9064   3.982   2.886   9.931  0.3733  0.1622 -0.7841
  612TMC3    C2 9065   4.056   2.927  10.034  0.0063  0.2367 -0.2601
  612TMC3    C3 9066   4.172   2.988  10.006 -0.1258  0.1706  0.1869
  612TMC3    C4 9067   4.019   2.887   9.798 -0.2513  0.3136  0.2221
  612TMC3    C5 9068   4.137   2.949   9.775  0.1253 -0.1005 -0.0491
  612TMC3    C6 9069   4.222   2.998   9.876 -0.1844  0.4651 -0.0329
  612TMC3     C 9070   3.861   2.814   9.961  0.6500  0.1298 -0.1833
  612TMC3     O 9071   3.874   2.767  10.071  0.0523  0.1046  0.0199
  612TMC3     H 9072   4.012   2.934  10.133  0.8366 -2.0214  0.2579
  612TMC3    H1 9073   3.958   2.828   9.730 -0.9549  0.9616  0.2907
  612TMC3    H2 9074   4.318   3.046   9.863  0.2983 -0.5700 -0.2270
  612TMC3    C7 9075   4.204   2.931   9.641 -1.0624 -0.3293 -0.3500
  612TMC3    C8 9076   4.237   3.071  10.101 -0.4708  0.1947 -0.8168
  612TMC3    O1 9077   4.327   2.938   9.647 -0.0348  0.5654 -0.4894
  612TMC3    O2 9078   4.294   3.172  10.059 -0.1804 -0.0434 -0.2698
  613MPD2     C 9079   2.738   4.369  16.817 -0.1114 -0.3434 -0.2659
  613MPD2    C1 9080   2.634   4.386  16.729  0.2514 -0.1568  0.0491
  613MPD2    C2 9081   2.519   4.317  16.749 -0.0688  0.9304  0.1478
  613MPD2    C3 9082   2.510   4.221  16.844  0.7540  0.6338 -0.5655
  613MPD2    C4 9083   2.622   4.192  16.916  0.2414 -0.2470  0.5513
  613MPD2    C5 9084   2.731   4.270  16.909 -0.7351  0.8108 -0.4188
  613MPD2     H 9085   2.434   4.339  16.684 -0.8262 -1.7921  0.2324
  613MPD2    H1 9086   2.618   4.113  16.990 -3.9613  1.0088  1.6494
  613MPD2    H2 9087   2.824   4.434  16.814 -0.3180 -0.1606 -2.0594
  613MPD2    H3 9088   2.813   4.248  16.976  1.6225 -0.8840 -3.8945
  613MPD2     N 9089   2.412   4.123  16.848 -0.2855  0.0570  0.3120
  613MPD2    H5 9090   2.421   4.032  16.892 -0.6182  0.3282  0.9466
  613MPD2    N1 9091   2.670   4.476  16.625  0.1838  0.5732  0.0571
  613MPD2    H7 9092   2.768   4.501  16.621  0.4010 -0.2729  0.0322
  614TMC3    C1 9093   2.652   4.525  16.398  0.2312 -0.3462  0.5516
  614TMC3    C2 9094   2.699   4.402  16.363 -0.2984 -0.5747  0.3977
  614TMC3    C3 9095   2.665   4.352  16.239  0.8062  0.3046  0.3662
  614TMC3    C4 9096   2.583   4.606  16.316  0.0735  0.0949  0.0669
  614TMC3    C5 9097   2.547   4.557  16.193 -0.0391 -0.3699  0.0812
  614TMC3    C6 9098   2.601   4.440  16.156 -0.2666  0.3598  0.2103
  614TMC3     C 9099   2.586   4.516  16.526  0.2457  0.3385  0.2875
  614TMC3     O 9100   2.464   4.521  16.510 -0.0777 -0.0896 -0.8739
  614TMC3     H 9101   2.726   4.332  16.441  2.8839 -1.0123 -1.0753
  614TMC3    H1 9102   2.547   4.705  16.344  0.0438  0.3915 -1.0316
  614TMC3    H2 9103   2.572   4.402  16.059 -0.8330 -1.2371  0.9979
  614TMC3    C7 9104   2.499   4.651  16.094 -0.0004  0.4317 -0.1224
  614TMC3    C8 9105   2.635   4.204  16.233 -0.1646  0.2553 -0.3272
  614TMC3    O1 9106   2.540   0.047  16.100 -0.3373  0.8056  0.0365
  614TMC3    O2 9107   2.669   4.137  16.329 -0.1735 -0.1389  0.4209
  615MPD2     C 9108   2.109   0.761  16.026 -0.7233 -0.1264 -0.6037
  615MPD2    C1 9109   2.082   0.896  16.013  0.1222 -0.6700 -0.6991
  615MPD2    C2 9110   2.007   0.939  15.903  0.0486 -0.1551  0.0097
  615MPD2    C3 9111   1.943   0.835  15.826 -0.2308  0.3307 -0.3033
  615MPD2    C4 9112   1.962   0.706  15.848 -0.4685 -0.5598 -0.3298
  615MPD2    C5 9113   2.047   0.665  15.946  0.1452  0.0246 -0.1826
  615MPD2     H 9114   1.980   1.042  15.882  0.3401 -0.2893 -1.0138
  615MPD2    H1 9115   1.928   0.627  15.782 -2.6461  0.2518 -0.1889
  615MPD2    H2 9116   2.182   0.722  16.096  1.2276  1.7471 -1.5947
  615MPD2    H3 9117   2.073   0.562  15.964 -4.8225 -1.1426  0.2499
  615MPD2     N 9118   1.874   0.873  15.706  0.5597  0.8671 -0.3851
  615MPD2    H5 9119   1.859   0.974  15.713 -0.1365  0.6961  0.6225
  615MPD2    N1 9120   2.140   1.004  16.090 -0.1168  0.9192  0.4100
  615MPD2    H7 9121   2.114   1.096  16.058 -0.6651  1.1651  1.5571
  616TMC3    C1 9122   2.272   1.103  16.258 -0.5362 -0.2538 -0.5185
  616TMC3    C2 9123   2.403   1.109  16.297  1.0760  0.5956 -0.5896
  616TMC3    C3 9124   2.461   1.224  16.337 -0.1910  0.2349 -0.4199
  616TMC3    C4 9125   2.200   1.220  16.258 -0.0483  0.1109 -0.3288
  616TMC3    C5 9126   2.263   1.339  16.298  0.0819 -0.5038  0.2464
  616TMC3    C6 9127   2.388   1.342  16.347  0.2037  0.3828 -0.7426
  616TMC3     C 9128   2.231   0.985  16.189  0.0447  0.8709  0.5612
  616TMC3     O 9129   2.297   0.882  16.216 -0.3509  0.2963  0.0396
  616TMC3     H 9130   2.471   1.026  16.282  0.3602 -0.0255 -0.4268
  616TMC3    H1 9131   2.097   1.224  16.226 -0.1858 -1.4726 -0.0672
  616TMC3    H2 9132   2.432   1.430  16.391  2.9029 -0.7627 -1.1244
  616TMC3    C7 9133   2.195   1.463  16.292 -0.7664 -0.7208  0.6695
  616TMC3    C8 9134   2.600   1.228  16.347 -0.5893  0.4765 -0.0473
  616TMC3    O1 9135   2.204   1.526  16.397 -0.4208  0.2847  0.2297
  616TMC3    O2 9136   2.655   1.127  16.371 -0.2705  0.2941  0.0303
  617MPD2     C 9137   0.712   4.425  13.934  0.9235  0.2420 -0.0859
  617MPD2    C1 9138   0.673   4.342  14.046  0.2204 -0.4258  0.3306
  617MPD2    C2 9139   0.539   4.321  14.063  0.0386 -0.0504  0.7675
  617MPD2    C3 9140   0.439   4.360  13.977  0.9087  0.4388  0.5197
  617MPD2    C4 9141   0.484   4.422  13.864  0.0746 -0.5589 -1.2319
  617MPD2    C5 9142   0.614   4.458  13.845  0.2078  0.2128  0.0992
  617MPD2     H 9143   0.514   4.260  14.149 -0.2527  0.2829  0.9196
  617MPD2    H1 9144   0.406   4.438  13.790 -0.0819 -0.4969 -1.0531
  617MPD2    H2 9145   0.812   4.463  13.916  0.7096  1.5258  1.4960
  617MPD2    H3 9146   0.656   4.506  13.757 -0.6842  0.6505 -0.0966
  617MPD2     N 9147   0.298   4.336  13.993 -0.8700 -0.4791 -0.4302
  617MPD2    H5 9148   0.239   4.338  13.911 -1.9043 -2.4545  0.2846
  617MPD2    N1 9149   0.774   4.290  14.127  0.4303  0.4958  0.4635
  617MPD2    H7 9150   0.870   4.316  14.103  0.7370  1.9243  3.1866
  618TMC3    C1 9151   0.894   4.190  14.307  0.8723  0.5013  0.2442
  618TMC3    C2 9152   0.925   4.065  14.354  0.3180 -0.5500  0.1750
  618TMC3    C3 9153   1.056   4.025  14.374 -0.1398 -0.1619  0.2714
  618TMC3    C4 9154   0.998   4.278  14.290 -0.3747 -0.2089 -0.0841
  618TMC3    C5 9155   1.128   4.240  14.335 -0.3431 -0.5556  0.2367
  618TMC3    C6 9156   1.164   4.116  14.381  0.2025 -0.3075 -0.6173
  618TMC3     C 9157   0.768   4.213  14.239  0.4428 -0.6058  0.0009
  618TMC3     O 9158   0.678   4.146  14.289  0.5090 -0.0903 -0.0617
  618TMC3     H 9159   0.842   3.996  14.355  0.0536 -0.2208  1.7568
  618TMC3    H1 9160   0.984   4.375  14.245 -1.0121 -0.0160  0.5474
  618TMC3    H2 9161   1.266   4.100  14.415  0.0500 -1.1094 -0.5364
  618TMC3    C7 9162   1.225   4.349  14.317  0.5538 -0.5821 -0.7723
  618TMC3    C8 9163   1.083   3.901  14.308 -0.4520  0.1725  0.7717
  618TMC3    O1 9164   1.195   4.455  14.366 -0.2647 -0.2252 -0.0079
  618TMC3    O2 9165   0.982   3.849  14.258  0.0698 -0.3077 -0.3332
  619MPD2     C 9166   1.805   0.769  13.871  0.1279  0.1822 -0.0356
  619MPD2    C1 9167   1.775   0.863  13.776 -0.1317 -0.2941 -0.2257
  619MPD2    C2 9168   1.685   0.826  13.674 -0.6989  0.3371 -0.0541
  619MPD2    C3 9169   1.613   0.704  13.679 -0.2536 -0.3341 -0.6882
  619MPD2    C4 9170   1.640   0.621  13.789 -0.3537  0.1020  0.7553
  619MPD2    C5 9171   1.735   0.652  13.882 -0.2042 -0.2444 -0.0996
  619MPD2     H 9172   1.649   0.905  13.609 -1.0028  1.4072  1.4266
  619MPD2    H1 9173   1.580   0.531  13.794  2.2989 -1.6545  0.5793
  619MPD2    H2 9174   1.874   0.787  13.953 -0.1315  1.5929 -0.1291
  619MPD2    H3 9175   1.761   0.584  13.962 -3.2202  0.3165  1.3694
  619MPD2     N 9176   1.512   0.675  13.583 -0.1124 -0.3639  0.0355
  619MPD2    H5 9177   1.456   0.593  13.603  0.4415 -1.6030 -3.4605
  619MPD2    N1 9178   1.833   0.993  13.772 -0.0466  0.0605  0.3475
  619MPD2    H7 9179   1.809   1.053  13.694  0.2167  0.9185  0.9308
  620TMC3    C1 9180   1.918   1.186  13.866  0.8678  0.5701  0.4292
  620TMC3    C2 9181   1.916   1.254  13.746  0.2609  0.3614 -0.3859
  620TMC3    C3 9182   1.877   1.382  13.742  0.2448 -0.8572 -0.5796
  620TMC3    C4 9183   1.885   1.254  13.980 -0.4712  0.6289  0.1218
  620TMC3    C5 9184   1.847   1.385  13.972  0.5661 -0.7178  0.2324
  620TMC3    C6 9185   1.840   1.451  13.852  0.1567 -0.5067 -0.2705
  620TMC3     C 9186   1.915   1.041  13.867  0.6427 -0.1441  0.5405
  620TMC3     O 9187   1.945   0.994  13.980  0.3980 -0.3100  0.0304
  620TMC3     H 9188   1.955   1.208  13.656  0.5189 -2.4278  1.1286
  620TMC3    H1 9189   1.864   1.200  14.071 -0.2156  1.0291  0.4179
  620TMC3    H2 9190   1.821   1.557  13.843  1.4337 -0.3880 -1.4817
  620TMC3    C7 9191   1.734   1.405  14.046  0.0536 -0.0000 -0.3983
  620TMC3    C8 9192   1.772   1.397  13.656  0.3494  0.2115 -0.1869
  620TMC3    O1 9193   1.740   1.381  14.168  0.0434 -0.3578  0.0094
  620TMC3    O2 9194   1.675   1.458  13.698 -0.1816 -0.2004 -0.2572
  621MPD2     C 9195   1.902   1.105   9.647  0.8233 -0.2134  0.0731
  621MPD2    C1 9196   1.904   1.133   9.782  0.6715  0.1567  0.7635
  621MPD2    C2 9197   2.007   1.211   9.835 -0.0479 -0.1871  0.1364
  621MPD2    C3 9198   2.098   1.271   9.751  0.5131 -0.6156  0.2676
  621MPD2    C4 9199   2.091   1.247   9.616 -0.3100  0.4043 -0.3766
  621MPD2    C5 9200   1.996   1.159   9.569  0.1739 -0.2722  0.3480
  621MPD2     H 9201   2.010   1.233   9.941 -1.2541 -2.2207  0.5868
  621MPD2    H1 9202   2.161   1.296   9.549 -1.3830  1.1386 -0.9754
  621MPD2    H2 9203   1.814   1.058   9.603  1.7403 -0.6834 -1.2597
  621MPD2    H3 9204   2.002   1.136   9.464 -0.3268  0.5219  0.1419
  621MPD2     N 9205   2.189   1.358   9.818 -0.1431  0.3257 -0.3270
  621MPD2    H5 9206   2.216   1.364   9.915  0.7450  1.2225 -0.6225
  621MPD2    N1 9207   1.788   1.089   9.870 -0.0985 -0.0518  0.2398
  621MPD2    H7 9208   1.792   1.129   9.963  0.5528 -0.0438  0.2095
  622TMC3    C1 9209   1.605   0.962   9.937 -0.6523  0.2241  0.0613
  622TMC3    C2 9210   1.533   1.056  10.004 -0.0102 -0.2308 -0.0692
  622TMC3    C3 9211   1.396   1.027  10.015 -0.2733 -0.2839  0.1513
  622TMC3    C4 9212   1.566   0.834   9.921 -0.4259 -0.0083 -0.3532
  622TMC3    C5 9213   1.435   0.802   9.957  1.0096  0.7438 -0.2223
  622TMC3    C6 9214   1.349   0.899   9.997  0.1009  0.1655 -0.0085
  622TMC3     C 9215   1.700   0.991   9.837  0.0349 -1.1295 -0.6407
  622TMC3     O 9216   1.713   0.904   9.755  0.8579 -0.1035  0.2878
  622TMC3     H 9217   1.570   1.156   9.986  1.0327 -0.4366  0.9770
  622TMC3    H1 9218   1.632   0.757   9.881 -0.2380  0.4168 -0.8549
  622TMC3    H2 9219   1.245   0.874  10.012 -0.0724 -0.2196 -1.8618
  622TMC3    C7 9220   1.389   0.660   9.956  0.4450  0.1206 -0.0717
  622TMC3    C8 9221   1.307   1.130   9.977 -0.8315  1.1003 -1.4186
  622TMC3    O1 9222   1.287   0.626  10.017 -0.1035 -0.4553  0.6507
  622TMC3    O2 9223   1.338   1.247  10.005 -0.2273  0.3166 -0.3560
  623MPD2     C 9224   1.013   0.745  16.065  0.0161  0.4879 -0.1154
  623MPD2    C1 9225   0.933   0.801  16.164  0.3860 -0.5912  0.6229
  623MPD2    C2 9226   0.981   0.811  16.288  0.3353  0.1124  0.1642
  623MPD2    C3 9227   1.110   0.772  16.320 -0.5979 -0.0285 -0.0963
  623MPD2    C4 9228   1.190   0.717  16.224  0.5819  0.2451 -0.2965
  623MPD2    C5 9229   1.143   0.708  16.097  0.1438  0.5981 -0.1246
  623MPD2     H 9230   0.915   0.856  16.362 -0.2448 -0.3767 -0.0564
  623MPD2    H1 9231   1.287   0.671  16.235  0.4693  0.0217 -0.2239
  623MPD2    H2 9232   0.975   0.741  15.964 -0.0951 -0.2953 -0.0389
  623MPD2    H3 9233   1.204   0.661  16.020 -1.2950 -0.0421 -0.8833
  623MPD2     N 9234   1.148   0.780  16.452  0.1534  0.4335 -0.0762
  623MPD2    H5 9235   1.082   0.817  16.519 -0.2246 -1.5198  0.6462
  623MPD2    N1 9236   0.800   0.848  16.146 -0.0055  0.0884  0.6682
  623MPD2    H7 9237   0.755   0.899  16.222 -1.4024 -1.3316  0.7920
  624TMC3    C1 9238   1.461   0.804  16.810  0.5671  0.0999  0.1069
  624TMC3    C2 9239   1.391   0.912  16.855  0.2029 -0.3501 -0.2238
  624TMC3    C3 9240   1.281   0.960  16.792  0.0144  0.3689  0.2372
  624TMC3    C4 9241   1.421   0.755  16.686  0.9882 -0.4721  0.3772
  624TMC3    C5 9242   1.301   0.797  16.635 -0.7833 -0.1209  1.1377
  624TMC3    C6 9243   1.223   0.899  16.686  0.5773  0.1702  0.2134
  624TMC3     C 9244   1.576   0.753  16.881 -0.3739  0.1996 -0.1971
  624TMC3     O 9245   1.645   0.833  16.940  0.1370  0.2639  0.7869
  624TMC3     H 9246   1.424   0.950  16.951  0.7034  0.8369 -0.8727
  624TMC3    H1 9247   1.491   0.691  16.634 -0.5214 -2.4150  0.7279
  624TMC3    H2 9248   1.130   0.928  16.640  0.9761  0.0453 -0.6706
  624TMC3    C7 9249   1.271   0.738  16.506  0.0065  0.2302 -0.3894
  624TMC3    C8 9250   1.218   1.072  16.852 -0.6718 -0.2635  0.7898
  624TMC3    O1 9251   1.368   0.685  16.453  0.5695 -0.0748 -0.1944
  624TMC3    O2 9252   1.284   1.157  16.916 -0.3672  0.4793  0.5838
  625MPD2     C 9253   0.951   1.990   0.746  1.3695 -0.7102 -0.2664
  625MPD2    C1 9254   0.983   2.090   0.835  0.1205  0.5989 -0.2937
  625MPD2    C2 9255   0.994   2.056   0.969  0.0999 -0.3402  0.1313
  625MPD2    C3 9256   0.987   1.922   1.010 -0.1057 -0.0969 -0.5318
  625MPD2    C4 9257   0.967   1.822   0.912 -0.7487  0.6221 -0.1570
  625MPD2    C5 9258   0.944   1.860   0.788  0.1521 -0.5363  0.3939
  625MPD2     H 9259   0.996   2.132   1.047 -0.9190 -0.5089  0.3228
  625MPD2    H1 9260   0.965   1.717   0.942 -1.3447  1.1140  1.5036
  625MPD2    H2 9261   0.924   2.009   0.642 -0.1185  0.7659  0.3907
  625MPD2    H3 9262   0.918   1.794   0.707 -0.4186 -0.7682  0.7595
  625MPD2     N 9263   1.037   1.893   1.141 -0.2751 -0.3920  0.5506
  625MPD2    H5 9264   1.055   1.977   1.195 -2.2084 -0.0256  0.6143
  625MPD2    N1 9265   1.002   2.222   0.795  0.3408  0.6272 -0.0980
  625MPD2    H7 9266   1.022   2.287   0.871 -0.0388 -0.4499  0.9361
  626TMC3    C1 9267   1.036   2.414   0.660  0.1357  0.0577  0.5315
  626TMC3    C2 9268   0.977   2.505   0.572  0.3459  0.2569  0.6209
  626TMC3    C3 9269   1.018   2.637   0.577  0.2302  0.0340  0.7654
  626TMC3    C4 9270   1.122   2.462   0.752  0.3301  0.0026  0.1506
  626TMC3    C5 9271   1.157   2.595   0.762 -0.3127  0.4066  0.0267
  626TMC3    C6 9272   1.114   2.684   0.666 -0.8118 -0.4420  0.8045
  626TMC3     C 9273   0.998   2.275   0.669 -0.3729  0.0585 -0.1592
  626TMC3     O 9274   0.972   2.210   0.568  0.3733 -0.0916  0.2995
  626TMC3     H 9275   0.897   2.477   0.504  1.8569 -1.6636 -0.3632
  626TMC3    H1 9276   1.172   2.384   0.809 -3.3764 -1.1160  1.8472
  626TMC3    H2 9277   1.146   2.787   0.658  0.4131 -0.9583 -0.8015
  626TMC3    C7 9278   1.254   2.635   0.866 -0.0338  0.1446 -1.2492
  626TMC3    C8 9279   0.966   2.733   0.478 -0.3880  0.0927  0.4742
  626TMC3    O1 9280   1.306   2.547   0.928  0.3670 -0.1370  0.4176
  626TMC3    O2 9281   0.958   2.680   0.366 -0.1471 -0.2682  0.2079
  627MPD2     C 9282   4.255   3.205  14.644 -0.4192  0.0189 -0.0386
  627MPD2    C1 9283   4.379   3.153  14.676  0.6065  0.4902  0.5790
  627MPD2    C2 9284   4.403   3.023  14.662 -0.2444 -0.2233 -0.5941
  627MPD2    C3 9285   4.315   2.937  14.600  0.8467  0.9854  0.6000
  627MPD2    C4 9286   4.201   2.994  14.549 -0.5012 -0.6943 -0.9987
  627MPD2    C5 9287   4.164   3.124  14.577 -0.7871 -0.4487  0.1601
  627MPD2     H 9288   4.493   2.985  14.709  1.2124  1.4556 -2.0541
  627MPD2    H1 9289   4.132   2.933  14.493  0.2447 -1.6868 -0.8235
  627MPD2    H2 9290   4.226   3.309  14.646  0.4720  0.2809 -0.5641
  627MPD2    H3 9291   4.078   3.171  14.532  1.0726  1.1355 -1.7330
  627MPD2     N 9292   4.342   2.795  14.588 -0.2998  0.3659 -0.2482
  627MPD2    H5 9293   4.422   2.761  14.639  1.9878  1.3275 -3.1967
  627MPD2    N1 9294   4.484   3.227  14.737 -0.1589  0.2083  0.0471
  627MPD2    H7 9295   4.564   3.176  14.771 -0.4619  1.4217  2.6563
  628TMC3    C1 9296   4.589   3.422  14.825 -0.6070 -0.1704  0.2322
  628TMC3    C2 9297   4.685   3.345  14.886  0.6120 -0.2854 -0.4732
  628TMC3    C3 9298   0.065   3.402  14.957 -0.0115  0.3123 -0.0710
  628TMC3    C4 9299   4.581   3.559  14.848 -0.0199  0.2871 -0.3349
  628TMC3    C5 9300   4.690   3.612  14.916  0.4581 -0.1462 -0.5636
  628TMC3    C6 9301   0.068   3.536  14.973 -0.5484 -0.7877  0.1160
  628TMC3     C 9302   4.470   3.363  14.761 -0.6758  0.1622  0.0639
  628TMC3     O 9303   4.388   3.450  14.726  0.2431  0.2039 -0.2349
  628TMC3     H 9304   4.673   3.238  14.875 -0.7363 -0.3215  1.3124
  628TMC3    H1 9305   4.501   3.625  14.818  0.4631  1.6910  1.4331
  628TMC3    H2 9306   0.159   3.585  15.004  0.4876 -0.4695 -3.4459
  628TMC3    C7 9307   4.706   3.749  14.906  0.1518 -0.0175  0.9196
  628TMC3    C8 9308   0.191   3.355  14.896 -0.7479  1.0543 -0.8415
  628TMC3    O1 9309   0.048   3.800  14.998  0.2846  0.4721  0.4175
  628TMC3    O2 9310   0.213   3.402  14.787 -0.4140  0.1759  0.0804
  629MPD2     C 9311   3.025   1.515  16.336  0.9425  0.0775 -0.5225
  629MPD2    C1 9312   2.914   1.604  16.335 -0.2744  0.3960 -0.2073
  629MPD2    C2 9313   2.790   1.540  16.337  0.2723  0.8173  0.4050
  629MPD2    C3 9314   2.777   1.403  16.344 -0.8468  0.3000  0.6787
  629MPD2    C4 9315   2.889   1.322  16.352 -0.1550  0.5345 -0.4811
  629MPD2    C5 9316   3.010   1.380  16.341 -0.0003  0.5177 -0.4860
  629MPD2     H 9317   2.702   1.603  16.324  0.7984  1.7346  1.2960
  629MPD2    H1 9318   2.893   1.214  16.361  2.3903  0.7180  0.5746
  629MPD2    H2 9319   3.126   1.552  16.348 -0.4976  3.0499  2.3231
  629MPD2    H3 9320   3.101   1.321  16.336 -1.2949 -1.4763 -0.8768
  629MPD2     N 9321   2.649   1.355  16.340  0.0452  0.1649  0.1188
  629MPD2    H5 9322   2.575   1.420  16.314 -0.6266 -0.8619 -0.5289
  629MPD2    N1 9323   2.924   1.743  16.337  0.0066 -0.0264 -0.4305
  629MPD2    H7 9324   2.839   1.794  16.360  1.4082  1.9385  0.3441
  630TMC3    C1 9325   2.997   1.955  16.323  0.3672 -0.7067  0.3834
  630TMC3    C2 9326   3.073   2.049  16.250  0.2402 -0.8055 -0.5446
  630TMC3    C3 9327   3.043   2.181  16.266 -0.3321 -0.1671 -0.7100
  630TMC3    C4 9328   2.900   1.989  16.422 -0.3703 -0.3487 -0.4387
  630TMC3    C5 9329   2.895   2.120  16.445  0.0565 -0.5188 -0.0160
  630TMC3    C6 9330   2.953   2.215  16.365 -0.9986  0.1344 -0.3872
  630TMC3     C 9331   3.027   1.814  16.293  0.6055 -0.0881 -0.0696
  630TMC3     O 9332   3.127   1.770  16.232 -0.0240 -0.1534 -0.0706
  630TMC3     H 9333   3.157   2.026  16.186  2.2450  0.1527  1.7399
  630TMC3    H1 9334   2.865   1.921  16.499 -3.1711  3.0582  1.2988
  630TMC3    H2 9335   2.906   2.313  16.370  0.4242  0.8225 -0.6679
  630TMC3    C7 9336   2.942   2.147  16.577  0.2875  0.1055  0.3181
  630TMC3    C8 9337   3.151   2.273  16.266 -0.5862  0.9513  0.2970
  630TMC3    O1 9338   2.974   2.055  16.657 -0.6883  0.5682 -0.2466
  630TMC3    O2 9339   3.261   2.229  16.286 -0.0976  0.9023  0.1030
  631MPD2     C 9340   0.847   1.067  15.700  0.0522 -0.8788 -0.1269
  631MPD2    C1 9341   0.919   1.145  15.618  0.2514  0.8575 -0.5922
  631MPD2    C2 9342   1.055   1.133  15.605  0.2542 -0.4338  0.1392
  631MPD2    C3 9343   1.123   1.031  15.679  0.5014  0.4337 -0.1901
  631MPD2    C4 9344   1.049   0.951  15.758 -0.1586 -0.0772 -1.2386
  631MPD2    C5 9345   0.917   0.969  15.772 -0.2533 -0.5367 -0.0547
  631MPD2     H 9346   1.116   1.193  15.540  0.8290  0.3293  1.3773
  631MPD2    H1 9347   1.093   0.865  15.808 -0.3433 -0.5891 -1.9529
  631MPD2    H2 9348   0.739   1.075  15.699  0.0932 -0.5498 -1.6347
  631MPD2    H3 9349   0.865   0.899  15.837 -1.2524 -1.3614 -1.7496
  631MPD2     N 9350   1.256   1.017  15.646  0.2670  0.5196 -0.8781
  631MPD2    H5 9351   1.290   1.086  15.580 -1.0213  1.0295 -1.0162
  631MPD2    N1 9352   0.849   1.246  15.546 -0.5555 -0.0380  0.5762
  631MPD2    H7 9353   0.754   1.272  15.570  0.0200  3.3748 -0.9155
  632TMC3    C1 9354   0.802   1.406  15.376  0.9575 -0.3427  0.0594
  632TMC3    C2 9355   0.768   1.498  15.478 -0.3746  0.5161  0.4494
  632TMC3    C3 9356   0.775   1.627  15.437 -0.4760  0.5788 -0.6965
  632TMC3    C4 9357   0.830   1.439  15.254  0.2347 -0.1096  0.0138
  632TMC3    C5 9358   0.829   1.575  15.217  0.3966 -0.5238 -0.1063
  632TMC3    C6 9359   0.793   1.669  15.309 -0.3542  0.5119  0.0336
  632TMC3     C 9360   0.892   1.307  15.432 -0.0785  0.1333  0.0832
  632TMC3     O 9361   1.003   1.307  15.380 -0.0790  0.2978  0.0856
  632TMC3     H 9362   0.743   1.474  15.580 -0.5344  0.0092  0.2883
  632TMC3    H1 9363   0.876   1.367  15.186 -1.2347  0.3193 -1.4357
  632TMC3    H2 9364   0.800   1.770  15.272 -0.7012  0.2375 -0.7947
  632TMC3    C7 9365   0.951   1.613  15.163 -0.0064  0.3105 -0.4356
  632TMC3    C8 9366   0.788   1.723  15.543  0.7378 -0.8175  0.0652
  632TMC3    O1 9367   1.019   1.670  15.244 -0.0718 -0.6424  0.5608
  632TMC3    O2 9368   0.726   1.693  15.644 -0.2585 -0.3147  0.2345
  633MPD2     C 9369   1.010   4.572   0.085  0.1607  0.2431 -0.1836
  633MPD2    C1 9370   0.970   4.446   0.036 -0.0813 -0.1850  0.1802
  633MPD2    C2 9371   0.960   4.335   0.113 -0.0119 -0.5119  0.0505
  633MPD2    C3 9372   0.983   4.342   0.246  0.7030  0.3868  0.4049
  633MPD2    C4 9373   1.022   4.461   0.301 -0.0058  0.1192 -0.0279
  633MPD2    C5 9374   1.036   4.574   0.222  0.3598 -0.3425  0.3189
  633MPD2     H 9375   0.939   4.246   0.055  0.9002  0.2177 -1.4277
  633MPD2    H1 9376   1.043   4.459   0.407  2.5608  1.4131 -0.4931
  633MPD2    H2 9377   1.020   4.663   0.027  0.2886 -0.5283 -1.3787
  633MPD2    H3 9378   1.080   4.656   0.277  1.1405 -0.8201  0.4097
  633MPD2     N 9379   0.982   4.225   0.330  0.1090 -0.3486 -0.1352
  633MPD2    H5 9380   1.015   4.237   0.426  0.0797 -0.2743 -0.1347
  633MPD2    N1 9381   0.950   4.420  17.582 -0.1261 -0.0329 -0.4854
  633MPD2    H7 9382   0.913   4.331  17.550 -0.7522 -0.1169  0.4836
  634TMC3    C1 9383   0.950   4.451  17.345  0.4665 -0.0035 -0.4581
  634TMC3    C2 9384   0.995   4.326  17.330  0.3037  0.4414  0.2951
  634TMC3    C3 9385   1.019   4.280  17.202  0.4133 -0.3994  0.6801
  634TMC3    C4 9386   0.932   4.539  17.238 -0.2004 -0.3996  0.1594
  634TMC3    C5 9387   0.962   4.491  17.107 -0.5122  0.2507  0.0916
  634TMC3    C6 9388   1.015   4.362  17.094 -0.2497  0.3958  0.2824
  634TMC3     C 9389   0.953   4.512  17.482 -0.5379 -0.0459 -0.3230
  634TMC3     O 9390   0.941   4.632  17.488  0.3408  0.3512 -0.6137
  634TMC3     H 9391   1.004   4.256  17.413 -1.3882 -1.1302 -0.8486
  634TMC3    H1 9392   0.902   4.643  17.250  0.9317 -0.2123  1.4292
  634TMC3    H2 9393   1.060   4.328  17.001 -0.0039  0.9798  0.1891
  634TMC3    C7 9394   0.950   4.574  16.985 -0.3828 -0.9531 -0.0208
  634TMC3    C8 9395   1.011   4.137  17.194 -0.6548  0.1794  0.2754
  634TMC3    O1 9396   1.033   4.568  16.893 -0.4900 -0.0165 -0.4798
  634TMC3    O2 9397   1.026   4.072  17.297 -0.2083 -0.3098 -0.4074
  635TMC3    C1 9398   2.398   0.400   0.554  0.0028  0.1474 -0.3063
  635TMC3    C2 9399   2.486   0.498   0.595 -0.2288 -0.2882 -0.5344
  635TMC3    C3 9400   2.579   0.466   0.696  0.4076 -0.0631 -0.4410
  635TMC3    C4 9401   2.392   0.273   0.606 -1.2929  0.0793  0.5216
  635TMC3    C5 9402   2.476   0.254   0.710  0.3909 -0.4123  0.0052
  635TMC3    C6 9403   2.575   0.343   0.755 -0.2214  0.1268 -0.4816
  635TMC3     C 9404   2.288   0.445   0.464  0.4080  0.0278 -0.0579
  635TMC3     O 9405   2.282   0.566   0.451  0.2203 -0.2868 -0.5308
  635TMC3     H 9406   2.469   0.600   0.562 -0.2983 -0.2740 -0.4549
  635TMC3    H1 9407   2.337   0.188   0.567 -1.7610  1.1388 -1.1653
  635TMC3    H2 9408   2.642   0.322   0.838 -0.3871  2.6780  0.3090
  635TMC3    C7 9409   2.467   0.136   0.790 -0.1929  0.0326 -0.1252
  635TMC3    C8 9410   2.677   0.561   0.738  1.2321 -0.4360 -0.1951
  635TMC3    O1 9411   2.434   0.031   0.737 -0.2028  0.1879  0.6499
  635TMC3    O2 9412   2.725   0.553   0.848  0.1898  0.1629  0.1600
  636MPD2     C 9413   1.831   4.461  16.304 -0.3872  0.5853  0.2783
  636MPD2    C1 9414   1.907   4.499  16.409  0.7419  0.3091  0.2712
  636MPD2    C2 9415   1.959   4.396  16.488 -0.2894 -0.0192 -0.6036
  636MPD2    C3 9416   1.922   4.261  16.468  0.3939 -0.5722 -0.0179
  636MPD2    C4 9417   1.836   4.224  16.366  0.5618 -0.8921  1.1955
  636MPD2    C5 9418   1.804   4.328  16.276  0.3621  0.8616  0.3978
  636MPD2     H 9419   2.015   4.422  16.577 -0.8595 -0.6837 -0.0463
  636MPD2    H1 9420   1.799   4.124  16.350  0.7907 -0.8604  0.4799
  636MPD2    H2 9421   1.795   4.534  16.232  1.8964 -0.5313 -2.0250
  636MPD2    H3 9422   1.742   4.307  16.190  1.1516 -1.2703  0.3538
  636MPD2     N 9423   1.983   4.171  16.558  0.2942  0.1146  0.0043
  636MPD2    H5 9424   2.043   4.204  16.632 -0.2430  2.1164 -0.4601
  636MPD2    N1 9425   1.939   4.631  16.452 -0.2185 -0.3938  0.0190
  636MPD2    H7 9426   2.019   4.649  16.512  0.4534  0.6303 -1.1821
  637TMC3    C1 9427   2.038   3.964  16.640  0.1130 -0.0035 -0.6443
  637TMC3    C2 9428   2.090   4.033  16.745  0.1673 -0.4499 -0.2079
  637TMC3    C3 9429   2.223   4.013  16.768  0.3677 -0.3659 -0.4251
  637TMC3    C4 9430   2.110   3.883  16.559 -0.2392  0.4285  0.0846
  637TMC3    C5 9431   2.246   3.872  16.583  0.0612 -0.3331  0.3273
  637TMC3    C6 9432   2.300   3.924  16.697 -0.3393 -0.4562 -0.1433
  637TMC3     C 9433   1.953   4.038  16.555  0.2671 -0.3203 -0.5018
  637TMC3     O 9434   1.877   3.974  16.489  0.2287 -0.2234  0.4280
  637TMC3     H 9435   2.029   4.097  16.808  1.4446  1.0796 -0.5357
  637TMC3    H1 9436   2.060   3.857  16.467  0.5060 -0.4423 -0.0755
  637TMC3    H2 9437   2.407   3.922  16.711 -0.3608 -1.7072 -0.1781
  637TMC3    C7 9438   2.334   3.867  16.467  0.3403  0.1973 -0.1462
  637TMC3    C8 9439   2.296   4.134  16.780  0.0572 -0.8655 -0.7049
  637TMC3    O1 9440   2.453   3.866  16.487 -0.5269 -0.0774 -0.0586
  637TMC3    O2 9441   2.244   4.227  16.727  0.5389  0.5766 -0.1087
  638MPD2     C 9442   1.809   3.405  14.932 -0.5595  0.2724 -0.1092
  638MPD2    C1 9443   1.818   3.274  14.883  0.5513  0.2845 -0.2761
  638MPD2    C2 9444   1.771   3.176  14.971 -0.5538  0.0651  0.6429
  638MPD2    C3 9445   1.728   3.206  15.093 -0.1375  0.2585  0.0511
  638MPD2    C4 9446   1.707   3.334  15.132 -0.3379 -0.0163 -0.1961
  638MPD2    C5 9447   1.740   3.436  15.047  0.1721  0.2535 -0.0068
  638MPD2     H 9448   1.766   3.069  14.956  0.1411  0.1273 -0.0459
  638MPD2    H1 9449   1.661   3.362  15.226  1.5038 -1.9911  1.3014
  638MPD2    H2 9450   1.837   3.488  14.868 -0.5161  1.3949  1.3790
  638MPD2    H3 9451   1.702   3.534  15.074 -0.2218 -0.1335  0.8547
  638MPD2     N 9452   1.696   3.096  15.176 -0.1904  0.0065  0.1882
  638MPD2    H5 9453   1.702   3.003  15.137  0.7051  0.9023 -1.8059
  638MPD2    N1 9454   1.863   3.249  14.756 -0.3339  0.3944  0.9782
  638MPD2    H7 9455   1.911   3.320  14.702 -0.7893 -0.2177 -0.2330
  639TMC3    C1 9456   1.652   2.972  15.364  0.3663  0.8728 -0.8284
  639TMC3    C2 9457   1.543   2.895  15.334  0.2763  0.2500  0.0020
  639TMC3    C3 9458   1.544   2.773  15.391 -0.3821 -0.3591  0.1919
  639TMC3    C4 9459   1.769   2.924  15.418 -0.4932 -0.3715 -0.6269
  639TMC3    C5 9460   1.769   2.792  15.452  0.0942  0.0454 -0.1201
  639TMC3    C6 9461   1.655   2.717  15.453 -0.4811 -0.0002  0.2425
  639TMC3     C 9462   1.654   3.104  15.307 -0.4452  0.0100 -0.4236
  639TMC3     O 9463   1.617   3.192  15.380  0.9644  0.7235 -0.6985
  639TMC3     H 9464   1.457   2.932  15.279  0.2952  1.2797  0.6740
  639TMC3    H1 9465   1.859   2.985  15.422 -0.5080 -0.4993  1.5361
  639TMC3    H2 9466   1.659   2.609  15.447  0.6253 -0.1311  3.5194
  639TMC3    C7 9467   1.891   2.720  15.467 -0.5585 -0.8827 -0.0921
  639TMC3    C8 9468   1.465   2.682  15.306 -0.3093  0.2724 -0.1256
  639TMC3    O1 9469   1.885   2.621  15.539  0.2602 -0.4730 -0.3389
  639TMC3    O2 9470   1.507   2.567  15.283  0.1632 -0.8106  0.1693
  640MPD2     C 9471   2.493   2.412  10.262 -0.0383 -1.1724  0.1285
  640MPD2    C1 9472   2.441   2.434  10.135 -0.2985  0.0629 -0.2315
  640MPD2    C2 9473   2.337   2.521  10.111  0.3321  1.1671 -0.1676
  640MPD2    C3 9474   2.285   2.588  10.221 -0.6174  0.4616  0.2673
  640MPD2    C4 9475   2.342   2.575  10.347 -0.2398  0.2488 -0.5102
  640MPD2    C5 9476   2.449   2.489  10.370  0.0516 -0.2728 -0.4801
  640MPD2     H 9477   2.302   2.529  10.009  2.5537 -1.1946 -1.1093
  640MPD2    H1 9478   2.308   2.631  10.433  0.3197 -0.6438  0.2971
  640MPD2    H2 9479   2.569   2.339  10.288  2.0243  0.5134 -1.0882
  640MPD2    H3 9480   2.471   2.465  10.474 -2.0875 -1.5419 -0.3165
  640MPD2     N 9481   2.167   2.672  10.216 -0.3859  0.0109 -0.1976
  640MPD2    H5 9482   2.118   2.700  10.300 -3.3398  1.7452 -2.4810
  640MPD2    N1 9483   2.500   2.359  10.027  0.5725  0.3560  0.3451
  640MPD2    H7 9484   2.561   2.282  10.051  2.0652  1.8594  1.3557
  641TMC3    C1 9485   2.570   2.308   9.801 -0.1111 -0.2206 -0.0451
  641TMC3    C2 9486   2.668   2.225   9.845  0.4612 -0.1419  0.0997
  641TMC3    C3 9487   2.758   2.169   9.758 -0.5022  0.6770  0.2686
  641TMC3    C4 9488   2.567   2.361   9.677  0.1988  0.9108  0.1084
  641TMC3    C5 9489   2.654   2.308   9.589  0.1582  0.2716  0.3784
  641TMC3    C6 9490   2.748   2.215   9.629  0.2209  1.0655 -0.7730
  641TMC3     C 9491   2.492   2.392   9.893  0.0387 -0.2951  0.2293
  641TMC3     O 9492   2.434   2.487   9.843  0.2925  0.2369  0.1041
  641TMC3     H 9493   2.666   2.191   9.948 -0.0245  2.2639  0.8809
  641TMC3    H1 9494   2.480   2.418   9.647 -0.9768 -0.3929  1.0374
  641TMC3    H2 9495   2.828   2.192   9.560  2.9115  0.1269  2.6651
  641TMC3    C7 9496   2.692   2.379   9.464 -0.3764 -0.4138  0.1188
  641TMC3    C8 9497   2.862   2.084   9.797 -0.8180  0.2689  0.4029
  641TMC3    O1 9498   2.764   2.321   9.385 -0.0171 -0.2896 -0.0072
  641TMC3    O2 9499   2.908   2.024   9.703 -0.6799 -0.2850 -0.6726
  642TMC3    C1 9500   3.714   3.212  12.180 -0.1345  0.3774  0.6276
  642TMC3    C2 9501   3.805   3.265  12.097  0.0585  0.7027  0.1452
  642TMC3    C3 9502   3.796   3.217  11.969  0.2879  0.5945  0.3578
  642TMC3    C4 9503   3.610   3.135  12.142  0.1340 -0.2850  0.2417
  642TMC3    C5 9504   3.606   3.092  12.012  1.1626 -0.1748  0.2165
  642TMC3    C6 9505   3.698   3.137  11.918  0.0581 -0.0448  0.6383
  642TMC3     C 9506   3.708   3.289  12.302 -0.8101 -0.2553  0.4299
  642TMC3     O 9507   3.808   3.337  12.348 -0.1570  0.4406  0.3275
  642TMC3     H 9508   3.882   3.331  12.134 -1.1306  2.0014  0.3027
  642TMC3    H1 9509   3.548   3.086  12.216  0.2536  0.1011  0.6006
  642TMC3    H2 9510   3.705   3.093  11.819  1.1054  0.8283  0.3160
  642TMC3    C7 9511   3.492   3.018  11.962  0.2367  0.3323 -0.1781
  642TMC3    C8 9512   3.923   3.226  11.890  0.3669 -0.7111  0.0365
  642TMC3    O1 9513   3.493   2.988  11.843  0.7077  0.0995 -0.2564
  642TMC3    O2 9514   3.906   3.188  11.773 -0.0019 -0.5144 -0.5196
  643TMC3    C1 9515   2.563   3.293   0.600  0.6223 -0.5863  0.2822
  643TMC3    C2 9516   2.485   3.397   0.548  0.1100  0.1267  0.2320
  643TMC3    C3 9517   2.475   3.414   0.412  0.7857  0.2857 -0.0076
  643TMC3    C4 9518   2.638   3.219   0.518 -0.5692 -0.3927 -0.2030
  643TMC3    C5 9519   2.622   3.243   0.379  0.5593 -0.0020  0.0001
  643TMC3    C6 9520   2.535   3.328   0.325 -0.1948  0.0185 -0.4396
  643TMC3     C 9521   2.622   3.336   0.729 -0.2750  0.1652  0.3368
  643TMC3     O 9522   2.576   3.436   0.778 -0.9924 -0.2202  0.4711
  643TMC3     H 9523   2.425   3.457   0.616  0.8128  0.9838  0.1079
  643TMC3    H1 9524   2.702   3.141   0.559  3.9515  2.6353 -1.4927
  643TMC3    H2 9525   2.537   3.346   0.218 -1.8835  1.5329 -0.2209
  643TMC3    C7 9526   2.722   3.175   0.290 -0.1289  0.0092 -0.6882
  643TMC3    C8 9527   2.351   3.489   0.372 -0.5819 -0.2853 -0.3218
  643TMC3    O1 9528   2.710   3.192   0.167  0.3608 -0.5175  0.2519
  643TMC3    O2 9529   2.277   3.535   0.458  0.3285  0.3354  0.5646
  644MPD2     C 9530   2.725   2.622  10.032  0.2561 -0.1033 -0.1564
  644MPD2    C1 9531   2.821   2.660   9.942  0.8850  0.9121 -0.6670
  644MPD2    C2 9532   2.821   2.794   9.904  0.3496 -0.4850 -0.3569
  644MPD2    C3 9533   2.715   2.878   9.940  0.5198 -0.2940 -0.0037
  644MPD2    C4 9534   2.621   2.837  10.029 -1.0009 -0.1236  0.1890
  644MPD2    C5 9535   2.628   2.712  10.082 -0.1138  0.4437 -0.4096
  644MPD2     H 9536   2.905   2.836   9.850  0.5235  0.2591  0.4853
  644MPD2    H1 9537   2.548   2.907  10.066 -0.1563  1.6449 -1.5329
  644MPD2    H2 9538   2.728   2.525  10.080 -1.3807  0.3432  0.8331
  644MPD2    H3 9539   2.557   2.685  10.160 -1.9752  0.9824 -1.9199
  644MPD2     N 9540   2.720   3.009   9.893  0.0888  0.1110  0.4868
  644MPD2    H5 9541   2.804   3.043   9.846 -0.5396  0.8894 -0.0864
  644MPD2    N1 9542   2.928   2.571   9.925  0.0629 -0.0976  0.4809
  644MPD2    H7 9543   2.924   2.481   9.971 -1.0487  0.4769  1.5243
  645TMC3    C1 9544   2.652   3.232   9.837 -0.3535  0.1583  0.3304
  645TMC3    C2 9545   2.546   3.305   9.783  0.2095 -0.3494 -0.4672
  645TMC3    C3 9546   2.583   3.406   9.692  0.1411 -0.4005  0.3338
  645TMC3    C4 9547   2.781   3.266   9.820 -0.1757  0.3114 -0.1988
  645TMC3    C5 9548   2.813   3.381   9.740 -0.4570  0.3260  0.0742
  645TMC3    C6 9549   2.712   3.444   9.672 -0.6072 -0.0759 -1.0160
  645TMC3     C 9550   2.617   3.101   9.895 -0.4149  0.2011  0.4081
  645TMC3     O 9551   2.497   3.090   9.931  0.1348 -0.0824 -0.1273
  645TMC3     H 9552   2.446   3.262   9.782  0.1702 -0.2448 -0.9965
  645TMC3    H1 9553   2.859   3.213   9.874 -1.1352 -1.6864 -0.7779
  645TMC3    H2 9554   2.727   3.525   9.601  0.4401 -0.0049 -0.7145
  645TMC3    C7 9555   2.953   3.419   9.696 -0.3618  0.0929  0.3388
  645TMC3    C8 9556   2.480   3.455   9.597 -0.6678 -0.2043  0.3535
  645TMC3    O1 9557   2.964   3.531   9.642  0.0841 -0.5376 -0.6022
  645TMC3    O2 9558   2.516   3.558   9.536  0.1615  0.0881  0.0519
  646MPD2     C 9559   1.932   1.874  15.004  0.1791  0.0714 -0.7470
  646MPD2    C1 9560   1.829   1.868  15.093 -0.2734 -0.1608  0.4644
  646MPD2    C2 9561   1.705   1.906  15.053  0.5190  0.1430  0.5608
  646MPD2    C3 9562   1.682   1.966  14.928  0.0908  0.6378  0.4665
  646MPD2    C4 9563   1.795   1.970  14.840  0.2013 -0.2830 -0.7040
  646MPD2    C5 9564   1.918   1.920  14.880 -0.3700 -0.3289 -0.2583
  646MPD2     H 9565   1.621   1.897  15.120 -0.5024 -0.9079 -0.8600
  646MPD2    H1 9566   1.784   2.033  14.753  1.8935 -0.8828 -1.3482
  646MPD2    H2 9567   2.030   1.836  15.029 -0.9168 -2.3900 -0.2543
  646MPD2    H3 9568   1.994   1.911  14.804 -0.2923  0.2304 -0.2423
  646MPD2     N 9569   1.560   2.022  14.883 -0.7821  0.4273 -0.8578
  646MPD2    H5 9570   1.483   2.024  14.949 -0.8302 -0.3376 -0.8990
  646MPD2    N1 9571   1.872   1.824  15.222  0.3398 -0.3002  0.7343
  646MPD2    H7 9572   1.970   1.803  15.241 -0.0133 -0.7458  2.1212
  647TMC3    C1 9573   1.863   1.760  15.443 -0.0555  0.0306  0.1972
  647TMC3    C2 9574   1.832   1.640  15.497 -0.0525  0.6772 -0.6050
  647TMC3    C3 9575   1.910   1.590  15.603  0.0563  0.3542 -0.1686
  647TMC3    C4 9576   1.956   1.847  15.490 -0.4567 -0.2645 -0.3211
  647TMC3    C5 9577   2.030   1.796  15.599  0.1980  0.2089  0.4502
  647TMC3    C6 9578   2.007   1.673  15.647  0.3438 -0.4825  0.1557
  647TMC3     C 9579   1.787   1.810  15.332  0.6191  0.6017 -0.2928
  647TMC3     O 9580   1.664   1.816  15.340 -0.0324 -0.4835 -0.2348
  647TMC3     H 9581   1.751   1.580  15.456  0.3050  0.1933 -0.6154
  647TMC3    H1 9582   1.975   1.937  15.432 -1.2289  0.0889 -0.0278
  647TMC3    H2 9583   2.076   1.628  15.718 -0.3246 -0.5063  0.7905
  647TMC3    C7 9584   2.166   1.830  15.621 -0.5225 -0.2158  0.9184
  647TMC3    C8 9585   1.951   1.454  15.603  0.6299  0.7648  0.8724
  647TMC3    O1 9586   2.245   1.743  15.662 -0.6050 -0.5799 -0.0918
  647TMC3    O2 9587   1.992   1.410  15.709  0.2209  0.5111 -0.0367
  648TMC3    C1 9588   1.162   4.227  16.333  0.0983  0.6553 -0.4074
  648TMC3    C2 9589   1.163   4.100  16.291  0.0263 -0.2166  0.2088
  648TMC3    C3 9590   1.156   4.072  16.157 -0.6744 -0.6706  0.0547
  648TMC3    C4 9591   1.144   4.332  16.249  0.8914 -0.0797  0.0103
  648TMC3    C5 9592   1.133   4.300  16.115 -0.0862 -0.5333  0.1240
  648TMC3    C6 9593   1.142   4.173  16.069  0.1358 -0.0484 -0.5530
  648TMC3     C 9594   1.197   4.259  16.471 -0.1801 -0.5748  0.2444
  648TMC3     O 9595   1.273   4.357  16.474 -0.7852  0.3415 -0.3039
  648TMC3     H 9596   1.190   4.012  16.349 -2.1824 -0.6671  0.5543
  648TMC3    H1 9597   1.125   4.433  16.286 -1.5862 -1.1884  1.7312
  648TMC3    H2 9598   1.118   4.157  15.964 -2.3826  1.0297 -0.1573
  648TMC3    C7 9599   1.054   4.391  16.036  0.4876  0.1905 -0.2917
  648TMC3    C8 9600   1.141   3.931  16.121 -0.2250  0.2470  0.2946
  648TMC3    O1 9601   0.967   4.339  15.973  0.2962 -0.9939  0.0438
  648TMC3    O2 9602   1.124   3.856  16.218 -0.4770 -0.1911 -0.0451
  649TMC3    C1 9603   4.696   1.382  12.364 -0.0805  0.2931  0.3791
  649TMC3    C2 9604   0.005   1.397  12.233  1.1265 -0.1671  0.7959
  649TMC3    C3 9605   0.091   1.307  12.181  0.5004  0.8412  0.1252
  649TMC3    C4 9606   0.003   1.267  12.430  0.2195 -0.8154 -0.2612
  649TMC3    C5 9607   0.094   1.178  12.379 -0.4633 -1.1650  0.2139
  649TMC3    C6 9608   0.142   1.198  12.250 -0.5884 -0.1322 -0.0998
  649TMC3     C 9609   4.615   1.483  12.434 -0.3708  0.2629 -0.4539
  649TMC3     O 9610   4.615   1.482  12.557  0.7074  0.2353 -0.0141
  649TMC3     H 9611   4.719   1.496  12.190  0.4427 -0.0467  1.1938
  649TMC3    H1 9612   4.667   1.243  12.518 -0.9304 -0.3691 -0.8885
  649TMC3    H2 9613   0.210   1.128  12.202  1.2506  2.6479 -1.5371
  649TMC3    C7 9614   0.189   1.129  12.479 -0.0232 -0.1225  0.1722
  649TMC3    C8 9615   0.152   1.340  12.055 -0.5264 -0.6927  0.2716
  649TMC3    O1 9616   0.137   1.115  12.591  0.2607 -0.2908  0.0957
  649TMC3    O2 9617   0.253   1.281  12.021 -0.4683 -0.1154 -0.0009
  650TMC3    C1 9618   3.082   2.176  12.419  0.1137 -0.2351 -0.5098
  650TMC3    C2 9619   3.091   2.308  12.435  0.6262 -0.4781 -0.4098
  650TMC3    C3 9620   2.983   2.388  12.416  0.0698  0.0287  0.3032
  650TMC3    C4 9621   2.969   2.112  12.363 -0.0476 -0.1200  0.1504
  650TMC3    C5 9622   2.869   2.194  12.325  0.4451 -0.0245 -0.2550
  650TMC3    C6 9623   2.878   2.322  12.362 -0.6657 -0.0075 -0.4477
  650TMC3     C 9624   3.177   2.107  12.503  0.2309  0.0688  0.3094
  650TMC3     O 9625   3.280   2.158  12.541  0.1807 -0.2913  0.3135
  650TMC3     H 9626   3.182   2.356  12.471 -0.1576  2.5162 -2.4201
  650TMC3    H1 9627   2.961   2.007  12.338 -0.2945 -0.5500  1.9824
  650TMC3    H2 9628   2.785   2.377  12.351 -0.7541 -0.1502 -0.4251
  650TMC3    C7 9629   2.767   2.143  12.229  0.2346 -0.0719 -0.9508
  650TMC3    C8 9630   2.978   2.528  12.450  0.5547 -0.0068  0.8185
  650TMC3    O1 9631   2.773   2.025  12.192 -0.1347  0.7447  0.1708
  650TMC3    O2 9632   3.061   2.561  12.530  0.0867  0.3948  0.2218
  651MPD2     C 9633   1.876   0.010  11.052 -0.2109 -0.2121  0.8536
  651MPD2    C1 9634   1.840   4.679  10.932 -0.1469  0.1767 -0.6541
  651MPD2    C2 9635   1.940   4.637  10.849 -0.2063 -0.1382  0.0586
  651MPD2    C3 9636   2.074   4.664  10.871 -0.6617  0.6492 -0.6195
  651MPD2    C4 9637   2.113   0.005  10.988  0.0261  1.0220  0.0913
  651MPD2    C5 9638   2.009   0.035  11.075  0.3651  0.1418 -0.1368
  651MPD2     H 9639   1.909   4.582  10.761 -2.4486 -1.4754  1.7151
  651MPD2    H1 9640   2.213   0.043  11.008  0.8034 -0.2456 -1.3788
  651MPD2    H2 9641   1.799   0.047  11.118  2.4029 -0.1683  3.8615
  651MPD2    H3 9642   2.029   0.091  11.166 -0.4021 -0.3282  0.3132
  651MPD2     N 9643   2.166   4.631  10.768 -0.6048 -0.0897  0.5556
  651MPD2    H5 9644   2.129   4.605  10.677 -0.1973  0.3107  0.2724
  651MPD2    N1 9645   1.704   4.662  10.887 -0.0667  0.1805 -0.5630
  651MPD2    H7 9646   1.686   4.648  10.788 -1.7245  2.4472 -0.6046
  652TMC3    C1 9647   2.583   0.038  10.620 -0.1885  0.4164  0.4673
  652TMC3    C2 9648   2.510   4.665  10.690 -0.2999  0.4281  0.2663
  652TMC3    C3 9649   2.374   4.670  10.680  0.2315  0.7678 -0.4757
  652TMC3    C4 9650   2.526   0.130  10.534 -0.1993  0.6130  0.0128
  652TMC3    C5 9651   2.392   0.128  10.535 -0.8075  0.6419  0.7152
  652TMC3    C6 9652   2.313   0.044  10.602  0.4198 -0.3431 -0.0071
  652TMC3     C 9653   2.718   0.056  10.677  0.1369 -0.0379 -0.1712
  652TMC3     O 9654   2.745   4.714  10.780 -0.0732 -0.0284 -0.2264
  652TMC3     H 9655   2.546   4.587  10.755 -1.0216 -2.1041 -2.3298
  652TMC3    H1 9656   2.586   0.207  10.487 -1.2035 -0.0358 -2.2865
  652TMC3    H2 9657   2.206   0.061  10.599  0.7598  1.9419  0.6403
  652TMC3    C7 9658   2.330   0.241  10.479 -0.9651  0.4534  0.4189
  652TMC3    C8 9659   2.304   4.622  10.792 -0.6417 -0.7366 -0.6101
  652TMC3    O1 9660   2.219   0.238  10.426 -0.7755  0.1557 -0.0865
  652TMC3    O2 9661   2.359   4.610  10.901  0.6237  0.1459  0.3450
  653MPD2     C 9662   0.618   4.304   0.128  0.4887  0.2738  0.1443
  653MPD2    C1 9663   0.554   4.388   0.042  0.0059 -0.1979 -0.3001
  653MPD2    C2 9664   0.484   4.339  17.620  0.1562 -0.3122  0.1065
  653MPD2    C3 9665   0.479   4.202  17.599  0.3087  0.5504 -0.0566
  653MPD2    C4 9666   0.521   4.118   0.018  0.2256  0.2158 -0.9226
  653MPD2    C5 9667   0.596   4.169   0.118 -0.1206 -0.8953 -0.7170
  653MPD2     H 9668   0.441   4.408  17.548  0.4932  1.3204  1.4628
  653MPD2    H1 9669   0.515   4.010   0.024 -2.6318  0.3170 -1.8330
  653MPD2    H2 9670   0.692   4.337   0.201  0.7442  1.1646 -0.5253
  653MPD2    H3 9671   0.648   4.100   0.184  1.6099  0.3315 -0.7820
  653MPD2     N 9672   0.430   4.153  17.478 -0.7471  0.0898  0.3004
  653MPD2    H5 9673   0.416   4.221  17.404 -2.1115 -1.0307 -0.4616
  653MPD2    N1 9674   0.576   4.527   0.051  0.0932  0.5855  0.1337
  653MPD2    H7 9675   0.539   4.581  17.660 -0.2102 -2.0685 -1.5838
  654TMC3    C1 9676   0.388   4.018  17.295  0.3020 -0.2471 -0.4942
  654TMC3    C2 9677   0.339   4.130  17.231  0.3343  0.2042  0.6384
  654TMC3    C3 9678   0.327   4.122  17.099 -0.3597  0.9099 -0.5545
  654TMC3    C4 9679   0.409   3.895  17.238 -0.6054  0.0667 -0.9509
  654TMC3    C5 9680   0.407   3.899  17.101 -0.1539  0.7566  0.1663
  654TMC3    C6 9681   0.374   4.012  17.031 -0.1825  0.0304 -0.1365
  654TMC3     C 9682   0.425   4.027  17.438 -0.4503 -0.5175  0.1724
  654TMC3     O 9683   0.472   3.929  17.489 -0.1562 -0.1858  0.1927
  654TMC3     H 9684   0.302   4.217  17.283 -1.8738 -0.1901 -0.2825
  654TMC3    H1 9685   0.425   3.804  17.295 -3.3214  0.4357  0.3790
  654TMC3    H2 9686   0.388   4.024  16.924  0.0848 -0.9509 -0.2080
  654TMC3    C7 9687   0.479   3.795  17.021 -0.0210 -0.0625 -0.2760
  654TMC3    C8 9688   0.260   4.235  17.032  0.1222 -0.3041 -0.9305
  654TMC3    O1 9689   0.462   3.793  16.900 -0.3860  0.0869  0.0210
  654TMC3    O2 9690   0.180   4.289  17.107 -0.5275  0.4035  0.0063
  655MPD2     C 9691   1.845   4.246  15.711 -0.3081  0.2743 -0.4251
  655MPD2    C1 9692   1.708   4.259  15.714 -0.8012  0.3643 -0.1862
  655MPD2    C2 9693   1.626   4.188  15.631  0.9194  0.2304  0.0601
  655MPD2    C3 9694   1.689   4.111  15.536  0.1095 -0.0494  0.0317
  655MPD2    C4 9695   1.828   4.088  15.536 -0.3108 -0.6072 -1.6221
  655MPD2    C5 9696   1.904   4.157  15.627  0.1828  0.2123 -0.2212
  655MPD2     H 9697   1.519   4.199  15.635  1.1945  3.0384 -0.1528
  655MPD2    H1 9698   1.876   4.016  15.471  1.5589 -1.3766  0.5890
  655MPD2    H2 9699   1.915   4.312  15.761  0.0361  0.9680 -1.8272
  655MPD2    H3 9700   2.011   4.140  15.621 -0.1888 -3.1657  2.4111
  655MPD2     N 9701   1.620   4.061  15.422 -0.7492 -0.1956 -0.2666
  655MPD2    H5 9702   1.677   4.015  15.353  1.1060  1.6576  0.0239
  655MPD2    N1 9703   1.640   4.364  15.785 -0.4033  0.1683 -0.0511
  655MPD2    H7 9704   1.545   4.383  15.755 -0.4214 -1.6989 -1.1933
  656TMC3    C1 9705   1.624   4.556  15.916 -0.1947 -0.4923  0.3352
  656TMC3    C2 9706   1.603   4.591  16.047 -0.1016 -0.1416 -0.3606
  656TMC3    C3 9707   1.499   4.680  16.072  0.5961  0.7607  1.0532
  656TMC3    C4 9708   1.564   4.623  15.810 -0.1499  0.5023 -0.0134
  656TMC3    C5 9709   1.467   4.716  15.838  0.3883  0.2372  1.0894
  656TMC3    C6 9710   1.424   0.016  15.972 -0.5503 -0.1287 -0.0537
  656TMC3     C 9711   1.704   4.441  15.881 -0.7815  0.3642 -0.3303
  656TMC3     O 9712   1.794   4.412  15.956  0.0435  0.3169 -0.1734
  656TMC3     H 9713   1.633   4.535  16.135 -1.1433 -2.2484 -1.3357
  656TMC3    H1 9714   1.596   4.603  15.708 -0.6709  0.6406 -0.2062
  656TMC3    H2 9715   1.337   0.076  15.997  0.6479  0.3256  2.9827
  656TMC3    C7 9716   1.395   0.044  15.727 -0.4775 -0.4313  0.3696
  656TMC3    C8 9717   1.419   4.645  16.190 -0.5765  0.2513  0.5554
  656TMC3    O1 9718   1.457   0.025  15.620  0.4075  0.2073  0.5261
  656TMC3    O2 9719   1.341   4.559  16.156 -0.2880  0.2235  0.1450
  657TMC3    C1 9720   0.961   4.000  14.873  0.2152  0.0562 -0.1354
  657TMC3    C2 9721   0.852   3.996  14.957  0.0147 -0.3786 -0.4197
  657TMC3    C3 9722   0.752   4.086  14.933 -0.1427  0.7728  0.3032
  657TMC3    C4 9723   0.979   4.098  14.776 -0.5754 -0.4285 -0.4465
  657TMC3    C5 9724   0.874   4.187  14.768  0.3105  0.2241  0.6123
  657TMC3    C6 9725   0.757   4.185  14.843  0.0025 -0.3102  0.6819
  657TMC3     C 9726   1.049   3.890  14.874 -0.3251 -0.0808  0.1595
  657TMC3     O 9727   1.104   3.869  14.763 -0.3521 -0.7047 -0.0129
  657TMC3     H 9728   0.832   3.908  15.018  3.0411 -0.8562 -0.1281
  657TMC3    H1 9729   1.066   4.107  14.713  1.7041 -0.8853  2.5968
  657TMC3    H2 9730   0.685   4.265  14.846  1.1806  0.6207  3.5257
  657TMC3    C7 9731   0.898   4.297  14.670  0.3442  0.5406 -0.3462
  657TMC3    C8 9732   0.644   4.074  15.030  0.1855 -0.2169 -0.2000
  657TMC3    O1 9733   1.014   4.324  14.648 -0.4235 -0.3061 -0.1459
  657TMC3    O2 9734   0.672   4.032  15.140 -0.1039 -0.1295  0.7566
  658MPD2     C 9735   1.965   4.104  14.889 -0.0616 -0.6537  0.1476
  658MPD2    C1 9736   1.840   4.152  14.881 -0.1280 -0.6090 -0.6438
  658MPD2    C2 9737   1.819   4.269  14.820 -0.0114 -0.4666  0.2019
  658MPD2    C3 9738   1.924   4.339  14.761  0.0906 -0.0660 -0.6882
  658MPD2    C4 9739   2.054   4.289  14.769  0.2829  0.9975  0.6012
  658MPD2    C5 9740   2.072   4.170  14.831 -0.0632 -0.0635 -0.1885
  658MPD2     H 9741   1.724   4.321  14.816 -0.4331 -0.9779  3.1869
  658MPD2    H1 9742   2.141   4.336  14.724  0.9337  1.5020  2.3724
  658MPD2    H2 9743   1.982   4.015  14.948  0.3768 -0.4437  0.3359
  658MPD2    H3 9744   2.171   4.126  14.822  0.0763  0.2285 -0.1057
  658MPD2     N 9745   1.886   4.455  14.689  0.2287 -0.1974  0.4275
  658MPD2    H5 9746   1.790   4.489  14.683  0.2952  0.3332  2.4343
  658MPD2    N1 9747   1.735   4.097  14.956  0.4389  0.6433  0.5635
  658MPD2    H7 9748   1.751   4.022  15.022 -1.1125  0.0355  0.2447
  659TMC3    C1 9749   1.509   4.068  15.029  0.5578  0.4323  0.0198
  659TMC3    C2 9750   1.545   4.055  15.158  0.3502 -0.2139 -0.2046
  659TMC3    C3 9751   1.453   4.042  15.256  0.3492  0.4166 -0.1275
  659TMC3    C4 9752   1.378   4.091  15.003 -0.0565  0.1489  0.0884
  659TMC3    C5 9753   1.286   4.069  15.105 -0.5501 -0.1787 -0.4333
  659TMC3    C6 9754   1.321   4.037  15.233  0.0189 -0.1878  0.2311
  659TMC3     C 9755   1.600   4.136  14.940 -0.4931 -0.5531  0.2284
  659TMC3     O 9756   1.548   4.185  14.839 -0.1624  0.1784 -0.3231
  659TMC3     H 9757   1.647   4.080  15.185  0.0137 -0.3553  1.1613
  659TMC3    H1 9758   1.336   4.115  14.905  1.6875  1.8497 -0.2306
  659TMC3    H2 9759   1.253   4.010  15.312 -0.2151  1.6278  0.6504
  659TMC3    C7 9760   1.156   4.137  15.099 -1.0705 -0.2295  0.1499
  659TMC3    C8 9761   1.487   4.091  15.392 -0.2001  0.5895  0.0950
  659TMC3    O1 9762   1.066   4.087  15.170  0.8986 -0.2566  0.2311
  659TMC3    O2 9763   1.389   4.110  15.469  0.1800 -0.2042 -0.0167
  660MPD2     C 9764   0.058   3.447  12.666 -0.1426 -0.4225  0.0694
  660MPD2    C1 9765   4.651   3.439  12.645 -0.2419 -0.3376 -0.1287
  660MPD2    C2 9766   4.579   3.355  12.728  0.0246  0.6056 -0.3132
  660MPD2    C3 9767   4.631   3.287  12.836  0.6104  0.1803 -0.2200
  660MPD2    C4 9768   0.044   3.307  12.859 -0.0063 -0.5057  0.1682
  660MPD2    C5 9769   0.120   3.379  12.771  1.0394  0.0993 -0.4412
  660MPD2     H 9770   4.474   3.339  12.706  0.0067  1.0757 -0.5491
  660MPD2    H1 9771   0.092   3.277  12.951 -0.1600 -2.0314 -0.2525
  660MPD2    H2 9772   0.132   3.511  12.619  0.6755 -0.4543  1.3277
  660MPD2    H3 9773   0.221   3.406  12.797  0.7145  2.6297 -1.7730
  660MPD2     N 9774   4.560   3.214  12.940  0.3455  0.3306  0.0613
  660MPD2    H5 9775   4.612   3.187  13.023 -0.4098  0.0619  0.4516
  660MPD2    N1 9776   4.593   3.525  12.543 -0.3728  0.0902  0.0158
  660MPD2    H7 9777   4.653   3.569  12.474  0.0181 -2.5059 -1.3125
  661TMC3    C1 9778   4.411   3.607  12.404  0.0613 -0.8631 -0.5983
  661TMC3    C2 9779   4.490   3.599  12.292  0.2018  0.9222  0.7181
  661TMC3    C3 9780   4.443   3.638  12.171 -0.3933  0.2113 -0.7051
  661TMC3    C4 9781   4.282   3.632  12.392 -0.3868  0.4298 -0.1924
  661TMC3    C5 9782   4.234   3.650  12.268  0.7557  0.8511  0.0630
  661TMC3    C6 9783   4.308   3.663  12.152 -0.3753  0.0185 -0.0092
  661TMC3     C 9784   4.458   3.552  12.536  0.0600 -0.0317  0.1687
  661TMC3     O 9785   4.372   3.530  12.620 -0.6034  0.1733  0.3606
  661TMC3     H 9786   4.589   3.557  12.302 -0.5209 -0.4893  1.9268
  661TMC3    H1 9787   4.223   3.631  12.484 -0.5016  0.7013 -0.2642
  661TMC3    H2 9788   4.274   3.700  12.056 -3.7980 -2.7862  0.1041
  661TMC3    C7 9789   4.089   3.659  12.253  0.2958 -0.8324 -0.6531
  661TMC3    C8 9790   4.531   3.628  12.055  0.3733  0.1116  0.5326
  661TMC3    O1 9791   4.026   3.665  12.355  0.1478 -0.0394  0.0801
  661TMC3    O2 9792   4.481   3.643  11.945  0.0968  0.0981 -0.3532
  662MPD2     C 9793   0.220   3.567  17.107  0.2347 -0.6587 -0.0953
  662MPD2    C1 9794   0.241   3.456  17.182  0.4426  0.7967 -0.0443
  662MPD2    C2 9795   0.206   3.455  17.311 -0.9118  0.5834 -0.4322
  662MPD2    C3 9796   0.170   3.572  17.375 -0.0684  0.7380 -0.5807
  662MPD2    C4 9797   0.162   3.692  17.310  0.1310 -0.0088 -0.7831
  662MPD2    C5 9798   0.162   3.683  17.173 -0.2875  0.7032 -0.1125
  662MPD2     H 9799   0.232   3.360  17.356 -2.0946  0.3828 -0.1706
  662MPD2    H1 9800   0.138   3.786  17.357 -0.6155  1.2581 -3.7029
  662MPD2    H2 9801   0.232   3.582  17.001  1.9281  0.6054  0.2867
  662MPD2    H3 9802   0.146   3.774  17.116  0.4321  1.8156  1.4697
  662MPD2     N 9803   0.142   3.566  17.515  0.1326 -0.1676 -0.5149
  662MPD2    H5 9804   0.145   3.656  17.563 -0.3479  1.0942 -2.7939
  662MPD2    N1 9805   0.315   3.346  17.133  0.4025 -0.5944  0.0270
  662MPD2    H7 9806   0.337   3.272  17.199  1.2590  2.5753  3.2562
  663TMC3    C1 9807   0.453   3.211  17.010 -1.4217  0.3343  1.3475
  663TMC3    C2 9808   0.541   3.196  17.117  0.0361  0.1044 -0.0119
  663TMC3    C3 9809   0.637   3.102  17.121 -0.4878 -0.3378 -0.3403
  663TMC3    C4 9810   0.458   3.125  16.909  0.2744  0.1269 -0.5138
  663TMC3    C5 9811   0.551   3.028  16.917  0.8864 -0.0417 -0.1979
  663TMC3    C6 9812   0.630   3.009  17.023 -0.0029  0.0559 -0.0387
  663TMC3     C 9813   0.362   3.327  17.009  0.2010  0.7141  0.7259
  663TMC3     O 9814   0.323   3.376  16.904 -0.0860 -0.3675 -0.7666
  663TMC3     H 9815   0.540   3.270  17.196 -0.7243  0.8117 -0.6868
  663TMC3    H1 9816   0.383   3.126  16.831 -0.2632 -3.6218 -0.0204
  663TMC3    H2 9817   0.718   2.946  17.014  0.5001  0.8127 -0.3865
  663TMC3    C7 9818   0.534   2.910  16.838  0.0294 -0.2093 -0.4333
  663TMC3    C8 9819   0.652   3.029  17.244  0.3086  0.0162 -0.2820
  663TMC3    O1 9820   0.493   2.912  16.724 -0.3480  0.3900 -0.3749
  663TMC3    O2 9821   0.688   2.914  17.220  0.2444  0.3005 -0.4666
  664MPD2     C 9822   3.465   1.401  17.188 -0.6478  0.5213 -0.0022
  664MPD2    C1 9823   3.464   1.514  17.261 -0.4069 -0.0354 -0.1221
  664MPD2    C2 9824   3.452   1.505  17.397  0.3580  0.0408 -0.6443
  664MPD2    C3 9825   3.456   1.380  17.459  0.5320 -0.8033  0.0508
  664MPD2    C4 9826   3.463   1.264  17.381 -0.0520  0.2666 -0.6922
  664MPD2    C5 9827   3.472   1.276  17.248  0.3250 -0.3757 -0.2626
  664MPD2     H 9828   3.458   1.600  17.450  1.9038 -0.6880  0.5008
  664MPD2    H1 9829   3.455   1.167  17.428 -0.2183  0.5923 -0.0459
  664MPD2    H2 9830   3.489   1.401  17.082  1.0530 -1.2939  0.3886
  664MPD2    H3 9831   3.471   1.183  17.193 -2.7758  0.3545 -1.4199
  664MPD2     N 9832   3.465   1.378  17.603  1.3488 -0.0916 -0.2423
  664MPD2    H5 9833   3.448   1.462  17.657  1.5972 -0.3346  0.2140
  664MPD2    N1 9834   3.457   1.636  17.199 -0.1454  0.5280  0.0316
  664MPD2    H7 9835   3.427   1.707  17.265  1.2353 -1.1225  2.4196
  665TMC3    C1 9836   3.520   1.289   0.130  0.3524  0.0600  0.3875
  665TMC3    C2 9837   3.525   1.185   0.219  0.3655 -0.5369 -0.4503
  665TMC3    C3 9838   3.535   1.209   0.353  0.5199 -0.1701 -0.9201
  665TMC3    C4 9839   3.553   1.413   0.180  0.2182  0.2919 -0.1429
  665TMC3    C5 9840   3.566   1.440   0.315  0.2026 -0.3356 -0.2239
  665TMC3    C6 9841   3.546   1.336   0.393  0.4709  0.1480 -0.0813
  665TMC3     C 9842   3.513   1.268  17.672  0.0755 -0.0953 -0.2485
  665TMC3     O 9843   3.547   1.155  17.641 -0.7570 -0.8684  0.0306
  665TMC3     H 9844   3.487   1.090   0.184  0.4080 -1.3204  1.6345
  665TMC3    H1 9845   3.573   1.496   0.112  1.7666  0.5111  0.5675
  665TMC3    H2 9846   3.542   1.355   0.500 -2.9312  0.4573 -0.2705
  665TMC3    C7 9847   3.602   1.566   0.374  0.1806  0.0899  0.2178
  665TMC3    C8 9848   3.526   1.106   0.452 -0.1518  0.4833  0.7210
  665TMC3    O1 9849   3.609   1.659   0.298 -0.4271 -0.0092 -0.1489
  665TMC3    O2 9850   3.508   1.150   0.565  0.3668 -0.4342  0.0302
  666TMC3    C1 9851   2.382   1.505   9.829  0.0713  0.3555 -0.0297
  666TMC3    C2 9852   2.429   1.448   9.944  0.1131 -0.4248  0.5802
  666TMC3    C3 9853   2.538   1.514   9.993 -0.2180 -0.5580 -0.2435
  666TMC3    C4 9854   2.411   1.630   9.783  0.3452  0.2961  0.0623
  666TMC3    C5 9855   2.505   1.700   9.849  1.0039 -0.3521  0.5591
  666TMC3    C6 9856   2.571   1.642   9.949 -0.2110 -0.6336  0.0477
  666TMC3     C 9857   2.285   1.435   9.744  0.3619 -0.1687 -0.1683
  666TMC3     O 9858   2.269   1.482   9.629 -0.0851 -0.7615  0.1704
  666TMC3     H 9859   2.392   1.357   9.989  0.7086 -1.4888 -1.1141
  666TMC3    H1 9860   2.342   1.682   9.718  1.6066  1.0816 -0.6432
  666TMC3    H2 9861   2.654   1.691   9.999 -2.2124 -0.3049  3.0090
  666TMC3    C7 9862   2.471   1.839   9.874  0.7416  0.1828 -0.1083
  666TMC3    C8 9863   2.593   1.455  10.117  0.3024 -0.1758  0.2270
  666TMC3    O1 9864   2.528   1.898   9.969  0.1852  0.3511 -0.5450
  666TMC3    O2 9865   2.515   1.402  10.187 -0.9069  0.1469  0.1122
  667MPD2     C 9866   3.785   1.244  14.536 -0.2487  0.2475  0.1228
  667MPD2    C1 9867   3.725   1.251  14.662  0.7385  0.1728 -0.0412
  667MPD2    C2 9868   3.632   1.151  14.694  0.2192 -0.2948 -0.7186
  667MPD2    C3 9869   3.593   1.058  14.602 -0.0651 -0.2831  0.0477
  667MPD2    C4 9870   3.661   1.047  14.481 -0.8572 -0.2259 -0.5812
  667MPD2    C5 9871   3.761   1.132  14.461  0.2143 -0.0009 -0.4617
  667MPD2     H 9872   3.578   1.157  14.788  1.0835 -0.0355 -0.2294
  667MPD2    H1 9873   3.643   0.958  14.421  0.9040 -2.0047  1.5125
  667MPD2    H2 9874   3.858   1.314  14.497 -0.4085  0.4639  0.2111
  667MPD2    H3 9875   3.822   1.120  14.372  1.9573  0.5204  0.6556
  667MPD2     N 9876   3.492   0.958  14.639 -0.0903 -0.9169 -0.0495
  667MPD2    H5 9877   3.469   0.889  14.568  0.1013  0.5065 -1.5131
  667MPD2    N1 9878   3.749   1.358  14.751 -0.2943  0.4869 -0.1777
  667MPD2    H7 9879   3.681   1.361  14.826 -0.2465 -0.4389 -0.0964
  668TMC3    C1 9880   3.804   1.565  14.830  0.3077  0.2754  0.0199
  668TMC3    C2 9881   3.913   1.623  14.879  0.1446 -0.8576  0.8778
  668TMC3    C3 9882   3.896   1.706  14.987  0.5271  0.3098  0.3084
  668TMC3    C4 9883   3.672   1.591  14.869  0.4019 -0.7885  0.1288
  668TMC3    C5 9884   3.660   1.671  14.979  0.7231 -0.1475  0.4923
  668TMC3    C6 9885   3.773   1.725  15.037  0.2010 -0.1153  0.0646
  668TMC3     C 9886   3.830   1.460  14.728  0.3195 -0.3601 -0.2132
  668TMC3     O 9887   3.910   1.489  14.637 -0.5278 -0.0742 -0.4030
  668TMC3     H 9888   4.008   1.599  14.832  0.1078  0.9629 -0.1077
  668TMC3    H1 9889   3.588   1.550  14.815 -0.4891 -0.2928  1.1414
  668TMC3    H2 9890   3.777   1.754  15.141  0.5058 -0.9134  0.2713
  668TMC3    C7 9891   3.561   1.631  15.075  0.4826 -0.4080  0.0252
  668TMC3    C8 9892   3.980   1.826  14.986 -0.5198  0.5039 -0.0164
  668TMC3    O1 9893   3.599   1.607  15.191  0.1513  0.4806 -1.0921
  668TMC3    O2 9894   3.941   1.913  15.061 -0.0143  0.6852 -0.7090
  669TMC3    C1 9895   1.625   0.948  14.761  0.3136 -0.3206  0.6595
  669TMC3    C2 9896   1.513   0.975  14.680 -0.4306  0.6145  0.4032
  669TMC3    C3 9897   1.527   1.069  14.584  0.6715  0.0335  0.0146
  669TMC3    C4 9898   1.738   1.027  14.750 -0.3018 -0.8324 -0.1744
  669TMC3    C5 9899   1.748   1.116  14.647 -0.0450 -0.3257 -0.2199
  669TMC3    C6 9900   1.641   1.143  14.566  0.6269  0.1235 -0.4838
  669TMC3     C 9901   1.602   0.867  14.873  0.0109  0.8426 -0.1179
  669TMC3     O 9902   1.500   0.846  14.926 -0.5695 -0.0272  0.7291
  669TMC3     H 9903   1.422   0.919  14.698  0.1697  0.9628  4.3896
  669TMC3    H1 9904   1.826   1.012  14.811 -0.3848  0.2843  0.2218
  669TMC3    H2 9905   1.639   1.225  14.495 -0.3013  2.8122  2.6037
  669TMC3    C7 9906   1.880   1.163  14.623  0.3949  0.5674 -0.0407
  669TMC3    C8 9907   1.431   1.080  14.468  0.9292 -0.6672 -0.1648
  669TMC3    O1 9908   1.954   1.174  14.723  0.1486 -0.4177  0.4055
  669TMC3    O2 9909   1.373   0.988  14.408 -0.4057 -0.5098 -0.1680
  670MPD2     C 9910   0.371   4.005  13.756  0.2226  0.1620 -0.1701
  670MPD2    C1 9911   0.475   4.016  13.849  0.9489 -0.2340 -0.5072
  670MPD2    C2 9912   0.434   3.980  13.975  0.5716  0.5578  0.2085
  670MPD2    C3 9913   0.304   3.931  14.007 -0.1490 -0.5991  0.6774
  670MPD2    C4 9914   0.211   3.912  13.911  0.3340 -0.5256  0.0682
  670MPD2    C5 9915   0.245   3.956  13.788  0.1589 -0.3631  0.3193
  670MPD2     H 9916   0.500   3.990  14.061  1.1877  0.2201 -0.2192
  670MPD2    H1 9917   0.114   3.864  13.924 -0.4720  0.5292 -2.1017
  670MPD2    H2 9918   0.394   4.040  13.656 -3.6500 -3.2690 -2.2774
  670MPD2    H3 9919   0.177   3.946  13.704  1.4667 -1.5201 -0.6170
  670MPD2     N 9920   0.287   3.907  14.147 -0.2287 -0.0784 -0.1012
  670MPD2    H5 9921   0.358   3.938  14.212  0.3258  0.5063 -0.9810
  670MPD2    N1 9922   0.608   4.058  13.817  0.6656 -0.8727 -0.3105
  670MPD2    H7 9923   0.670   4.080  13.894 -0.5677 -0.0633  0.4449
  671TMC3    C1 9924   0.194   3.813  14.340  0.2952  0.7418 -0.4848
  671TMC3    C2 9925   0.314   3.764  14.373  0.4333  0.1354 -0.7338
  671TMC3    C3 9926   0.324   3.697  14.493  1.2282  0.6624 -0.0391
  671TMC3    C4 9927   0.081   3.769  14.403  0.4493  0.1632  0.3454
  671TMC3    C5 9928   0.096   3.675  14.507  0.7776  0.4430 -0.4599
  671TMC3    C6 9929   0.217   3.638  14.551  0.8088 -0.6267  0.5848
  671TMC3     C 9930   0.183   3.831  14.196 -0.3037  0.0013  0.0610
  671TMC3     O 9931   0.087   3.791  14.137 -0.1508  0.6336 -0.2119
  671TMC3     H 9932   0.406   3.797  14.326 -0.8974  3.6114 -0.9122
  671TMC3    H1 9933   4.706   3.787  14.357  0.4892 -0.9079 -0.1430
  671TMC3    H2 9934   0.227   3.571  14.636 -0.3258 -1.5422  0.0101
  671TMC3    C7 9935   4.714   3.575  14.500 -0.1040 -0.7167 -0.2651
  671TMC3    C8 9936   0.437   3.610  14.482 -0.2955  0.0088  0.3509
  671TMC3    O1 9937   4.606   3.612  14.460 -0.5817  0.0483  0.4524
  671TMC3    O2 9938   0.473   3.582  14.369 -0.2562  0.5099  0.4081
  672MPD2     C 9939   0.581   4.062   1.752  0.2908 -0.0581 -0.1155
  672MPD2    C1 9940   0.688   4.094   1.674 -0.0707 -0.0077 -0.6737
  672MPD2    C2 9941   0.749   4.213   1.702  0.2059 -0.4863 -0.1997
  672MPD2    C3 9942   0.706   4.309   1.794  0.0810 -0.9504  0.0318
  672MPD2    C4 9943   0.588   4.279   1.859  0.3416  0.6056  0.2594
  672MPD2    C5 9944   0.538   4.152   1.847 -0.0925  0.6417 -0.2358
  672MPD2     H 9945   0.832   4.233   1.635  0.2881 -0.2080 -0.0163
  672MPD2    H1 9946   0.546   4.341   1.938  0.3931 -0.0282  0.7823
  672MPD2    H2 9947   0.521   3.973   1.741 -2.5245  1.6818  1.2602
  672MPD2    H3 9948   0.456   4.125   1.912  0.1872  2.2059  0.7652
  672MPD2     N 9949   0.769   4.435   1.813 -0.0812  0.4684  0.3237
  672MPD2    H5 9950   0.719   4.506   1.866  1.8838  0.9649  1.4879
  672MPD2    N1 9951   0.723   4.011   1.563  0.2609  0.6564  0.2307
  672MPD2    H7 9952   0.816   4.030   1.526  1.4241 -0.7693  2.4464
  673TMC3    C1 9953   0.697   3.863   1.374  0.2771  0.5526  0.3583
  673TMC3    C2 9954   0.828   3.894   1.349  0.5311  0.2052  0.2805
  673TMC3    C3 9955   0.867   3.904   1.214  0.5501  0.0748 -0.7222
  673TMC3    C4 9956   0.612   3.834   1.268  0.2382 -0.2468  0.3840
  673TMC3    C5 9957   0.651   3.853   1.141  0.1271 -0.2130  0.3629
  673TMC3    C6 9958   0.775   3.895   1.117  0.0532 -0.0040 -0.6529
  673TMC3     C 9959   0.641   3.921   1.497 -0.3185  0.4529 -0.6786
  673TMC3     O 9960   0.523   3.891   1.517  0.2837 -0.2870 -0.3891
  673TMC3     H 9961   0.892   3.908   1.435  0.6108  1.8213 -0.0440
  673TMC3    H1 9962   0.506   3.822   1.286  0.5778 -2.8339  0.7634
  673TMC3    H2 9963   0.811   3.894   1.015  0.1832  1.4735 -0.6356
  673TMC3    C7 9964   0.542   3.892   1.052  0.4357 -0.1817 -0.2550
  673TMC3    C8 9965   0.996   3.861   1.175  0.0092 -0.7377 -0.7795
  673TMC3    O1 9966   0.434   3.825   1.055  0.1060 -0.1494  0.0398
  673TMC3    O2 9967   0.996   3.787   1.079 -0.3980  0.0242 -0.4885
  674MPD2     C 9968   0.228   4.587   0.241  0.1872  0.6953 -0.0715
  674MPD2    C1 9969   0.199   4.463   0.288  0.6597 -0.5729 -0.1198
  674MPD2    C2 9970   0.064   4.432   0.322 -0.1801  0.6182 -0.3978
  674MPD2    C3 9971   4.692   4.535   0.320 -0.0860 -0.1546  0.4437
  674MPD2    C4 9972   0.008   4.659   0.279  0.2167 -0.1926  0.0656
  674MPD2    C5 9973   0.136   4.687   0.237  0.0410  0.7514  0.5269
  674MPD2     H 9974   0.036   4.346   0.383  1.7040  0.9148  0.8897
  674MPD2    H1 9975   4.652   0.014   0.268 -1.0666 -1.6579 -1.0253
  674MPD2    H2 9976   0.330   4.620   0.223  0.1459  1.2792  0.7296
  674MPD2    H3 9977   0.159   0.064   0.197 -0.7468  1.7687  2.5537
  674MPD2     N 9978   4.572   4.499   0.376  0.5863  0.1749 -0.3441
  674MPD2    H5 9979   4.555   4.399   0.382 -1.7718  0.3900 -3.5079
  674MPD2    N1 9980   0.312   4.382   0.310 -0.0234  0.3724  0.7134
  674MPD2    H7 9981   0.407   4.406   0.281 -0.3254  1.7063  0.8282
  675TMC3    C1 9982   0.446   4.232   0.430 -0.3803  0.3517 -0.6614
  675TMC3    C2 9983   0.458   4.099   0.453  0.0890  0.1389  0.2253
  675TMC3    C3 9984   0.563   4.052   0.528  0.4237 -0.7625 -0.0625
  675TMC3    C4 9985   0.546   4.322   0.445  0.4291  0.0254  0.0150
  675TMC3    C5 9986   0.656   4.265   0.507 -0.4218  0.2574  0.2273
  675TMC3    C6 9987   0.665   4.135   0.543 -0.2048  0.1719  0.1138
  675TMC3     C 9988   0.320   4.266   0.382  0.6478  0.2154  0.3712
  675TMC3     O 9989   0.225   4.190   0.402  0.0608 -0.4509  0.0524
  675TMC3     H 9990   0.380   4.029   0.426 -0.7573  1.4479 -0.7238
  675TMC3    H1 9991   0.537   4.425   0.413 -0.0535  0.1980  0.7092
  675TMC3    H2 9992   0.750   4.086   0.589  0.6474  0.9762 -0.5953
  675TMC3    C7 9993   0.762   4.345   0.570 -0.1590 -0.0570  0.2763
  675TMC3    C8 9994   0.576   3.909   0.556 -0.6226 -0.4330 -0.2512
  675TMC3    O1 9995   0.828   4.288   0.653 -0.5529  0.1213  0.5915
  675TMC3    O2 9996   0.516   3.839   0.475  0.8932  0.4026  0.2483
  676MPD2     C 9997   3.044   2.489  11.146 -0.1718  0.1593  0.0635
  676MPD2    C1 9998   2.973   2.417  11.233 -0.7539 -0.4020  0.5463
  676MPD2    C2 9999   3.008   2.278  11.234  0.3828 -0.1154  0.0308
  676MPD2    C310000   3.100   2.227  11.147  0.3923 -0.0062 -0.2558
  676MPD2    C410001   3.153   2.303  11.048 -0.4811 -0.2897 -0.1207
  676MPD2    C510002   3.130   2.438  11.049  0.0384  0.2335  0.0555
  676MPD2     H10003   2.966   2.212  11.309 -0.4642  0.6948  0.2760
  676MPD2    H110004   3.219   2.264  10.971  0.2757 -1.1785  0.9699
  676MPD2    H210005   3.037   2.597  11.153 -1.4500 -0.0468  1.8471
  676MPD2    H310006   3.174   2.499  10.970  2.6679 -2.6775 -0.7430
  676MPD2     N10007   3.149   2.087  11.150  0.2980 -0.7788  0.3105
  676MPD2    H510008   3.220   2.057  11.084 -2.5218 -3.7876 -1.3069
  676MPD2    N110009   2.883   2.470  11.325 -0.6264  0.7943 -0.4795
  676MPD2    H710010   2.837   2.400  11.382 -2.1395  1.2090 -1.1871
  677TMC3    C110011   2.766   2.604  11.466 -0.0032  0.4506  0.1105
  677TMC3    C210012   2.706   2.481  11.475 -0.5599 -0.1418 -0.2234
  677TMC3    C310013   2.702   2.422  11.598 -0.1112 -0.3457 -0.1032
  677TMC3    C410014   2.810   2.675  11.569 -0.1592 -0.9690 -0.2644
  677TMC3    C510015   2.802   2.622  11.694  0.2069 -0.7864 -0.7433
  677TMC3    C610016   2.752   2.491  11.709 -0.5197  0.4164  0.2528
  677TMC3     C10017   2.857   2.603  11.355  0.6788 -0.5593 -0.4556
  677TMC3     O10018   2.902   2.702  11.302 -0.4827  0.2691 -0.0633
  677TMC3     H10019   2.675   2.425  11.388 -1.5418 -1.8268  1.2119
  677TMC3    H110020   2.854   2.771  11.544 -2.2461  0.3445  1.1050
  677TMC3    H210021   2.752   2.455  11.811 -1.3653 -0.9440 -0.2212
  677TMC3    C710022   2.783   2.706  11.810  0.4317  0.8310  0.4822
  677TMC3    C810023   2.760   2.292  11.594 -0.0575  0.2009 -0.0530
  677TMC3    O110024   2.729   2.658  11.911 -0.3528 -0.1952 -0.1305
  677TMC3    O210025   2.809   2.263  11.484  0.9889 -0.2995 -0.0547
  678MPD2     C10026   4.453   2.826   1.244  0.4297  0.0208  0.5937
  678MPD2    C110027   4.533   2.709   1.259  0.1546  0.3099 -0.8688
  678MPD2    C210028   4.466   2.592   1.257 -0.1559  0.0152  0.2826
  678MPD2    C310029   4.331   2.579   1.237 -0.0778  0.0811  0.5836
  678MPD2    C410030   4.256   2.693   1.215  0.3126  0.1635 -0.3465
  678MPD2    C510031   4.318   2.818   1.217  0.0262  0.0281  0.9236
  678MPD2     H10032   4.524   2.502   1.270 -0.7722 -0.1061  2.2777
  678MPD2    H110033   4.149   2.691   1.203  0.3404  1.1278 -0.7420
  678MPD2    H210034   4.497   2.925   1.252 -1.0966  0.7952 -0.7064
  678MPD2    H310035   4.252   2.903   1.208 -0.1951 -0.3189 -0.9113
  678MPD2     N10036   4.275   2.447   1.229 -0.0287 -0.2261 -0.0749
  678MPD2    H510037   4.324   2.362   1.258  2.5812  1.5134  0.6373
  678MPD2    N110038   4.677   2.709   1.264 -0.0645 -0.3380 -0.3221
  678MPD2    H710039   0.002   2.618   1.259 -2.2582 -1.4326 -0.4119
  679TMC3    C110040   0.370   2.680   1.333 -0.2836  0.3153  0.1819
  679TMC3    C210041   0.237   2.692   1.329 -0.2470  0.3307  0.0468
  679TMC3    C310042   0.176   2.802   1.275  0.9178  0.0396  0.5852
  679TMC3    C410043   0.448   2.768   1.268  0.2544 -0.4418 -0.2617
  679TMC3    C510044   0.394   2.873   1.217  0.1618 -0.0786 -0.6286
  679TMC3    C610045   0.255   2.893   1.220  0.0306 -0.1604  0.4973
  679TMC3     C10046   0.431   2.564   1.396 -0.8092 -0.0462 -0.4435
  679TMC3     O10047   0.559   2.574   1.400 -0.7480 -1.0092 -0.4870
  679TMC3     H10048   0.167   2.626   1.379 -3.1208  1.6725 -2.1982
  679TMC3    H110049   0.556   2.769   1.260  0.2929 -0.5579  0.2764
  679TMC3    H210050   0.208   2.982   1.181 -0.8877 -0.4696  0.9108
  679TMC3    C710051   0.459   2.937   1.104 -0.0139  0.3141 -1.0026
  679TMC3    C810052   0.035   2.822   1.260 -0.3130 -0.7834  0.2891
  679TMC3    O110053   0.429   3.050   1.072 -0.0866  0.2598  0.0407
  679TMC3    O210054   0.008   2.938   1.240  0.1566  0.6115  0.1525
  680MPD2     C10055   4.715   0.814  13.333  0.2106 -0.9474 -0.3940
  680MPD2    C110056   0.126   0.820  13.379  0.2642 -0.4733  0.6125
  680MPD2    C210057   0.139   0.854  13.510 -0.1066 -0.3590 -0.2729
  680MPD2    C310058   0.029   0.868  13.592  0.3465  0.2101  0.1512
  680MPD2    C410059   4.627   0.848  13.546 -0.2812  0.3133 -0.9272
  680MPD2    C510060   4.611   0.825  13.412 -0.2228  0.3817  0.3169
  680MPD2     H10061   0.237   0.870  13.552  0.1284 -2.5555  0.0243
  680MPD2    H110062   4.533   0.843  13.600  0.1127  0.5400 -0.2335
  680MPD2    H210063   4.696   0.798  13.228 -1.4115  0.9237 -0.3839
  680MPD2    H310064   4.511   0.803  13.375  0.0561 -0.3527 -0.0046
  680MPD2     N10065   0.036   0.892  13.733  0.4294  0.5358 -0.1620
  680MPD2    H510066   4.670   0.912  13.781 -0.0891 -1.1911 -0.3697
  680MPD2    N110067   0.235   0.792  13.308 -0.2016 -0.3510 -0.1999
  680MPD2    H710068   0.322   0.810  13.356  1.9072 -0.5081 -3.9772
  681TMC3    C110069   0.365   0.725  13.129  0.0053  1.2539  0.2644
  681TMC3    C210070   0.450   0.666  13.223 -0.0115 -0.3483  0.0569
  681TMC3    C310071   0.582   0.690  13.216  1.0522 -0.4120 -0.0443
  681TMC3    C410072   0.410   0.824  13.050 -0.4596 -0.1747  0.0057
  681TMC3    C510073   0.543   0.851  13.048  0.6199 -0.2394  0.4248
  681TMC3    C610074   0.630   0.784  13.129 -0.7843 -0.2994  0.5041
  681TMC3     C10075   0.231   0.759  13.177 -0.3541 -0.1130  0.2293
  681TMC3     O10076   0.139   0.777  13.094  0.1923 -0.2347 -0.1473
  681TMC3     H10077   0.405   0.586  13.281 -2.2485  1.0388  0.2292
  681TMC3    H110078   0.339   0.888  12.999  0.5937  0.2555 -0.9474
  681TMC3    H210079   0.734   0.815  13.129 -1.2971  1.3893 -1.7474
  681TMC3    C710080   0.599   0.920  12.933 -0.0700  0.2045  0.5233
  681TMC3    C810081   0.668   0.668  13.335  0.2024 -0.7588 -0.3774
  681TMC3    O110082   0.718   0.942  12.930 -0.3114  0.0786  0.5693
  681TMC3    O210083   0.762   0.743  13.354  0.0766  0.8864 -0.4744
  682MPD2     C10084   1.618   2.768  10.466  0.8328  0.2427  0.2360
  682MPD2    C110085   1.672   2.661  10.535  0.0371  0.3776 -0.1644
  682MPD2    C210086   1.637   2.647  10.669  0.4419 -0.2285 -0.4786
  682MPD2    C310087   1.571   2.751  10.734  0.1284  0.1155 -0.5020
  682MPD2    C410088   1.538   2.863  10.664 -0.1161 -0.3455  0.4261
  682MPD2    C510089   1.555   2.867  10.535  0.4729 -0.5465 -0.5537
  682MPD2     H10090   1.684   2.561  10.716  3.1450  1.3227 -0.2958
  682MPD2    H110091   1.481   2.939  10.715 -1.3013 -0.9945  0.0727
  682MPD2    H210092   1.639   2.786  10.361  0.8085  0.5324  0.2828
  682MPD2    H310093   1.515   2.950  10.477 -1.3570 -1.1650 -0.1590
  682MPD2     N10094   1.543   2.746  10.876  0.4787 -0.6337  0.6863
  682MPD2    H510095   1.497   2.827  10.915 -1.5234 -1.1774 -0.5753
  682MPD2    N110096   1.754   2.556  10.482 -0.2994  0.7992 -0.1548
  682MPD2    H710097   1.791   2.486  10.545  0.9163  1.5262 -0.0680
  683TMC3    C110098   1.558   2.777  11.297  0.7095 -1.2631  0.5251
  683TMC3    C210099   1.458   2.712  11.363 -0.3121  0.0694 -0.2727
  683TMC3    C310100   1.393   2.619  11.290  0.4825  0.2841  0.2443
  683TMC3    C410101   1.587   2.760  11.160  0.5763 -0.2406  0.2110
  683TMC3    C510102   1.517   2.667  11.094 -0.3671  0.1990 -0.2656
  683TMC3    C610103   1.418   2.595  11.158  1.0678 -0.9082 -0.0245
  683TMC3     C10104   1.653   2.851  11.384 -0.4588 -0.6283 -0.3021
  683TMC3     O10105   1.643   2.840  11.503 -0.0694 -0.1367  0.4894
  683TMC3     H10106   1.431   2.739  11.465 -0.3804  1.8921 -0.7684
  683TMC3    H110107   1.670   2.804  11.106  0.0574  0.4071 -0.0557
  683TMC3    H210108   1.360   2.522  11.103  1.1615 -0.6211 -0.5049
  683TMC3    C710109   1.540   2.631  10.956 -0.0489  0.5371 -0.3809
  683TMC3    C810110   1.282   2.554  11.353  0.1477  0.1849  0.1234
  683TMC3    O110111   1.557   2.515  10.922  0.4457  0.1066  0.0453
  683TMC3    O210112   1.203   2.631  11.407  0.5234 -0.5101  0.8613
  684MPD2     C10113   0.702   1.270  16.534  1.2976  0.1578  0.2152
  684MPD2    C110114   0.616   1.329  16.444 -0.3784  0.0249  0.0075
  684MPD2    C210115   0.616   1.464  16.430 -0.1599  0.0416 -0.7527
  684MPD2    C310116   0.699   1.548  16.506  0.8673 -0.6914 -0.3040
  684MPD2    C410117   0.785   1.482  16.591  0.4508 -0.0154  0.6272
  684MPD2    C510118   0.800   1.347  16.590  0.3214 -0.0493 -0.9325
  684MPD2     H10119   0.537   1.505  16.369 -1.5437  1.0114  1.7045
  684MPD2    H110120   0.857   1.545  16.643  1.4799 -0.0166 -0.8053
  684MPD2    H210121   0.698   1.164  16.557  0.2837  0.6263  2.1654
  684MPD2    H310122   0.876   1.302  16.652 -1.0043 -0.0823  0.6669
  684MPD2     N10123   0.699   1.690  16.495 -0.6749  0.3078  0.0423
  684MPD2    H510124   0.723   1.753  16.570 -0.0824  2.8840 -2.2935
  684MPD2    N110125   0.533   1.250  16.362 -0.6278  0.4984 -0.7568
  684MPD2    H710126   0.488   1.294  16.283 -2.6745  0.3336  0.3166
  685TMC3    C110127   0.514   1.051  16.229 -0.8072 -0.6106 -0.1851
  685TMC3    C210128   0.475   1.131  16.123 -0.0170  0.1492 -0.6154
  685TMC3    C310129   0.486   1.083  16.002 -0.3599 -0.8368 -0.3000
  685TMC3    C410130   0.577   0.930  16.208  1.1652 -0.8090 -0.4342
  685TMC3    C510131   0.589   0.886  16.078 -0.0904 -0.1941  0.1468
  685TMC3    C610132   0.539   0.957  15.971  0.3695  0.1105  0.3543
  685TMC3     C10133   0.540   1.107  16.357  0.4456  0.0783  0.3355
  685TMC3     O10134   0.571   1.030  16.451 -0.1088  0.6955 -0.0727
  685TMC3     H10135   0.456   1.238  16.126 -0.7151 -0.0794  3.5180
  685TMC3    H110136   0.612   0.873  16.293  0.2670  0.3751  0.7306
  685TMC3    H210137   0.549   0.924  15.868  0.5246 -0.1527  0.4555
  685TMC3    C710138   0.712   0.806  16.055  0.3767  0.1625  0.0639
  685TMC3    C810139   0.398   1.132  15.903  0.4307 -0.4144 -0.6454
  685TMC3    O110140   0.719   0.723  15.963  0.3862  0.3540 -0.5571
  685TMC3    O210141   0.440   1.137  15.791  0.0426  0.1119  0.1144
  686MPD2     C10142   1.602   1.525  16.087 -1.0625 -0.7414 -0.8005
  686MPD2    C110143   1.672   1.405  16.083 -0.2933 -0.2496 -0.0938
  686MPD2    C210144   1.684   1.333  15.962 -0.9659  0.0916 -0.1685
  686MPD2    C310145   1.622   1.389  15.847 -0.4703  1.2843  0.4582
  686MPD2    C410146   1.560   1.509  15.856  0.4474 -0.4568 -0.0339
  686MPD2    C510147   1.553   1.577  15.970 -0.0724 -0.1227 -0.2263
  686MPD2     H10148   1.718   1.230  15.962 -1.7677 -0.1639 -2.5349
  686MPD2    H110149   1.511   1.559  15.774 -0.6432 -0.4752  0.6056
  686MPD2    H210150   1.611   1.586  16.177 -0.5989  0.0741 -1.4034
  686MPD2    H310151   1.514   1.678  15.970 -0.1208 -0.1486  1.4067
  686MPD2     N10152   1.612   1.320  15.724  0.1181 -0.0616  0.6395
  686MPD2    H510153   1.552   1.361  15.653 -3.0305 -3.9219  1.0870
  686MPD2    N110154   1.723   1.359  16.206 -0.0074 -0.3402  0.0984
  686MPD2    H710155   1.688   1.409  16.288 -1.0362  0.5673 -0.8910
  687TMC3    C110156   1.626   1.117  15.586  0.5982 -0.0064  0.7964
  687TMC3    C210157   1.499   1.088  15.608 -0.9008 -0.3208  0.0448
  687TMC3    C310158   1.474   0.958  15.622  0.1353  0.1230  0.4263
  687TMC3    C410159   1.720   1.024  15.564 -0.7751  0.3414 -0.0508
  687TMC3    C510160   1.693   0.889  15.579 -0.0012  0.0333  0.6183
  687TMC3    C610161   1.564   0.859  15.613 -0.7612 -0.4541 -0.8369
  687TMC3     C10162   1.691   1.206  15.691  0.3866  0.3837 -0.1279
  687TMC3     O10163   1.771   1.145  15.759 -0.7075  1.4287 -0.2935
  687TMC3     H10164   1.432   1.157  15.658  0.1805  2.0868 -1.8537
  687TMC3    H110165   1.825   1.048  15.565 -1.4123  3.1423 -1.8379
  687TMC3    H210166   1.535   0.755  15.627 -0.1367 -0.6677 -1.1400
  687TMC3    C710167   1.793   0.799  15.636  0.3730 -0.1124  0.1985
  687TMC3    C810168   1.347   0.931  15.686  0.4205  0.2636 -0.1950
  687TMC3    O110169   1.765   0.679  15.639 -0.3798  0.5020  0.2338
  687TMC3    O210170   1.323   0.838  15.756  0.4246 -0.4335 -0.1133
  688MPD2     C10171   0.842   0.275  17.233 -0.4245 -0.5943 -1.2923
  688MPD2    C110172   0.899   0.192  17.325 -0.0987  0.3617 -0.4159
  688MPD2    C210173   1.021   0.140  17.291  0.2009 -0.7382 -0.4591
  688MPD2    C310174   1.079   0.174  17.165  0.3426 -0.2674 -1.1657
  688MPD2    C410175   1.017   0.261  17.082 -0.6460  0.2844  0.4123
  688MPD2    C510176   0.897   0.316  17.117 -1.4705  0.4444 -0.1713
  688MPD2     H10177   1.066   0.068  17.359  1.4965  1.1320  0.6533
  688MPD2    H110178   1.054   0.284  16.983  1.2401 -0.7973  0.8553
  688MPD2    H210179   0.740   0.307  17.251  0.3117  0.7155  0.5851
  688MPD2    H310180   0.853   0.377  17.039 -2.2341  2.7742  2.0628
  688MPD2     N10181   1.201   0.120  17.119  1.1688 -0.2585 -0.5708
  688MPD2    H510182   1.238   0.147  17.029  0.5815 -2.2672 -1.4220
  688MPD2    N110183   0.847   0.165  17.453  0.6544  0.1150 -0.1801
  688MPD2    H710184   0.886   0.087  17.504  2.0364 -0.0160 -1.4163
  689TMC3    C110185   0.715   0.183  17.654  0.8324  0.0194  0.6601
  689TMC3    C210186   0.691   0.275   0.068 -0.1028 -0.1500 -0.0000
  689TMC3    C310187   0.672   0.225   0.195 -1.1016 -0.3954 -0.4895
  689TMC3    C410188   0.704   0.047  17.674  0.5504 -0.0206  0.4056
  689TMC3    C510189   0.674   0.005   0.116  0.0089  0.0153  0.4860
  689TMC3    C610190   0.651   0.088   0.221 -0.4039 -0.2148  0.8579
  689TMC3     C10191   0.750   0.232  17.522  0.2164  0.2313  0.8836
  689TMC3     O10192   0.682   0.331  17.488 -0.2905  0.0989  0.0194
  689TMC3     H10193   0.682   0.382   0.056 -0.0900 -0.0557  0.8763
  689TMC3    H110194   0.720   4.700  17.591  2.5080 -0.1260  0.8780
  689TMC3    H210195   0.640   0.053   0.323  2.6621 -0.8397  0.9824
  689TMC3    C710196   0.641   4.592   0.157 -0.0595  0.4910 -0.4412
  689TMC3    C810197   0.694   0.305   0.312  0.3936 -0.4754 -0.7176
  689TMC3    O110198   0.654   4.558   0.271 -0.5868 -0.3600  0.2025
  689TMC3    O210199   0.666   0.264   0.427 -1.0076 -0.5389 -0.1120
  690MPD2     C10200   2.560   2.452  15.647  0.0919  0.3325 -0.0260
  690MPD2    C110201   2.657   2.357  15.686 -0.3565 -0.6681  0.1076
  690MPD2    C210202   2.790   2.382  15.647  0.3503  0.3060 -0.5538
  690MPD2    C310203   2.818   2.487  15.561  0.2915 -0.3717  0.0118
  690MPD2    C410204   2.718   2.570  15.518 -0.4179  0.2194  0.3098
  690MPD2    C510205   2.593   2.557  15.568  0.0241 -0.6647 -0.5762
  690MPD2     H10206   2.878   2.323  15.672 -0.8444 -0.5428  1.6741
  690MPD2    H110207   2.737   2.655  15.453 -0.2222 -1.2358 -1.5488
  690MPD2    H210208   2.456   2.430  15.671 -0.2204  2.6764  0.7952
  690MPD2    H310209   2.516   2.622  15.530  1.1772  2.3509  2.2122
  690MPD2     N10210   2.954   2.505  15.516 -0.2277  0.2712  0.0573
  690MPD2    H510211   3.019   2.458  15.578  2.4727  2.8084 -0.8991
  690MPD2    N110212   2.623   2.237  15.758 -0.7130  0.1118 -0.0006
  690MPD2    H710213   2.697   2.169  15.775 -0.5176  0.1915 -0.5086
  691TMC3    C110214   2.496   2.089  15.886 -0.5161  0.1048  0.0198
  691TMC3    C210215   2.389   2.081  15.976 -0.3405  0.5170 -0.0463
  691TMC3    C310216   2.378   1.969  16.050 -0.1805 -0.4871  0.4724
  691TMC3    C410217   2.587   1.986  15.877 -0.4094 -0.3814 -0.1639
  691TMC3    C510218   2.565   1.871  15.951 -0.3256  0.0845  0.3532
  691TMC3    C610219   2.460   1.861  16.035 -0.2988  0.1720  0.2368
  691TMC3     C10220   2.498   2.207  15.808 -0.6065  0.5608 -0.8625
  691TMC3     O10221   2.404   2.281  15.826 -0.1555  0.5653 -0.1731
  691TMC3     H10222   2.339   2.170  16.011  0.5040  0.6379  0.8299
  691TMC3    H110223   2.654   1.976  15.791 -1.4500 -1.2691 -0.8660
  691TMC3    H210224   2.449   1.776  16.102 -0.8257  1.0725  1.2968
  691TMC3    C710225   2.637   1.746  15.908  0.9360  0.0317 -0.7030
  691TMC3    C810226   2.307   1.973  16.175 -0.1568  0.4722  0.1570
  691TMC3    O110227   2.749   1.758  15.855 -0.2811 -0.2134 -0.4438
  691TMC3    O210228   2.345   1.904  16.270 -0.4774 -0.1554 -0.2480
  692TMC3    C110229   0.041   2.795  15.688  0.5356 -0.0537 -0.0300
  692TMC3    C210230   0.082   2.866  15.799  0.7982  0.6544  0.9806
  692TMC3    C310231   0.196   2.814  15.861  0.0811  0.1030 -0.0397
  692TMC3    C410232   0.099   2.676  15.646 -0.4431 -0.0131  1.0862
  692TMC3    C510233   0.189   2.618  15.732  0.4854  0.9107  0.1105
  692TMC3    C610234   0.232   2.684  15.844 -0.0394  0.0774 -0.1951
  692TMC3     C10235   4.660   2.854  15.596  0.0030  0.0802 -0.0941
  692TMC3     O10236   4.618   2.966  15.630 -0.0277  0.2801 -0.6156
  692TMC3     H10237   0.067   2.973  15.808  1.5938  0.7652  1.0532
  692TMC3    H110238   0.090   2.633  15.547  1.1426 -2.4821  1.9911
  692TMC3    H210239   0.327   2.665  15.893  0.2553 -0.5678 -1.0192
  692TMC3    C710240   0.259   2.505  15.688  0.3759  0.1466 -0.1653
  692TMC3    C810241   0.221   2.866  15.993 -0.0230 -0.4483 -0.2191
  692TMC3    O110242   0.260   2.478  15.565 -0.2477  0.1350 -0.0381
  692TMC3    O210243   0.272   2.788  16.069  0.4446 -0.3493  0.2720
  693MPD2     C10244   4.339   1.552  10.858  0.3448  0.4965 -0.6884
  693MPD2    C110245   4.308   1.431  10.923 -0.5024  0.8760 -0.4878
  693MPD2    C210246   4.407   1.339  10.953  0.0094 -0.6327 -0.4440
  693MPD2    C310247   4.538   1.371  10.925  0.2556 -0.0684 -0.9118
  693MPD2    C410248   4.568   1.491  10.870  0.4939  1.0180 -0.7376
  693MPD2    C510249   4.473   1.580  10.831 -0.9708 -0.1015  0.0735
  693MPD2     H10250   4.383   1.239  10.986  0.0521 -0.8442 -1.0589
  693MPD2    H110251   4.671   1.516  10.848  0.9253 -0.0385  0.0508
  693MPD2    H210252   4.271   1.631  10.829 -1.8358 -1.0321  0.2263
  693MPD2    H310253   4.508   1.675  10.793 -2.1790 -0.1153 -1.0480
  693MPD2     N10254   4.647   1.281  10.953  0.4024  0.7571 -0.4082
  693MPD2    H510255   0.022   1.310  10.944  0.0818  1.3969 -1.7021
  693MPD2    N110256   4.170   1.406  10.943 -0.0093 -0.7152 -0.1115
  693MPD2    H710257   4.115   1.488  10.968 -0.9945 -1.4557  0.1398
  694TMC3    C110258   3.965   1.301  10.943  0.2515 -0.2680 -0.5585
  694TMC3    C210259   3.896   1.207  10.884 -0.2642 -0.1415 -0.2688
  694TMC3    C310260   3.793   1.150  10.950  0.2387 -0.5113  0.0768
  694TMC3    C410261   3.935   1.332  11.077  0.4841 -0.3709  0.5921
  694TMC3    C510262   3.838   1.275  11.144  0.0706  0.3281 -0.1875
  694TMC3    C610263   3.750   1.198  11.073 -0.1434  0.2812 -0.1520
  694TMC3     C10264   4.106   1.294  10.915  0.7621  0.3873  1.0758
  694TMC3     O10265   4.161   1.199  10.861 -0.0036  0.6341  0.3743
  694TMC3     H10266   3.936   1.176  10.788 -1.4632 -1.2193 -0.4132
  694TMC3    H110267   4.010   1.395  11.124 -0.3174  1.1480 -0.1557
  694TMC3    H210268   3.654   1.163  11.109 -0.0253  0.5689  0.4400
  694TMC3    C710269   3.816   1.291  11.291 -0.2636  0.2626  0.5623
  694TMC3    C810270   3.690   1.077  10.876 -0.4606 -0.0134  0.3452
  694TMC3    O110271   3.841   1.398  11.340  0.0068  0.1781  0.3475
  694TMC3    O210272   3.613   1.001  10.940  0.1961  0.1820  0.6115
  695MPD2     C10273   0.308   2.793  13.812 -0.0175  0.0498 -0.3472
  695MPD2    C110274   0.288   2.870  13.925 -1.1180  0.0884 -0.2239
  695MPD2    C210275   0.161   2.930  13.949  0.2230 -0.3126  0.4396
  695MPD2    C310276   0.066   2.914  13.852 -0.0435  0.5355  0.6513
  695MPD2    C410277   0.090   2.842  13.740 -0.2847 -0.8229  0.4907
  695MPD2    C510278   0.213   2.778  13.717  0.9484  0.4868 -0.2382
  695MPD2     H10279   0.146   2.993  14.037 -1.5157  1.7992 -1.3590
  695MPD2    H110280   0.011   2.827  13.668  0.5327 -0.4253 -0.4928
  695MPD2    H210281   0.406   2.751  13.789  0.1716 -0.1480  0.8148
  695MPD2    H310282   0.230   2.728  13.622  0.3559  3.3607 -1.8674
  695MPD2     N10283   4.660   2.968  13.892 -0.1124  0.9760  0.3098
  695MPD2    H510284   4.653   3.009  13.984  1.6643  1.5460  0.1912
  695MPD2    N110285   0.393   2.893  14.019  0.0825 -0.0096  0.0646
  695MPD2    H710286   0.364   2.944  14.102 -0.2665 -0.0893 -0.0108
  696TMC3    C110287   4.443   3.059  13.870 -0.0181  0.1766  0.4702
  696TMC3    C210288   4.445   3.091  14.005  0.3393  0.2929  0.1388
  696TMC3    C310289   4.380   3.201  14.057 -0.1641 -0.4101  0.2587
  696TMC3    C410290   4.409   3.168  13.793 -0.6550 -0.1153  0.3672
  696TMC3    C510291   4.345   3.281  13.840  0.4934 -0.3344  0.2617
  696TMC3    C610292   4.335   3.299  13.971 -0.2418  0.2320  0.0240
  696TMC3     C10293   4.550   2.982  13.810 -0.1462  0.0469 -0.2949
  696TMC3     O10294   4.541   2.954  13.687 -0.2138 -0.0087  0.2490
  696TMC3     H10295   4.496   3.016  14.064  0.2611 -0.6529 -0.9804
  696TMC3    H110296   4.436   3.160  13.688 -0.2231 -0.5995  0.5158
  696TMC3    H210297   4.273   3.378  14.011  0.4513 -0.3442  2.2101
  696TMC3    C710298   4.353   3.395  13.754 -0.0707  0.0805  0.2350
  696TMC3    C810299   4.411   3.259  14.186  0.3949  0.3607  0.9616
  696TMC3    O110300   4.359   3.380  13.632 -0.2850  0.0616  0.4575
  696TMC3    O210301   4.381   3.377  14.208  0.4680 -0.3250 -0.7681
  697MPD2     C10302   3.509   0.545  15.545  0.3494 -0.2535 -0.2606
  697MPD2    C110303   3.560   0.500  15.421 -0.2853  0.2149  0.3033
  697MPD2    C210304   3.651   0.578  15.356  0.6355  0.2488 -0.6967
  697MPD2    C310305   3.694   0.695  15.406  0.0728  0.3286  0.8367
  697MPD2    C410306   3.650   0.738  15.525  0.0085  1.2902  0.2661
  697MPD2    C510307   3.558   0.660  15.594 -0.5882  0.0302  0.2262
  697MPD2     H10308   3.695   0.548  15.261  0.3835 -1.0731 -0.4036
  697MPD2    H110309   3.677   0.828  15.579  0.0200  1.7722 -0.5402
  697MPD2    H210310   3.430   0.490  15.593  2.8756 -2.3592  1.5041
  697MPD2    H310311   3.519   0.695  15.690  1.3743 -1.4235  1.5454
  697MPD2     N10312   3.798   0.762  15.327  0.3245 -0.2588 -0.5571
  697MPD2    H510313   3.812   0.728  15.233  0.4578  1.0502 -1.0129
  697MPD2    N110314   3.520   0.385  15.354  0.4977 -0.0064  0.4901
  697MPD2    H710315   3.544   0.376  15.256  0.6848  1.1031  0.4348
  698TMC3    C110316   3.976   0.892  15.288  0.3084 -0.3064 -0.2871
  698TMC3    C210317   4.081   0.931  15.366 -0.3551 -0.5683 -0.8483
  698TMC3    C310318   4.206   0.913  15.316 -0.0137  0.1607 -0.3642
  698TMC3    C410319   3.989   0.834  15.166 -0.3366 -0.0621  0.3871
  698TMC3    C510320   4.122   0.816  15.124  0.4996 -0.7128  0.6920
  698TMC3    C610321   4.231   0.852  15.196 -0.5380 -0.7898  0.0963
  698TMC3     C10322   3.864   0.870  15.373  0.9262  0.1273 -0.3283
  698TMC3     O10323   3.848   0.932  15.479 -0.5361 -0.0249 -0.4837
  698TMC3     H10324   4.067   0.959  15.470  1.0988  1.6961 -1.2709
  698TMC3    H110325   3.907   0.810  15.100 -0.8511  3.4322 -0.2855
  698TMC3    H210326   4.330   0.844  15.155  0.1909  0.0593  1.6788
  698TMC3    C710327   4.143   0.750  14.995  0.8239 -0.7068 -0.0713
  698TMC3    C810328   4.306   0.887  15.416 -0.0942 -0.5362 -0.3901
  698TMC3    O110329   4.043   0.728  14.927  0.2141 -0.0809  0.2458
  698TMC3    O210330   4.286   0.910  15.537  0.0358 -0.3624 -0.5952
  699TMC3    C110331   4.354   3.169  13.064  0.1785 -0.6803  0.7913
  699TMC3    C210332   4.383   3.066  13.156 -0.0583 -0.4143 -0.1159
  699TMC3    C310333   4.303   3.051  13.266  0.0095  0.4425 -0.0178
  699TMC3    C410334   4.253   3.259  13.089 -0.6249 -0.2621 -0.4576
  699TMC3    C510335   4.187   3.251  13.208 -0.1433 -0.4572 -0.3634
  699TMC3    C610336   4.209   3.150  13.299  0.2787 -0.1078 -1.0218
  699TMC3     C10337   4.425   3.192  12.943  0.5190  0.4789 -0.4457
  699TMC3     O10338   4.350   3.226  12.852  0.4481  0.0164  0.4047
  699TMC3     H10339   4.455   2.993  13.121  0.2482 -0.1049 -0.1198
  699TMC3    H110340   4.222   3.329  13.013 -0.4659  0.6452  0.3106
  699TMC3    H210341   4.151   3.138  13.390 -1.0207  2.4759 -1.5241
  699TMC3    C710342   4.061   3.321  13.221  0.3544  0.1564 -0.5009
  699TMC3    C810343   4.310   2.929  13.346 -0.0444  0.5724 -0.7093
  699TMC3    O110344   4.034   3.351  13.337 -0.0489 -0.2009 -1.0877
  699TMC3    O210345   4.200   2.898  13.385 -1.1218 -0.1353  0.4235
  700TMC3    C110346   3.858   0.809  17.451  0.1167 -0.0656 -0.0616
  700TMC3    C210347   3.941   0.699  17.452  0.0058  0.1004  0.3910
  700TMC3    C310348   4.025   0.671  17.563 -0.6895 -0.1339  0.5781
  700TMC3    C410349   3.870   0.906  17.552  0.2368 -0.5902  0.2583
  700TMC3    C510350   3.943   0.869  17.665  0.1019  0.3208 -0.1330
  700TMC3    C610351   4.017   0.753  17.676  0.4390 -0.2193  0.0170
  700TMC3     C10352   3.811   0.859  17.322 -0.4851 -0.0741 -0.1153
  700TMC3     O10353   3.756   0.786  17.243  0.0682 -0.3433  0.1686
  700TMC3     H10354   3.955   0.638  17.363  1.4456  0.6702  0.2327
  700TMC3    H110355   3.805   0.992  17.542  0.6277 -0.1700  1.3578
  700TMC3    H210356   4.073   0.730   0.079  1.2648 -1.2475 -0.7569
  700TMC3    C710357   3.967   0.965   0.088  0.4529  0.3796  0.0954
  700TMC3    C810358   4.136   0.584  17.548 -0.4117 -0.6032  0.2682
  700TMC3    O110359   4.048   0.935   0.173 -0.3109  0.2044  0.0587
  700TMC3    O210360   4.127   0.500  17.459 -0.2578 -0.4790 -0.2920
  701TMC3    C110361   2.931   4.242  15.352 -0.0148  0.0962  0.4226
  701TMC3    C210362   3.015   4.185  15.259  0.1752  0.4634  0.0999
  701TMC3    C310363   3.086   4.267  15.176  0.1831 -0.4908 -0.1955
  701TMC3    C410364   2.921   4.378  15.362  0.3346 -0.3217 -0.1928
  701TMC3    C510365   2.998   4.451  15.271  0.5801  0.0122  0.3375
  701TMC3    C610366   3.083   4.403  15.178 -0.3583 -0.1222 -0.7201
  701TMC3     C10367   2.847   4.157  15.426  0.5998 -0.2031  0.2537
  701TMC3     O10368   2.826   4.193  15.541 -0.0329 -0.0456  0.3878
  701TMC3     H10369   3.032   4.078  15.251  1.3708  0.6508  0.2182
  701TMC3    H110370   2.838   4.427  15.412  0.7824  0.9326 -0.6669
  701TMC3    H210371   3.147   4.470  15.121  0.3880 -0.1582  0.0633
  701TMC3    C710372   3.013   4.589  15.296  0.4583  0.5321  0.6282
  701TMC3    C810373   3.157   4.214  15.065 -1.1168  0.0295 -0.3882
  701TMC3    O110374   3.027   4.664  15.199  0.2573 -0.0758  0.2559
  701TMC3    O210375   3.256   4.269  15.031 -0.2823  0.3719  0.5225
  702MPD2     C10376   3.628   1.805  10.748 -1.1417 -0.3766 -0.0792
  702MPD2    C110377   3.549   1.903  10.815 -0.3600  0.2108 -0.1367
  702MPD2    C210378   3.525   2.025  10.760 -0.1207  0.2254  0.1221
  702MPD2    C310379   3.585   2.066  10.641 -0.4224  0.7867  0.4514
  702MPD2    C410380   3.669   1.974  10.580 -0.2699 -0.8051  0.4237
  702MPD2    C510381   3.681   1.844  10.626  1.0935 -0.3171  0.1222
  702MPD2     H10382   3.473   2.100  10.819  0.5931  1.7685 -1.2220
  702MPD2    H110383   3.705   1.998  10.481  1.5741  1.5326  1.6702
  702MPD2    H210384   3.631   1.698  10.768 -1.2382 -0.1758  0.9724
  702MPD2    H310385   3.741   1.777  10.565 -0.5308 -1.3911 -0.2954
  702MPD2     N10386   3.543   2.189  10.582  0.2288 -0.1302 -0.4461
  702MPD2    H510387   3.587   2.204  10.492  1.2458  0.1108  0.0890
  702MPD2    N110388   3.470   1.868  10.925  0.1273 -0.0783 -0.6877
  702MPD2    H710389   3.400   1.940  10.941  2.4357  1.4879  2.4227
  703TMC3    C110390   3.404   2.371  10.538 -0.0200  0.2938 -0.2442
  703TMC3    C210391   3.288   2.438  10.575  0.0239  0.0164 -0.7148
  703TMC3    C310392   3.249   2.550  10.508  0.1380 -0.1880 -0.6616
  703TMC3    C410393   3.481   2.412  10.427  0.0297  0.9956  1.0702
  703TMC3    C510394   3.432   2.527  10.368 -0.2469 -0.6711  0.2293
  703TMC3    C610395   3.326   2.598  10.411  0.4547  0.1403 -0.4673
  703TMC3     C10396   3.430   2.256  10.619 -0.5046 -0.5321  0.1746
  703TMC3     O10397   3.334   2.219  10.684  0.1248  0.3463 -0.0130
  703TMC3     H10398   3.231   2.408  10.662 -0.4559 -1.6699 -1.6230
  703TMC3    H110399   3.577   2.369  10.400 -1.4473 -0.9957 -1.0568
  703TMC3    H210400   3.314   2.700  10.375  0.4658 -0.1565 -1.3060
  703TMC3    C710401   3.485   2.549  10.233  0.0926 -0.5219 -0.0496
  703TMC3    C810402   3.155   2.639  10.577  1.0031 -0.5007  0.3530
  703TMC3    O110403   3.585   2.485  10.199 -0.3504  0.2973  0.1042
  703TMC3    O210404   3.184   2.757  10.578 -0.0858 -0.1302 -0.3344
  704TMC3    C110405   0.882   4.657  12.578 -0.9978 -0.1635  0.4412
  704TMC3    C210406   1.019   4.682  12.586 -0.3017  0.1200 -0.5670
  704TMC3    C310407   1.082   4.639  12.702  0.1668  0.5178  0.2013
  704TMC3    C410408   0.813   4.595  12.678 -0.8325 -0.5513  0.0045
  704TMC3    C510409   0.876   4.544  12.782  0.6228 -0.5479 -0.1858
  704TMC3    C610410   1.016   4.555  12.791  0.0818 -0.1075 -1.2392
  704TMC3     C10411   0.822   4.674  12.446 -0.2424 -0.0148 -0.5839
  704TMC3     O10412   0.701   4.700  12.443  0.7419 -0.4131 -0.6376
  704TMC3     H10413   1.084   0.015  12.518 -0.7997 -0.0658 -1.1889
  704TMC3    H110414   0.707   4.576  12.664 -1.1570  1.3257 -0.0595
  704TMC3    H210415   1.063   4.505  12.876  1.9675  0.4563 -1.9558
  704TMC3    C710416   0.835   4.410  12.823  0.0578  0.2100  0.0996
  704TMC3    C810417   1.220   4.608  12.681 -0.3678  0.2243  0.2310
  704TMC3    O110418   0.924   4.327  12.809 -0.2424  0.1263  0.0670
  704TMC3    O210419   1.252   4.587  12.565 -0.0827 -0.5413  0.1666
  705MPD2     C10420   0.030   2.498  16.482 -0.5287  0.6994 -0.1628
  705MPD2    C110421   0.077   2.627  16.506 -0.0654 -0.6555  0.0892
  705MPD2    C210422   4.708   2.729  16.531 -0.2626  1.4977 -0.3487
  705MPD2    C310423   4.577   2.703  16.539  0.4423  0.4942 -0.4024
  705MPD2    C410424   4.534   2.574  16.525  0.6704  0.2475  0.1697
  705MPD2    C510425   4.617   2.471  16.495 -0.0469 -0.1419  0.6474
  705MPD2     H10426   0.025   2.830  16.519 -0.6139  1.5594 -0.9872
  705MPD2    H110427   4.428   2.553  16.525  0.3480  1.8361 -1.0449
  705MPD2    H210428   0.098   2.418  16.455 -1.2091 -0.3208  1.1669
  705MPD2    H310429   4.587   2.372  16.463  0.2199  0.2920 -0.9480
  705MPD2     N10430   4.482   2.800  16.554 -0.1220  0.0956 -0.1681
  705MPD2    H510431   4.383   2.775  16.555 -0.0593 -0.2016 -1.7770
  705MPD2    N110432   0.209   2.662  16.498  0.2857 -0.4365  0.8450
  705MPD2    H710433   0.236   2.750  16.540  2.8572 -0.9539  0.2850
  706TMC3    C110434   0.656   2.624  16.329 -0.7293  0.4075 -0.0098
  706TMC3    C210435   0.679   2.761  16.329  0.1194 -0.1237  0.1430
  706TMC3    C310436   0.580   2.841  16.388 -0.6908  0.1831 -0.3346
  706TMC3    C410437   0.539   2.564  16.370 -0.3748  0.5338 -0.7346
  706TMC3    C510438   0.439   2.647  16.417 -0.4683  0.9305 -0.5496
  706TMC3    C610439   0.464   2.784  16.430  0.1884 -0.0400  0.1934
  706TMC3     C10440   0.731   2.546  16.230  1.0039 -0.1064 -0.1944
  706TMC3     O10441   0.791   2.457  16.288  0.5987  0.2725 -0.0167
  706TMC3     H10442   0.766   2.805  16.284  1.0038 -2.3431 -0.3256
  706TMC3    H110443   0.526   2.456  16.372 -1.7077  0.7423  1.3361
  706TMC3    H210444   0.384   2.849  16.462 -0.0494 -0.3268  0.1787
  706TMC3    C710445   0.312   2.581  16.440 -0.2399 -0.1592  0.2057
  706TMC3    C810446   0.593   2.983  16.378  0.4433 -0.0670  0.4868
  706TMC3    O110447   0.298   2.471  16.389  0.2588 -0.3777  0.1635
  706TMC3    O210448   0.637   3.010  16.268 -0.0815 -0.3882 -0.3925
  707TMC3    C110449   2.818   0.147   1.207  0.1102 -0.2381  0.4302
  707TMC3    C210450   2.880   0.217   1.306  0.2303 -0.0967  0.4783
  707TMC3    C310451   2.917   0.142   1.413 -1.0823  0.5584  0.4844
  707TMC3    C410452   2.791   0.016   1.226 -0.7480  0.5918 -0.3646
  707TMC3    C510453   2.820   4.673   1.343 -0.3929  0.5059  0.5003
  707TMC3    C610454   2.889   0.016   1.436 -0.0322 -0.1782  0.2463
  707TMC3     C10455   2.824   0.213   1.082 -0.9065 -1.0978 -0.2342
  707TMC3     O10456   2.858   0.330   1.095 -0.1917  0.5042 -0.2211
  707TMC3     H10457   2.914   0.320   1.302 -1.3578  0.3515 -0.9259
  707TMC3    H110458   2.724   4.688   1.157  0.8119 -0.7042 -0.9647
  707TMC3    H210459   2.913   4.691   1.532  0.8366 -1.1975 -0.4584
  707TMC3    C710460   2.795   4.529   1.358  0.2451  0.3596  0.2920
  707TMC3    C810461   2.995   0.211   1.516 -0.0516 -0.3149 -0.7174
  707TMC3    O110462   2.803   4.496   1.476  0.9692  0.1065 -0.4798
  707TMC3    O210463   2.991   0.175   1.631  0.2796 -0.1175  0.2091
  708MPD2     C10464   3.259   1.858  14.174 -0.0633  0.2188  0.2998
  708MPD2    C110465   3.228   1.727  14.141 -0.0757 -0.0558 -0.6214
  708MPD2    C210466   3.331   1.637  14.126  0.0722 -0.0994 -0.8942
  708MPD2    C310467   3.457   1.673  14.162 -0.0911 -0.2856  0.1290
  708MPD2    C410468   3.480   1.803  14.199 -0.4887  0.9671 -0.3229
  708MPD2    C510469   3.386   1.894  14.212 -0.2934  0.2930 -0.2686
  708MPD2     H10470   3.306   1.542  14.081  1.1749 -1.0687  0.5387
  708MPD2    H110471   3.578   1.830  14.237 -1.0847  1.3322  0.9432
  708MPD2    H210472   3.185   1.929  14.207 -0.8198 -0.7905  0.7693
  708MPD2    H310473   3.402   1.990  14.258 -0.6977 -0.4390  1.3890
  708MPD2     N10474   3.568   1.589  14.158 -0.7219 -0.3709  0.4952
  708MPD2    H510475   3.656   1.626  14.191 -0.5140 -1.2663  0.9652
  708MPD2    N110476   3.095   1.708  14.101 -0.5133  0.1033  0.3403
  708MPD2    H710477   3.025   1.781  14.116 -0.9560 -0.6676  2.0277
  709TMC3    C110478   2.908   1.588  14.001  0.1794 -0.1175  0.5158
  709TMC3    C210479   2.902   1.498  13.895 -0.0948  0.1475  1.2107
  709TMC3    C310480   2.841   1.376  13.923  0.0133  0.4621 -0.5729
  709TMC3    C410481   2.851   1.558  14.124  0.1992  0.2752 -0.1989
  709TMC3    C510482   2.774   1.444  14.136 -0.2502  0.7448  0.2416
  709TMC3    C610483   2.774   1.345  14.040  0.2981 -0.3686 -0.4870
  709TMC3     C10484   3.050   1.597  14.032 -0.2787 -0.1752  0.1112
  709TMC3     O10485   3.112   1.501  13.986 -0.0844  0.1477 -0.8387
  709TMC3     H10486   2.967   1.514  13.810 -0.0700  0.0065  1.2020
  709TMC3    H110487   2.863   1.626  14.208 -0.1454 -0.2356  0.2678
  709TMC3    H210488   2.731   1.246  14.053 -0.3735 -0.0895 -0.5476
  709TMC3    C710489   2.767   1.395  14.274  0.2799 -0.1808  0.6453
  709TMC3    C810490   2.906   1.270  13.851  0.6812  0.1308 -0.1848
  709TMC3    O110491   2.811   1.471  14.358 -0.0365  0.0570 -0.3808
  709TMC3    O210492   2.931   1.157  13.900  0.2188 -0.4105  0.4029
  710TMC3    C110493   0.362   3.445   0.409 -0.1277 -0.7680 -0.0303
  710TMC3    C210494   0.416   3.415   0.287  0.7196 -0.2697  0.2583
  710TMC3    C310495   0.500   3.305   0.282  0.1951  0.3600 -0.3265
  710TMC3    C410496   0.404   3.379   0.527 -1.1165  0.3627 -0.4184
  710TMC3    C510497   0.490   3.275   0.510  0.1057 -0.3935  0.5784
  710TMC3    C610498   0.542   3.235   0.390  0.0126  0.1104 -0.2665
  710TMC3     C10499   0.272   3.557   0.411  0.9537  0.4878 -0.4704
  710TMC3     O10500   0.260   3.616   0.309  0.0616  0.3219  0.6155
  710TMC3     H10501   0.381   3.464   0.196 -1.4669 -0.7902  0.8194
  710TMC3    H110502   0.361   3.401   0.623  1.6622 -1.9772  1.3667
  710TMC3    H210503   0.618   3.158   0.381 -0.5589 -0.4870  0.0086
  710TMC3    C710504   0.505   3.196   0.624  0.2725 -0.4565  0.1104
  710TMC3    C810505   0.523   3.252   0.154  0.0387  0.2410  0.2639
  710TMC3    O110506   0.466   3.241   0.732  0.6755 -0.2747  0.8449
  710TMC3    O210507   0.484   3.323   0.060  0.0488  0.5162  0.3707
  711TMC3    C110508   4.089   3.773  15.285  0.2196 -0.1913 -0.2608
  711TMC3    C210509   4.114   3.785  15.421  0.0335 -1.0057  0.5309
  711TMC3    C310510   4.233   3.723  15.467 -0.1450 -1.1398  0.1915
  711TMC3    C410511   4.169   3.695  15.203 -0.9136 -0.2419  1.3317
  711TMC3    C510512   4.278   3.639  15.263  0.0707  0.1306 -0.1817
  711TMC3    C610513   4.320   3.656  15.394  0.7846 -0.0382  0.3889
  711TMC3     C10514   3.950   3.771  15.246 -0.8591  0.0386 -1.1718
  711TMC3     O10515   3.923   3.778  15.128  0.4098 -0.6514  0.5884
  711TMC3     H10516   4.057   3.848  15.489 -0.8550  0.2701 -1.3937
  711TMC3    H110517   4.145   3.697  15.098 -0.8667  1.0416  1.3376
  711TMC3    H210518   4.390   3.591  15.446  0.6222 -0.5912 -0.0828
  711TMC3    C710519   4.308   3.506  15.200  0.5124 -0.8525  0.0979
  711TMC3    C810520   4.264   3.755  15.608  0.3860 -0.8072 -0.0325
  711TMC3    O110521   4.406   3.455  15.255  0.4620 -0.1644  0.7073
  711TMC3    O210522   4.175   3.780  15.692 -0.0575  0.1886 -0.3517
  712MPD2     C10523   0.925   0.097  13.709  0.4236 -0.1805  0.1664
  712MPD2    C110524   0.845   0.178  13.633 -0.6850  0.0611  0.0402
  712MPD2    C210525   0.913   0.277  13.565  0.4321  0.8362  0.0617
  712MPD2    C310526   1.047   0.302  13.590  0.1875 -0.4819 -0.1505
  712MPD2    C410527   1.118   0.225  13.676 -0.0198  0.1711 -0.5414
  712MPD2    C510528   1.057   0.123  13.736  0.1263  0.1213  0.3102
  712MPD2     H10529   0.857   0.345  13.502 -2.3167 -1.1840  0.3395
  712MPD2    H110530   1.225   0.242  13.680 -0.0375  0.0528  0.5988
  712MPD2    H210531   0.891   0.005  13.755 -0.1287 -0.0152  0.0855
  712MPD2    H310532   1.115   0.057  13.799  0.5080 -0.4260 -0.5989
  712MPD2     N10533   1.113   0.409  13.528  0.0563 -0.1819 -0.5009
  712MPD2    H510534   1.197   0.443  13.574  0.0023 -1.1486  0.3081
  712MPD2    N110535   0.702   0.164  13.640  0.3449  0.2230 -0.4443
  712MPD2    H710536   0.645   0.216  13.573  0.7200  0.7716 -0.3352
  713TMC3    C110537   1.149   0.606  13.402  0.3268  0.4237 -0.1267
  713TMC3    C210538   1.277   0.609  13.439  0.4160  0.9736  0.2773
  713TMC3    C310539   1.355   0.713  13.397  0.1479  0.8870  0.2353
  713TMC3    C410540   1.086   0.708  13.333 -0.1446  0.2394 -0.9359
  713TMC3    C510541   1.164   0.818  13.302  0.5910  0.5291  1.2310
  713TMC3    C610542   1.300   0.817  13.333 -0.6021  0.3079  0.1270
  713TMC3     C10543   1.070   0.489  13.425 -0.1661  0.6352  0.0644
  713TMC3     O10544   0.978   0.467  13.348 -0.0654  0.4008  0.3360
  713TMC3     H10545   1.325   0.529  13.494  0.0142 -1.5754 -3.0348
  713TMC3    H110546   0.985   0.701  13.294 -0.2699  0.2936 -0.6139
  713TMC3    H210547   1.354   0.911  13.334  0.2348 -0.1639 -0.7623
  713TMC3    C710548   1.100   0.946  13.286  0.2473 -0.3071 -0.0181
  713TMC3    C810549   1.488   0.746  13.461 -0.5047 -0.4523 -0.1572
  713TMC3    O110550   1.176   1.043  13.267 -0.3743  0.4043 -0.3056
  713TMC3    O210551   1.539   0.846  13.409  0.0347 -0.2250  0.5493
  714MPD2     C10552   2.443   4.103   1.865 -0.3645  1.1157 -0.3847
  714MPD2    C110553   2.481   3.991   1.797  0.1008 -0.3556  0.9096
  714MPD2    C210554   2.394   3.949   1.691 -0.6208  0.0048  0.2020
  714MPD2    C310555   2.282   4.020   1.658  0.5378 -0.0060 -0.4819
  714MPD2    C410556   2.248   4.132   1.729  0.6727  0.3406 -0.0797
  714MPD2    C510557   2.325   4.167   1.831  0.1834 -0.4581 -0.1851
  714MPD2     H10558   2.414   3.863   1.629 -1.2819 -0.0073  0.0104
  714MPD2    H110559   2.150   4.178   1.718  0.9113  0.2427 -2.5798
  714MPD2    H210560   2.495   4.132   1.956  0.4167  0.2175 -0.5462
  714MPD2    H310561   2.295   4.258   1.881  1.2895  0.2617 -0.8336
  714MPD2     N10562   2.206   3.978   1.540  1.1399 -0.1761 -0.0532
  714MPD2    H510563   2.238   3.894   1.492  1.3106  0.1572 -0.5238
  714MPD2    N110564   2.593   3.914   1.851 -0.2388  0.3275 -0.0882
  714MPD2    H710565   2.638   3.948   1.935  0.2011  1.0487 -0.6038
  715TMC3    C110566   2.732   3.733   1.879  0.5453 -0.4047 -0.2546
  715TMC3    C210567   2.722   3.602   1.870  0.6266  0.0548  0.3352
  715TMC3    C310568   2.846   3.540   1.866 -0.2401  0.3115  0.5220
  715TMC3    C410569   2.838   3.804   1.893  0.3461  0.1020 -0.2134
  715TMC3    C510570   2.965   3.742   1.893 -0.7785  0.2640  0.5004
  715TMC3    C610571   2.969   3.601   1.885  0.0722 -0.4264  0.3401
  715TMC3     C10572   2.632   3.795   1.798  0.3406  0.1200  0.1387
  715TMC3     O10573   2.598   3.738   1.698 -0.5571 -0.1826 -0.2146
  715TMC3     H10574   2.630   3.553   1.841 -0.3440  1.7150  0.6049
  715TMC3    H110575   2.843   3.912   1.891 -0.6616  0.1620  0.4305
  715TMC3    H210576   3.062   3.546   1.877  1.5646  2.2528 -0.8892
  715TMC3    C710577   3.085   3.827   1.911  0.0905 -0.2564  0.0882
  715TMC3    C810578   2.844   3.407   1.818 -0.5443 -0.0859 -1.2662
  715TMC3    O110579   3.087   3.944   1.872 -0.1803 -0.0295 -0.2339
  715TMC3    O210580   2.764   3.385   1.729 -0.1675  0.2075  0.0934
  716MPD2     C10581   3.002   1.981  10.115 -0.2546 -0.2650 -0.5644
  716MPD2    C110582   2.963   1.968   9.985 -0.6754 -0.3475  0.7320
  716MPD2    C210583   3.003   1.854   9.917  0.4363 -0.0897 -0.3865
  716MPD2    C310584   3.075   1.759   9.985 -0.4304 -0.6691  0.1436
  716MPD2    C410585   3.097   1.763  10.118  0.4228  0.0020  0.9567
  716MPD2    C510586   3.064   1.875  10.182 -0.4832  0.1686 -0.4511
  716MPD2     H10587   2.969   1.844   9.815  0.2644  1.5587 -0.4870
  716MPD2    H110588   3.157   1.687  10.166  1.7531 -1.1076 -2.4312
  716MPD2    H210589   2.990   2.074  10.170 -1.4117 -0.7939  0.0773
  716MPD2    H310590   3.101   1.901  10.280 -2.4212  0.8331  0.1084
  716MPD2     N10591   3.116   1.652   9.898 -0.4114 -0.6841 -0.8714
  716MPD2    H510592   3.089   1.662   9.800 -0.4546  0.3064 -0.7602
  716MPD2    N110593   2.898   2.074   9.930 -0.2907  0.0742  0.5099
  716MPD2    H710594   2.853   2.144   9.988  1.3787  1.4038  0.1885
  717TMC3    C110595   3.219   1.456   9.806  0.5862 -0.5379 -0.3717
  717TMC3    C210596   3.139   1.465   9.693 -0.2331 -0.3649  0.1341
  717TMC3    C310597   3.150   1.368   9.597  0.2939 -1.0065  0.6292
  717TMC3    C410598   3.307   1.354   9.824  0.3055 -0.0533 -1.1716
  717TMC3    C510599   3.310   1.257   9.723 -0.2098 -0.6625 -0.4507
  717TMC3    C610600   3.230   1.256   9.610  0.3248 -0.0514  0.4578
  717TMC3     C10601   3.201   1.544   9.920  0.7022 -0.7214 -0.1197
  717TMC3     O10602   3.242   1.503  10.030  0.2795  0.2080  0.0226
  717TMC3     H10603   3.065   1.542   9.675 -1.3735 -1.2613  0.9536
  717TMC3    H110604   3.369   1.346   9.912 -0.9064  0.1131 -0.3117
  717TMC3    H210605   3.250   1.184   9.531 -1.8560  0.5932 -0.6665
  717TMC3    C710606   3.423   1.163   9.735  0.3910 -0.4307 -0.4509
  717TMC3    C810607   3.058   1.389   9.482 -0.1195 -0.5166  0.3514
  717TMC3    O110608   3.459   1.120   9.850 -0.4141  0.0121 -0.6015
  717TMC3    O210609   3.005   1.498   9.464  0.1938  0.1174  0.2556
  718MPD2     C10610   2.144   1.209  12.475 -0.1918 -0.0846  0.7183
  718MPD2    C110611   2.032   1.254  12.409 -0.2350  0.0328  0.2336
  718MPD2    C210612   1.910   1.199  12.430  0.1268  0.2004 -0.3319
  718MPD2    C310613   1.902   1.082  12.504  0.0089 -0.4710 -0.4631
  718MPD2    C410614   2.011   1.029  12.563  0.3574 -0.1770  0.0600
  718MPD2    C510615   2.131   1.093  12.552  0.1944 -0.6119 -0.2820
  718MPD2     H10616   1.814   1.227  12.389 -0.2994  1.8711  1.7949
  718MPD2    H110617   2.003   0.932  12.609 -0.7036  0.5740  1.4559
  718MPD2    H210618   2.245   1.245  12.465  0.1743 -1.2189  0.3808
  718MPD2    H310619   2.210   1.040  12.602 -1.3066 -3.3607 -0.8307
  718MPD2     N10620   1.777   1.014  12.503  0.1169 -0.3715 -0.1231
  718MPD2    H510621   1.698   1.063  12.463 -0.1737  1.3392  2.5352
  718MPD2    N110622   2.052   1.362  12.313  1.1120  0.3673  0.1498
  718MPD2    H710623   2.142   1.408  12.321  1.2663 -0.0059  0.5766
  719TMC3    C110624   2.018   1.490  12.128 -0.0381 -0.0802  0.3231
  719TMC3    C210625   1.920   1.518  12.036  0.5230  0.1038  0.4000
  719TMC3    C310626   1.945   1.494  11.904  1.4039 -0.2022  0.1240
  719TMC3    C410627   2.151   1.474  12.089 -0.2786  0.6398  0.0828
  719TMC3    C510628   2.178   1.474  11.956 -0.2661  0.0590  0.3660
  719TMC3    C610629   2.073   1.482  11.870  0.3756  0.1761  0.1971
  719TMC3     C10630   1.956   1.404  12.227  0.4950  0.2342  0.3309
  719TMC3     O10631   1.835   1.388  12.226  0.1092 -0.0070  0.0164
  719TMC3     H10632   1.821   1.555  12.062  0.1461 -0.6453  0.0506
  719TMC3    H110633   2.228   1.476  12.165  1.6632  0.5903 -1.9015
  719TMC3    H210634   2.084   1.452  11.766  1.4088 -0.6529  0.5403
  719TMC3    C710635   2.308   1.447  11.915 -0.2640  0.4787  0.3411
  719TMC3    C810636   1.846   1.415  11.841 -0.1591 -0.2194  0.1055
  719TMC3    O110637   2.385   1.426  12.007 -0.0781  0.5199  0.0249
  719TMC3    O210638   1.841   1.401  11.722 -0.6357  0.0053 -0.2342
  720MPD2     C10639   0.515   2.042  13.973  0.5603  0.7519 -0.8970
  720MPD2    C110640   0.620   2.033  13.885 -0.0955  0.3515 -0.2445
  720MPD2    C210641   0.736   1.971  13.929  0.1191 -0.4767  0.0504
  720MPD2    C310642   0.750   1.913  14.053 -0.8520 -0.5123  0.0257
  720MPD2    C410643   0.641   1.916  14.137 -0.1777 -0.5129  0.0905
  720MPD2    C510644   0.528   1.983  14.092 -0.0944 -0.1646 -0.3237
  720MPD2     H10645   0.820   1.965  13.861  0.2769 -1.4685  0.3258
  720MPD2    H110646   0.624   1.871  14.234 -0.0629  1.1489  0.8877
  720MPD2    H210647   0.421   2.087  13.945  1.3641  1.9172 -1.7619
  720MPD2    H310648   0.444   1.982  14.159  0.7480  2.0069  0.7403
  720MPD2     N10649   0.883   1.870  14.096 -0.2756 -0.9967 -0.8138
  720MPD2    H510650   0.961   1.894  14.035 -0.8203 -0.5535 -1.3278
  720MPD2    N110651   0.627   2.106  13.757 -0.1933 -0.3249  0.1664
  720MPD2    H710652   0.706   2.082  13.699  0.2539  0.0226  0.6270
  721TMC3    C110653   1.053   1.837  14.251 -0.2600 -0.5844  0.0857
  721TMC3    C210654   1.086   1.792  14.372 -0.4909 -0.0499 -0.2021
  721TMC3    C310655   1.218   1.798  14.399  0.0601 -0.1153 -0.1481
  721TMC3    C410656   1.138   1.888  14.159 -0.0191  0.1304 -0.3944
  721TMC3    C510657   1.271   1.887  14.186 -0.8092  0.2941 -0.9075
  721TMC3    C610658   1.315   1.835  14.311  0.1213  0.1277  0.4482
  721TMC3     C10659   0.915   1.827  14.221  0.0696  0.1188 -0.7087
  721TMC3     O10660   0.837   1.784  14.305  0.6642  0.4997 -0.3198
  721TMC3     H10661   1.006   1.767  14.441 -1.4684  0.5209 -1.1209
  721TMC3    H110662   1.102   1.922  14.063 -1.4099  2.5954  1.0052
  721TMC3    H210663   1.418   1.843  14.342 -0.1426 -0.2460  1.4395
  721TMC3    C710664   1.372   1.953  14.108 -0.4893 -0.3986  0.2582
  721TMC3    C810665   1.264   1.758  14.529  0.1613 -0.1755  0.0175
  721TMC3    O110666   1.488   1.943  14.140 -0.0033  0.7275 -0.1230
  721TMC3    O210667   1.384   1.732  14.541 -0.6533  0.3175  0.3359
  722MPD2     C10668   4.716   0.971  12.861 -0.8634 -0.0346  0.2699
  722MPD2    C110669   4.635   1.008  12.972  0.2587 -0.0317  0.3721
  722MPD2    C210670   4.503   0.973  12.979 -0.0486 -0.4397 -0.2220
  722MPD2    C310671   4.447   0.898  12.874  0.1748  0.2582  0.1995
  722MPD2    C410672   4.523   0.868  12.764 -0.2548 -0.2068  0.1751
  722MPD2    C510673   4.660   0.899  12.763 -0.3151  0.0522  0.2305
  722MPD2     H10674   4.442   0.981  13.068  1.8028 -1.5382  1.1426
  722MPD2    H110675   4.498   0.811  12.675  0.3472 -0.0136 -0.1186
  722MPD2    H210676   0.102   0.984  12.861 -1.0108  1.1685  0.9621
  722MPD2    H310677   4.719   0.874  12.675 -0.4262  1.0809 -0.1340
  722MPD2     N10678   4.311   0.869  12.875 -0.1526 -0.3411  0.1098
  722MPD2    H510679   4.256   0.907  12.952  0.1494 -1.0956  0.6871
  722MPD2    N110680   4.688   1.067  13.086 -0.1738  0.0724 -0.1764
  722MPD2    H710681   4.625   1.075  13.165 -1.3974 -0.0690 -1.1393
  723TMC3    C110682   4.101   0.867  12.771  0.6525 -0.0256  0.3905
  723TMC3    C210683   3.992   0.776  12.746 -0.1526 -0.1636  0.3094
  723TMC3    C310684   3.868   0.812  12.780 -0.2242 -0.1128 -0.1091
  723TMC3    C410685   4.067   0.984  12.832  0.5989  0.3830 -0.0175
  723TMC3    C510686   3.932   1.009  12.870 -0.1772  0.0055 -0.5234
  723TMC3    C610687   3.832   0.924  12.846  0.3700  0.1678  0.2080
  723TMC3     C10688   4.238   0.822  12.765  0.5578 -0.7179 -0.2668
  723TMC3     O10689   4.271   0.761  12.662  0.1008 -0.1968  0.1861
  723TMC3     H10690   4.010   0.695  12.676 -3.9482  0.4559 -1.3748
  723TMC3    H110691   4.137   1.064  12.854 -0.2017  1.4848 -1.4750
  723TMC3    H210692   3.730   0.950  12.871  0.2028 -0.1571 -0.1324
  723TMC3    C710693   3.904   1.144  12.913 -0.8802 -0.9957  0.2455
  723TMC3    C810694   3.760   0.720  12.753  0.4101  0.2458 -0.1361
  723TMC3    O110695   3.960   1.231  12.853  0.0513 -0.3712  0.0274
  723TMC3    O210696   3.646   0.761  12.777  0.0268 -0.0068  0.0381
  724TMC3    C110697   0.048   3.673  10.676  0.7762  0.3454  0.1303
  724TMC3    C210698   4.712   3.586  10.582 -0.3266 -0.1619 -0.5128
  724TMC3    C310699   0.041   3.585  10.460 -0.0116  0.0354 -0.0146
  724TMC3    C410700   0.141   3.770  10.639 -0.1661  0.3450 -0.4794
  724TMC3    C510701   0.184   3.769  10.512  0.1528  0.2808 -0.3146
  724TMC3    C610702   0.148   3.669  10.424  0.7986 -0.0560 -0.6460
  724TMC3     C10703   4.684   3.693  10.793 -0.0719  0.5604 -0.3033
  724TMC3     O10704   4.705   3.807  10.840  0.2256  0.0550 -0.0148
  724TMC3     H10705   4.610   3.555  10.599  0.4355 -2.0562  0.4828
  724TMC3    H110706   0.165   3.847  10.712 -0.3410 -1.1910  1.1919
  724TMC3    H210707   0.210   3.640  10.340  1.4419 -1.6175  0.3743
  724TMC3    C710708   0.287   3.852  10.462 -0.1450 -0.1200 -0.0450
  724TMC3    C810709   4.680   3.529  10.355 -0.2625  0.3171 -0.2099
  724TMC3    O110710   0.330   3.834  10.351  0.0725  0.1569 -0.3214
  724TMC3    O210711   4.582   3.464  10.381  0.6785 -0.9187 -0.0505
  725TMC3    C110712   1.683   2.671  12.985 -0.2754 -0.0902  0.3502
  725TMC3    C210713   1.557   2.706  13.040  0.4642  0.1384 -0.3802
  725TMC3    C310714   1.481   2.608  13.102  0.7159  0.3968  0.3406
  725TMC3    C410715   1.734   2.545  12.996  0.0653 -0.3434 -0.0577
  725TMC3    C510716   1.653   2.455  13.065  0.5870  0.6037  0.7267
  725TMC3    C610717   1.527   2.482  13.116 -0.8313 -0.1543 -0.5632
  725TMC3     C10718   1.762   2.778  12.923  0.7386 -0.4720 -0.2210
  725TMC3     O10719   1.729   2.896  12.941 -0.3043  0.4860  0.0832
  725TMC3     H10720   1.506   2.802  13.032  1.6274  0.7178 -0.9051
  725TMC3    H110721   1.833   2.529  12.954 -0.0761 -1.0599 -0.1251
  725TMC3    H210722   1.465   2.404  13.158 -0.6466 -0.1049 -0.1973
  725TMC3    C710723   1.673   2.316  13.023  0.0209  0.3020 -0.3005
  725TMC3    C810724   1.335   2.607  13.080 -1.0490  0.2929  0.1170
  725TMC3    O110725   1.768   2.297  12.942  0.1110 -0.2668 -0.0625
  725TMC3    O210726   1.263   2.535  13.154 -0.6248  0.0779  0.0833
  726MPD2     C10727   3.979   3.692  10.271 -0.7904  0.2454 -0.0150
  726MPD2    C110728   3.988   3.807  10.341  0.0624  0.5215 -0.1190
  726MPD2    C210729   3.909   3.827  10.450 -0.2947 -0.0186  0.3841
  726MPD2    C310730   3.805   3.749  10.472 -0.6594  0.1992  0.7710
  726MPD2    C410731   3.792   3.633  10.397  0.3319 -0.0769 -0.3308
  726MPD2    C510732   3.872   3.607  10.292 -0.6967 -0.0990  0.3317
  726MPD2     H10733   3.928   3.915  10.511  3.6793 -0.2060 -0.6329
  726MPD2    H110734   3.703   3.575  10.415  0.0426  0.6989  0.7371
  726MPD2    H210735   4.054   3.676  10.195 -1.6445 -0.3241 -0.7433
  726MPD2    H310736   3.865   3.520  10.229 -2.1467 -0.9456  1.6618
  726MPD2     N10737   3.712   3.781  10.574  0.1074 -0.6932 -0.2407
  726MPD2    H510738   3.636   3.715  10.585 -0.7462  0.2106 -0.7228
  726MPD2    N110739   4.088   3.895  10.301  0.5094  0.1357  0.1286
  726MPD2    H710740   4.128   3.956  10.372  0.0578 -0.9588  1.3103
  727TMC3    C110741   4.205   4.027  10.153 -0.4751 -0.4226 -0.1510
  727TMC3    C210742   4.284   4.069  10.250 -0.1787 -0.2186 -0.0440
  727TMC3    C310743   4.348   4.192  10.232  0.5648  0.5101  0.9446
  727TMC3    C410744   4.180   4.104  10.043  0.0113  0.4033 -0.4384
  727TMC3    C510745   4.248   4.217  10.022  0.1493  0.2474 -0.0186
  727TMC3    C610746   4.336   4.263  10.113 -0.5963 -0.0969  0.4136
  727TMC3     C10747   4.116   3.914  10.165  0.0916  0.3287  0.2889
  727TMC3     O10748   4.043   3.877  10.072 -0.1613 -0.2630 -0.0133
  727TMC3     H10749   4.297   4.003  10.335 -3.1413 -0.7141  0.0241
  727TMC3    H110750   4.104   4.076   9.972 -0.0528 -0.3246 -0.0857
  727TMC3    H210751   4.373   4.364  10.108  2.6524 -1.2973  0.3348
  727TMC3    C710752   4.154   4.312   9.965  0.2473 -0.2124 -0.4408
  727TMC3    C810753   4.441   4.235  10.334  0.0910  0.3505 -0.0872
  727TMC3    O110754   4.044   4.274   9.920 -0.0790  0.0730  0.7842
  727TMC3    O210755   4.548   4.275  10.291  0.1066  0.2324  0.1769
  728TMC3    C110756   3.132   2.605  15.393 -0.7831  0.6730 -0.3675
  728TMC3    C210757   3.207   2.591  15.509 -0.3746 -0.4184  0.2326
  728TMC3    C310758   3.344   2.627  15.503  0.2164  0.7657 -0.0567
  728TMC3    C410759   3.182   2.652  15.277 -0.0891  0.6691  0.3856
  728TMC3    C510760   3.318   2.670  15.274  0.1041  0.5575 -0.6802
  728TMC3    C610761   3.395   2.659  15.385 -0.0894 -0.4618 -0.1837
  728TMC3     C10762   2.988   2.576  15.405  0.2874  0.0066 -1.0808
  728TMC3     O10763   2.922   2.599  15.303  0.1679 -0.1586  0.4854
  728TMC3     H10764   3.172   2.560  15.607 -2.7934 -0.5900 -0.6782
  728TMC3    H110765   3.127   2.673  15.186 -0.0759  0.6886  0.3820
  728TMC3    H210766   3.493   2.705  15.383 -0.4118  0.1360 -1.5444
  728TMC3    C710767   3.391   2.705  15.161 -0.0232  0.2076 -0.1696
  728TMC3    C810768   3.430   2.623  15.622  0.3389  0.5688  0.0540
  728TMC3    O110769   3.501   2.657  15.144 -0.0022  0.5739 -0.6283
  728TMC3    O210770   3.369   2.625  15.727  0.0736 -0.3007  0.5027
  729MPD2     C10771   1.355   3.273   0.187  0.0348 -0.0339  0.0278
  729MPD2    C110772   1.283   3.364   0.111 -1.1399  0.3597 -1.5727
  729MPD2    C210773   1.186   3.447   0.170  0.6598 -0.5067 -0.0600
  729MPD2    C310774   1.184   3.449   0.309 -0.2477  0.8587 -0.1452
  729MPD2    C410775   1.261   3.361   0.383  0.7558  0.0765 -0.4347
  729MPD2    C510776   1.342   3.270   0.319  0.2544  0.3190  0.7445
  729MPD2     H10777   1.133   3.526   0.118  0.2171  0.0399  1.2161
  729MPD2    H110778   1.264   3.369   0.492  1.9981 -0.1855 -0.4531
  729MPD2    H210779   1.434   3.212   0.146  2.4642  3.4456 -0.4947
  729MPD2    H310780   1.412   3.206   0.371  1.4012  0.2809 -0.8577
  729MPD2     N10781   1.118   3.554   0.385  0.1843 -0.4319  0.1239
  729MPD2    H510782   1.136   3.557   0.484  0.4647 -0.0996  0.0600
  729MPD2    N110783   1.307   3.368  17.657  0.1841  0.1087  0.0036
  729MPD2    H710784   1.374   3.302  17.619  0.5213 -0.2869  1.2578
  730TMC3    C110785   1.010   3.768   0.408 -0.0036 -0.0244 -0.6184
  730TMC3    C210786   1.055   3.785   0.540  0.2625  0.3832 -0.2547
  730TMC3    C310787   1.047   3.917   0.591  0.5117 -0.3467  0.1405
  730TMC3    C410788   0.951   3.869   0.332  0.7573 -0.1815  0.0235
  730TMC3    C510789   0.957   3.998   0.388  0.7259  0.1163  0.0880
  730TMC3    C610790   0.989   4.017   0.518 -0.5350  0.0070  0.6343
  730TMC3     C10791   1.037   3.647   0.330 -0.3433 -0.3419 -0.1758
  730TMC3     O10792   0.984   3.650   0.221  0.5351  0.4888  0.3747
  730TMC3     H10793   1.078   3.710   0.614  0.5427 -0.5763 -1.3061
  730TMC3    H110794   0.894   3.840   0.244 -0.4839  0.8584  0.4882
  730TMC3    H210795   0.959   4.109   0.567 -4.3062 -2.9953  3.9386
  730TMC3    C710796   0.931   4.103   0.295 -0.1282 -0.2329 -0.2803
  730TMC3    C810797   1.096   3.948   0.728  0.2678  0.4034  0.3089
  730TMC3    O110798   0.875   4.070   0.191  0.3068 -0.0784 -0.3520
  730TMC3    O210799   1.117   3.851   0.800  0.0353  0.1239 -0.2325
  731MPD2     C10800   0.630   1.512  12.065 -0.8506 -0.0274  0.6019
  731MPD2    C110801   0.767   1.529  12.094  0.1288  0.7276  0.2830
  731MPD2    C210802   0.806   1.513  12.227 -0.0066 -0.0420  0.0451
  731MPD2    C310803   0.719   1.459  12.318  0.4958 -0.1521 -0.0032
  731MPD2    C410804   0.589   1.428  12.278  0.5822  0.2760 -0.0047
  731MPD2    C510805   0.549   1.462  12.153  0.1882  0.6268  0.1723
  731MPD2     H10806   0.910   1.529  12.256 -0.0573  0.8409 -0.2623
  731MPD2    H110807   0.519   1.371  12.338  0.8286 -0.7571 -0.7064
  731MPD2    H210808   0.596   1.534  11.964  0.1277  0.3182  0.3482
  731MPD2    H310809   0.454   1.429  12.113  1.4326 -0.8724 -1.5281
  731MPD2     N10810   0.759   1.410  12.442 -0.4827 -0.4649 -0.2626
  731MPD2    H510811   0.688   1.401  12.513 -1.1326  0.0714 -0.8460
  731MPD2    N110812   0.854   1.574  11.987  0.1931  0.5523  0.6612
  731MPD2    H710813   0.809   1.587  11.898 -0.2430  0.5834  0.8852
  732TMC3    C110814   1.036   1.666  11.873  0.0438 -0.3643 -0.4811
  732TMC3    C210815   0.940   1.694  11.780 -0.1159 -0.0001 -0.6366
  732TMC3    C310816   0.931   1.822  11.720 -0.2187 -0.4131  0.2211
  732TMC3    C410817   1.130   1.765  11.901  0.5756  0.9239 -0.2946
  732TMC3    C510818   1.125   1.885  11.833 -0.9607 -0.1004  0.7755
  732TMC3    C610819   1.027   1.917  11.745 -0.3940  0.4988 -0.8151
  732TMC3     C10820   0.995   1.590  11.994  0.1929 -0.4866 -0.0881
  732TMC3     O10821   1.062   1.617  12.094  0.3948  0.2271  0.0376
  732TMC3     H10822   0.863   1.625  11.748 -0.3852  0.7912 -1.6985
  732TMC3    H110823   1.205   1.745  11.976 -1.6338 -1.5368  1.2770
  732TMC3    H210824   1.026   2.011  11.692 -0.4988  2.7754  3.2913
  732TMC3    C710825   1.216   1.992  11.868 -0.7460  0.0577 -0.2186
  732TMC3    C810826   0.797   1.861  11.677  0.3052 -0.1452  0.8028
  732TMC3    O110827   1.203   2.099  11.810 -0.8141 -0.7504 -0.3469
  732TMC3    O210828   0.774   1.925  11.576  0.2973 -0.3918 -0.5262
  733TMC3    C110829   1.418   0.733  12.506  0.8972 -0.4513 -0.3392
  733TMC3    C210830   1.534   0.772  12.567 -0.6128  0.2541 -0.2768
  733TMC3    C310831   1.616   0.849  12.495  1.0535  0.2007 -0.4999
  733TMC3    C410832   1.386   0.770  12.374  0.1853  0.9714  0.3139
  733TMC3    C510833   1.484   0.842  12.303 -0.8934  0.0029 -0.4203
  733TMC3    C610834   1.607   0.870  12.363 -0.0590  0.0078 -0.2908
  733TMC3     C10835   1.312   0.655  12.577  0.0607  0.3600  0.7862
  733TMC3     O10836   1.207   0.649  12.516 -0.5527 -0.4787 -0.2266
  733TMC3     H10837   1.544   0.770  12.675  1.2743 -1.1346 -0.4684
  733TMC3    H110838   1.300   0.730  12.321  2.0604 -0.2255 -1.8618
  733TMC3    H210839   1.695   0.905  12.310  1.3088 -1.9473  0.7191
  733TMC3    C710840   1.445   0.909  12.175  0.7407 -0.4089  0.3087
  733TMC3    C810841   1.742   0.887  12.556 -0.3566  0.0042  0.1791
  733TMC3    O110842   1.353   0.866  12.113  0.3017 -0.2027 -0.4630
  733TMC3    O210843   1.790   0.825  12.650 -0.2474  0.7367 -0.0295
  734MPD2     C10844   3.839   2.906  12.309 -0.2129 -0.2368  0.7001
  734MPD2    C110845   3.769   2.821  12.228  0.1095 -0.5298  0.5727
  734MPD2    C210846   3.807   2.818  12.097 -0.7080 -0.2977  0.1807
  734MPD2    C310847   3.923   2.874  12.049  0.2733  0.3537  0.0597
  734MPD2    C410848   4.003   2.945  12.134  0.8547 -0.2929  0.2607
  734MPD2    C510849   3.952   2.966  12.260 -0.0951  0.2480  0.4253
  734MPD2     H10850   3.753   2.745  12.037 -1.1379 -0.7005  1.0608
  734MPD2    H110851   4.093   2.997  12.105 -0.4154  1.2742 -0.9092
  734MPD2    H210852   3.813   2.928  12.412  1.2661  0.0987  0.9931
  734MPD2    H310853   4.013   3.026  12.326 -0.6174 -1.9853  2.9167
  734MPD2     N10854   3.959   2.847  11.916 -0.0991 -0.4537  0.0098
  734MPD2    H510855   3.892   2.795  11.861 -0.1391  1.0933 -1.3885
  734MPD2    N110856   3.653   2.763  12.283 -0.1751 -0.2211 -0.6482
  734MPD2    H710857   3.632   2.773  12.382 -0.6080  0.4898 -0.8124
  735TMC3    C110858   3.484   2.613  12.283 -0.4288  0.5683 -0.4040
  735TMC3    C210859   3.408   2.545  12.198  0.5648 -0.0620 -0.1101
  735TMC3    C310860   3.420   2.404  12.192  0.6846 -0.3446  0.7424
  735TMC3    C410861   3.551   2.542  12.385  0.1973  0.1661  0.0282
  735TMC3    C510862   3.567   2.408  12.380 -0.2793  0.8217  0.1406
  735TMC3    C610863   3.490   2.337  12.291  0.0262 -0.8026  0.2081
  735TMC3     C10864   3.562   2.702  12.207 -0.1366 -0.4371  0.3006
  735TMC3     O10865   3.558   2.679  12.091 -0.6102 -0.2098  0.0529
  735TMC3     H10866   3.350   2.588  12.118  0.1217  1.3170  0.9645
  735TMC3    H110867   3.618   2.592  12.453 -0.9872  0.9317  0.6365
  735TMC3    H210868   3.525   2.236  12.272  2.8078  0.3925 -1.0450
  735TMC3    C710869   3.694   2.341  12.408  0.2820  0.2516  0.6944
  735TMC3    C810870   3.428   2.349  12.061  0.2903  0.6003 -0.2035
  735TMC3    O110871   3.736   2.245  12.337 -0.0460  0.1305  0.1379
  735TMC3    O210872   3.429   2.226  12.061 -0.3693  0.0842 -0.0398
  736MPD2     C10873   3.942   2.506  12.614  0.0843 -0.4482  0.5921
  736MPD2    C110874   3.895   2.423  12.515 -0.1146 -0.0118 -0.1485
  736MPD2    C210875   3.980   2.387  12.410  0.1902 -0.5499  0.1985
  736MPD2    C310876   4.106   2.440  12.403  0.0181  0.2575 -0.0275
  736MPD2    C410877   4.140   2.534  12.497  0.3560 -0.0483  0.0470
  736MPD2    C510878   4.065   2.560  12.601 -0.2701  0.3178 -0.1727
  736MPD2     H10879   3.936   2.333  12.327 -1.7054 -1.1462  1.6017
  736MPD2    H110880   4.235   2.585  12.488 -0.8432  2.2775  0.4975
  736MPD2    H210881   3.888   2.536  12.703 -1.2935 -1.1254 -0.0068
  736MPD2    H310882   4.103   2.630  12.675 -1.0395  1.5337 -0.9170
  736MPD2     N10883   4.196   2.430  12.291  0.3693  0.7626 -0.0092
  736MPD2    H510884   4.280   2.485  12.302  0.5724  0.3417  0.5499
  736MPD2    N110885   3.757   2.398  12.510 -0.1398  0.1941  0.2040
  736MPD2    H710886   3.703   2.457  12.573  0.0239 -0.2635  0.7736
  737TMC3    C110887   4.300   2.364  12.090 -0.8503  0.2568 -0.3048
  737TMC3    C210888   4.334   2.493  12.063 -0.4058  0.3661  0.2087
  737TMC3    C310889   4.392   2.499  11.938  0.0066  0.1242  0.0444
  737TMC3    C410890   4.326   2.247  12.020 -0.3625  0.0988 -0.6989
  737TMC3    C510891   4.392   2.265  11.898 -0.4504  0.4343  0.8081
  737TMC3    C610892   4.423   2.395  11.858  0.5833 -0.0177 -0.4360
  737TMC3     C10893   4.196   2.336  12.192 -0.1233  0.5277  0.6191
  737TMC3     O10894   4.122   2.239  12.183 -0.0471  0.0352 -0.3983
  737TMC3     H10895   4.314   2.577  12.128 -1.1900  1.3781 -1.3396
  737TMC3    H110896   4.287   2.151  12.052  0.4324  0.0091 -0.0116
  737TMC3    H210897   4.469   2.415  11.762  1.3587  2.0615  0.3671
  737TMC3    C710898   4.452   2.154  11.833 -0.4852 -0.0196 -0.2812
  737TMC3    C810899   4.404   2.635  11.887  0.5839 -0.0143  0.3019
  737TMC3    O110900   4.438   2.042  11.881  0.6610  0.5952  0.2848
  737TMC3    O210901   4.443   2.724  11.963 -0.2939 -0.6742  0.0026
  738MPD2     C10902   4.527   0.755  15.564  0.4265 -0.2761  0.0179
  738MPD2    C110903   4.532   0.789  15.434  0.1493 -0.6360  0.1709
  738MPD2    C210904   4.640   0.745  15.364 -0.1192 -0.5745 -0.0977
  738MPD2    C310905   0.021   0.673  15.414 -0.6470  0.2971  0.1878
  738MPD2    C410906   0.021   0.648  15.547 -0.1370  0.0263  0.1214
  738MPD2    C510907   4.637   0.693  15.626 -0.0171 -0.9163  0.7207
  738MPD2     H10908   4.644   0.770  15.259  0.8933  0.1379  0.1163
  738MPD2    H110909   0.104   0.608  15.605 -0.2337 -1.6801 -0.9343
  738MPD2    H210910   4.440   0.779  15.625  0.9767  2.1581 -0.1700
  738MPD2    H310911   4.640   0.685  15.734 -0.7919 -0.1938  0.7905
  738MPD2     N10912   0.139   0.637  15.336 -0.1299  0.5340  0.2392
  738MPD2    H510913   0.223   0.606  15.382  0.0661  0.6584 -0.0340
  738MPD2    N110914   4.428   0.853  15.363 -0.5120 -0.2361  0.2402
  738MPD2    H710915   4.444   0.884  15.267  1.6634  0.4631  0.8285
  739TMC3    C110916   0.270   0.629  15.136 -0.3157 -0.9444  0.2529
  739TMC3    C210917   0.265   0.636  15.000 -0.2585  0.5345 -0.0078
  739TMC3    C310918   0.388   0.658  14.928  0.2439 -0.1827  0.3198
  739TMC3    C410919   0.380   0.651  15.214 -0.0253  0.5928  0.0499
  739TMC3    C510920   0.495   0.683  15.148 -0.2452 -0.4800  0.2851
  739TMC3    C610921   0.499   0.684  15.006 -0.1592 -0.1118 -0.0816
  739TMC3     C10922   0.142   0.640  15.203 -0.2955 -0.3571  0.2398
  739TMC3     O10923   0.051   0.653  15.129  0.1464 -0.1695 -0.4719
  739TMC3     H10924   0.174   0.620  14.943 -0.6391  0.2743  0.6722
  739TMC3    H110925   0.373   0.666  15.321 -1.1936  2.8754 -0.3445
  739TMC3    H210926   0.595   0.700  14.958 -0.9744  2.5725 -0.8409
  739TMC3    C710927   0.611   0.736  15.222  0.7451 -0.4359  0.7080
  739TMC3    C810928   0.373   0.696  14.793 -0.1267 -0.3418  0.5342
  739TMC3    O110929   0.629   0.709  15.340 -0.1086 -0.5397  0.6332
  739TMC3    O210930   0.258   0.729  14.756  0.0246 -0.1805 -0.0785
  740TMC3    C110931   0.684   2.307  14.248 -0.1962 -0.4760  0.3660
  740TMC3    C210932   0.738   2.257  14.363  0.3110 -1.1589 -0.2718
  740TMC3    C310933   0.856   2.185  14.343 -0.6731  0.0496 -0.9446
  740TMC3    C410934   0.754   2.305  14.132 -0.1726  0.1191  0.0095
  740TMC3    C510935   0.877   2.252  14.122  0.2427  0.2806 -0.3032
  740TMC3    C610936   0.929   2.179  14.228  0.0250  0.0708  0.3386
  740TMC3     C10937   0.557   2.364  14.251 -0.4184 -0.2744  0.1908
  740TMC3     O10938   0.527   2.459  14.173 -0.2983 -0.3552  0.3713
  740TMC3     H10939   0.687   2.266  14.458  0.0083  2.1356 -0.7478
  740TMC3    H110940   0.701   2.331  14.041 -0.3003 -2.4104 -0.6452
  740TMC3    H210941   1.031   2.142  14.225  0.0543  0.1312  0.5768
  740TMC3    C710942   0.925   2.222  13.994  0.5621 -0.1559  0.3249
  740TMC3    C810943   0.903   2.113  14.455 -0.2983  0.3716 -0.1617
  740TMC3    O110944   0.998   2.122  13.982  0.1690 -0.3616 -0.0590
  740TMC3    O210945   1.021   2.088  14.454 -0.0481  0.0210 -0.3673
  741TMC3    C110946   0.308   1.687  14.014  0.9186  0.1045  0.2734
  741TMC3    C210947   0.226   1.665  14.118 -0.2356  0.0286  0.0443
  741TMC3    C310948   0.197   1.541  14.172 -0.5242  0.8264 -0.6176
  741TMC3    C410949   0.362   1.579  13.947 -0.5757 -0.0733  0.9361
  741TMC3    C510950   0.331   1.452  13.997 -0.7705  0.1804 -0.3904
  741TMC3    C610951   0.248   1.431  14.102  0.1114 -0.9388 -0.1849
  741TMC3     C10952   0.276   1.805  13.940 -0.4225  0.0121 -0.7769
  741TMC3     O10953   0.187   1.876  13.986  0.5196  0.2728  0.2463
  741TMC3     H10954   0.175   1.744  14.172  0.3476 -0.5830  1.5075
  741TMC3    H110955   0.409   1.581  13.849 -1.2658  1.0245  0.6267
  741TMC3    H210956   0.218   1.333  14.136 -2.1345 -0.9264 -2.0933
  741TMC3    C710957   0.349   1.333  13.920 -0.3109  0.2054  0.1568
  741TMC3    C810958   0.089   1.525  14.261  1.0529  0.1381 -0.3781
  741TMC3    O110959   0.275   1.240  13.953  0.0442  0.3807 -0.2781
  741TMC3    O210960   0.014   1.623  14.261  0.6112  0.1186  0.1251
  742TMC3    C110961   4.293   0.477  15.359  0.8336  0.4424 -0.5776
  742TMC3    C210962   4.224   0.419  15.262 -0.1426  0.3339 -1.0021
  742TMC3    C310963   4.304   0.341  15.180 -0.2735  0.6786 -0.2296
  742TMC3    C410964   4.429   0.461  15.387  0.7650 -0.3257  0.4139
  742TMC3    C510965   4.503   0.377  15.311 -0.3172  0.0850  0.4141
  742TMC3    C610966   4.438   0.320  15.202  0.7080  0.2158 -1.1482
  742TMC3     C10967   4.213   0.558  15.449  0.2368 -0.3668 -0.6759
  742TMC3     O10968   4.108   0.591  15.398 -0.5238 -0.2338 -0.3909
  742TMC3     H10969   4.129   0.454  15.223 -0.1371 -0.9316 -2.1561
  742TMC3    H110970   4.474   0.499  15.478  0.9896 -0.8825  0.5354
  742TMC3    H210971   4.491   0.255  15.132  1.1650 -0.0723 -0.5293
  742TMC3    C710972   4.624   0.314  15.359  0.2384 -0.4914 -0.0442
  742TMC3    C810973   4.238   0.249  15.091 -0.1046  0.6846 -0.3966
  742TMC3    O110974   4.684   0.258  15.268 -0.2313 -0.1002 -0.3779
  742TMC3    O210975   4.312   0.196  15.008 -0.7489  0.2598 -0.0136
  743MPD2     C10976   3.973   0.852   1.635 -0.0405  0.9560 -0.0270
  743MPD2    C110977   3.960   0.878   1.497  0.6388 -0.2980 -0.1652
  743MPD2    C210978   4.083   0.863   1.419  0.0139 -0.2177 -0.5118
  743MPD2    C310979   4.196   0.823   1.484  0.0179  0.1449 -0.2837
  743MPD2    C410980   4.200   0.808   1.622  0.0716 -0.0347 -0.2757
  743MPD2    C510981   4.090   0.823   1.703 -0.6091  0.5207 -0.4428
  743MPD2     H10982   4.085   0.872   1.311  1.6290 -1.3745 -0.5715
  743MPD2    H110983   4.287   0.778   1.679 -1.6231  0.0441  2.3894
  743MPD2    H210984   3.886   0.844   1.699 -0.9794  1.8125 -1.2127
  743MPD2    H310985   4.094   0.798   1.808  0.8845 -0.7862 -0.8099
  743MPD2     N10986   4.308   0.794   1.407 -0.4217 -0.2151  0.2136
  743MPD2    H510987   4.302   0.789   1.306 -1.7715 -0.5834  0.3119
  743MPD2    N110988   3.831   0.883   1.437 -0.3689 -0.0088 -0.1767
  743MPD2    H710989   3.760   0.838   1.493 -0.3621 -0.8489 -0.8483
  744TMC3    C110990   3.700   0.863   1.246 -0.1756 -0.1728 -0.2517
  744TMC3    C210991   3.611   0.776   1.295 -0.3939 -0.6733 -0.2726
  744TMC3    C310992   3.514   0.723   1.214  0.8306  0.0259  1.1890
  744TMC3    C410993   3.716   0.877   1.108 -0.4740  0.6164 -0.7352
  744TMC3    C510994   3.624   0.808   1.032 -0.0067  0.0426  0.6658
  744TMC3    C610995   3.525   0.731   1.078 -0.1153 -0.3376  0.4416
  744TMC3     C10996   3.813   0.929   1.310 -0.0007  0.0739  0.3866
  744TMC3     O10997   3.875   1.015   1.253 -0.1773  0.1795 -0.5185
  744TMC3     H10998   3.588   0.800   1.398 -0.5208  1.2450 -0.7513
  744TMC3    H110999   3.787   0.940   1.056  0.7570  0.0646  0.2961
  744TMC3    H211000   3.452   0.676   1.020 -1.0632  0.5079  0.8444
  744TMC3    C711001   3.633   0.834   0.892 -0.6540 -0.7036  0.5496
  744TMC3    C811002   3.426   0.628   1.272 -0.0655 -0.1859  0.1880
  744TMC3    O111003   3.682   0.939   0.854  0.1523 -0.0771  0.4854
  744TMC3    O211004   3.369   0.552   1.199  0.1188  0.0959  0.5521
  745TMC3    C111005   0.494   0.105  13.738  0.2198  0.8905 -0.0996
  745TMC3    C211006   0.437   0.053  13.848  0.2806 -0.2169  0.4134
  745TMC3    C311007   0.312   0.092  13.884 -0.2959 -0.9316  0.2060
  745TMC3    C411008   0.419   0.172  13.647 -0.3912  0.2335 -0.3009
  745TMC3    C511009   0.291   0.204  13.681  0.2905  0.8782  0.0760
  745TMC3    C611010   0.239   0.177  13.804  0.0766  0.4652 -0.3778
  745TMC3     C11011   0.638   0.102  13.747 -0.0230 -0.4970  0.4742
  745TMC3     O11012   0.688   0.040  13.840 -0.0268  0.4053  0.4883
  745TMC3     H11013   0.491   4.696  13.901 -0.2199 -0.5644  0.4191
  745TMC3    H111014   0.461   0.218  13.558  0.5513 -2.5439 -1.2965
  745TMC3    H211015   0.142   0.212  13.836  0.1710  0.8804 -0.5368
  745TMC3    C711016   0.191   0.249  13.585 -0.1196 -0.3384  0.1154
  745TMC3    C811017   0.255   0.055  14.019  0.0455 -0.8373 -0.7887
  745TMC3    O111018   0.081   0.281  13.628  0.0329 -0.3718 -0.1489
  745TMC3    O211019   0.134   0.048  14.030 -0.3640  0.3962  0.0630
  746TMC3    C111020   3.188   1.871  11.225  0.3950  0.6609  0.4282
  746TMC3    C211021   3.293   1.875  11.134 -0.2775  0.2118 -0.8419
  746TMC3    C311022   3.343   1.751  11.089  0.2730  0.4039  0.0139
  746TMC3    C411023   3.125   1.756  11.270  0.2163  0.3519  1.4749
  746TMC3    C511024   3.170   1.638  11.213  0.1762  0.1355  0.6382
  746TMC3    C611025   3.280   1.636  11.128  0.0737 -0.1518 -0.5473
  746TMC3     C11026   3.109   1.991  11.247  0.8495 -0.8552 -0.2168
  746TMC3     O11027   3.013   1.985  11.324 -0.0536  0.5663  0.3960
  746TMC3     H11028   3.353   1.965  11.123  0.5700 -0.2176  0.3742
  746TMC3    H111029   3.041   1.766  11.338 -0.9591 -1.2645  0.2726
  746TMC3    H211030   3.311   1.549  11.071  1.8100  1.1247 -1.5432
  746TMC3    C711031   3.061   1.548  11.161  0.0270  0.0112 -0.6011
  746TMC3    C811032   3.463   1.754  11.003  0.0023 -0.0759  0.5503
  746TMC3    O111033   3.068   1.511  11.044  0.9863  0.3140 -0.0400
  746TMC3    O211034   3.543   1.665  11.006  0.1128  0.2023 -0.4021
  747TMC3    C111035   0.208   2.378  10.960  0.2914  0.8626  0.0332
  747TMC3    C211036   0.197   2.262  11.035 -0.0957  0.5155  0.7620
  747TMC3    C311037   0.199   2.272  11.170 -0.6730 -0.1400  0.2799
  747TMC3    C411038   0.231   2.499  11.019  0.1731 -0.1317 -0.3714
  747TMC3    C511039   0.247   2.499  11.150 -0.3208  0.1207 -0.0649
  747TMC3    C611040   0.226   2.390  11.234  1.0769 -0.3546  0.2931
  747TMC3     C11041   0.198   2.381  10.816  0.2379 -0.1844 -0.3286
  747TMC3     O11042   0.210   2.491  10.761 -0.1112  0.4768 -0.0805
  747TMC3     H11043   0.171   2.166  10.992  1.8339  0.6961 -0.7893
  747TMC3    H111044   0.237   2.594  10.968  2.1815 -0.7411 -1.2618
  747TMC3    H211045   0.224   2.402  11.342  0.5999 -1.3682  0.3946
  747TMC3    C711046   0.299   2.620  11.227 -0.6886 -0.5373  0.4391
  747TMC3    C811047   0.142   2.159  11.243 -0.3102  0.9709 -0.1237
  747TMC3    O111048   0.292   2.617  11.348  0.3888  0.6950 -0.4723
  747TMC3    O211049   0.153   2.054  11.185 -0.0467  0.1755 -0.0869
  748MPD2     C11050   1.856   2.117   1.871 -0.9277 -0.8809  0.5197
  748MPD2    C111051   1.869   1.997   1.812 -0.2946  0.0330 -0.5720
  748MPD2    C211052   1.973   1.963   1.728 -0.3436 -0.5231  0.2585
  748MPD2    C311053   2.063   2.064   1.700  0.2730 -0.6247 -0.2850
  748MPD2    C411054   2.047   2.192   1.767 -0.3172 -0.1036 -0.4946
  748MPD2    C511055   1.938   2.223   1.836  0.3285  0.3320 -0.6089
  748MPD2     H11056   1.983   1.871   1.672 -0.1394  0.5318 -1.4646
  748MPD2    H111057   2.120   2.271   1.757  1.5618 -1.5749  1.4710
  748MPD2    H211058   1.779   2.132   1.945 -1.8211 -1.4029 -0.3065
  748MPD2    H311059   1.935   2.324   1.877 -3.2230  0.4984 -1.2751
  748MPD2     N11060   2.171   2.033   1.622 -0.1084  0.5522 -0.0911
  748MPD2    H511061   2.182   1.936   1.593 -0.5842  0.6729 -0.6700
  748MPD2    N111062   1.768   1.896   1.848  0.3114  0.6983  0.4986
  748MPD2    H711063   1.713   1.923   1.929 -0.9252  3.1233 -1.1660
  749TMC3    C111064   2.373   2.063   1.507 -0.0897 -0.0267 -0.0423
  749TMC3    C211065   2.424   1.945   1.540 -0.0281 -0.3958  0.0602
  749TMC3    C311066   2.527   1.895   1.470  0.1714  0.1888 -0.8742
  749TMC3    C411067   2.429   2.139   1.407 -0.7936  0.0568 -0.2580
  749TMC3    C511068   2.528   2.082   1.331 -0.0608 -0.1727 -0.5778
  749TMC3    C611069   2.572   1.957   1.358 -0.5661 -0.2012 -0.0706
  749TMC3     C11070   2.275   2.125   1.591 -0.0231  0.7628 -0.1024
  749TMC3     O11071   2.290   2.246   1.596 -0.4308  0.7802 -0.2315
  749TMC3     H11072   2.410   1.913   1.643 -1.5184 -1.2793 -0.4219
  749TMC3    H111073   2.393   2.235   1.372  1.3245  0.8284 -0.3390
  749TMC3    H211074   2.640   1.916   1.284 -0.9117 -0.6199 -0.1536
  749TMC3    C711075   2.576   2.146   1.208  0.3953 -0.6201  0.4065
  749TMC3    C811076   2.603   1.789   1.533 -0.3170 -0.3256  0.1839
  749TMC3    O111077   2.565   2.267   1.200 -0.1251  0.2505 -0.3337
  749TMC3    O211078   2.546   1.720   1.617 -0.1128  0.7118 -0.2922
  750MPD2     C11079   3.011   3.591  11.283  0.8856 -0.2638  0.8023
  750MPD2    C111080   2.884   3.570  11.332  0.0824 -0.1296 -0.3991
  750MPD2    C211081   2.794   3.499  11.245  0.2235  0.3347 -0.4757
  750MPD2    C311082   2.837   3.439  11.130  0.9125  0.0611  0.1598
  750MPD2    C411083   2.960   3.469  11.085  0.7673 -0.9994  0.1150
  750MPD2    C511084   3.046   3.545  11.157 -0.2025  0.0586  0.1205
  750MPD2     H11085   2.688   3.512  11.266 -0.1048 -2.6080 -0.3045
  750MPD2    H111086   2.998   3.427  10.992  3.9448  2.3774 -0.1275
  750MPD2    H211087   3.077   3.652  11.343  0.9919 -0.0430  0.4606
  750MPD2    H311088   3.148   3.564  11.128  0.1167 -0.9131  0.5998
  750MPD2     N11089   2.756   3.356  11.050  0.3895 -0.1921  0.1532
  750MPD2    H511090   2.796   3.311  10.968  1.7404  1.2065  0.0418
  750MPD2    N111091   2.848   3.639  11.449 -0.4552 -0.1535  0.4269
  750MPD2    H711092   2.911   3.708  11.486 -1.8912  2.2553 -1.6056
  751TMC3    C111093   2.589   3.226  10.976 -0.3070  0.3685  0.3355
  751TMC3    C211094   2.452   3.196  10.967 -0.5172 -0.3619 -0.7802
  751TMC3    C311095   2.415   3.101  10.876 -0.4205 -0.0829 -0.8595
  751TMC3    C411096   2.686   3.145  10.906 -0.0187  0.0018  0.6327
  751TMC3    C511097   2.637   3.051  10.819 -0.3625 -0.9156  0.6648
  751TMC3    C611098   2.505   3.034  10.793  0.4692  0.4905  0.0151
  751TMC3     C11099   2.627   3.322  11.076 -0.1939 -0.8040  0.5250
  751TMC3     O11100   2.542   3.365  11.149  0.3925  0.0600  0.0650
  751TMC3     H11101   2.376   3.247  11.025  0.9431  0.8203  0.1114
  751TMC3    H111102   2.789   3.154  10.938 -0.1414  0.6899  0.8327
  751TMC3    H211103   2.476   2.968  10.712  1.8726  0.1858 -0.2445
  751TMC3    C711104   2.742   2.994  10.729  0.3265 -0.1845 -0.2488
  751TMC3    C811105   2.278   3.073  10.869  0.2377  0.5481  0.5102
  751TMC3    O111106   2.849   3.054  10.711 -0.1156 -0.1355  0.0868
  751TMC3    O211107   2.201   3.148  10.928  0.2146  0.2436  0.3022
  752TMC3    C111108   1.967   2.756   0.083  0.3029 -1.1693 -0.3313
  752TMC3    C211109   1.993   2.633   0.132  0.3492 -0.3587 -0.0636
  752TMC3    C311110   1.981   2.621   0.265 -0.3157  0.4051 -0.5958
  752TMC3    C411111   1.940   2.861   0.160  0.4573  1.1766 -0.0054
  752TMC3    C511112   1.932   2.845   0.292 -0.2375  0.3025  0.0963
  752TMC3    C611113   1.953   2.725   0.349 -0.2942 -0.2193 -0.0305
  752TMC3     C11114   1.938   2.762  17.627 -0.0882  0.2783  0.2181
  752TMC3     O11115   2.017   2.711  17.551 -0.1939  0.0190  0.0874
  752TMC3     H11116   1.987   2.552   0.060 -0.7390 -0.6454  0.3491
  752TMC3    H111117   1.919   2.959   0.118 -0.8156  0.3945 -1.1696
  752TMC3    H211118   1.927   2.708   0.453  0.9520  1.4076  0.5507
  752TMC3    C711119   1.860   2.957   0.361  0.7346 -0.1471 -0.3092
  752TMC3    C811120   1.998   2.489   0.330 -0.5631  0.3242 -0.0956
  752TMC3    O111121   1.784   3.031   0.303 -0.7133 -0.1163  0.1913
  752TMC3    O211122   1.961   2.480   0.445  0.1997  0.2802 -0.4802
  753TMC3    C111123   3.860   4.403  13.459  0.2096  0.0061 -0.3583
  753TMC3    C211124   3.910   4.418  13.583 -0.2255  0.4692  0.2269
  753TMC3    C311125   3.951   4.301  13.641  0.4331 -0.0761 -0.2298
  753TMC3    C411126   3.830   4.281  13.395  1.0710  0.5393 -0.0074
  753TMC3    C511127   3.847   4.170  13.466 -0.1291  0.4336 -0.6735
  753TMC3    C611128   3.913   4.183  13.588  0.0202  0.9454 -0.4999
  753TMC3     C11129   3.803   4.518  13.388  0.3414 -0.4728 -0.4225
  753TMC3     O11130   3.724   4.492  13.296  0.9651  0.3645 -0.5296
  753TMC3     H11131   3.935   4.511  13.632 -0.2032  1.6393 -1.9930
  753TMC3    H111132   3.794   4.269  13.293 -0.2851 -0.5758  0.6014
  753TMC3    H211133   3.933   4.090  13.639  0.9003  0.6315 -1.4127
  753TMC3    C711134   3.818   4.041  13.406  0.1679 -0.3986  0.0668
  753TMC3    C811135   3.984   4.297  13.777 -0.8651 -0.0100  0.5358
  753TMC3    O111136   3.897   3.950  13.439 -0.0116 -0.2813  0.8780
  753TMC3    O211137   3.991   4.191  13.836 -0.0407  0.1735  0.1087
  754MPD2     C11138   3.012   3.398  13.243  0.4482  1.0273  0.1397
  754MPD2    C111139   2.949   3.288  13.201 -0.5331  0.4350 -0.7298
  754MPD2    C211140   2.815   3.295  13.168 -0.0233 -0.0808  0.1356
  754MPD2    C311141   2.747   3.415  13.184 -0.4039  0.5973  0.2797
  754MPD2    C411142   2.811   3.526  13.238  0.7026 -0.0525  0.4944
  754MPD2    C511143   2.948   3.519  13.253 -0.1857  0.0059  0.3532
  754MPD2     H11144   2.774   3.206  13.122  1.0754 -0.5171  0.0097
  754MPD2    H111145   2.758   3.619  13.255  2.5702  1.4704 -1.9216
  754MPD2    H211146   3.119   3.388  13.260  0.0916 -0.9158  1.2260
  754MPD2    H311147   2.997   3.613  13.275 -0.0592 -0.2978  1.3762
  754MPD2     N11148   2.610   3.427  13.169  0.2599  0.0006  0.5604
  754MPD2    H511149   2.570   3.520  13.176 -1.2284 -0.6140  0.2460
  754MPD2    N111150   3.026   3.169  13.201  0.3769 -0.2316 -0.6847
  754MPD2    H711151   3.125   3.189  13.204  0.1600  0.5406  1.1942
  755MPD2     C11152   1.905   3.919  13.513 -0.1651 -0.0960  0.0795
  755MPD2    C111153   1.950   3.804  13.573 -0.4456 -0.5785  0.9612
  755MPD2    C211154   2.043   3.722  13.502  0.3561  0.9245 -0.3065
  755MPD2    C311155   2.080   3.755  13.370  0.5805 -0.0297 -0.2256
  755MPD2    C411156   2.042   3.880  13.321 -0.1510  0.9688  0.2143
  755MPD2    C511157   1.952   3.960  13.393  0.8694  0.1582 -0.2803
  755MPD2     H11158   2.084   3.635  13.552 -1.0941  0.3929 -0.0155
  755MPD2    H111159   2.077   3.902  13.221 -1.3134  0.6816 -0.2463
  755MPD2    H211160   1.839   3.984  13.569 -0.2544 -0.5383  0.4976
  755MPD2    H311161   1.914   4.053  13.353  0.0159 -0.9235 -1.9982
  755MPD2     N11162   2.154   3.675  13.280 -0.1353 -0.3972 -0.3738
  755MPD2    H511163   2.198   3.716  13.198  1.6217 -2.7564 -0.6161
  755MPD2    N111164   1.924   3.783  13.714 -0.4481  0.2652  0.7335
  755MPD2    H711165   1.845   3.838  13.746 -0.0355  0.8878  0.6730
  756MPD2     C11166   2.165   4.674   9.761  0.1832 -0.0366  0.0638
  756MPD2    C111167   2.173   4.538   9.790 -1.7383 -0.1050  0.7044
  756MPD2    C211168   2.055   4.467   9.782  0.0636 -0.1300  0.8495
  756MPD2    C311169   1.935   4.524   9.729  0.8575 -0.3547 -0.0815
  756MPD2    C411170   1.936   4.658   9.692 -0.1679  0.5028 -0.2495
  756MPD2    C511171   2.049   0.003   9.707  0.0312  0.9221 -0.5644
  756MPD2     H11172   2.055   4.361   9.805  1.2051  0.0273  1.5818
  756MPD2    H111173   1.847   4.703   9.649  0.3079  0.0975 -1.6630
  756MPD2    H211174   2.246   0.020   9.785 -0.2092  0.3290  0.3719
  756MPD2    H311175   2.058   0.106   9.676  1.5425 -0.1151 -3.5616
  756MPD2     N11176   1.816   4.444   9.706  0.2243 -0.2250 -0.1166
  756MPD2    H511177   1.820   4.348   9.740 -0.9089 -0.2285  0.0241
  756MPD2    N111178   2.288   4.472   9.837  0.3986  0.3006 -0.2627
  756MPD2    H711179   2.277   4.371   9.832  1.7304  0.1355  0.0348
  757MPD2     C11180   1.751   3.647   9.464  0.0650  0.1763 -0.1722
  757MPD2    C111181   1.822   3.730   9.551 -0.3270  0.1655 -0.3806
  757MPD2    C211182   1.776   3.864   9.575 -0.0112 -0.4218  0.8071
  757MPD2    C311183   1.666   3.909   9.499  0.2741 -0.5229 -0.3881
  757MPD2    C411184   1.613   3.828   9.400 -0.3812 -0.1782  0.0043
  757MPD2    C511185   1.649   3.698   9.387  0.1227  0.3914 -0.2567
  757MPD2     H11186   1.818   3.937   9.643  0.1586  0.0664  0.1862
  757MPD2    H111187   1.527   3.868   9.348 -0.9578 -1.4001  0.0135
  757MPD2    H211188   1.770   3.541   9.472 -0.1789  0.1741  0.4087
  757MPD2    H311189   1.591   3.626   9.330  1.4047 -1.8438  1.2664
  757MPD2     N11190   1.623   4.043   9.529  0.7728 -0.4815  0.3087
  757MPD2    H511191   1.676   4.086   9.605  1.9480 -0.0979 -0.7433
  757MPD2    N111192   1.917   3.674   9.632  0.2672  0.5103 -0.2263
  757MPD2    H711193   1.920   3.573   9.641  0.0430  0.4474 -0.8363
  758MPD2     C11194   2.160   3.217  16.041  0.3745 -0.5804  0.2100
  758MPD2    C111195   2.271   3.213  16.123 -0.4082 -0.3169  0.3801
  758MPD2    C211196   2.249   3.234  16.263  0.0609  0.1907  0.3056
  758MPD2    C311197   2.119   3.238  16.312  0.0502 -0.7103  0.6744
  758MPD2    C411198   2.015   3.252  16.219 -0.1678  0.0068 -0.5924
  758MPD2    C511199   2.036   3.241  16.085 -0.0727 -0.1416  0.1348
  758MPD2     H11200   2.329   3.228  16.336 -0.3207 -0.7767  0.6386
  758MPD2    H111201   1.913   3.257  16.257  0.2021  0.5247  0.3292
  758MPD2    H211202   2.175   3.196  15.935  0.9788 -0.5272  0.2903
  758MPD2    H311203   1.950   3.257  16.021  0.0060 -1.4780 -0.3015
  758MPD2     N11204   2.079   3.220  16.451  0.2835  0.1453  0.9104
  758MPD2    H511205   1.982   3.223  16.479  0.1061 -0.7173  0.4172
  758MPD2    N111206   2.404   3.188  16.070  0.2925 -0.4477 -0.0827
  758MPD2    H711207   2.406   3.159  15.973 -1.4664 -0.5908 -0.0656
  759MPD2     C11208   0.687   1.400   8.911 -0.1059  0.2852  0.7964
  759MPD2    C111209   0.763   1.357   9.016  0.9651 -0.5997  0.3521
  759MPD2    C211210   0.897   1.404   9.026  0.8721 -0.4022 -0.2891
  759MPD2    C311211   0.941   1.491   8.924 -0.4788  0.2196 -0.5921
  759MPD2    C411212   0.857   1.535   8.822  0.4577  0.2914  0.3009
  759MPD2    C511213   0.734   1.485   8.818 -0.3723  0.2927 -0.3519
  759MPD2     H11214   0.956   1.361   9.106  2.0446  0.5910 -0.6189
  759MPD2    H111215   0.881   1.615   8.754 -0.7978 -0.0113 -0.4969
  759MPD2    H211216   0.581   1.377   8.907 -0.1503  1.0040 -1.9797
  759MPD2    H311217   0.666   1.534   8.750  0.0519 -0.4252 -1.2889
  759MPD2     N11218   1.078   1.518   8.937 -0.2664 -0.1341 -0.2799
  759MPD2    H511219   1.128   1.469   9.010  0.2820  0.9004  0.0392
  759MPD2    N111220   0.727   1.262   9.117  0.1620  0.2307  0.8971
  759MPD2    H711221   0.794   1.256   9.193  3.5141  0.5486 -2.0368
  760MPD2     C11222   0.973   3.593  12.139 -0.0715 -0.2410 -0.0570
  760MPD2    C111223   1.082   3.507  12.137  0.2920  0.3539 -0.2287
  760MPD2    C211224   1.076   3.378  12.187 -0.2582  0.1346  0.4369
  760MPD2    C311225   0.951   3.329  12.219  0.1978 -0.8913 -0.2469
  760MPD2    C411226   0.840   3.408  12.209  0.6692 -0.1255 -0.8628
  760MPD2    C511227   0.851   3.541  12.175  0.2198 -0.0992  0.2552
  760MPD2     H11228   1.166   3.319  12.189 -0.0312  0.3649 -2.5841
  760MPD2    H111229   0.741   3.366  12.225 -0.2247  3.1439  2.2882
  760MPD2    H211230   0.981   3.698  12.113  0.7326 -0.4752 -0.7177
  760MPD2    H311231   0.765   3.605  12.158  1.0531  0.1649 -3.1073
  760MPD2     N11232   0.924   3.194  12.245 -0.5280 -0.0832 -0.8566
  760MPD2    H511233   0.828   3.168  12.267  0.0777 -0.1593  1.6793
  760MPD2    N111234   1.209   3.563  12.107 -0.8078  0.1352  0.3009
  760MPD2    H711235   1.290   3.503  12.120 -0.7297  0.1217 -0.2234
  761MPD2     C11236   1.961   2.666  10.871 -0.4939  0.3030  0.0433
  761MPD2    C111237   2.085   2.633  10.823 -0.1109 -1.2482  0.8753
  761MPD2    C211238   2.176   2.735  10.787 -0.5130 -0.0214  0.7160
  761MPD2    C311239   2.144   2.867  10.811  0.0517 -0.2667  0.6064
  761MPD2    C411240   2.022   2.900  10.860 -0.0921  0.5001 -0.2991
  761MPD2    C511241   1.923   2.796  10.881  0.7922  0.1922  0.3181
  761MPD2     H11242   2.275   2.708  10.751 -0.7613 -0.5872  0.4584
  761MPD2    H111243   2.001   3.004  10.883 -3.0760 -0.1091 -0.3308
  761MPD2    H211244   1.889   2.586  10.881 -2.1064  1.9680  1.6301
  761MPD2    H311245   1.822   2.820  10.911  1.1750 -0.4485  2.0775
  761MPD2     N11246   2.264   2.950  10.817  0.5090  0.5696  0.1977
  761MPD2    H511247   2.351   2.903  10.794  0.3043  1.6836 -2.8455
  761MPD2    N111248   2.129   2.500  10.823 -0.2446  0.1372  1.1151
  761MPD2    H711249   2.070   2.449  10.888  1.1482 -1.8675  0.8329
  762MPD2     C11250   2.768   2.670  10.938  1.2236 -0.2985 -0.2955
  762MPD2    C111251   2.770   2.545  10.877  0.0907  0.2510  0.2056
  762MPD2    C211252   2.877   2.506  10.796  0.2125  0.0877  0.2801
  762MPD2    C311253   2.973   2.600  10.755 -0.0937 -0.0502 -0.5195
  762MPD2    C411254   2.977   2.724  10.818 -0.2876 -0.3196 -0.3417
  762MPD2    C511255   2.882   2.752  10.920 -0.8505  0.5693  1.1694
  762MPD2     H11256   2.883   2.409  10.747  0.7193  0.6260 -0.7185
  762MPD2    H111257   3.034   2.804  10.772  1.9437 -2.3602 -1.1337
  762MPD2    H211258   2.694   2.701  11.011 -0.8929 -0.1759 -2.5456
  762MPD2    H311259   2.877   2.851  10.964 -0.4557  0.8848  0.4864
  762MPD2     N11260   3.060   2.565  10.651  0.2884  0.0060  0.7144
  762MPD2    H511261   3.039   2.473  10.614 -0.9456  1.2679 -1.6983
  762MPD2    N111262   2.664   2.458  10.915  0.4687  0.1263 -0.4732
  762MPD2    H711263   2.590   2.494  10.973  0.7635  1.7387 -1.1125
  763MPD2     C11264   4.573   2.891  16.119  0.3221 -0.3423  0.4475
  763MPD2    C111265   4.488   2.965  16.031  0.4441 -0.3591  0.5133
  763MPD2    C211266   4.472   3.102  16.057  0.6917  0.6259 -0.6461
  763MPD2    C311267   4.525   3.164  16.169 -0.4012  0.2280 -0.0382
  763MPD2    C411268   4.603   3.087  16.258  0.1173  0.8918  0.1540
  763MPD2    C511269   4.626   2.952  16.230  0.8739 -0.2802 -0.3229
  763MPD2     H11270   4.422   3.164  15.983  0.9542  0.2693 -1.1231
  763MPD2    H111271   4.658   3.139  16.336 -0.6081  0.3716  1.0071
  763MPD2    H211272   4.600   2.788  16.099 -3.2437 -0.8873 -1.3390
  763MPD2    H311273   4.702   2.910  16.294  0.8939  1.1396  0.5951
  763MPD2     N11274   4.503   3.301  16.204 -0.7328  0.0173  0.4291
  763MPD2    H511275   4.554   3.328  16.287  3.3690 -1.4670 -1.6128
  763MPD2    N111276   4.423   2.916  15.916 -0.2484  0.0235  0.2356
  763MPD2    H711277   4.388   2.992  15.859  0.3643  1.9683  2.4601
  764MPD2     C11278   1.420   3.797  17.268  0.5900 -0.4357 -0.0206
  764MPD2    C111279   1.545   3.857  17.253  0.0120  0.8256 -0.3005
  764MPD2    C211280   1.613   3.901  17.369 -0.0970 -0.1027 -0.4025
  764MPD2    C311281   1.559   3.881  17.495 -0.7182 -0.1747 -0.0779
  764MPD2    C411282   1.437   3.812  17.507  0.1770 -0.5553  0.5857
  764MPD2    C511283   1.372   3.775  17.391  0.6491  0.1868 -0.2020
  764MPD2     H11284   1.715   3.939  17.362 -0.1214 -0.0104 -0.2754
  764MPD2    H111285   1.396   3.775  17.601  0.3929  3.5980  2.3169
  764MPD2    H211286   1.361   3.774  17.180  1.4920  1.1251 -1.0392
  764MPD2    H311287   1.279   3.720  17.399  0.3944  0.6786  0.2712
  764MPD2     N11288   1.635   3.926  17.607  0.2462  0.3752  0.7974
  764MPD2    H511289   1.726   3.967  17.588 -0.3038 -0.3782 -3.3251
  764MPD2    N111290   1.607   3.885  17.129 -0.4391 -0.1893  0.3811
  764MPD2    H711291   1.692   3.940  17.126 -0.8260  0.4499  1.2899
  765MPD2     C11292   1.935   2.179  16.478 -0.0594 -0.7266  0.5434
  765MPD2    C111293   1.922   2.240  16.358  0.1708 -0.1024 -0.1422
  765MPD2    C211294   2.009   2.187  16.255  0.5641 -0.6553 -0.1386
  765MPD2    C311295   2.115   2.099  16.279 -0.1347 -0.3612 -0.6641
  765MPD2    C411296   2.132   2.059  16.411 -0.4453 -0.3955 -0.3853
  765MPD2    C511297   2.042   2.094  16.506 -0.0082 -0.4461 -0.0332
  765MPD2     H11298   2.004   2.226  16.154  3.4475 -1.1559 -0.4712
  765MPD2    H111299   2.212   1.996  16.447  0.7793  0.7814 -1.0518
  765MPD2    H211300   1.876   2.207  16.564  3.0139  0.3742  2.2820
  765MPD2    H311301   2.053   2.051  16.605  0.3561 -0.9711 -0.3051
  765MPD2     N11302   2.206   2.066  16.172  0.4597  0.0975  0.5496
  765MPD2    H511303   2.174   2.085  16.078 -0.8956  2.1945  1.4493
  765MPD2    N111304   1.826   2.336  16.324  0.0657  0.0740  0.2059
  765MPD2    H711305   1.752   2.341  16.394 -0.0320 -1.0448  0.1821
  766MPD2     C11306   1.200   2.451  15.744 -0.7686 -0.1528  0.0142
  766MPD2    C111307   1.331   2.436  15.772 -0.0610 -0.3788 -0.0103
  766MPD2    C211308   1.422   2.382  15.687 -0.3328 -0.6430  0.0415
  766MPD2    C311309   1.380   2.348  15.553 -0.2558 -0.0695  0.0747
  766MPD2    C411310   1.247   2.381  15.518  0.3201 -0.4155  0.8730
  766MPD2    C511311   1.160   2.431  15.612 -0.6472  0.1084  0.8699
  766MPD2     H11312   1.528   2.374  15.708 -0.5340 -2.5505  0.2920
  766MPD2    H111313   1.211   2.362  15.418 -1.1588  1.4766  1.0329
  766MPD2    H211314   1.124   2.472  15.819 -0.6199 -0.5458  0.2739
  766MPD2    H311315   1.057   2.458  15.593 -0.9953 -2.5472 -1.1215
  766MPD2     N11316   1.460   2.295  15.448 -0.4879 -0.1149 -0.7892
  766MPD2    H511317   1.411   2.281  15.360 -0.9179  1.0947 -0.7498
  766MPD2    N111318   1.371   2.465  15.909  0.8071  0.2093 -0.4093
  766MPD2    H711319   1.297   2.517  15.955  1.2024  0.6590 -0.2894
  767MPD2     C11320   1.107   2.698  15.220 -0.2241  0.3575  0.1995
  767MPD2    C111321   1.236   2.659  15.212  0.1412  0.5264  0.0989
  767MPD2    C211322   1.270   2.565  15.121  0.3163 -0.7248 -0.0960
  767MPD2    C311323   1.180   2.498  15.052  0.1365  0.1704  0.1457
  767MPD2    C411324   1.047   2.531  15.065  0.2018  0.3855  0.0660
  767MPD2    C511325   1.013   2.635  15.154 -0.6270  1.3485 -0.0840
  767MPD2     H11326   1.375   2.540  15.105  0.5177  0.2245 -0.2938
  767MPD2    H111327   0.958   2.495  15.013  1.5722 -3.5872  0.5463
  767MPD2    H211328   1.078   2.778  15.288 -1.0055 -1.9577  2.5799
  767MPD2    H311329   0.912   2.672  15.167 -1.6101 -0.4192 -2.6047
  767MPD2     N11330   1.229   2.397  14.961 -0.7017  0.3522  0.1702
  767MPD2    H511331   1.326   2.367  14.965 -0.3582  1.4072 -0.2144
  767MPD2    N111332   1.332   2.719  15.294 -0.2325  0.1904 -0.1909
  767MPD2    H711333   1.294   2.787  15.359  1.9471  1.3311 -0.1233
  768MPD2     C11334   3.195   1.646  10.595 -0.3576  0.3817  0.3951
  768MPD2    C111335   3.097   1.552  10.641  0.1678  0.7442 -0.3578
  768MPD2    C211336   3.143   1.446  10.718  0.0167  0.0028 -0.3233
  768MPD2    C311337   3.276   1.426  10.752 -0.1605 -0.7294 -0.4992
  768MPD2    C411338   3.364   1.520  10.714  0.0800 -0.1829  0.5340
  768MPD2    C511339   3.318   1.623  10.639 -0.3788 -0.0757  0.2005
  768MPD2     H11340   3.071   1.368  10.743  2.0031 -2.2962 -1.7387
  768MPD2    H111341   3.471   1.521  10.733  0.2478 -2.5878 -0.3376
  768MPD2    H211342   3.167   1.741  10.551 -1.1872  0.9840  2.2154
  768MPD2    H311343   3.390   1.701  10.616  0.5130 -0.6922  0.9123
  768MPD2     N11344   3.323   1.327  10.846 -0.2857  0.1673 -0.1362
  768MPD2    H511345   3.414   1.345  10.886 -0.6140 -0.2176  0.7844
  768MPD2    N111346   2.958   1.573  10.626 -0.1437 -0.1658 -0.3729
  768MPD2    H711347   2.901   1.500  10.667  0.4110 -0.3620  0.0499
  769MPD2     C11348   3.224   3.907  14.661  0.2047  0.6840 -0.0598
  769MPD2    C111349   3.094   3.888  14.707 -0.6525  0.1703 -0.4882
  769MPD2    C211350   3.057   3.944  14.833 -0.2189  0.3664 -0.2060
  769MPD2    C311351   3.147   4.033  14.892 -0.4149  0.4637  0.0128
  769MPD2    C411352   3.278   4.046  14.843 -0.2732 -0.4164 -0.2382
  769MPD2    C511353   3.307   3.988  14.722  0.6472  0.5122 -0.2151
  769MPD2     H11354   2.958   3.928  14.875 -0.3431 -1.1048 -1.0535
  769MPD2    H111355   3.351   4.118  14.880  1.0680 -1.8740 -0.0530
  769MPD2    H211356   3.266   3.869  14.569 -0.9454 -0.2934 -0.1837
  769MPD2    H311357   3.398   4.006  14.666  1.4778 -0.2705  0.8612
  769MPD2     N11358   3.095   4.110  15.002  0.2044 -0.8529  0.2064
  769MPD2    H511359   3.004   4.080  15.036 -0.6629 -0.0836 -1.4434
  769MPD2    N111360   3.011   3.816  14.620  0.3616  0.1623 -0.2864
  769MPD2    H711361   3.052   3.800  14.528 -0.5551 -1.6642 -0.3757
  770MPD2     C11362   2.293   3.281  14.869  0.2955  0.5707 -0.3016
  770MPD2    C111363   2.429   3.252  14.834 -0.4153 -0.9791 -0.1312
  770MPD2    C211364   2.494   3.335  14.743 -0.1522  0.0658 -0.4163
  770MPD2    C311365   2.428   3.437  14.681  1.4588  0.5185  0.6247
  770MPD2    C411366   2.295   3.460  14.709 -0.0341  0.5426  0.4328
  770MPD2    C511367   2.237   3.388  14.812 -0.1517 -0.1153 -0.0046
  770MPD2     H11368   2.601   3.336  14.730 -0.2201 -0.9298 -1.1035
  770MPD2    H111369   2.245   3.549  14.673  2.1024  1.4685 -0.2971
  770MPD2    H211370   2.236   3.231  14.947  2.0368 -1.5684 -0.4054
  770MPD2    H311371   2.133   3.414  14.832  0.3027  2.6026 -1.2191
  770MPD2     N11372   2.503   3.516  14.595 -0.1328 -0.1056 -0.5561
  770MPD2    H511373   2.594   3.477  14.571 -0.2069 -0.7711  0.2397
  770MPD2    N111374   2.503   3.158  14.909 -0.4977 -0.2016  0.5185
  770MPD2    H711375   2.448   3.112  14.981 -0.5000 -2.6062 -1.0308
  771MPD2     C11376   4.060   1.710  13.873  0.3068 -0.0048  0.0043
  771MPD2    C111377   3.958   1.804  13.874  0.1765  0.3314 -0.5575
  771MPD2    C211378   3.826   1.763  13.853 -0.2003  0.0439 -0.1264
  771MPD2    C311379   3.798   1.632  13.833  0.4221 -0.8121 -0.4322
  771MPD2    C411380   3.904   1.541  13.838  0.1851  0.0499 -0.2708
  771MPD2    C511381   4.033   1.579  13.864 -0.0561  0.3004 -0.9181
  771MPD2     H11382   3.744   1.834  13.856  1.2653  1.7001  0.1218
  771MPD2    H111383   3.877   1.436  13.838 -0.7850  0.2900 -1.3606
  771MPD2    H211384   4.166   1.730  13.889  0.5922 -1.4234 -0.1642
  771MPD2    H311385   4.106   1.500  13.875  2.2582  2.5121 -0.2706
  771MPD2     N11386   3.662   1.598  13.803  0.6882  0.2559  0.1455
  771MPD2    H511387   3.599   1.677  13.789 -0.4762 -0.6891  0.0312
  771MPD2    N111388   3.981   1.943  13.886  0.5052  1.1696 -0.1447
  771MPD2    H711389   3.901   2.005  13.882 -0.8484 -0.6463 -1.1586
  772MPD2     C11390   3.655   2.568  14.068 -0.2168 -0.2009  0.3284
  772MPD2    C111391   3.634   2.439  14.034  0.0798 -0.4057  0.2587
  772MPD2    C211392   3.511   2.371  14.070  0.0102  0.4692  0.6749
  772MPD2    C311393   3.401   2.444  14.111 -0.1290  0.3305 -0.0309
  772MPD2    C411394   3.421   2.576  14.124 -0.2546 -0.0003  0.6316
  772MPD2    C511395   3.546   2.637  14.112  0.6537  0.1482  0.5613
  772MPD2     H11396   3.505   2.267  14.038  0.5715  0.6303  0.0555
  772MPD2    H111397   3.341   2.642  14.154 -0.6387 -0.4742  0.6425
  772MPD2    H211398   3.745   2.625  14.050 -0.1138 -0.2423  0.7075
  772MPD2    H311399   3.559   2.736  14.156  1.5389  1.1845 -2.0596
  772MPD2     N11400   3.274   2.389  14.143  0.8467  0.0173  0.3826
  772MPD2    H511401   3.202   2.452  14.176 -0.5146 -0.9749 -0.6726
  772MPD2    N111402   3.743   2.366  13.969  0.9040 -0.1642  0.1214
  772MPD2    H711403   3.728   2.268  13.949 -0.7085  0.0435  0.3163
  773MPD2     C11404   2.692   3.848  17.039  0.1839  0.0643  0.2195
  773MPD2    C111405   2.646   3.769  17.142  0.2720 -0.7095  0.7667
  773MPD2    C211406   2.744   3.717  17.229  0.5122  0.4747 -0.2640
  773MPD2    C311407   2.880   3.750  17.221 -0.2554 -0.6376 -0.8517
  773MPD2    C411408   2.924   3.827  17.119  0.3733 -0.2772 -0.0907
  773MPD2    C511409   2.828   3.868  17.023 -0.8107 -0.1779 -0.0856
  773MPD2     H11410   2.713   3.647  17.306  1.3232  1.2076  0.7337
  773MPD2    H111411   3.027   3.846  17.093  0.4625 -0.9392 -0.2362
  773MPD2    H211412   2.636   3.883  16.953  0.5243 -1.0952 -0.4850
  773MPD2    H311413   2.869   3.916  16.935  1.3150 -1.1046  0.3971
  773MPD2     N11414   2.972   3.698  17.319 -0.4142 -0.3539  0.1648
  773MPD2    H511415   2.933   3.649  17.398 -0.9075 -0.2303 -0.0043
  773MPD2    N111416   2.510   3.722  17.152 -0.1835  0.1955 -0.2013
  773MPD2    H711417   2.485   3.653  17.222 -0.7847  0.8810  0.2479
  774MPD2     C11418   2.499   2.197  13.281  1.1591  0.4992 -0.2131
  774MPD2    C111419   2.422   2.290  13.342 -0.4080  0.0115 -0.2523
  774MPD2    C211420   2.439   2.425  13.312 -0.1045  0.9326  0.5204
  774MPD2    C311421   2.545   2.466  13.233  0.2262  0.0839 -0.1106
  774MPD2    C411422   2.623   2.370  13.184  0.3039  0.3304 -0.0514
  774MPD2    C511423   2.610   2.236  13.207  0.1961  0.0196 -0.4989
  774MPD2     H11424   2.384   2.506  13.357 -0.1293  1.1763  0.0534
  774MPD2    H111425   2.702   2.391  13.113  0.0324  1.0624 -0.1412
  774MPD2    H211426   2.474   2.092  13.295 -1.4233  1.0297 -0.7598
  774MPD2    H311427   2.671   2.156  13.167 -0.4088 -0.9806  0.5513
  774MPD2     N11428   2.578   2.603  13.222  0.1337  0.3135 -0.3882
  774MPD2    H511429   2.511   2.664  13.269  1.2058 -0.9361  2.7404
  774MPD2    N111430   2.324   2.253  13.444 -0.2400  0.5118  0.2552
  774MPD2    H711431   2.305   2.154  13.449  1.3371  0.3244  2.1343
  775MPD2     C11432   3.324   4.008  15.406 -0.2959 -0.3043  0.0696
  775MPD2    C111433   3.277   4.102  15.497  0.0130  0.2143 -0.2408
  775MPD2    C211434   3.298   4.236  15.464  0.0692  0.4246 -0.0587
  775MPD2    C311435   3.365   4.273  15.349 -0.4034 -0.3540  0.5451
  775MPD2    C411436   3.414   4.177  15.267  0.1078 -0.0966  0.5358
  775MPD2    C511437   3.391   4.044  15.297  0.1319  0.4964 -0.4619
  775MPD2     H11438   3.265   4.312  15.534 -0.1443  1.5589 -1.3913
  775MPD2    H111439   3.469   4.211  15.180  0.3251 -0.7906  0.3990
  775MPD2    H211440   3.313   3.902  15.429  1.8458 -0.1582  1.6508
  775MPD2    H311441   3.434   3.976  15.224  0.8307  2.2468 -1.6621
  775MPD2     N11442   3.388   4.411  15.307 -0.2095 -0.1133  0.1848
  775MPD2    H511443   3.442   4.426  15.222  0.4914  1.8989  0.9777
  775MPD2    N111444   3.224   4.059  15.620 -0.2535  0.0177  0.2657
  775MPD2    H711445   3.261   3.969  15.650 -2.7096 -0.6198  1.3737
  776MPD2     C11446   2.379   4.160  11.539  0.2408 -0.5808  0.2203
  776MPD2    C111447   2.449   4.182  11.657  0.2866 -0.3615  0.1241
  776MPD2    C211448   2.443   4.309  11.720 -0.5303 -0.2097  0.5006
  776MPD2    C311449   2.374   4.410  11.656 -0.5320 -0.0588 -0.2726
  776MPD2    C411450   2.301   4.384  11.539  0.5499  0.5769  0.0604
  776MPD2    C511451   2.317   4.262  11.483  0.4097 -0.2343  0.2516
  776MPD2     H11452   2.501   4.324  11.811 -1.3065 -0.2597  0.9978
  776MPD2    H111453   2.242   4.455  11.481  1.6326  1.3016 -0.1466
  776MPD2    H211454   2.380   4.059  11.500  0.7705  0.6982 -3.0043
  776MPD2    H311455   2.274   4.245  11.385 -1.9989 -0.9556  1.4340
  776MPD2     N11456   2.364   4.536  11.710  0.5074 -0.2261 -0.1622
  776MPD2    H511457   2.304   4.599  11.658 -0.7728  0.6886  2.4116
  776MPD2    N111458   2.526   4.080  11.714  0.3021 -0.2608  0.0527
  776MPD2    H711459   2.559   4.094  11.809  0.3619  0.4069 -0.0654
  777MPD2     C11460   3.741   1.865   0.756  0.2010  0.0138 -0.4427
  777MPD2    C111461   3.652   1.776   0.803  0.3263  0.1757 -0.6837
  777MPD2    C211462   3.599   1.684   0.717  0.5877  0.4416 -0.1924
  777MPD2    C311463   3.638   1.687   0.583  0.7673 -0.2777  0.4658
  777MPD2    C411464   3.719   1.788   0.531 -0.0352  0.4872  0.2913
  777MPD2    C511465   3.771   1.876   0.621 -0.5464 -0.2157 -0.5748
  777MPD2     H11466   3.540   1.602   0.755  0.1590 -0.5450 -3.0278
  777MPD2    H111467   3.764   1.794   0.432  1.3992  1.2608  0.9953
  777MPD2    H211468   3.778   1.937   0.827  1.7521 -0.2223 -1.0238
  777MPD2    H311469   3.848   1.946   0.590 -0.9300 -0.1648 -1.4050
  777MPD2     N11470   3.600   1.574   0.508  0.4309 -0.2450  0.1485
  777MPD2    H511471   3.548   1.505   0.561 -0.5205  0.9156  0.7121
  777MPD2    N111472   3.617   1.765   0.946  1.2402  0.3129 -0.4856
  777MPD2    H711473   3.682   1.821   1.001  2.7786 -0.3231 -1.6594
  778MPD2     C11474   4.133   2.053  14.925 -0.8414  0.2738  1.0240
  778MPD2    C111475   4.182   1.918  14.925 -0.2286  0.0469  0.2793
  778MPD2    C211476   4.318   1.903  14.891 -0.9845 -0.2816 -0.2618
  778MPD2    C311477   4.402   2.013  14.860  0.4663  1.1448 -0.4551
  778MPD2    C411478   4.350   2.141  14.859  0.2831  0.2950 -0.2891
  778MPD2    C511479   4.215   2.159  14.884 -0.0156 -0.0995 -0.7962
  778MPD2     H11480   4.346   1.799  14.896 -1.3027 -0.3469  0.2572
  778MPD2    H111481   4.413   2.225  14.832 -0.1781  0.6705 -0.1888
  778MPD2    H211482   4.026   2.070  14.934 -0.9417 -0.0354  0.4278
  778MPD2    H311483   4.164   2.253  14.871  1.7220  1.3070  2.4411
  778MPD2     N11484   4.532   1.997  14.813  0.8494  0.5257  0.0265
  778MPD2    H511485   4.578   2.066  14.755 -0.5638 -0.3736 -2.1283
  778MPD2    N111486   4.105   1.805  14.938 -0.2751  0.1534  0.2781
  778MPD2    H711487   4.131   1.711  14.910  2.0351  0.4576  1.4732
  779MPD2     C11488   3.850   0.768  14.073  0.1175 -0.0358  0.1340
  779MPD2    C111489   3.943   0.781  14.180  0.1242  0.1588  0.1319
  779MPD2    C211490   3.964   0.905  14.230 -0.4000  0.1229  0.0710
  779MPD2    C311491   3.914   1.015  14.165  0.2978  0.1301 -0.6814
  779MPD2    C411492   3.820   1.000  14.056  0.2443 -0.6492 -0.3569
  779MPD2    C511493   3.789   0.877  14.014 -0.7475 -0.0108  0.0191
  779MPD2     H11494   4.035   0.914  14.312  1.0477  1.7588 -1.3332
  779MPD2    H111495   3.764   1.081  14.011 -1.4885 -1.7398 -0.1713
  779MPD2    H211496   3.840   0.672  14.023 -0.7880 -0.1718  0.5701
  779MPD2    H311497   3.725   0.864  13.927 -2.7891  0.8157  1.4080
  779MPD2     N11498   3.965   1.146  14.194  0.2254  0.0104 -0.3643
  779MPD2    H511499   4.027   1.154  14.273  0.4159 -0.6995 -0.4421
  779MPD2    N111500   4.036   0.677  14.205  0.0397 -0.3789  0.0611
  779MPD2    H711501   4.106   0.696  14.276  2.2740 -0.8244 -2.0261
  780MPD2     C11502   3.744   0.479   1.267 -0.1359  0.8575 -1.3913
  780MPD2    C111503   3.727   0.467   1.128 -0.0281  0.5745  0.6340
  780MPD2    C211504   3.831   0.508   1.046 -0.1394 -0.2420  0.9666
  780MPD2    C311505   3.943   0.571   1.099  0.0899 -0.6156  1.0309
  780MPD2    C411506   3.953   0.591   1.232  1.2758  0.4403  0.4891
  780MPD2    C511507   3.853   0.545   1.311 -0.3487 -0.1771 -0.4510
  780MPD2     H11508   3.836   0.485   0.940 -1.6432 -0.7026  0.9827
  780MPD2    H111509   4.032   0.652   1.275  0.0505  0.9384  2.0443
  780MPD2    H211510   3.669   0.440   1.336  1.8050  0.4543  0.4867
  780MPD2    H311511   3.862   0.557   1.418  1.6788 -1.0339 -0.5191
  780MPD2     N11512   4.039   0.612   1.002 -0.4078  0.2673  0.0240
  780MPD2    H511513   4.013   0.615   0.904  0.4119 -2.7530 -0.2700
  780MPD2    N111514   3.603   0.408   1.092  0.4147  0.0414 -0.0512
  780MPD2    H711515   3.540   0.366   1.159  2.6000 -1.7748  0.8733
  781MPD2     C11516   0.069   2.862  12.147 -0.2362 -0.0817  0.1025
  781MPD2    C111517   0.188   2.882  12.216  0.1062 -0.8607  0.0580
  781MPD2    C211518   0.294   2.946  12.149 -0.1970 -0.3830  0.3445
  781MPD2    C311519   0.279   2.987  12.016  0.1931  0.2300  0.3734
  781MPD2    C411520   0.155   2.964  11.957  0.1137  0.0410 -0.4172
  781MPD2    C511521   0.049   2.908  12.024  0.3164 -0.0467 -0.1350
  781MPD2     H11522   0.388   2.958  12.203 -0.2859  0.5245  0.2951
  781MPD2    H111523   0.143   2.999  11.855 -0.9957  1.3894  0.1776
  781MPD2    H211524   4.703   2.815  12.191 -0.7638 -0.9261 -1.8278
  781MPD2    H311525   4.674   2.903  11.975 -0.3865  0.8161  1.1523
  781MPD2     N11526   0.380   3.046  11.934 -0.0429  0.2747 -0.1092
  781MPD2    H511527   0.359   3.074  11.839  0.0290 -2.3034 -0.8845
  781MPD2    N111528   0.221   2.837  12.346  0.2930  0.0815 -0.1907
  781MPD2    H711529   0.316   2.845  12.380 -0.5366  2.0902  1.6358
  782MPD2     C11530   3.061   3.602  10.193  0.0059  0.5084 -0.3321
  782MPD2    C111531   3.170   3.528  10.231 -0.1783 -0.9814 -0.2920
  782MPD2    C211532   3.233   3.577  10.341  0.1173  0.3050 -0.2666
  782MPD2    C311533   3.201   3.697  10.411 -0.0284  0.8699 -0.7988
  782MPD2    C411534   3.086   3.755  10.376 -0.1784 -0.3719  0.4150
  782MPD2    C511535   3.021   3.712  10.262 -0.3814 -0.1716 -0.0046
  782MPD2     H11536   3.324   3.528  10.373 -0.0578  1.1385  1.4980
  782MPD2    H111537   3.050   3.843  10.429  0.2672 -1.3573  2.3149
  782MPD2    H211538   3.006   3.572  10.104 -1.0684  1.8349 -0.1005
  782MPD2    H311539   2.937   3.766  10.221 -1.2466 -0.1453  1.7826
  782MPD2     N11540   3.278   3.738  10.529 -0.2700  0.2584  0.5220
  782MPD2    H511541   3.360   3.686  10.558  0.3974  0.9907 -0.0327
  782MPD2    N111542   3.214   3.410  10.174  0.3993 -0.3895  0.2424
  782MPD2    H711543   3.291   3.362  10.219  0.6768 -0.0950  0.0827
  783MPD2     C11544   2.729   2.695  10.507  0.5042 -0.2569  0.7343
  783MPD2    C111545   2.759   2.832  10.540  0.3919  0.0652 -0.2321
  783MPD2    C211546   2.836   2.910  10.462 -0.7420 -0.3924 -1.1641
  783MPD2    C311547   2.900   2.854  10.355  0.1219  0.8337  0.0840
  783MPD2    C411548   2.877   2.723  10.318 -0.2751 -0.2868 -1.3066
  783MPD2    C511549   2.789   2.652  10.397 -0.4068  0.0283  0.4198
  783MPD2     H11550   2.834   3.017  10.478  1.4386 -0.7672  1.7666
  783MPD2    H111551   2.918   2.669  10.234 -0.4451  0.9142 -2.1536
  783MPD2    H211552   2.663   2.632  10.566 -0.7553  0.6969  0.3618
  783MPD2    H311553   2.774   2.548  10.374 -1.1507  0.1228  0.4695
  783MPD2     N11554   3.007   2.929  10.293  0.3285  0.3334 -0.0779
  783MPD2    H511555   3.015   3.025  10.326  1.5808 -0.6817  2.5807
  783MPD2    N111556   2.701   2.881  10.658 -0.7771 -0.2196  0.6805
  783MPD2    H711557   2.619   2.833  10.694 -0.9816 -0.1996  0.2377
  784MPD2     C11558   1.506   3.797   1.264  0.3691  0.9171  0.5512
  784MPD2    C111559   1.449   3.852   1.373 -0.0541  0.3848 -0.2620
  784MPD2    C211560   1.320   3.902   1.359  0.7876 -0.5401 -0.0593
  784MPD2    C311561   1.232   3.861   1.262  0.0858 -0.1812  0.0098
  784MPD2    C411562   1.287   3.799   1.152  0.6419  0.6369  0.0960
  784MPD2    C511563   1.425   3.769   1.156 -0.0868 -0.4291  1.3371
  784MPD2     H11564   1.285   3.979   1.427  0.5832 -1.6876  1.1338
  784MPD2    H111565   1.230   3.771   1.064 -0.0175  0.2910  0.6405
  784MPD2    H211566   1.613   3.781   1.261  0.1141 -0.8423  0.8530
  784MPD2    H311567   1.466   3.715   1.072  1.7044 -0.0043  1.9278
  784MPD2     N11568   1.090   3.890   1.271 -0.0916  0.1297  0.0040
  784MPD2    H511569   1.058   3.951   1.345 -0.0202 -0.6846  0.7161
  784MPD2    N111570   1.531   3.890   1.478  0.4112  0.7888 -0.1358
  784MPD2    H711571   1.492   3.959   1.540  1.2657 -0.2176  1.5204
  785MPD2     C11572   0.706   2.050  10.123  0.6137  0.0316 -0.4251
  785MPD2    C111573   0.604   2.146  10.141  0.3383  0.6230 -0.6529
  785MPD2    C211574   0.512   2.165  10.032 -0.1338 -0.6836  0.0539
  785MPD2    C311575   0.523   2.107   9.911 -0.6778 -0.4334 -0.4362
  785MPD2    C411576   0.625   2.018   9.896  0.3398  0.1580  0.2466
  785MPD2    C511577   0.712   1.989  10.003 -0.3897 -0.9642 -0.4521
  785MPD2     H11578   0.431   2.236  10.038  1.0678  0.7215 -0.1007
  785MPD2    H111579   0.645   1.966   9.802 -1.6820 -1.2380  0.5911
  785MPD2    H211580   0.775   2.024  10.203 -0.2784  0.2256  0.3993
  785MPD2    H311581   0.783   1.909   9.987  1.8496  0.9319 -0.0554
  785MPD2     N11582   0.440   2.154   9.805  0.1600  0.3708 -0.6691
  785MPD2    H511583   0.381   2.230   9.839 -1.0933  0.0982 -2.2455
  785MPD2    N111584   0.584   2.229  10.254 -0.0425  0.5668  0.3614
  785MPD2    H711585   0.508   2.296  10.248 -1.9877 -1.7282 -0.5399
  786MPD2     C11586   3.855   4.651  14.980 -0.9417 -0.3041 -0.4348
  786MPD2    C111587   3.992   4.644  14.953 -0.1271 -0.3389 -0.3842
  786MPD2    C211588   4.077   0.017  15.004 -0.2606  0.3053  0.2079
  786MPD2    C311589   4.028   0.113  15.083  0.1427 -0.4931  0.2526
  786MPD2    C411590   3.899   0.117  15.122 -0.0082  0.8417  0.3909
  786MPD2    C511591   3.809   0.020  15.075 -1.1043 -0.0233  0.5767
  786MPD2     H11592   4.182   0.004  14.979 -0.4136  0.2289 -0.3998
  786MPD2    H111593   3.862   0.188  15.195 -0.0631 -0.3171  1.4908
  786MPD2    H211594   3.792   4.564  14.966 -1.7611  0.4646 -1.5535
  786MPD2    H311595   3.703   0.025  15.093 -0.8809  0.0298  1.8597
  786MPD2     N11596   4.109   0.221  15.127  0.2448  0.3809  0.2797
  786MPD2    H511597   4.066   0.282  15.196 -0.4447  0.7752 -0.5028
  786MPD2    N111598   4.045   4.533  14.883 -0.2739  0.0136  0.9286
  786MPD2    H711599   4.138   4.539  14.842  0.4653  1.6252  2.8256
  787MPD2     C11600   4.258   4.053  15.287  0.8151  0.7339  0.6520
  787MPD2    C111601   4.298   4.013  15.164 -0.3393  0.2761 -0.8181
  787MPD2    C211602   4.425   3.956  15.160 -0.2313 -0.5137 -0.2475
  787MPD2    C311603   4.501   3.917  15.272  0.1430  0.8445 -0.2729
  787MPD2    C411604   4.458   3.970  15.395  0.0224 -0.7069  0.0872
  787MPD2    C511605   4.335   4.035  15.400  0.7824 -0.1464  0.0807
  787MPD2     H11606   4.460   3.929  15.061  0.5312 -2.2407  0.4997
  787MPD2    H111607   4.514   3.967  15.487  0.9747  0.5546 -0.4494
  787MPD2    H211608   4.161   4.099  15.303  0.3082 -0.0429 -0.1930
  787MPD2    H311609   4.301   4.087  15.488  2.0848  1.2714 -0.2669
  787MPD2     N11610   4.617   3.842  15.244 -0.0724  0.4423  0.3971
  787MPD2    H511611   4.650   3.848  15.149 -0.0310 -0.7784  0.3248
  787MPD2    N111612   4.224   4.048  15.051  0.3945 -0.2083  0.3542
  787MPD2    H711613   4.146   4.111  15.066  1.2641  0.6874  1.1747
  788MPD2     C11614   1.457   2.139   1.798  0.7257  0.1926 -0.1108
  788MPD2    C111615   1.471   2.105   1.666  0.2044  0.1278  0.6177
  788MPD2    C211616   1.563   2.174   1.581 -0.1806  0.4913 -0.2461
  788MPD2    C311617   1.636   2.282   1.628 -0.7842  0.3581 -0.5594
  788MPD2    C411618   1.615   2.313   1.760  0.1392 -0.6797 -0.5957
  788MPD2    C511619   1.532   2.242   1.849 -0.7641  0.1974  0.0364
  788MPD2     H11620   1.585   2.137   1.481 -0.1375  1.6528 -0.6642
  788MPD2    H111621   1.673   2.391   1.807 -0.3023  0.1616 -1.4354
  788MPD2    H211622   1.383   2.102   1.869  1.6782 -1.7179 -0.1198
  788MPD2    H311623   1.523   2.274   1.952  2.0115 -1.5206  0.8147
  788MPD2     N11624   1.750   2.326   1.551 -0.2964  0.3184 -0.0152
  788MPD2    H511625   1.776   2.276   1.468 -1.6154  1.2236 -0.9700
  788MPD2    N111626   1.393   1.999   1.616  0.2170 -0.2593  0.4677
  788MPD2    H711627   1.337   1.939   1.675 -0.8376  0.2367 -0.0477
  789MPD2     C11628   2.237   2.791  16.103  0.3902 -0.4389 -0.0625
  789MPD2    C111629   2.218   2.717  16.211 -0.7642  0.2100  0.5806
  789MPD2    C211630   2.117   2.746  16.302 -0.3954  0.6780 -0.0488
  789MPD2    C311631   2.037   2.852  16.271  0.0686  0.2935 -0.5781
  789MPD2    C411632   2.053   2.924  16.155  0.2105  0.3859 -0.1461
  789MPD2    C511633   2.159   2.903  16.070 -0.4888  0.0290 -0.0780
  789MPD2     H11634   2.098   2.678  16.384 -0.1562  0.7746  0.0835
  789MPD2    H111635   1.974   2.993  16.128  1.7429  1.2673 -2.3494
  789MPD2    H211636   2.317   2.775  16.032 -1.2611  0.0329 -2.0508
  789MPD2    H311637   2.172   2.970  15.986 -0.2952 -0.3681 -0.3659
  789MPD2     N11638   1.932   2.892  16.360  0.1960  0.1882 -0.0024
  789MPD2    H511639   1.882   2.975  16.329  0.5894 -0.8609 -3.5126
  789MPD2    N111640   2.303   2.609  16.240 -0.0249 -0.6012  0.7726
  789MPD2    H711641   2.280   2.556  16.323  0.4419 -0.8882  0.7202
  790MPD2     C11642   2.971   0.465  13.202 -0.3887  0.0982 -0.5018
  790MPD2    C111643   3.044   0.346  13.226  0.2323  0.2614  0.5481
  790MPD2    C211644   3.019   0.230  13.156 -0.4089  0.4722 -0.6808
  790MPD2    C311645   2.911   0.228  13.066  0.0953 -0.7814  0.3101
  790MPD2    C411646   2.835   0.337  13.057 -0.2902  0.3998  0.4413
  790MPD2    C511647   2.868   0.452  13.119  0.1943 -1.0258  0.2281
  790MPD2     H11648   3.083   0.143  13.158 -0.5536  0.4238  1.2378
  790MPD2    H111649   2.750   0.359  12.993 -0.2222 -3.1892 -0.8367
  790MPD2    H211650   3.010   0.554  13.251 -0.3303 -0.3968  0.3463
  790MPD2    H311651   2.812   0.543  13.101 -0.1074 -1.0686  0.9396
  790MPD2     N11652   2.890   0.113  12.981 -0.0484  0.0812  0.2476
  790MPD2    H511653   2.957   0.036  12.984  0.4398  0.5125  0.3181
  790MPD2    N111654   3.160   0.359  13.302 -0.1704  0.1170 -0.4554
  790MPD2    H711655   3.166   0.439  13.364 -0.7648 -1.0085  1.0380
  791MPD2     C11656   2.283   4.635  13.026 -0.9404 -0.3913 -0.4685
  791MPD2    C111657   2.316   4.544  12.928 -0.6184 -0.4489  0.1809
  791MPD2    C211658   2.246   4.426  12.921  0.3942 -0.0033  0.2359
  791MPD2    C311659   2.137   4.395  13.004 -0.1013 -0.3785  0.2285
  791MPD2    C411660   2.101   4.498  13.092 -0.4784 -0.3556  0.2189
  791MPD2    C511661   2.168   4.613  13.104 -0.4351  0.6094 -1.1118
  791MPD2     H11662   2.287   4.353  12.852  0.2100 -0.2314  0.3691
  791MPD2    H111663   2.007   4.479  13.143 -0.6181 -0.4617 -0.0798
  791MPD2    H211664   2.335   0.006  13.052 -0.2168 -0.8729 -0.1983
  791MPD2    H311665   2.136   4.691  13.173 -1.9873 -0.2003 -0.9257
  791MPD2     N11666   2.073   4.273  12.989  0.7495  0.1538  0.1307
  791MPD2    H511667   2.105   4.217  12.910 -2.1906 -2.2435  0.6304
  791MPD2    N111668   2.430   4.575  12.854  0.0269  0.3539 -0.1350
  791MPD2    H711669   2.475   4.664  12.873 -0.0091  0.1158  1.1030
  792MPD2     C11670   3.055   4.488  11.662 -0.0262 -0.0085 -0.4375
  792MPD2    C111671   3.023   4.525  11.536 -1.3131 -0.4518  0.7321
  792MPD2    C211672   2.921   4.463  11.476 -0.1885 -0.9322 -0.0949
  792MPD2    C311673   2.860   4.354  11.532  0.4752 -0.2965  0.2351
  792MPD2    C411674   2.916   4.309  11.649 -0.1761 -0.4394  0.4129
  792MPD2    C511675   3.014   4.375  11.718  0.7662 -0.0301 -0.0140
  792MPD2     H11676   2.885   4.482  11.376 -0.6112  2.5107  0.7168
  792MPD2    H111677   2.888   4.211  11.685 -0.0151 -0.8687 -0.6568
  792MPD2    H211678   3.131   4.543  11.716 -1.1046  1.5258 -0.4676
  792MPD2    H311679   3.062   4.337  11.808  0.8723  0.9702  0.3550
  792MPD2     N11680   2.761   4.272  11.469  0.3555 -0.1935  0.1931
  792MPD2    H511681   2.749   4.176  11.499  1.3694 -1.3118 -3.0478
  792MPD2    N111682   3.094   4.634  11.492 -0.1170 -0.2175  0.2618
  792MPD2    H711683   3.134   4.693  11.564 -0.7135 -2.1108  2.1418
  793MPD2     C11684   2.260   4.312  10.511 -0.0273 -0.8509 -0.3976
  793MPD2    C111685   2.389   4.290  10.511  0.0178 -0.9933 -0.6947
  793MPD2    C211686   2.461   4.290  10.628  0.4286 -0.6512  0.5951
  793MPD2    C311687   2.393   4.288  10.748 -0.0942 -0.0346 -0.4734
  793MPD2    C411688   2.255   4.289  10.751 -0.2802  0.4850 -0.3659
  793MPD2    C511689   2.194   4.310  10.628  0.3725 -0.0581  0.1533
  793MPD2     H11690   2.569   4.284  10.639  0.8571  1.9697 -1.8684
  793MPD2    H111691   2.189   4.282  10.836 -1.9866  0.5803 -1.6974
  793MPD2    H211692   2.200   4.319  10.421 -0.1817  4.1513  0.0745
  793MPD2    H311693   2.087   4.331  10.625  0.2094 -0.5686  2.1831
  793MPD2     N11694   2.469   4.259  10.860 -0.2885  0.0758 -1.0762
  793MPD2    H511695   2.570   4.251  10.850 -0.4097 -2.2080 -0.5479
  793MPD2    N111696   2.457   4.278  10.381 -0.2731 -0.1889  0.2596
  793MPD2    H711697   2.558   4.274  10.392 -0.6622  0.1747  3.7099
  794MPD2     C11698   1.748   3.609  16.776  0.0924  0.2576  0.3717
  794MPD2    C111699   1.884   3.618  16.746  0.1143  0.0997 -0.6694
  794MPD2    C211700   1.927   3.603  16.615  0.2515  0.0391 -1.2035
  794MPD2    C311701   1.835   3.582  16.518  0.7715  0.0630  0.1852
  794MPD2    C411702   1.697   3.569  16.553  0.2207  0.2458 -0.3913
  794MPD2    C511703   1.650   3.582  16.679  0.8132 -0.5611  0.6355
  794MPD2     H11704   2.034   3.613  16.599  0.2302 -1.1139 -2.0232
  794MPD2    H111705   1.629   3.544  16.472  0.6465  2.5730 -1.4663
  794MPD2    H211706   1.708   3.620  16.876 -1.4262 -1.4451 -0.0625
  794MPD2    H311707   1.550   3.568  16.717 -0.5282  2.3535 -1.8140
  794MPD2     N11708   1.873   3.563  16.384  0.3803  0.4211 -0.4419
  794MPD2    H511709   1.801   3.543  16.315  0.2213 -1.6758  0.3294
  794MPD2    N111710   1.980   3.644  16.844  0.0003  0.6033  0.1590
  794MPD2    H711711   2.075   3.617  16.821 -0.2166 -0.6976  0.8106
  795MPD2     C11712   0.718   1.288  13.337 -0.1138 -0.1977 -0.0297
  795MPD2    C111713   0.664   1.161  13.344 -0.0689 -0.9596 -0.2457
  795MPD2    C211714   0.750   1.056  13.330  0.6805  0.6730 -0.5564
  795MPD2    C311715   0.886   1.072  13.304  0.5702 -0.2232  0.3103
  795MPD2    C411716   0.934   1.198  13.300 -0.5881  0.0787 -0.2509
  795MPD2    C511717   0.845   1.304  13.312  0.6379  1.1971  0.1916
  795MPD2     H11718   0.705   0.960  13.351 -2.5996  2.0073 -1.5827
  795MPD2    H111719   1.037   1.231  13.294 -1.2813  1.9612 -1.6800
  795MPD2    H211720   0.656   1.377  13.340  0.5735  0.1958  2.1999
  795MPD2    H311721   0.876   1.408  13.306 -0.3648  1.3760 -1.9504
  795MPD2     N11722   0.968   0.950  13.305 -0.1566 -0.5128 -0.4640
  795MPD2    H511723   0.912   0.865  13.315 -0.6022  0.1260  2.3736
  795MPD2    N111724   0.529   1.141  13.355 -0.1613 -0.0549 -0.2508
  795MPD2    H711725   0.498   1.045  13.343 -0.7701 -0.0716  1.4931
  796MPD2     C11726   0.578   2.102  15.787  0.2617  0.3379  0.0115
  796MPD2    C111727   0.548   2.167  15.903 -0.9492 -0.3082 -0.3987
  796MPD2    C211728   0.456   2.274  15.896  0.3493  0.6154  0.3439
  796MPD2    C311729   0.401   2.323  15.780  0.6509  0.4314  0.3295
  796MPD2    C411730   0.437   2.265  15.664 -0.2664  0.1182 -0.6226
  796MPD2    C511731   0.524   2.155  15.675 -0.3334 -0.2215  0.4681
  796MPD2     H11732   0.419   2.320  15.987  1.8759  0.3580  1.0957
  796MPD2    H111733   0.398   2.289  15.566  1.3706 -0.6766 -1.4733
  796MPD2    H211734   0.642   2.015  15.782 -0.9137 -0.4973 -0.3981
  796MPD2    H311735   0.540   2.098  15.584  2.1469  0.2091  0.6475
  796MPD2     N11736   0.322   2.435  15.791 -0.2967  0.4632 -0.1758
  796MPD2    H511737   0.306   2.476  15.883  2.2921 -1.0086  0.9231
  796MPD2    N111738   0.586   2.101  16.016  0.4335 -0.2227  0.4990
  796MPD2    H711739   0.637   2.015  15.996 -0.5751 -0.2443 -1.8727
  797MPD2     C11740   1.077   1.880   0.018 -0.5172 -1.1883  0.3612
  797MPD2    C111741   1.174   1.972   0.003  0.6724  0.1063 -0.6363
  797MPD2    C211742   1.153   2.088  17.620 -0.3038  0.5171  0.3819
  797MPD2    C311743   1.031   2.116  17.561  0.3529  0.8998 -0.1903
  797MPD2    C411744   0.929   2.027  17.581 -0.0084 -0.3105 -0.3080
  797MPD2    C511745   0.954   1.906  17.647 -0.3217  0.7438  0.0491
  797MPD2     H11746   1.231   2.163  17.611  0.0009  0.2147  0.5376
  797MPD2    H111747   0.831   2.031  17.535  1.0236  1.0793 -2.3838
  797MPD2    H211748   1.096   1.782   0.060  3.7283 -0.0173  1.2798
  797MPD2    H311749   0.875   1.833  17.657  2.0294 -1.8732 -0.7410
  797MPD2     N11750   1.023   2.235  17.488 -0.0853 -0.1864  0.0720
  797MPD2    H511751   1.100   2.300  17.498  1.9290 -2.8225  1.4634
  797MPD2    N111752   1.311   1.952   0.042 -0.4846  0.4919  0.0671
  797MPD2    H711753   1.378   2.024   0.019 -0.3460  0.7833  1.4159
  798MPD2     C11754   1.439   2.673   0.063  0.6334  0.1924 -0.1954
  798MPD2    C111755   1.388   2.565  17.672  0.1644  0.0552 -0.1775
  798MPD2    C211756   1.443   2.441   0.013 -0.3841  0.6136 -0.1659
  798MPD2    C311757   1.530   2.418   0.123  0.3687 -0.3659  0.0700
  798MPD2    C411758   1.567   2.525   0.200 -0.4302 -0.7446  0.4149
  798MPD2    C511759   1.531   2.656   0.165  0.0917  0.6189 -0.2105
  798MPD2     H11760   1.419   2.354  17.640  0.1987 -0.1016  0.6447
  798MPD2    H111761   1.639   2.501   0.277 -1.4562 -0.0783  1.5680
  798MPD2    H211762   1.417   2.778   0.050  0.2873 -0.0171 -1.3179
  798MPD2    H311763   1.567   2.736   0.230  0.7544  0.1261  0.0251
  798MPD2     N11764   1.573   2.281   0.138 -0.4856 -0.0342 -0.3776
  798MPD2    H511765   1.536   2.226   0.062  0.5502 -0.3179 -0.6776
  798MPD2    N111766   1.299   2.595  17.565 -0.9849  0.3107 -0.2189
  798MPD2    H711767   1.271   2.692  17.551  1.2728  1.0348  0.2496
  799MPD2     C11768   4.718   4.038  14.856 -0.5730  0.1658  0.2396
  799MPD2    C111769   4.681   3.943  14.759 -0.0060 -0.4515  0.4709
  799MPD2    C211770   4.658   3.996  14.631  0.6136  0.4208 -0.0143
  799MPD2    C311771   4.670   4.127  14.602  0.1044  0.0052 -0.0410
  799MPD2    C411772   4.715   4.211  14.702 -0.6911 -0.2917 -0.0606
  799MPD2    C511773   0.012   4.165  14.829 -0.3656 -0.1739 -0.5029
  799MPD2     H11774   4.657   3.927  14.548 -1.2773  0.6496 -0.1883
  799MPD2    H111775   0.005   4.318  14.688  0.9755 -0.7170 -2.0136
  799MPD2    H211776   0.013   4.011  14.960  1.5194  2.0437  0.4009
  799MPD2    H311777   0.015   4.239  14.909 -0.9047 -0.8897  0.1789
  799MPD2     N11778   4.674   4.182  14.471  0.7323  0.4714  0.3612
  799MPD2    H511779   4.674   4.284  14.474  1.4748  0.4850 -0.3188
  799MPD2    N111780   4.665   3.803  14.788  0.2045  0.3518  0.3602
  799MPD2    H711781   4.629   3.744  14.714  2.1774 -1.1544  0.5933
  800MPD2     C11782   0.259   4.705  14.525  0.3917  0.2202  0.2066
  800MPD2    C111783   0.387   0.022  14.491 -0.4363  0.7818  0.4006
  800MPD2    C211784   0.422   0.046  14.360 -0.3452 -0.3027 -0.2643
  800MPD2    C311785   0.320   0.040  14.259  0.1038  0.5329  0.1387
  800MPD2    C411786   0.187   0.017  14.302 -0.1129  0.1645 -0.3199
  800MPD2    C511787   0.162   4.698  14.429 -0.1669  0.1314 -0.9899
  800MPD2     H11788   0.524   0.078  14.340 -0.8077 -0.3679 -2.8187
  800MPD2    H111789   0.094   0.009  14.247 -1.7871 -0.2325  2.6203
  800MPD2    H211790   0.233   4.688  14.629 -3.8409 -0.0178 -0.9009
  800MPD2    H311791   0.059   4.708  14.462 -0.2437 -2.1885 -0.4903
  800MPD2     N11792   0.350   0.057  14.126  0.0301 -0.5201  0.3575
  800MPD2    H511793   0.444   0.083  14.097 -0.1006  0.9007  1.1804
  800MPD2    N111794   0.473   0.037  14.599 -0.0655  0.8607 -0.2039
  800MPD2    H711795   0.431   0.015  14.689 -0.7575  2.5338 -0.1112
  801MPD2     C11796   0.142   0.298  14.821  0.2170 -0.0064 -0.4416
  801MPD2    C111797   0.262   0.326  14.755  0.1994 -0.1797 -0.1218
  801MPD2    C211798   0.264   0.343  14.618 -0.1312 -0.8074 -0.0347
  801MPD2    C311799   0.154   0.322  14.546 -0.1305  0.3537 -0.1160
  801MPD2    C411800   0.033   0.287  14.604  0.3331 -1.0232  0.0763
  801MPD2    C511801   0.027   0.280  14.746  0.0073 -0.3209 -0.0644
  801MPD2     H11802   0.361   0.370  14.577 -0.5128  0.6924  0.0749
  801MPD2    H111803   4.662   0.297  14.549  0.0173  0.7917  0.9344
  801MPD2    H211804   0.130   0.286  14.928 -0.3947  0.8176 -0.4181
  801MPD2    H311805   4.651   0.265  14.792 -0.0723 -0.1301 -0.1672
  801MPD2     N11806   0.161   0.346  14.409  0.5470  0.5904 -0.3037
  801MPD2    H511807   0.070   0.339  14.367  1.6476 -2.6221 -2.1489
  801MPD2    N111808   0.385   0.327  14.813 -0.4224 -0.0989 -0.4666
  801MPD2    H711809   0.463   0.336  14.750 -0.7084 -0.2926 -0.8465
  802MPD2     C11810   4.245   0.857  17.325  0.5917  0.5193  0.0983
  802MPD2    C111811   4.335   0.915  17.413 -0.2350  0.1915  0.3668
  802MPD2    C211812   4.464   0.872  17.420  0.2176 -0.5106  0.1879
  802MPD2    C311813   4.514   0.784  17.331  0.4748 -0.6018  0.1588
  802MPD2    C411814   4.418   0.722  17.241  0.6795  0.4543  0.3757
  802MPD2    C511815   4.292   0.760  17.241  0.4931  0.3372  0.2141
  802MPD2     H11816   4.522   0.909  17.504  0.6664  0.7348 -0.6750
  802MPD2    H111817   4.453   0.644  17.175  0.9287 -0.3281  1.4330
  802MPD2    H211818   4.141   0.888  17.327  0.4299 -0.1358  1.2981
  802MPD2    H311819   4.224   0.718  17.167  0.0680  1.2528  0.0869
  802MPD2     N11820   4.655   0.765  17.344  0.3391 -0.2415  0.0132
  802MPD2    H511821   4.699   0.812  17.423 -0.3308  2.6369 -1.3225
  802MPD2    N111822   4.293   1.013  17.509 -0.2541 -0.4248  0.0914
  802MPD2    H711823   4.367   1.056  17.563 -0.2303  0.4369 -0.6287
  803MPD2     C11824   1.498   4.177  12.007  0.2412  0.1108  0.2563
  803MPD2    C111825   1.508   4.164  12.146 -0.0968 -0.4264  0.0300
  803MPD2    C211826   1.407   4.093  12.210  0.2041 -0.5621  0.8437
  803MPD2    C311827   1.282   4.070  12.154  0.3254  0.0679 -0.0718
  803MPD2    C411828   1.273   4.104  12.023  0.4622  0.1621 -0.5372
  803MPD2    C511829   1.377   4.157  11.953 -0.8482  0.3806 -0.1242
  803MPD2     H11830   1.417   4.068  12.315 -3.0157  1.9764  1.7366
  803MPD2    H111831   1.179   4.083  11.973 -0.1642  0.7553  0.3891
  803MPD2    H211832   1.571   4.224  11.941  0.6161  0.8598  1.2076
  803MPD2    H311833   1.362   4.162  11.846 -1.2154  1.0235 -0.0393
  803MPD2     N11834   1.183   3.984  12.208 -0.0994  0.3212 -0.6090
  803MPD2    H511835   1.097   3.984  12.154 -1.8452  2.5955  2.1690
  803MPD2    N111836   1.617   4.220  12.215 -0.3464  0.2444 -0.3868
  803MPD2    H711837   1.605   4.218  12.316 -0.5531 -1.5117 -0.4532
  804MPD2     C11838   0.489   0.645  17.112  0.0989 -0.1356 -0.0629
  804MPD2    C111839   0.555   0.584  17.214  0.3076 -0.4826  0.0432
  804MPD2    C211840   0.655   0.646  17.272 -0.1974 -0.1022  0.5959
  804MPD2    C311841   0.699   0.769  17.224 -0.1906 -0.4957 -0.2021
  804MPD2    C411842   0.649   0.827  17.115  0.8261 -0.4262 -0.0029
  804MPD2    C511843   0.543   0.768  17.061 -0.0257 -0.3562  0.7217
  804MPD2     H11844   0.707   0.598  17.354  1.1016 -0.4768 -0.4360
  804MPD2    H111845   0.676   0.925  17.078 -1.1054 -0.1015 -0.5626
  804MPD2    H211846   0.410   0.594  17.056 -0.6485  2.0524 -0.9884
  804MPD2    H311847   0.494   0.820  16.979  2.5537  2.1755  0.7793
  804MPD2     N11848   0.806   0.844  17.284  0.4910  0.1583 -0.1628
  804MPD2    H511849   0.821   0.942  17.264  2.6724  0.4010  2.7315
  804MPD2    N111850   0.518   0.462  17.269  0.3216  0.2581  0.2569
  804MPD2    H711851   0.566   0.437  17.355  0.9435  0.8649  0.0917
  805MPD2     C11852   4.385   3.849  15.860 -0.1542 -0.4924  0.2130
  805MPD2    C111853   4.454   3.789  15.759  0.0371 -0.8675  0.1837
  805MPD2    C211854   4.592   3.778  15.774  0.1859 -1.0427  0.5122
  805MPD2    C311855   4.659   3.818  15.888 -0.5306  0.0889  0.4328
  805MPD2    C411856   4.589   3.874  15.995  0.1923  0.5498  0.3707
  805MPD2    C511857   4.450   3.883  15.978  0.6090  0.5388 -0.5688
  805MPD2     H11858   4.656   3.755  15.690 -0.1107 -0.9678  0.2637
  805MPD2    H111859   4.625   3.922  16.085  0.6615 -1.6965  1.3954
  805MPD2    H211860   4.278   3.870  15.860  0.1834  1.2981  0.3089
  805MPD2    H311861   4.389   3.920  16.059  0.0326 -1.2725 -0.1778
  805MPD2     N11862   0.079   3.815  15.889 -0.2346  0.0811 -0.1848
  805MPD2    H511863   0.128   3.783  15.806 -0.5710 -3.8516  1.1355
  805MPD2    N111864   4.391   3.751  15.636 -0.2094 -0.0985 -0.3120
  805MPD2    H711865   4.460   3.729  15.564 -0.3059 -1.4588  0.0233
  806MPD2     C11866   0.822   3.491   0.734 -0.1325 -0.2709  0.1545
  806MPD2    C111867   0.849   3.596   0.817 -0.1913 -0.1104  0.4190
  806MPD2    C211868   0.802   3.718   0.788 -0.0306  0.3265  0.6346
  806MPD2    C311869   0.710   3.740   0.693 -0.2423  0.7123  0.0229
  806MPD2    C411870   0.685   3.630   0.610 -0.3260  0.6201 -0.5628
  806MPD2    C511871   0.732   3.506   0.636 -0.0887 -0.3585  0.4484
  806MPD2     H11872   0.845   3.796   0.849 -1.8412  0.0008  2.3091
  806MPD2    H111873   0.618   3.639   0.525  0.7501  3.5440 -1.0866
  806MPD2    H211874   0.860   3.390   0.735 -0.1415 -0.2570  2.0067
  806MPD2    H311875   0.712   3.417   0.577 -3.1008  0.7441 -0.1737
  806MPD2     N11876   0.659   3.873   0.659  0.1201  0.1216 -0.1566
  806MPD2    H511877   0.689   3.952   0.716  1.4069 -0.9496  0.6728
  806MPD2    N111878   0.936   3.571   0.923  0.0893  0.0930  0.0202
  806MPD2    H711879   0.962   3.652   0.979 -0.3430  0.9239 -0.9719
  807MPD2     C11880   0.873   3.651   1.644 -0.5100 -0.2928 -0.4492
  807MPD2    C111881   0.835   3.566   1.543  0.1614 -0.1149 -1.0227
  807MPD2    C211882   0.704   3.525   1.536  0.0211  0.6630  0.1101
  807MPD2    C311883   0.621   3.545   1.646 -0.0321  0.3283 -0.0549
  807MPD2    C411884   0.658   3.640   1.739 -0.4167  0.2632 -0.2914
  807MPD2    C511885   0.782   3.697   1.737  0.6576 -0.3852  0.2346
  807MPD2     H11886   0.671   3.472   1.447  1.2562  1.0505 -0.5814
  807MPD2    H111887   0.598   3.668   1.826  2.7756  1.0618  1.6436
  807MPD2    H211888   0.976   3.684   1.658 -0.4176 -0.5000 -0.6336
  807MPD2    H311889   0.810   3.767   1.814 -0.9909 -1.6134  1.9781
  807MPD2     N11890   0.496   3.484   1.648 -0.5488  0.2800 -0.1585
  807MPD2    H511891   0.478   3.401   1.592  0.6264 -1.8084  2.5439
  807MPD2    N111892   0.918   3.523   1.436  0.1202 -0.0493 -0.8414
  807MPD2    H711893   0.880   3.463   1.364 -0.1589 -0.7005 -0.1423
  808MPD2     C11894   4.630   4.239   9.391 -0.3136 -0.7248 -0.7399
  808MPD2    C111895   0.028   4.189   9.445  0.8390  0.2372 -0.5151
  808MPD2    C211896   0.130   4.278   9.483  0.1771 -0.3507  1.0065
  808MPD2    C311897   0.121   4.416   9.457  0.6960  0.1958 -0.3045
  808MPD2    C411898   4.718   4.466   9.409 -0.7941 -0.5635 -0.7690
  808MPD2    C511899   4.616   4.377   9.379  0.1297  1.0164  0.2071
  808MPD2     H11900   0.226   4.239   9.515  1.1344  0.4814 -0.8494
  808MPD2    H111901   4.701   4.572   9.396  1.8553  0.1450  1.6289
  808MPD2    H211902   4.539   4.182   9.375  0.1652 -1.1567 -1.9026
  808MPD2    H311903   4.521   4.424   9.359 -0.5757 -0.2707  0.5603
  808MPD2     N11904   0.227   4.510   9.471 -0.3784  0.0426 -0.2460
  808MPD2    H511905   0.199   4.607   9.461 -0.9617 -0.0949  0.0723
  808MPD2    N111906   0.049   4.051   9.460  0.2529 -0.5660  0.3589
  808MPD2    H711907   0.128   4.016   9.513 -1.9422 -4.1421  1.2234
  809MPD2     C11908   1.237   4.297   9.317 -0.2868  0.6081  0.3111
  809MPD2    C111909   1.230   4.420   9.366 -0.1422 -0.5427 -0.2082
  809MPD2    C211910   1.110   4.473   9.408 -0.2769 -0.1844  0.0132
  809MPD2    C311911   0.992   4.405   9.372 -0.1824 -0.6136  0.3282
  809MPD2    C411912   1.001   4.275   9.316  0.3409 -0.1920  0.0460
  809MPD2    C511913   1.125   4.223   9.295  0.2746 -0.3903 -0.3058
  809MPD2     H11914   1.112   4.558   9.475  0.7022 -0.1366 -0.0680
  809MPD2    H111915   0.911   4.216   9.304 -0.0255  0.5317 -0.8209
  809MPD2    H211916   1.326   4.250   9.276 -1.2965  0.7548 -2.0565
  809MPD2    H311917   1.122   4.127   9.245 -0.8077 -0.3810 -0.2581
  809MPD2     N11918   0.866   4.461   9.404  0.4508 -0.2628  0.6242
  809MPD2    H511919   0.786   4.400   9.388 -0.4827  0.7334  1.4642
  809MPD2    N111920   1.342   4.506   9.378  0.3362  0.1309 -0.1350
  809MPD2    H711921   1.320   4.594   9.424  2.7143 -0.9390  3.0753
  810MPD2     C11922   0.477   4.247  10.048  0.5835  0.2663  0.0240
  810MPD2    C111923   0.349   4.230  10.094 -0.3635  0.5168 -0.2401
  810MPD2    C211924   0.313   4.304  10.203  0.0156 -0.2229  0.0450
  810MPD2    C311925   0.388   4.408  10.258 -0.0520  0.5684 -0.4121
  810MPD2    C411926   0.510   4.435  10.194  0.0384  0.4925 -0.3461
  810MPD2    C511927   0.549   4.349  10.098  0.2327  0.0906 -0.1965
  810MPD2     H11928   0.219   4.282  10.253  0.4142  0.7480  1.2427
  810MPD2    H111929   0.581   4.511  10.225  0.8742  0.4591 -2.1518
  810MPD2    H211930   0.522   4.178   9.978 -0.7684 -0.2233 -0.3783
  810MPD2    H311931   0.652   4.361  10.067  0.7147 -4.9289 -0.5794
  810MPD2     N11932   0.335   4.494  10.359 -0.8565 -0.3446 -0.4565
  810MPD2    H511933   0.235   4.488  10.373 -0.5064 -0.9910  1.7229
  810MPD2    N111934   0.273   4.137  10.032  0.0716  0.6253  0.0587
  810MPD2    H711935   0.318   4.102   9.948  2.2381 -3.5143  2.9736
  811MPD2     C11936   4.287   4.257   9.557 -0.0450  0.4222 -0.0419
  811MPD2    C111937   4.390   4.292   9.646  0.5699  0.0837 -0.4162
  811MPD2    C211938   4.408   4.430   9.675  0.6011  0.4737  0.4485
  811MPD2    C311939   4.330   4.527   9.606 -0.0878  0.4783 -0.0489
  811MPD2    C411940   4.227   4.486   9.525  0.5033 -0.2379 -0.1952
  811MPD2    C511941   4.204   4.353   9.499 -0.6315 -0.3822  0.0110
  811MPD2     H11942   4.476   4.461   9.754  1.1349 -1.9165  0.9144
  811MPD2    H111943   4.166   4.549   9.462  0.5185  1.5345  1.5893
  811MPD2    H211944   4.262   4.154   9.534 -0.7196  0.6631 -0.4094
  811MPD2    H311945   4.128   4.316   9.432 -3.1400 -0.1270  2.7147
  811MPD2     N11946   4.353   4.667   9.630  0.9643 -0.0688  0.6528
  811MPD2    H511947   4.432   4.689   9.691 -0.1202 -1.9803  2.7781
  811MPD2    N111948   4.463   4.183   9.702  0.6314 -0.3064  0.0718
  811MPD2    H711949   4.426   4.091   9.683 -1.8425  0.6660  0.2270
  812MPD2     C11950   3.424   3.955  12.392 -0.4407  0.0129  0.3305
  812MPD2    C111951   3.453   4.058  12.479 -0.5896  0.6723  0.4414
  812MPD2    C211952   3.563   4.055  12.566 -0.1951  0.4173 -0.3298
  812MPD2    C311953   3.647   3.945  12.568  0.3054 -0.2515  0.2102
  812MPD2    C411954   3.619   3.846  12.477  0.2795  0.4134  0.1080
  812MPD2    C511955   3.517   3.859  12.389 -0.6485  0.3972 -0.5285
  812MPD2     H11956   3.567   4.133  12.641  0.8170  1.0090 -1.0025
  812MPD2    H111957   3.681   3.758  12.462 -3.4985 -2.0586 -1.1426
  812MPD2    H211958   3.344   3.960  12.318 -1.5389  0.7484  1.5780
  812MPD2    H311959   3.519   3.792  12.303  0.9074 -1.9913  1.3724
  812MPD2     N11960   3.742   3.936  12.676 -0.3427  0.2607  0.2713
  812MPD2    H511961   3.738   4.007  12.748  0.8122 -0.2965  0.8765
  812MPD2    N111962   3.383   4.180  12.486 -0.8107 -0.2039  0.1125
  812MPD2    H711963   3.423   4.253  12.544 -1.8828  0.4549 -0.0018
  813MPD2     C11964   2.346   1.604  13.034  0.8615 -0.5941 -0.8121
  813MPD2    C111965   2.421   1.507  13.097  0.5349  0.7022  0.7851
  813MPD2    C211966   2.391   1.475  13.228  1.7049  1.3530  0.2726
  813MPD2    C311967   2.280   1.535  13.286  0.0127 -0.5049  0.0796
  813MPD2    C411968   2.208   1.637  13.226  0.3489  0.4187 -0.1167
  813MPD2    C511969   2.240   1.662  13.099 -0.0555 -0.4530  0.1811
  813MPD2     H11970   2.446   1.403  13.288  0.7630  0.0588 -0.4029
  813MPD2    H111971   2.130   1.693  13.276 -0.5603 -2.6896  1.9217
  813MPD2    H211972   2.383   1.646  12.941 -0.2108 -0.0773 -1.0031
  813MPD2    H311973   2.190   1.745  13.050 -2.3585 -1.2190  1.2402
  813MPD2     N11974   2.266   1.510  13.425  0.5266 -0.1346 -0.5331
  813MPD2    H511975   2.323   1.437  13.467 -1.2975 -0.7858  0.8077
  813MPD2    N111976   2.527   1.448  13.026 -0.1352  1.1663 -0.1811
  813MPD2    H711977   2.539   1.485  12.932 -0.5990  0.7814 -0.3929
  814MPD2     C11978   3.100   2.692  11.986 -0.2327 -0.4674 -0.3253
  814MPD2    C111979   3.212   2.702  11.905 -0.2833  0.1214  0.7541
  814MPD2    C211980   3.311   2.793  11.935  0.0293 -0.1288  0.2840
  814MPD2    C311981   3.286   2.899  12.022 -0.2016  0.0565  0.4334
  814MPD2    C411982   3.167   2.899  12.093 -0.0260  0.4571 -0.1197
  814MPD2    C511983   3.075   2.793  12.075 -0.1062  0.0633  0.4948
  814MPD2     H11984   3.406   2.773  11.887 -0.1324  0.9855 -0.4781
  814MPD2    H111985   3.154   2.967  12.177  1.1441 -0.1699  0.5686
  814MPD2    H211986   3.025   2.614  11.975 -2.7226  2.1843 -1.9592
  814MPD2    H311987   2.984   2.807  12.131 -0.6093  2.5543 -0.8937
  814MPD2     N11988   3.389   2.990  12.048 -0.3022 -0.1904  0.1823
  814MPD2    H511989   3.374   3.047  12.131  1.7707  2.0196 -0.9504
  814MPD2    N111990   3.239   2.608  11.805 -0.2572  0.4569 -0.0666
  814MPD2    H711991   3.317   2.630  11.744 -0.6932  2.3266  0.0445
  815MPD2     C11992   3.743   1.216  12.164 -0.8342  0.2192  0.0895
  815MPD2    C111993   3.717   1.092  12.120 -0.3472  0.3102  0.0997
  815MPD2    C211994   3.582   1.046  12.111  0.1816  0.6025 -0.0662
  815MPD2    C311995   3.479   1.129  12.138 -0.6379  0.1270 -0.1532
  815MPD2    C411996   3.504   1.250  12.194 -0.5028  0.2071  0.1576
  815MPD2    C511997   3.635   1.293  12.202  0.3088  0.6980 -0.3185
  815MPD2     H11998   3.561   0.952  12.061  0.2148  1.4798 -1.7310
  815MPD2    H111999   3.421   1.316  12.218  0.5674  2.0151 -1.0664
  815MPD2    H212000   3.843   1.256  12.175 -1.7250  2.3375  0.5172
  815MPD2    H312001   3.655   1.391  12.243  0.0589  1.1204 -1.2032
  815MPD2     N12002   3.353   1.087  12.096  0.2647  0.0518  0.0429
  815MPD2    H512003   3.358   0.995  12.053 -0.9333 -0.1767  0.3900
  815MPD2    N112004   3.829   1.018  12.070 -0.0301 -0.8970  0.1404
  815MPD2    H712005   3.920   1.061  12.065  0.2986 -1.7058 -0.7488
  816MPD2     C12006   4.445   0.547   0.051 -0.3520 -0.5004 -0.0286
  816MPD2    C112007   4.370   0.547  17.623  0.2254 -0.3543  0.5643
  816MPD2    C212008   4.419   0.492  17.509  0.1819  0.0546  0.1287
  816MPD2    C312009   4.548   0.450  17.491 -0.1480 -0.3448 -0.0620
  816MPD2    C412010   4.627   0.452  17.604  0.1216  0.2107  0.8242
  816MPD2    C512011   4.574   0.492   0.036  0.8134 -0.0268  0.0056
  816MPD2     H12012   4.354   0.501  17.422 -0.3784 -0.1166  0.5359
  816MPD2    H112013   0.010   0.423  17.598 -0.5799 -2.3732  0.9721
  816MPD2    H212014   4.411   0.613   0.130  3.0560  1.5966 -0.3308
  816MPD2    H312015   4.634   0.513   0.123 -1.0185 -1.5726  1.6597
  816MPD2     N12016   4.587   0.410  17.367  0.5286 -0.3687 -0.4242
  816MPD2    H512017   4.521   0.408  17.290 -0.7171 -0.1660  0.6375
  816MPD2    N112018   4.242   0.604  17.638  0.1370  0.4776 -0.3809
  816MPD2    H712019   4.232   0.662   0.033 -2.5325 -3.6172  2.1507
  817MPD2     C12020   3.400   1.847  10.334  0.5399 -0.5421 -0.1535
  817MPD2    C112021   3.441   1.830  10.201  0.2949 -0.4260 -0.1158
  817MPD2    C212022   3.432   1.936  10.118  0.3989 -0.2023  0.4397
  817MPD2    C312023   3.395   2.062  10.162  0.4095 -0.0679  0.5891
  817MPD2    C412024   3.361   2.074  10.293 -0.5118 -0.0631 -0.2401
  817MPD2    C512025   3.368   1.969  10.380 -0.2386 -0.8667 -0.0532
  817MPD2     H12026   3.456   1.918  10.014  2.4204  1.7851  0.5768
  817MPD2    H112027   3.323   2.170  10.326 -2.7342 -0.5074 -1.4938
  817MPD2    H212028   3.407   1.767  10.408  2.7297 -1.7047 -1.6356
  817MPD2    H312029   3.338   1.989  10.482  1.8785  0.9182  0.2181
  817MPD2     N12030   3.372   2.158  10.068  0.1031 -0.0852 -0.0790
  817MPD2    H512031   3.408   2.141   9.975  0.6289 -1.1194  0.3137
  817MPD2    N112032   3.494   1.714  10.146  0.2923  0.0135  0.1744
  817MPD2    H712033   3.535   1.717  10.053  1.8540 -0.3273  0.8476
  818MPD2     C12034   2.203   2.263   9.760  0.0654  0.4050 -0.4823
  818MPD2    C112035   2.222   2.200   9.880  0.0839  0.7267  0.0352
  818MPD2    C212036   2.314   2.096   9.887 -0.0176 -0.3424  0.2350
  818MPD2    C312037   2.350   2.033   9.769 -0.4677  0.1455 -0.5615
  818MPD2    C412038   2.316   2.089   9.645 -0.8893  0.4825  0.5080
  818MPD2    C512039   2.245   2.210   9.642 -0.3665 -0.1481  0.2295
  818MPD2     H12040   2.336   2.049   9.982 -0.6660  2.2005  1.6424
  818MPD2    H112041   2.339   2.034   9.555  0.5476  0.9547  0.5787
  818MPD2    H212042   2.135   2.345   9.744 -1.1729 -0.8971 -1.9501
  818MPD2    H312043   2.218   2.258   9.549 -2.5701 -2.0640 -0.1365
  818MPD2     N12044   2.411   1.903   9.770  0.3187 -0.6064  0.6307
  818MPD2    H512045   2.407   1.862   9.677 -1.3448  1.6393 -0.2739
  818MPD2    N112046   2.161   2.248   9.998  0.1352 -0.8211  0.2096
  818MPD2    H712047   2.196   2.192  10.075  0.9590  0.6173  0.8722
  819MPD2     C12048   0.221   3.177  15.624  0.1629  0.1417  0.4209
  819MPD2    C112049   0.252   3.060  15.554  0.2471  0.6268  0.0749
  819MPD2    C212050   0.354   2.985  15.609 -0.9117 -0.6643 -0.1487
  819MPD2    C312051   0.420   3.027  15.726  0.4923 -0.2630  0.5198
  819MPD2    C412052   0.387   3.144  15.793 -0.5384  0.0974  0.2310
  819MPD2    C512053   0.287   3.217  15.742 -0.2327 -0.0324 -0.4379
  819MPD2     H12054   0.391   2.898  15.556 -2.0480  0.0234 -2.0465
  819MPD2    H112055   0.452   3.190  15.867  0.9405  0.3565 -1.2193
  819MPD2    H212056   0.142   3.244  15.592  1.1415 -0.0157 -2.3327
  819MPD2    H312057   0.253   3.305  15.796  0.5117  0.4744 -0.8119
  819MPD2     N12058   0.542   2.963  15.754  0.2915 -0.1285  0.4774
  819MPD2    H512059   0.561   2.878  15.701 -1.7289  0.5379 -1.3260
  819MPD2    N112060   0.185   3.027  15.437  0.2312  0.3967 -0.1741
  819MPD2    H712061   0.123   3.097  15.397 -1.4139 -1.5536 -1.0485
  820MPD2     C12062   4.113   3.291  14.989 -0.0510 -0.1187 -1.1221
  820MPD2    C112063   4.220   3.336  15.052 -1.0483  0.2783  0.1024
  820MPD2    C212064   4.332   3.253  15.060  0.2450 -0.2174 -0.2129
  820MPD2    C312065   4.330   3.123  15.029 -0.1412 -0.0058  0.1921
  820MPD2    C412066   4.213   3.075  14.975  0.4380 -0.0064  0.3338
  820MPD2    C512067   4.110   3.158  14.947  1.0710 -0.5871 -0.1410
  820MPD2     H12068   4.422   3.303  15.094  1.0134 -1.7150 -0.0274
  820MPD2    H112069   4.202   2.973  14.942  1.9390  0.4923 -1.6848
  820MPD2    H212070   4.029   3.357  14.972 -2.6734 -3.5274 -1.3340
  820MPD2    H312071   4.017   3.126  14.903  0.1912  0.9986  0.5381
  820MPD2     N12072   4.439   3.029  15.055  0.1929 -0.0258  0.1279
  820MPD2    H512073   4.413   2.933  15.041  2.5820 -0.8728  1.3953
  820MPD2    N112074   4.217   3.465  15.107  0.1750  0.1710  0.1450
  820MPD2    H712075   4.133   3.520  15.095  0.1669 -0.1166 -1.1708
  821MPD2     C12076   0.044   0.351  13.340 -0.3295 -0.1255  0.7554
  821MPD2    C112077   0.176   0.321  13.348 -0.1896  0.5327  0.4530
  821MPD2    C212078   0.255   0.357  13.241 -0.4093 -0.4917 -0.1691
  821MPD2    C312079   0.209   0.422  13.125 -0.0529 -0.2663  0.2604
  821MPD2    C412080   0.082   0.464  13.124  0.0371 -0.5425  0.0232
  821MPD2    C512081   0.010   0.426  13.233 -0.1299  0.0981 -0.5918
  821MPD2     H12082   0.357   0.320  13.245  0.2089  1.1762 -0.3533
  821MPD2    H112083   0.030   0.526  13.051 -1.3331 -1.7193 -0.0012
  821MPD2    H212084   4.696   0.334  13.422 -0.5512  0.2951  0.6554
  821MPD2    H312085   4.632   0.469  13.245  0.5153  1.1152  1.0089
  821MPD2     N12086   0.291   0.452  13.013 -0.6145 -0.9449 -0.0609
  821MPD2    H512087   0.235   0.506  12.948 -0.6133  0.8830  1.4910
  821MPD2    N112088   0.241   0.263  13.459 -0.3077 -0.3545 -0.1596
  821MPD2    H712089   0.336   0.231  13.442  0.7689  3.0430 -0.4022
  822MPD2     C12090   0.908   4.656  15.979 -0.0389 -0.1408 -0.1674
  822MPD2    C112091   1.028   4.650  16.038 -0.1088  0.7230 -0.3595
  822MPD2    C212092   1.088   0.041  16.092 -0.2906  0.1217 -0.6038
  822MPD2    C312093   1.008   0.155  16.108 -0.2956  0.0459  0.6075
  822MPD2    C412094   0.890   0.167  16.037  0.1252 -0.6439  0.4807
  822MPD2    C512095   0.840   0.059  15.973  0.0162 -0.1592 -0.2544
  822MPD2     H12096   1.177   0.019  16.150  0.1007 -2.8507 -2.3293
  822MPD2    H112097   0.841   0.264  16.037  0.4985 -0.4541  0.3868
  822MPD2    H212098   0.865   4.570  15.930 -0.4094 -1.0753  1.7829
  822MPD2    H312099   0.743   0.074  15.927  0.1412 -1.0247 -0.7964
  822MPD2     N12100   1.060   0.265  16.183  0.2602  0.3356  0.1221
  822MPD2    H512101   0.992   0.334  16.214  0.0198  1.2115 -2.3424
  822MPD2    N112102   1.091   4.522  16.067  0.0223  0.2108 -0.2237
  822MPD2    H712103   1.184   4.534  16.105  0.4996 -1.2081 -0.9851
  823MPD2     C12104   0.757   0.273  16.779  0.3615  0.1758 -0.3917
  823MPD2    C112105   0.873   0.203  16.747 -0.2998 -0.3608 -0.2101
  823MPD2    C212106   0.900   0.089  16.820  0.2436 -0.5067 -0.0022
  823MPD2    C312107   0.809   0.036  16.912  0.3547 -0.0386  0.4162
  823MPD2    C412108   0.691   0.095  16.930  0.0825 -0.0269 -0.0385
  823MPD2    C512109   0.674   0.219  16.871 -0.2035 -0.0005  0.1466
  823MPD2     H12110   0.996   0.039  16.812  0.2784 -0.9863  3.4405
  823MPD2    H112111   0.614   0.054  16.995  0.5514  3.7058  2.8503
  823MPD2    H212112   0.727   0.368  16.735 -0.3997  0.0160 -0.2189
  823MPD2    H312113   0.579   0.269  16.884  0.5405  1.9793 -2.0064
  823MPD2     N12114   0.833   4.643  16.991  0.0663  0.4669 -0.2239
  823MPD2    H512115   0.766   4.623  17.065 -0.0571 -0.7668 -0.6679
  823MPD2    N112116   0.965   0.263  16.659 -0.2278  0.3127  0.2551
  823MPD2    H712117   0.933   0.334  16.594  0.4458 -0.8996 -1.3964
  824MPD2     C12118   1.186   3.660  16.031  0.1451 -0.5874  0.5392
  824MPD2    C112119   1.240   3.772  15.970 -0.2298 -0.4229 -0.8088
  824MPD2    C212120   1.336   3.749  15.869  0.3086 -0.3349 -0.9186
  824MPD2    C312121   1.389   3.624  15.837 -0.1428  0.1791  0.0487
  824MPD2    C412122   1.337   3.515  15.910 -0.3552  0.0242  0.0769
  824MPD2    C512123   1.232   3.535  15.999 -1.0117 -0.1564  0.0039
  824MPD2     H12124   1.384   3.832  15.819 -0.3494 -0.0611 -1.0839
  824MPD2    H112125   1.359   3.410  15.897  1.7265  0.2314  1.8296
  824MPD2    H212126   1.098   3.662  16.094  0.7655 -0.5347  1.4009
  824MPD2    H312127   1.171   3.454  16.039 -1.9075 -0.0393 -1.1237
  824MPD2     N12128   1.497   3.617  15.743 -0.1528  0.0897 -0.3038
  824MPD2    H512129   1.538   3.705  15.711 -1.0362  0.3710 -0.6664
  824MPD2    N112130   1.201   3.903  16.003 -0.8724 -1.0948 -0.1652
  824MPD2    H712131   1.239   3.975  15.943  1.4890 -0.4528  2.1212
  825MPD2     C12132   2.227   3.771  15.623 -0.3671 -0.1217  0.5815
  825MPD2    C112133   2.125   3.792  15.536 -0.6648 -0.6557 -0.5366
  825MPD2    C212134   2.119   3.905  15.453  0.5070 -0.2521 -0.0314
  825MPD2    C312135   2.215   3.999  15.467  0.1155 -0.1759 -0.1502
  825MPD2    C412136   2.324   3.978  15.556 -0.2483 -0.2654  0.2274
  825MPD2    C512137   2.329   3.865  15.636  0.2166 -0.2297  0.0736
  825MPD2     H12138   2.038   3.917  15.383  0.2587 -2.2095 -0.0701
  825MPD2    H112139   2.401   4.053  15.571 -0.7224 -0.0339  1.4785
  825MPD2    H212140   2.227   3.687  15.691  1.1311  0.0667  0.8238
  825MPD2    H312141   2.407   3.842  15.708  0.7303  1.3984  0.0311
  825MPD2     N12142   2.192   4.122  15.397  0.2307 -0.4358  0.3416
  825MPD2    H512143   2.249   4.200  15.427  2.3833 -1.9603  0.2351
  825MPD2    N112144   2.021   3.693  15.530 -0.3593 -0.2679 -0.0775
  825MPD2    H712145   2.032   3.618  15.598  1.8146 -0.3688 -0.5357
  826MPD2     C12146   2.113   4.046  13.976  0.2907  0.2742  1.6119
  826MPD2    C112147   2.092   4.080  13.843  0.2939  0.6485  0.8510
  826MPD2    C212148   1.980   4.150  13.806 -0.3708 -0.0599 -0.5833
  826MPD2    C312149   1.890   4.191  13.900  0.4683  0.9072  0.4592
  826MPD2    C412150   1.904   4.154  14.029 -0.0425  0.3906  0.3479
  826MPD2    C512151   2.019   4.090  14.062 -0.1200 -0.2757  0.1818
  826MPD2     H12152   1.963   4.178  13.702  1.7420  1.7957 -0.4394
  826MPD2    H112153   1.823   4.182  14.095 -0.6868  0.5058 -0.5074
  826MPD2    H212154   2.200   4.005  14.027  0.8144  0.2710  0.7191
  826MPD2    H312155   2.034   4.074  14.168 -1.2463 -0.0223  0.3860
  826MPD2     N12156   1.779   4.265  13.877 -0.5353 -0.1326  0.4053
  826MPD2    H512157   1.723   4.288  13.957 -1.0519 -2.1297  0.6251
  826MPD2    N112158   2.175   4.017  13.753 -0.2959  0.1063 -0.0366
  826MPD2    H712159   2.239   3.948  13.790  1.1697  1.3900 -0.1917
  827MPD2     C12160   2.866   0.991  10.300 -0.3156 -1.0239 -0.1840
  827MPD2    C112161   2.795   0.910  10.388 -0.5488  0.7848 -0.7362
  827MPD2    C212162   2.658   0.892  10.366 -0.2184  0.3056  0.0746
  827MPD2    C312163   2.593   0.978  10.279  0.4925  0.6229 -0.1935
  827MPD2    C412164   2.669   1.055  10.191  0.2514 -0.3180 -0.0549
  827MPD2    C512165   2.801   1.067  10.209  0.2001 -0.1415  0.0600
  827MPD2     H12166   2.594   0.825  10.422  0.3734 -0.0929  0.2751
  827MPD2    H112167   2.610   1.115  10.122 -0.3791 -0.9250 -0.0404
  827MPD2    H212168   2.973   1.006  10.304 -0.2832 -1.3660  0.1855
  827MPD2    H312169   2.860   1.128  10.141 -2.0601  4.2107  1.9590
  827MPD2     N12170   2.454   0.955  10.266  0.8666 -0.3573  0.6493
  827MPD2    H512171   2.423   0.892  10.339 -1.0828 -1.7534 -1.3853
  827MPD2    N112172   2.875   0.836  10.479 -0.4094  0.0920  0.5383
  827MPD2    H712173   2.970   0.870  10.495  0.6766 -2.0181 -1.5380
  828MPD2     C12174   1.440   0.200  12.788 -1.0061 -0.1580 -0.1570
  828MPD2    C112175   1.444   0.204  12.646 -1.0524  0.1937  0.3284
  828MPD2    C212176   1.561   0.182  12.572  0.2735 -0.0458 -0.2794
  828MPD2    C312177   1.670   0.148  12.645 -0.3189 -0.0610 -0.0491
  828MPD2    C412178   1.665   0.132  12.785 -0.1083  0.0060 -0.1362
  828MPD2    C512179   1.556   0.169  12.853 -0.4791  0.6896  0.6176
  828MPD2     H12180   1.560   0.194  12.465  0.8863 -1.1265 -0.4038
  828MPD2    H112181   1.757   0.101  12.831 -0.2329 -0.6627 -0.3407
  828MPD2    H212182   1.350   0.212  12.847 -1.4240 -1.4441 -0.5211
  828MPD2    H312183   1.564   0.160  12.961 -1.8874  2.4874  0.8629
  828MPD2     N12184   1.791   0.098  12.578 -0.1027  0.6326  0.4937
  828MPD2    H512185   1.862   0.067  12.644 -1.6829  0.5294  2.1678
  828MPD2    N112186   1.326   0.240  12.569  0.3812 -0.1063  0.2545
  828MPD2    H712187   1.343   0.252  12.470 -2.9444  1.0313 -0.1569
  829MPD2     C12188   1.332   0.128  11.734  0.2202 -1.0088 -0.3279
  829MPD2    C112189   1.205   0.192  11.745  0.2226  0.8928 -0.5523
  829MPD2    C212190   1.168   0.235  11.874  0.1873  0.1682 -0.4442
  829MPD2    C312191   1.244   0.208  11.990 -0.0761 -0.8248 -0.1242
  829MPD2    C412192   1.363   0.150  11.978  0.4866 -1.1307  0.1759
  829MPD2    C512193   1.409   0.115  11.851 -0.5181  0.1864  0.1241
  829MPD2     H12194   1.076   0.293  11.879 -0.0107 -0.3405  1.8838
  829MPD2    H112195   1.428   0.148  12.065  1.2918  0.2245 -0.3837
  829MPD2    H212196   1.382   0.093  11.645  0.9671 -0.9209  0.0565
  829MPD2    H312197   1.508   0.071  11.853 -1.4392 -1.8693  0.7876
  829MPD2     N12198   1.202   0.245  12.124 -0.0735  0.1819 -0.1049
  829MPD2    H512199   1.255   0.200  12.198  0.7035  1.1664 -0.0570
  829MPD2    N112200   1.122   0.215  11.631  0.2347 -1.0727 -0.3181
  829MPD2    H712201   1.170   0.204  11.543  0.3101 -0.0236 -0.4091
  830MPD2     C12202   1.358   2.846  15.660  0.4402 -0.5804 -0.0496
  830MPD2    C112203   1.222   2.872  15.654  0.3243  0.2972 -0.0870
  830MPD2    C212204   1.187   3.005  15.674  0.1574 -0.3681  0.2947
  830MPD2    C312205   1.276   3.105  15.686  0.8947  0.1395  0.4128
  830MPD2    C412206   1.405   3.082  15.671  0.9912 -0.3309  0.5902
  830MPD2    C512207   1.447   2.951  15.672 -0.2401 -0.6691 -0.3065
  830MPD2     H12208   1.084   3.035  15.658  0.8430  1.1758 -1.2177
  830MPD2    H112209   1.476   3.158  15.700 -0.7095  2.4780 -2.4694
  830MPD2    H212210   1.393   2.743  15.662 -0.8328 -1.0011  0.6189
  830MPD2    H312211   1.553   2.925  15.674  0.1028  0.6411 -1.9439
  830MPD2     N12212   1.237   3.239  15.699  0.6524 -0.0747 -0.1291
  830MPD2    H512213   1.312   3.307  15.693 -0.5556  1.2314 -0.3925
  830MPD2    N112214   1.130   2.769  15.630  0.0753 -0.3397  0.1613
  830MPD2    H712215   1.175   2.693  15.580  1.8096  0.7228  0.0918
  831MPD2     C12216   1.489   4.710  16.549 -0.2444 -0.2739 -0.4530
  831MPD2    C112217   1.420   4.666  16.434 -0.2851 -0.1685 -0.2699
  831MPD2    C212218   1.283   4.638  16.446  0.5396  0.5446 -0.9841
  831MPD2    C312219   1.227   4.626  16.572  0.3138  0.8297  0.0314
  831MPD2    C412220   1.299   4.648  16.688 -0.5696 -0.1946 -0.4242
  831MPD2    C512221   1.428   4.701  16.669  0.5087  0.0111  0.0505
  831MPD2     H12222   1.223   4.609  16.361  0.2911  1.1851 -1.0311
  831MPD2    H112223   1.254   4.657  16.786  0.1787  2.9602 -0.3527
  831MPD2    H212224   1.587   0.035  16.544  0.3340 -1.4841 -0.4958
  831MPD2    H312225   1.485   0.013  16.756 -0.8913 -0.1757  1.0351
  831MPD2     N12226   1.095   4.580  16.588  0.1426 -0.4400 -0.0491
  831MPD2    H512227   1.071   4.552  16.683  1.6680  0.7455  0.6907
  831MPD2    N112228   1.482   4.672  16.311 -0.8162 -0.7865 -0.5856
  831MPD2    H712229   1.578   4.707  16.314 -1.7949  1.9574 -1.0122
  832MPD2     C12230   0.194   1.597  17.306  0.3840 -0.3160  0.1790
  832MPD2    C112231   0.153   1.716  17.268 -0.0929  0.0917 -0.4403
  832MPD2    C212232   0.034   1.724  17.203  0.0657  0.0168 -0.3389
  832MPD2    C312233   4.671   1.610  17.189 -0.0980 -0.4522  0.4132
  832MPD2    C412234   4.720   1.487  17.225  0.3656  0.1955 -0.4002
  832MPD2    C512235   0.123   1.479  17.278  0.2530 -0.3357 -0.1590
  832MPD2     H12236   4.704   1.819  17.197  0.9017  0.5204  0.5221
  832MPD2    H112237   4.664   1.395  17.218  1.0229 -0.1654 -0.8414
  832MPD2    H212238   0.287   1.579  17.359  1.9371 -0.8916 -2.7672
  832MPD2    H312239   0.163   1.383  17.307  2.4436 -0.1042 -2.3096
  832MPD2     N12240   4.543   1.614  17.129  0.0715  0.1100  0.5797
  832MPD2    H512241   4.518   1.520  17.099  0.7670  0.4619 -1.0800
  832MPD2    N112242   0.237   1.819  17.295 -0.0690 -0.2883 -0.2543
  832MPD2    H712243   0.325   1.797  17.340 -0.5953 -1.5762  0.1565
  833MPD2     C12244   1.731   2.867  12.543 -0.3184  0.6623 -0.6684
  833MPD2    C112245   1.759   3.003  12.542 -0.3009  0.3676  0.1816
  833MPD2    C212246   1.763   3.071  12.414 -0.5013 -0.8725  1.1770
  833MPD2    C312247   1.748   3.004  12.291  0.4094  0.7266  0.0884
  833MPD2    C412248   1.742   2.869  12.298 -0.2784  0.7137  0.1444
  833MPD2    C512249   1.716   2.809  12.414  0.2011 -0.0852 -0.9226
  833MPD2     H12250   1.773   3.178  12.431 -0.5024 -0.7996  0.7126
  833MPD2    H112251   1.749   2.809  12.208 -0.4450  0.8356  0.0500
  833MPD2    H212252   1.721   2.813  12.636  0.3149  0.3088 -0.8021
  833MPD2    H312253   1.685   2.705  12.412 -1.1880  0.3046 -0.0469
  833MPD2     N12254   1.768   3.062  12.163 -0.4282 -0.0945  0.2149
  833MPD2    H512255   1.759   3.003  12.082  0.4635  2.9701 -2.0949
  833MPD2    N112256   1.773   3.077  12.663  0.3222  0.2257  0.4582
  833MPD2    H712257   1.746   3.022  12.745 -0.6562  2.1395  1.4218
  834MPD2     C12258   1.992   2.978  11.296 -0.7542  0.6866  0.3400
  834MPD2    C112259   1.880   2.952  11.373 -0.1515 -0.2341 -0.0480
  834MPD2    C212260   1.891   2.993  11.501  0.4450  0.3481  0.8818
  834MPD2    C312261   1.987   3.079  11.552 -0.0606 -0.6233 -0.1660
  834MPD2    C412262   2.091   3.110  11.469  0.3884 -0.3271 -0.1280
  834MPD2    C512263   2.100   3.050  11.345 -0.4951 -1.0507  0.3398
  834MPD2     H12264   1.801   2.980  11.560  0.8073 -0.7493  1.1850
  834MPD2    H112265   2.170   3.183  11.486  0.3847 -0.4015  0.2117
  834MPD2    H212266   2.010   2.944  11.195  0.4257  0.2484  0.6928
  834MPD2    H312267   2.191   3.056  11.287 -0.8303  0.1269 -0.0730
  834MPD2     N12268   1.973   3.125  11.686 -0.5985  0.0058 -0.4798
  834MPD2    H512269   1.888   3.091  11.729  0.3282  0.4142  1.6983
  834MPD2    N112270   1.762   2.895  11.316 -0.0783  0.7473  0.0317
  834MPD2    H712271   1.755   2.887  11.215 -0.2213 -0.1616  0.1159
  835MPD2     C12272   1.138   0.895  10.355  0.0405  0.0147 -0.0145
  835MPD2    C112273   1.083   0.776  10.402  0.1727  0.3003 -0.8946
  835MPD2    C212274   1.095   0.748  10.539  0.8455 -0.2030  0.5915
  835MPD2    C312275   1.164   0.835  10.628 -0.0224 -0.7167  0.0395
  835MPD2    C412276   1.218   0.952  10.574 -0.3134 -0.0846  0.4057
  835MPD2    C512277   1.209   0.975  10.442 -0.4534 -0.3571 -0.2169
  835MPD2     H12278   1.062   0.655  10.583  1.2933 -1.1901 -1.1747
  835MPD2    H112279   1.265   1.032  10.630  0.6052 -0.6938  0.5082
  835MPD2    H212280   1.140   0.929  10.253 -0.9869  2.1941  0.6950
  835MPD2    H312281   1.249   1.070  10.407 -0.5408 -0.0974  0.3759
  835MPD2     N12282   1.166   0.810  10.771 -0.4699 -0.7291  0.2781
  835MPD2    H512283   1.214   0.885  10.820 -3.2349  0.0698  1.7480
  835MPD2    N112284   1.016   0.685  10.311 -0.4766  0.4011  0.2383
  835MPD2    H712285   0.998   0.589  10.339  1.7831  0.0205  0.3840
  836MPD2     C12286   1.067   0.582  11.656 -0.0815 -0.1106 -0.0320
  836MPD2    C112287   0.991   0.634  11.557  0.7905  0.8752  0.5100
  836MPD2    C212288   0.864   0.678  11.589 -0.4492  0.9375  0.0822
  836MPD2    C312289   0.805   0.659  11.716 -0.1622 -0.4482 -0.0810
  836MPD2    C412290   0.878   0.593  11.809  0.5887 -0.0087  0.0265
  836MPD2    C512291   1.006   0.560  11.779 -0.2085  1.0737 -0.0922
  836MPD2     H12292   0.816   0.734  11.509 -0.7785  2.8886  1.6508
  836MPD2    H112293   0.848   0.571  11.911  1.0249  0.6836  0.3027
  836MPD2    H212294   1.164   0.541  11.631 -0.3530 -0.9172  0.2204
  836MPD2    H312295   1.065   0.508  11.853 -0.2095  0.9697 -0.1643
  836MPD2     N12296   0.678   0.712  11.753 -0.8138  0.0769  1.0346
  836MPD2    H512297   0.636   0.670  11.835  0.2599  0.0693  1.5782
  836MPD2    N112298   1.056   0.649  11.433  0.0985  0.0326 -0.3170
  836MPD2    H712299   1.157   0.638  11.428  0.0494 -0.0434 -1.1218
  837MPD2     C12300   4.604   0.466  10.135 -0.0244  0.0415  0.1767
  837MPD2    C112301   4.547   0.533  10.029  0.1776 -0.2733  0.3964
  837MPD2    C212302   4.510   0.668  10.051  0.4718 -0.4809 -0.4821
  837MPD2    C312303   4.518   0.729  10.175 -0.4284 -0.0213 -0.0981
  837MPD2    C412304   4.572   0.657  10.280  0.4627  0.9643 -0.0186
  837MPD2    C512305   4.613   0.529  10.254 -0.5984  0.2004  0.3518
  837MPD2     H12306   4.457   0.726   9.976 -2.4715 -3.6719 -0.8497
  837MPD2    H112307   4.592   0.708  10.374  0.1418 -1.2146  1.2270
  837MPD2    H212308   4.628   0.360  10.131 -1.4676 -0.2350 -0.9603
  837MPD2    H312309   4.666   0.478  10.335 -1.6902  1.9277  2.1525
  837MPD2     N12310   4.483   0.867  10.179  0.1816  0.3304 -0.0640
  837MPD2    H512311   4.470   0.905  10.085  4.0095 -1.2183 -1.2598
  837MPD2    N112312   4.534   0.479   9.903 -0.2964  0.1099  0.2155
  837MPD2    H712313   4.495   0.553   9.845  0.5058  1.6544  1.6334
  838MPD2     C12314   2.725   2.975  11.288 -0.6390 -0.4423 -0.2044
  838MPD2    C112315   2.720   3.022  11.418  0.9704  0.1558  0.6806
  838MPD2    C212316   2.637   2.969  11.513 -0.1899 -0.1506  0.0873
  838MPD2    C312317   2.548   2.866  11.475 -0.1459  0.3458  0.4797
  838MPD2    C412318   2.547   2.812  11.343  0.2442 -0.5238 -0.1327
  838MPD2    C512319   2.638   2.868  11.251 -0.2078  0.1609  0.6596
  838MPD2     H12320   2.634   2.996  11.618  0.1416  2.3595 -0.5428
  838MPD2    H112321   2.479   2.732  11.314  0.6819 -0.6437 -0.8428
  838MPD2    H212322   2.783   3.024  11.211 -1.6167  2.1411  0.7175
  838MPD2    H312323   2.636   2.833  11.149  0.6517 -2.3653  1.4870
  838MPD2     N12324   2.436   2.839  11.570  0.4887 -0.4144  0.2099
  838MPD2    H512325   2.420   2.902  11.647 -3.0229 -0.4580 -0.4644
  838MPD2    N112326   2.811   3.127  11.454  0.3092  0.5422  0.7953
  838MPD2    H712327   2.789   3.175  11.541  1.1704  2.4550 -0.0519
  839MPD2     C12328   2.730   2.959  11.968  0.1268  0.6079  0.8164
  839MPD2    C112329   2.834   2.940  11.881  0.1972  0.0622  0.9732
  839MPD2    C212330   2.925   3.039  11.862  0.1131  0.0041 -0.0561
  839MPD2    C312331   2.901   3.171  11.907 -0.7356 -0.1023  0.3167
  839MPD2    C412332   2.789   3.194  11.986 -0.2466 -0.8930  0.3829
  839MPD2    C512333   2.704   3.089  12.012 -0.2179  0.0085  0.5452
  839MPD2     H12334   3.008   3.006  11.800  0.8196  2.0799 -0.2150
  839MPD2    H112335   2.753   3.292  12.015 -1.2061 -0.7337 -1.3083
  839MPD2    H212336   2.667   2.875  11.994 -1.3078  1.9433  1.6784
  839MPD2    H312337   2.610   3.105  12.065 -0.7878  0.0836 -0.4814
  839MPD2     N12338   2.967   3.288  11.873  0.1712  0.6226 -0.7220
  839MPD2    H512339   2.914   3.374  11.877 -2.9549 -1.3292 -0.4127
  839MPD2    N112340   2.849   2.826  11.798  0.2425 -0.1065  0.2644
  839MPD2    H712341   2.915   2.831  11.721 -1.8809  0.9097 -1.4872
  840MPD2     C12342   3.502   0.872  10.440  0.4487  0.1474 -0.1176
  840MPD2    C112343   3.451   0.874  10.567 -0.0019  0.1548 -0.4673
  840MPD2    C212344   3.513   0.949  10.667  0.3951 -0.3478  0.4425
  840MPD2    C312345   3.620   1.031  10.642  0.0164  0.1476  0.0956
  840MPD2    C412346   3.659   1.041  10.511  0.4153 -0.2802 -0.5171
  840MPD2    C512347   3.603   0.961  10.414 -0.0892  0.1081 -0.8273
  840MPD2     H12348   3.471   0.953  10.767  0.0460 -0.8573  0.3162
  840MPD2    H112349   3.736   1.106  10.472  1.9512 -0.3035  2.4744
  840MPD2    H212350   3.465   0.802  10.366  1.9363 -2.5986  1.6928
  840MPD2    H312351   3.647   0.968  10.315  1.3877  1.0367 -0.0958
  840MPD2     N12352   3.696   1.096  10.743 -0.0547  0.0111  0.6100
  840MPD2    H512353   3.779   1.149  10.718 -0.0117  0.5029  1.8064
  840MPD2    N112354   3.346   0.779  10.585 -0.5522 -0.0406  0.8454
  840MPD2    H712355   3.325   0.723  10.503 -2.0928 -0.3970  1.4883
  841MPD2     C12356   3.064   0.136  14.349 -0.3437 -0.8831  0.1248
  841MPD2    C112357   2.997   0.157  14.465 -0.2466  0.5368 -0.0780
  841MPD2    C212358   2.992   0.286  14.512  0.6881  0.2384 -0.1116
  841MPD2    C312359   3.062   0.387  14.461 -0.2387 -0.5566  0.0374
  841MPD2    C412360   3.147   0.367  14.355 -0.2985 -0.2025  0.2206
  841MPD2    C512361   3.145   0.240  14.292 -0.5804  0.3239 -0.0464
  841MPD2     H12362   2.941   0.312  14.604 -0.1440 -0.5355 -0.3537
  841MPD2    H112363   3.204   0.450  14.316 -1.9824  0.1656 -1.4669
  841MPD2    H212364   3.063   0.036  14.306 -2.0814 -0.9207  0.2493
  841MPD2    H312365   3.216   0.211  14.216  0.7805 -1.5342  1.9161
  841MPD2     N12366   3.054   0.504  14.539  0.7501 -0.1279 -0.4549
  841MPD2    H512367   3.004   0.497  14.627 -0.3421 -0.2026 -1.0818
  841MPD2    N112368   2.914   0.061  14.528  0.4143 -0.5687  0.4342
  841MPD2    H712369   2.862   0.094  14.608  0.8332 -2.1624  1.3774
  842MPD2     C12370   3.123   2.443  16.705 -0.8693 -0.4603  0.4079
  842MPD2    C112371   3.105   2.310  16.666  0.4848 -0.8121 -0.4532
  842MPD2    C212372   3.200   2.226  16.712  0.2648  0.9398 -0.0247
  842MPD2    C312373   3.302   2.265  16.795 -0.3954  0.1085 -0.2122
  842MPD2    C412374   3.313   2.390  16.835 -0.5418  0.4161  0.1591
  842MPD2    C512375   3.226   2.480  16.781 -0.2316  0.9666  0.7292
  842MPD2     H12376   3.197   2.129  16.664 -0.8475  2.0963 -2.2762
  842MPD2    H112377   3.391   2.425  16.901 -0.1421 -0.3838  0.1081
  842MPD2    H212378   3.054   2.521  16.675  0.5462  0.5564 -0.1471
  842MPD2    H312379   3.238   2.585  16.806  1.2056  1.3027 -1.4173
  842MPD2     N12380   3.405   2.178  16.836 -0.4659  0.0865  0.8653
  842MPD2    H512381   3.472   2.209  16.906 -1.6488  2.4921  0.9200
  842MPD2    N112382   2.995   2.275  16.584  0.2903 -0.2857  0.6610
  842MPD2    H712383   2.958   2.347  16.523  0.2996 -1.9723 -1.3671
  843MPD2     C12384   0.728   2.350   0.026  0.7665  0.4878 -0.1445
  843MPD2    C112385   0.757   2.240   0.106  0.2352  0.0497 -0.4110
  843MPD2    C212386   0.870   2.233   0.191  0.1081  0.5865 -0.4016
  843MPD2    C312387   0.965   2.332   0.190 -0.5572 -0.4087 -0.4726
  843MPD2    C412388   0.932   2.441   0.122 -0.5203  0.2050  0.2089
  843MPD2    C512389   0.820   2.455   0.038 -0.0001  0.2872  0.0898
  843MPD2     H12390   0.889   2.146   0.253  0.6455  1.5444  0.7733
  843MPD2    H112391   1.004   2.521   0.105 -0.8181  0.9205  2.3306
  843MPD2    H212392   0.652   2.352  17.636  1.0158 -2.2064 -0.4513
  843MPD2    H312393   0.816   2.542  17.661  2.0383  0.6779  0.5069
  843MPD2     N12394   1.084   2.313   0.268  0.4211  0.8822 -0.5499
  843MPD2    H512395   1.083   2.227   0.323  1.7627 -0.2655 -2.3283
  843MPD2    N112396   0.657   2.142   0.104  0.4275  0.3627 -0.3908
  843MPD2    H712397   0.580   2.170   0.045 -0.1933 -2.3410 -0.8860
  844MPD2     C12398   4.109   1.470  16.631  0.4919 -0.2516  0.4450
  844MPD2    C112399   4.183   1.370  16.691 -0.2034  0.2582 -0.0088
  844MPD2    C212400   4.314   1.400  16.742 -0.2435 -0.4243  0.2342
  844MPD2    C312401   4.369   1.526  16.726  0.1592  0.1669  0.0331
  844MPD2    C412402   4.286   1.626  16.671 -0.0024 -0.5961 -0.3101
  844MPD2    C512403   4.163   1.595  16.622 -0.1834  0.2677  0.8008
  844MPD2     H12404   4.378   1.327  16.790 -1.7145 -0.9293  1.4402
  844MPD2    H112405   4.313   1.731  16.671  0.8714 -0.8152 -0.3120
  844MPD2    H212406   4.010   1.458  16.588  0.4294 -0.2294  0.5806
  844MPD2    H312407   4.104   1.677  16.583 -3.0197 -1.0192  2.3405
  844MPD2     N12408   4.504   1.553  16.769  0.1413 -0.4309  0.5088
  844MPD2    H512409   4.552   1.474  16.811 -0.6147 -1.1512 -0.0152
  844MPD2    N112410   4.134   1.234  16.712 -0.1972 -0.3525 -0.2923
  844MPD2    H712411   4.196   1.166  16.755 -0.9972  0.5263  2.2374
  845MPD2     C12412   0.190   2.434  16.820 -0.0276  0.1173 -0.4207
  845MPD2    C112413   0.163   2.387  16.946 -0.0914 -0.1029  0.4303
  845MPD2    C212414   0.171   2.249  16.963 -0.1648 -0.2713  0.6741
  845MPD2    C312415   0.215   2.159  16.867 -0.0887 -0.0248 -0.0422
  845MPD2    C412416   0.256   2.213  16.747  0.8345  0.3057 -0.2417
  845MPD2    C512417   0.241   2.349  16.728  0.5250  0.2835 -0.1337
  845MPD2     H12418   0.135   2.211  17.058  3.0019 -2.5374  0.9393
  845MPD2    H112419   0.301   2.162  16.662 -0.9684  0.8095 -1.4977
  845MPD2    H212420   0.188   2.540  16.798 -1.0626  0.3966  1.0264
  845MPD2    H312421   0.283   2.395  16.639 -0.4128  2.3178  0.4814
  845MPD2     N12422   0.210   2.025  16.895  0.7903 -0.1546 -0.3455
  845MPD2    H512423   0.170   1.995  16.983 -0.8349  1.1135 -0.6454
  845MPD2    N112424   0.104   2.482  17.044  0.0106  0.3483  0.4561
  845MPD2    H712425   0.095   2.579  17.017 -1.7564 -0.7480 -2.9028
  846MPD2     C12426   1.032   2.305  13.499 -0.4152  0.2893 -0.5145
  846MPD2    C112427   0.971   2.416  13.556 -0.5156 -0.2747  0.0587
  846MPD2    C212428   0.924   2.414  13.687  0.1244  0.2027  0.5716
  846MPD2    C312429   0.937   2.296  13.758 -0.1726 -0.3592 -0.3299
  846MPD2    C412430   0.977   2.181  13.699  0.6729  0.3155  0.6354
  846MPD2    C512431   1.024   2.185  13.570  0.1653 -0.6328 -0.4916
  846MPD2     H12432   0.888   2.504  13.735 -0.4313  0.1368  0.2733
  846MPD2    H112433   0.972   2.086  13.751 -0.4471 -0.3972 -0.7723
  846MPD2    H212434   1.088   2.305  13.406 -1.1228  0.5491 -0.9430
  846MPD2    H312435   1.064   2.095  13.526  2.1182 -0.2369  0.4694
  846MPD2     N12436   0.895   2.309  13.889  0.2139 -0.0714 -0.5371
  846MPD2    H512437   0.843   2.395  13.906  0.5994 -0.2338  1.4440
  846MPD2    N112438   0.992   2.540  13.498  0.3639  0.1695 -0.5438
  846MPD2    H712439   1.006   2.620  13.559  3.6698 -0.3164 -0.6570
  847MPD2     C12440   1.060   3.169  14.149 -0.4119  0.2890  0.7163
  847MPD2    C112441   1.108   3.196  14.277 -0.3114  0.8635 -0.4105
  847MPD2    C212442   1.198   3.104  14.338 -0.1346  0.0985 -0.4181
  847MPD2    C312443   1.251   3.005  14.266  0.1185  0.6499  0.5721
  847MPD2    C412444   1.209   2.979  14.142 -0.5763 -1.0178 -0.1345
  847MPD2    C512445   1.110   3.056  14.085  0.7770 -0.9271  0.6759
  847MPD2     H12446   1.212   3.126  14.443  1.1670  0.2400 -0.6282
  847MPD2    H112447   1.239   2.896  14.079  0.6464  0.1498 -1.0861
  847MPD2    H212448   0.979   3.224  14.100 -0.5531 -0.1132  0.4984
  847MPD2    H312449   1.079   3.026  13.985  1.1269  1.8727 -0.2977
  847MPD2     N12450   1.343   2.915  14.327 -0.2704  1.2939 -0.3604
  847MPD2    H512451   1.367   2.835  14.268  1.5102  1.4089  0.2106
  847MPD2    N112452   1.071   3.303  14.362  0.2757 -0.1649 -0.2750
  847MPD2    H712453   1.129   3.325  14.443 -0.4739  0.8148  0.0011
  848MPD2     C12454   3.775   1.816  16.685  0.1225 -0.7921 -0.1025
  848MPD2    C112455   3.867   1.887  16.749 -0.0245  0.2274 -0.1117
  848MPD2    C212456   3.874   2.026  16.736  0.4003  0.0436 -0.1501
  848MPD2    C312457   3.774   2.087  16.665 -0.1242 -0.7704  0.1622
  848MPD2    C412458   3.685   2.015  16.593 -0.4730 -0.2540 -0.1026
  848MPD2    C512459   3.684   1.880  16.606  0.0867 -0.2724  0.2257
  848MPD2     H12460   3.944   2.086  16.792 -0.0042  1.8237 -1.5204
  848MPD2    H112461   3.595   2.056  16.549 -0.6927 -1.3692 -0.6879
  848MPD2    H212462   3.779   1.709  16.667 -0.5202 -0.7858 -0.2729
  848MPD2    H312463   3.608   1.825  16.553 -0.7952  0.6067  0.5725
  848MPD2     N12464   3.748   2.227  16.679  0.1861  0.1144 -0.1867
  848MPD2    H512465   3.678   2.261  16.614 -0.5865  0.2051  0.6897
  848MPD2    N112466   3.957   1.812  16.828 -0.5532  0.4666  0.1226
  848MPD2    H712467   3.932   1.715  16.842  1.2494  0.0869  0.6805
  849MPD2     C12468   2.845   1.049  14.317  0.1719 -0.1196  0.3056
  849MPD2    C112469   2.869   1.184  14.330  0.2148  0.0890 -0.4839
  849MPD2    C212470   3.002   1.225  14.351  0.2081  0.4771 -0.3845
  849MPD2    C312471   3.104   1.140  14.359  0.3163  0.5887 -0.3344
  849MPD2    C412472   3.073   1.008  14.369 -0.7734 -0.7985 -0.6306
  849MPD2    C512473   2.944   0.957  14.351 -0.7878 -0.0421  0.0603
  849MPD2     H12474   3.023   1.331  14.351  1.8760  0.1399 -0.3164
  849MPD2    H112475   3.153   0.937  14.381 -2.0046 -1.6040  2.7883
  849MPD2    H212476   2.750   1.008  14.285 -1.2365  2.4961  1.1088
  849MPD2    H312477   2.914   0.853  14.347 -1.2211  0.0905 -0.0977
  849MPD2     N12478   3.244   1.179  14.367  1.0095  0.3658  0.0866
  849MPD2    H512479   3.320   1.114  14.349 -0.5550 -1.3681 -0.2689
  849MPD2    N112480   2.767   1.263  14.280 -0.0905  0.5023  0.3644
  849MPD2    H712481   2.671   1.234  14.266 -0.1197 -0.2333  2.0904
  850MPD2     C12482   0.824   4.513  14.990  0.3214  0.6979  0.4160
  850MPD2    C112483   0.819   4.419  15.088 -0.1934 -0.1470  0.5970
  850MPD2    C212484   0.932   4.339  15.105 -0.7440  0.5416  0.4555
  850MPD2    C312485   1.044   4.343  15.021  0.6916 -0.8573 -0.9048
  850MPD2    C412486   1.044   4.442  14.926  0.6013 -0.0119 -0.0174
  850MPD2    C512487   0.932   4.518  14.903 -0.1380 -0.0779 -0.1585
  850MPD2     H12488   0.918   4.274  15.190 -1.3686 -0.0491 -0.1006
  850MPD2    H112489   1.128   4.452  14.858  1.6696 -0.7204  1.1992
  850MPD2    H212490   0.738   4.577  14.973  0.6398  0.5300 -1.8322
  850MPD2    H312491   0.932   4.590  14.822  0.8017  0.7200  0.5457
  850MPD2     N12492   1.154   4.254  15.026  0.3293 -0.1823  0.3816
  850MPD2    H512493   1.226   4.262  14.955 -0.8920 -1.1123 -0.9540
  850MPD2    N112494   0.712   4.400  15.179  0.5863 -0.5638  0.1812
  850MPD2    H712495   0.729   4.337  15.256  3.5345 -0.2169 -0.1816
  851MPD2     C12496   0.595   4.117  15.920  0.3923 -0.0767 -0.2228
  851MPD2    C112497   0.603   4.099  15.781 -0.3056  0.2392 -0.0302
  851MPD2    C212498   0.657   3.978  15.735 -0.1930 -0.6116  0.7164
  851MPD2    C312499   0.724   3.890  15.822 -0.3285 -0.7021 -0.2769
  851MPD2    C412500   0.705   3.906  15.956 -0.2322  0.4340 -0.9777
  851MPD2    C512501   0.643   4.019  15.999  0.0817  0.0000  0.3271
  851MPD2     H12502   0.677   3.971  15.629  0.1614 -2.1635  0.8948
  851MPD2    H112503   0.754   3.846  16.032  0.7607  1.0747 -1.1145
  851MPD2    H212504   0.556   4.204  15.972  1.3581  1.6283 -2.3160
  851MPD2    H312505   0.647   4.030  16.107  0.9529  0.1126  0.2861
  851MPD2     N12506   0.804   3.786  15.768 -0.3860 -0.5880  0.8040
  851MPD2    H512507   0.819   3.773  15.668 -0.4921  0.7446  0.6205
  851MPD2    N112508   0.557   4.198  15.692  0.1774  0.4394 -0.0730
  851MPD2    H712509   0.522   4.285  15.732  1.5157  0.2835  1.4160
  852MPD2     C12510   0.634   2.656   9.239 -0.3019  0.0245 -0.7944
  852MPD2    C112511   0.638   2.596   9.365 -0.2676 -0.1676 -0.4016
  852MPD2    C212512   0.741   2.631   9.453 -0.4983 -0.1266  0.0887
  852MPD2    C312513   0.843   2.711   9.412  0.1820  0.9551  0.1840
  852MPD2    C412514   0.831   2.774   9.291  0.8242 -0.1952  0.1350
  852MPD2    C512515   0.734   2.738   9.208 -0.0766 -0.2701  0.2729
  852MPD2     H12516   0.744   2.599   9.557  1.9951 -0.9467 -0.2340
  852MPD2    H112517   0.897   2.853   9.258 -0.1772 -0.1196 -1.6437
  852MPD2    H212518   0.554   2.653   9.166 -0.6993  0.8542 -0.3975
  852MPD2    H312519   0.724   2.775   9.106 -1.7026  0.3176  0.6447
  852MPD2     N12520   0.954   2.744   9.501 -0.4570  0.1335  0.3592
  852MPD2    H512521   0.958   2.685   9.584  0.9157  0.4006  0.4722
  852MPD2    N112522   0.544   2.497   9.414 -0.9050  0.4011  0.2305
  852MPD2    H712523   0.569   2.461   9.506 -0.8526  0.6313  0.3068
  853MPD2     C12524   2.772   1.479  12.515  0.3808 -0.4637 -0.5707
  853MPD2    C112525   2.729   1.600  12.467  0.5266 -0.2456 -0.2710
  853MPD2    C212526   2.703   1.607  12.333 -0.4383 -0.3838 -0.0996
  853MPD2    C312527   2.740   1.501  12.246  0.6786  0.1437 -0.4170
  853MPD2    C412528   2.795   1.385  12.295  0.4783  0.1247  0.3789
  853MPD2    C512529   2.804   1.378  12.429 -0.3720  1.1745  0.5658
  853MPD2     H12530   2.680   1.704  12.292  2.8688  0.6051  0.3349
  853MPD2    H112531   2.823   1.293  12.244 -3.1346 -2.0316  2.3001
  853MPD2    H212532   2.793   1.468  12.621 -0.1535 -1.4504 -0.5684
  853MPD2    H312533   2.846   1.287  12.471 -0.1554  0.2854 -1.6005
  853MPD2     N12534   2.726   1.513  12.106 -0.4031 -0.0067 -0.6032
  853MPD2    H512535   2.744   1.431  12.049  4.6242  0.6580 -0.0319
  853MPD2    N112536   2.710   1.706  12.557 -0.9720  0.3422 -0.3758
  853MPD2    H712537   2.724   1.683  12.655  1.3262  1.3324 -0.4823
  854MPD2     C12538   4.191   2.264  13.455  0.1574 -0.7619 -0.6487
  854MPD2    C112539   4.299   2.289  13.372 -0.6262  0.0079  0.2761
  854MPD2    C212540   4.404   2.196  13.370  0.3199 -0.3536 -0.1639
  854MPD2    C312541   4.402   2.082  13.452 -0.0019  0.5287 -0.4133
  854MPD2    C412542   4.288   2.062  13.528 -0.7373  0.0124 -0.6061
  854MPD2    C512543   4.183   2.154  13.534 -1.0108 -0.0934 -0.0513
  854MPD2     H12544   4.486   2.212  13.301  1.6889  1.5560  1.8871
  854MPD2    H112545   4.281   1.970  13.585 -1.4853  1.4154  1.5394
  854MPD2    H212546   4.102   2.325  13.449 -0.2004 -1.2644 -0.3848
  854MPD2    H312547   4.099   2.127  13.596 -1.8774  0.8347 -0.8217
  854MPD2     N12548   4.508   1.994  13.467  0.1159 -0.3725 -0.1508
  854MPD2    H512549   4.505   1.948  13.558  0.2734 -1.6905 -0.8174
  854MPD2    N112550   4.297   2.407  13.294 -0.4086  0.3005 -0.2354
  854MPD2    H712551   4.204   2.448  13.291 -0.9238 -0.6276  2.4234
  855MPD2     C12552   4.514   1.422  14.054  0.4273 -0.1739 -0.2865
  855MPD2    C112553   4.624   1.367  13.987  0.0600 -0.3872  0.5648
  855MPD2    C212554   4.694   1.447  13.902  0.1543 -0.4213  0.2019
  855MPD2    C312555   4.653   1.573  13.860 -0.2502 -0.2000  0.2044
  855MPD2    C412556   4.533   1.613  13.910  0.1175 -0.3019  1.2561
  855MPD2    C512557   4.474   1.543  14.014 -0.1488 -0.0838 -0.0555
  855MPD2     H12558   0.076   1.428  13.872 -0.2787 -3.3863  0.6648
  855MPD2    H112559   4.496   1.708  13.875  0.3674 -0.4727  0.5336
  855MPD2    H212560   4.453   1.389  14.137  0.4669  2.8775  0.9815
  855MPD2    H312561   4.399   1.599  14.068 -1.2671 -1.0863 -0.5930
  855MPD2     N12562   4.708   1.660  13.766 -0.0772  0.4567  0.1334
  855MPD2    H512563   4.649   1.741  13.752 -0.0489  0.3813 -0.4076
  855MPD2    N112564   4.677   1.238  14.033  0.0496 -0.6159  0.1621
  855MPD2    H712565   0.052   1.214  14.011  0.0238 -1.7965  1.3285
  856MPD2     C12566   2.186   2.582  14.310  0.0658  0.1982  0.4538
  856MPD2    C112567   2.228   2.684  14.225 -0.6066 -0.2119 -0.0600
  856MPD2    C212568   2.134   2.764  14.162 -0.5560  0.1409  0.6351
  856MPD2    C312569   1.999   2.739  14.184 -0.4321 -0.3771  0.5127
  856MPD2    C412570   1.961   2.624  14.249  0.3805  0.7371  0.0319
  856MPD2    C512571   2.056   2.543  14.308  0.3314  1.1647 -0.2393
  856MPD2     H12572   2.168   2.854  14.112  3.0338 -2.4518 -1.5402
  856MPD2    H112573   1.858   2.596  14.269 -0.0622  1.3632 -1.4158
  856MPD2    H212574   2.250   2.517  14.369  3.1873  2.3218 -0.6377
  856MPD2    H312575   2.025   2.466  14.377  1.8881 -1.3647 -2.3925
  856MPD2     N12576   1.912   2.837  14.131 -0.0617  0.4842 -0.4728
  856MPD2    H512577   1.957   2.905  14.072 -0.6033 -0.0604 -1.5109
  856MPD2    N112578   2.359   2.731  14.224 -0.3381  0.4811 -0.5167
  856MPD2    H712579   2.373   2.818  14.173  1.0809  0.2940 -0.4544
  857MPD2     C12580   3.542   0.271  12.666 -0.1042 -0.0749  0.4133
  857MPD2    C112581   3.673   0.241  12.714  0.3416  0.2311  0.3587
  857MPD2    C212582   3.758   0.349  12.727  0.0122 -0.0131  0.5093
  857MPD2    C312583   3.710   0.479  12.710  0.4025 -0.3299  0.3573
  857MPD2    C412584   3.582   0.503  12.658 -0.0017  0.5608 -0.2140
  857MPD2    C512585   3.498   0.400  12.637  0.0947 -0.2169 -0.2696
  857MPD2     H12586   3.862   0.345  12.756  0.4280 -0.1164 -0.9740
  857MPD2    H112587   3.543   0.599  12.626  2.1517  2.0344  1.5673
  857MPD2    H212588   3.476   0.187  12.642 -0.2126 -0.4695  2.1434
  857MPD2    H312589   3.400   0.426  12.599  0.1897  1.2799  0.4952
  857MPD2     N12590   3.800   0.595  12.731  0.0399 -0.1839 -0.6681
  857MPD2    H512591   3.897   0.578  12.755 -0.6975 -1.6887  1.3087
  857MPD2    N112592   3.706   0.106  12.731 -0.2638 -0.1130 -0.9698
  857MPD2    H712593   3.627   0.049  12.703  0.2972 -1.4969  0.2444
  858MPD2     C12594   0.043   4.086  16.450 -0.5275 -0.2265 -0.9466
  858MPD2    C112595   4.718   3.963  16.491  0.3669  0.7579 -0.6753
  858MPD2    C212596   4.694   3.941  16.626 -0.2199  0.1631  0.2017
  858MPD2    C312597   4.707   4.045  16.716  0.1915 -0.1859  0.0542
  858MPD2    C412598   0.020   4.173  16.672  0.6134  0.3296 -0.2221
  858MPD2    C512599   0.048   4.194  16.538 -1.1987  0.4402 -0.3009
  858MPD2     H12600   4.660   3.844  16.661  0.5789  0.4445  1.7886
  858MPD2    H112601   0.029   4.253  16.745 -0.5610  0.5443 -0.3048
  858MPD2    H212602   0.076   4.099  16.347  3.2607  0.7768  0.3935
  858MPD2    H312603   0.087   4.289  16.506  1.6929 -0.3999  0.7175
  858MPD2     N12604   4.677   4.028  16.851  0.5644  0.2665 -0.3920
  858MPD2    H512605   4.656   4.116  16.898  1.7943  1.2051 -1.5808
  858MPD2    N112606   4.707   3.855  16.401  0.3717  0.1143  0.2769
  858MPD2    H712607   0.013   3.874  16.305 -0.0143  1.8332  0.4993
  859MPD2     C12608   3.168   1.412  16.007 -0.4739  0.3971  0.1892
  859MPD2    C112609   3.099   1.408  15.885  0.2757 -0.0106  0.6187
  859MPD2    C212610   3.058   1.291  15.826 -0.1526  0.5912  0.4099
  859MPD2    C312611   3.064   1.177  15.908 -0.2200 -0.3234 -0.2312
  859MPD2    C412612   3.130   1.182  16.031 -0.0453 -0.0904  0.2617
  859MPD2    C512613   3.194   1.295  16.076  0.3083 -0.3501 -0.0832
  859MPD2     H12614   3.014   1.299  15.728 -2.0714 -0.4825  1.1887
  859MPD2    H112615   3.142   1.100  16.101 -0.5633  0.4275  0.9600
  859MPD2    H212616   3.195   1.503  16.059 -0.8034  0.6529 -0.0787
  859MPD2    H312617   3.241   1.304  16.174  1.9220 -0.8911 -0.8121
  859MPD2     N12618   3.022   1.048  15.863 -0.4489  0.0298  0.2116
  859MPD2    H512619   3.057   0.967  15.913  0.9197 -0.5511 -1.7165
  859MPD2    N112620   3.084   1.531  15.821 -0.8263  0.0144  0.3181
  859MPD2    H712621   3.120   1.611  15.872  0.2928 -0.4285  0.2281
  860MPD2     C12622   0.509   1.819  11.672  0.4283 -0.6551 -0.3967
  860MPD2    C112623   0.580   1.829  11.786  0.0442  0.1987  0.0297
  860MPD2    C212624   0.517   1.815  11.909 -0.4156  0.2413  0.0726
  860MPD2    C312625   0.380   1.805  11.917  0.3128 -0.3088  0.0989
  860MPD2    C412626   0.302   1.786  11.808 -0.0676  0.0788  0.2155
  860MPD2    C512627   0.370   1.800  11.687  0.5682 -0.6909 -0.4903
  860MPD2     H12628   0.569   1.821  12.003  2.1354  0.9346 -1.3812
  860MPD2    H112629   0.198   1.757  11.814 -0.1561  0.8843  2.5032
  860MPD2    H212630   0.556   1.843  11.578  0.8825  3.3113  0.8134
  860MPD2    H312631   0.308   1.789  11.598 -1.6302 -0.0820  0.9794
  860MPD2     N12632   0.321   1.809  12.044  1.0361  0.0404 -0.0578
  860MPD2    H512633   0.378   1.806  12.128 -0.6177  0.8369  1.1020
  860MPD2    N112634   0.719   1.846  11.781  0.2091 -0.1996 -0.5040
  860MPD2    H712635   0.777   1.826  11.861  1.2806  0.1449 -1.1888
  861MPD2     C12636   4.469   4.675  10.992 -0.3492 -0.9328  0.4336
  861MPD2    C112637   4.403   0.017  11.090 -0.0368 -0.1818 -0.4671
  861MPD2    C212638   4.290   0.094  11.064  0.1418 -0.0269  0.0543
  861MPD2    C312639   4.263   0.117  10.925 -0.1674  0.2438  0.1641
  861MPD2    C412640   4.337   0.054  10.831 -0.1387 -0.5402 -0.1148
  861MPD2    C512641   4.432   4.691  10.860  0.5086  0.4922  0.2423
  861MPD2     H12642   4.238   0.140  11.147  1.8173 -0.0469  1.1035
  861MPD2    H112643   4.297   0.062  10.731  0.3299  0.7262 -0.2100
  861MPD2    H212644   4.557   4.617  11.018 -0.2424 -1.1279 -0.3393
  861MPD2    H312645   4.493   4.646  10.782  1.3688  0.4017  0.9648
  861MPD2     N12646   4.157   0.192  10.881  0.3721 -0.5730  0.0818
  861MPD2    H512647   4.147   0.211  10.782  1.9112 -1.6822 -0.2798
  861MPD2    N112648   4.440   4.716  11.228  0.6737 -0.6962  0.7327
  861MPD2    H712649   4.369   0.031  11.290  0.7825 -0.1142  0.5124
  862MPD2     C12650   3.793   0.584  10.351  0.3777  0.5586 -0.4922
  862MPD2    C112651   3.860   0.469  10.389 -0.1420 -0.7392  0.1784
  862MPD2    C212652   3.822   0.350  10.318 -0.0010 -0.1689  0.8310
  862MPD2    C312653   3.743   0.359  10.204 -0.1555 -0.2794 -0.5790
  862MPD2    C412654   3.683   0.475  10.168 -0.0184  0.0280  0.2149
  862MPD2    C512655   3.706   0.586  10.243  0.0355  0.1206  0.3794
  862MPD2     H12656   3.864   0.254  10.346 -1.3214 -0.5458  1.4684
  862MPD2    H112657   3.617   0.484  10.082  0.0113 -3.8999 -0.2339
  862MPD2    H212658   3.809   0.680  10.399  1.4788 -1.1154  2.4461
  862MPD2    H312659   3.667   0.682  10.212  0.8992 -0.3250 -2.0773
  862MPD2     N12660   3.711   0.247  10.127  0.6763  0.0721  0.4435
  862MPD2    H512661   3.623   0.247  10.075  0.7477 -1.1409  0.3097
  862MPD2    N112662   3.936   0.465  10.511  0.1838  0.1231 -0.2487
  862MPD2    H712663   3.962   0.375  10.550 -1.2829 -0.6894 -1.1354
  863MPD2     C12664   2.379   2.632  16.978 -0.2206 -0.3686 -0.0488
  863MPD2    C112665   2.399   2.768  16.977  0.6103 -0.2149 -0.1014
  863MPD2    C212666   2.522   2.822  17.022 -1.1645 -0.0490 -0.0994
  863MPD2    C312667   2.612   2.741  17.090  0.1413 -0.4180 -0.1378
  863MPD2    C412668   2.592   2.605  17.092  0.1853  0.4491  0.0781
  863MPD2    C512669   2.478   2.551  17.031 -0.1189 -0.0762 -0.2060
  863MPD2     H12670   2.543   2.928  17.024 -0.0446 -0.2460 -1.5557
  863MPD2    H112671   2.667   2.535  17.127  2.9402  2.2763 -2.2535
  863MPD2    H212672   2.288   2.584  16.944 -0.8208  0.8546 -0.1632
  863MPD2    H312673   2.464   2.444  17.022 -0.8492 -0.1379  1.5663
  863MPD2     N12674   2.730   2.785  17.161  0.3055 -0.2846 -0.0696
  863MPD2    H512675   2.767   2.719  17.229 -0.4790 -0.0771  0.5579
  863MPD2    N112676   2.296   2.851  16.933  0.3280 -0.7410  0.3047
  863MPD2    H712677   2.221   2.808  16.880 -0.3114  0.5710  0.1433
  864MPD2     C12678   3.437   3.930  16.988 -0.2886  0.4754 -0.5608
  864MPD2    C112679   3.463   3.821  16.915 -0.5277  0.8849 -0.5587
  864MPD2    C212680   3.583   3.814  16.833 -0.3837  0.4752  0.8107
  864MPD2    C312681   3.655   3.928  16.808  0.3294  0.0521  0.3266
  864MPD2    C412682   3.625   4.034  16.886 -0.3244  0.3932  0.1450
  864MPD2    C512683   3.518   4.036  16.975 -0.1025  0.5118 -0.1554
  864MPD2     H12684   3.608   3.718  16.789  1.1007  1.7176 -1.0815
  864MPD2    H112685   3.685   4.122  16.866  0.1184  0.3471  1.2529
  864MPD2    H212686   3.347   3.945  17.047 -0.5475  1.9337 -1.3235
  864MPD2    H312687   3.486   4.127  17.024  1.1105 -0.5433  2.5833
  864MPD2     N12688   3.762   3.946  16.716 -0.8140  0.0968  0.8054
  864MPD2    H512689   3.804   4.038  16.715  1.7702 -1.0709  3.0023
  864MPD2    N112690   3.369   3.714  16.927 -0.0835 -0.3151 -0.1076
  864MPD2    H712691   3.299   3.737  16.996 -0.9357 -0.9502 -0.7625
  865MPD2     C12692   3.529   4.430  16.154  0.7437  0.2848  0.4991
  865MPD2    C112693   3.511   4.292  16.153  0.7365  0.7307  0.0987
  865MPD2    C212694   3.608   4.209  16.200  0.3862 -0.5518  0.0574
  865MPD2    C312695   3.725   4.257  16.249  0.3515 -0.0395 -0.2471
  865MPD2    C412696   3.739   4.393  16.255 -0.3129  0.1082  0.3229
  865MPD2    C512697   3.645   4.476  16.207 -0.0268 -0.1916 -0.3354
  865MPD2     H12698   3.597   4.102  16.189  0.8805 -0.6176  0.2349
  865MPD2    H112699   3.835   4.434  16.285 -0.2619  0.4958 -0.3790
  865MPD2    H212700   3.453   4.499  16.118 -1.0861 -2.7677 -1.5640
  865MPD2    H312701   3.658   4.583  16.224 -0.9339 -0.3683  1.4823
  865MPD2     N12702   3.835   4.177  16.286  0.3656 -0.2767  0.3378
  865MPD2    H512703   3.894   4.218  16.358 -0.0654 -1.3738  1.3135
  865MPD2    N112704   3.388   4.246  16.100  0.7214 -0.1894 -0.3675
  865MPD2    H712705   3.331   4.306  16.041  3.0136  2.2668 -0.1086
  866MPD2     C12706   0.236   0.133  11.682  0.3313  0.1621  0.8722
  866MPD2    C112707   0.259   0.156  11.544 -0.1572 -0.5457 -0.2278
  866MPD2    C212708   0.154   0.210  11.470 -0.2992  0.3436 -0.6848
  866MPD2    C312709   0.031   0.256  11.520  0.2463  0.2348  0.5206
  866MPD2    C412710   0.014   0.249  11.656  0.1995  0.3230 -0.3167
  866MPD2    C512711   0.117   0.184  11.730 -0.0776  0.1188 -0.3547
  866MPD2     H12712   0.161   0.225  11.363  0.9226 -1.1197 -0.8075
  866MPD2    H112713   4.647   0.281  11.712  0.4665 -0.9877  0.8418
  866MPD2    H212714   0.309   0.101  11.755  1.6795 -0.0624 -0.5517
  866MPD2    H312715   0.092   0.175  11.835  1.3671  0.7689  0.0474
  866MPD2     N12716   4.642   0.310  11.443 -0.3891  0.0639  0.0328
  866MPD2    H512717   4.575   0.373  11.486  1.5508  0.4465  2.5083
  866MPD2    N112718   0.379   0.117  11.488  0.0081 -0.0173  0.4926
  866MPD2    H712719   0.437   0.061  11.550  3.6224  4.0332  0.8364
  867MPD2     C12720   1.585   4.065  16.049 -0.2822  0.1042 -0.8557
  867MPD2    C112721   1.614   3.962  16.141 -0.9378 -0.5024  0.3471
  867MPD2    C212722   1.584   3.971  16.277  0.3097  0.5733 -0.3657
  867MPD2    C312723   1.518   4.076  16.329 -1.0113  0.1266  0.3788
  867MPD2    C412724   1.496   4.184  16.252 -0.6607  0.3391  0.2380
  867MPD2    C512725   1.526   4.172  16.116 -0.5773  0.0200 -0.5500
  867MPD2     H12726   1.624   3.892  16.340  0.2993  0.5411 -0.3992
  867MPD2    H112727   1.451   4.275  16.289 -0.7590  0.0694  0.7935
  867MPD2    H212728   1.597   4.061  15.941 -2.9917  0.7172 -1.1887
  867MPD2    H312729   1.503   4.247  16.041  0.5192  1.3514  0.4560
  867MPD2     N12730   1.515   4.089  16.466 -0.0248  0.3141 -0.5222
  867MPD2    H512731   1.526   4.180  16.510  1.1111  0.5571 -1.3052
  867MPD2    N112732   1.693   3.846  16.109 -0.3101  1.0682 -0.2918
  867MPD2    H712733   1.699   3.773  16.179 -0.4325  1.5014  0.1676
  868MPD2     C12734   3.791   3.358  12.991  0.1367  0.0122  0.6662
  868MPD2    C112735   3.853   3.379  13.106 -0.0661 -0.3153 -0.3336
  868MPD2    C212736   3.782   3.434  13.214 -0.7243 -0.1936 -1.1366
  868MPD2    C312737   3.644   3.453  13.204 -0.4088  0.1356 -0.2156
  868MPD2    C412738   3.580   3.417  13.084  0.3900  0.1255 -0.0244
  868MPD2    C512739   3.656   3.376  12.978 -0.3504 -0.1900 -0.0597
  868MPD2     H12740   3.821   3.444  13.314 -1.6952  1.2180 -0.8964
  868MPD2    H112741   3.474   3.429  13.068  0.3042 -1.5421 -0.6957
  868MPD2    H212742   3.853   3.326  12.908 -0.1075  1.1625  0.0494
  868MPD2    H312743   3.607   3.350  12.885  2.6261  1.2071 -2.0249
  868MPD2     N12744   3.571   3.521  13.309  0.0259 -0.1077 -0.4178
  868MPD2    H512745   3.619   3.564  13.388  0.1565  0.6638 -0.9139
  868MPD2    N112746   3.986   3.335  13.112  0.3205  0.4772 -0.4813
  868MPD2    H712747   4.014   3.284  13.029 -1.4372 -2.4223  0.7247
  869MPD2     C12748   0.537   1.104   1.584  0.1517 -0.2973  1.0500
  869MPD2    C112749   0.407   1.138   1.620  0.0238 -0.0737 -0.8676
  869MPD2    C212750   0.339   1.233   1.534 -0.5789  0.5077  0.1793
  869MPD2    C312751   0.396   1.282   1.416  0.0514  0.7230  0.3114
  869MPD2    C412752   0.512   1.226   1.379 -0.1977  0.5004 -1.1342
  869MPD2    C512753   0.583   1.143   1.462  0.0572  0.3156  0.6479
  869MPD2     H12754   0.250   1.277   1.578 -1.0206 -1.7977  1.6429
  869MPD2    H112755   0.559   1.266   1.290 -0.6940  0.8774 -1.2269
  869MPD2    H212756   0.599   1.043   1.648  0.3027 -0.2242  0.9722
  869MPD2    H312757   0.678   1.104   1.426 -0.9772 -0.2550 -1.4449
  869MPD2     N12758   0.339   1.382   1.335  0.5693  0.2934  0.0659
  869MPD2    H512759   0.384   1.402   1.246  0.3781  1.3801  0.2122
  869MPD2    N112760   0.360   1.084   1.742  0.0310 -0.3724  0.4718
  869MPD2    H712761   0.419   1.025   1.801  0.6737 -1.1276 -0.9147
  870MPD2     C12762   4.088   4.681   1.254  0.4654 -0.2303  0.0918
  870MPD2    C112763   4.213   0.001   1.293  0.3699  0.1616  0.9484
  870MPD2    C212764   4.306   0.039   1.196 -0.1293 -0.0082 -0.2185
  870MPD2    C312765   4.285   0.034   1.066  0.0885  0.4268 -0.9789
  870MPD2    C412766   4.164   4.711   1.018  0.3932  0.0437 -0.4553
  870MPD2    C512767   4.070   4.680   1.114 -1.1536 -0.9772 -0.2690
  870MPD2     H12768   4.411   0.040   1.223  0.3492  2.8856 -2.1890
  870MPD2    H112769   4.148   4.685   0.914 -3.1109  0.1888  0.0373
  870MPD2    H212770   4.011   4.646   1.321 -1.5714  2.4612 -0.8463
  870MPD2    H312771   3.985   4.632   1.067 -0.0224 -0.5964 -2.6816
  870MPD2     N12772   4.391   0.069   0.982  0.1493  0.5482 -0.3896
  870MPD2    H512773   4.481   0.063   1.029 -0.0608  0.9356  0.0605
  870MPD2    N112774   4.231   4.719   1.428  0.6245 -0.0870  0.5482
  870MPD2    H712775   4.159   4.670   1.480 -0.3224 -2.2664 -2.8700
  871MPD2     C12776   0.958   3.920  16.889  0.2724  0.4512  0.1536
  871MPD2    C112777   0.985   3.953  17.020  0.0263  0.8443 -0.6571
  871MPD2    C212778   1.033   3.845  17.097  0.0132  0.2410  0.7073
  871MPD2    C312779   1.054   3.721  17.049  0.7306 -0.1229 -0.6151
  871MPD2    C412780   1.003   3.687  16.928  0.4911  0.3162  0.6774
  871MPD2    C512781   0.958   3.790  16.849 -0.6511  0.3660  0.0495
  871MPD2     H12782   1.073   3.867  17.196  1.0439 -1.7211  0.7350
  871MPD2    H112783   1.017   3.586  16.890 -2.1032  0.4139 -0.5447
  871MPD2    H212784   0.938   3.993  16.812 -0.5293 -0.8564 -0.8840
  871MPD2    H312785   0.923   3.768  16.749 -0.2143 -0.0868 -0.0009
  871MPD2     N12786   1.114   3.624  17.130  0.2123 -0.0542  0.3307
  871MPD2    H512787   1.130   3.660  17.224  0.9314 -2.7646  1.2391
  871MPD2    N112788   0.980   4.093  17.065 -0.3313 -0.2173  0.7319
  871MPD2    H712789   0.970   4.160  16.990 -0.7778 -0.9683  0.1117
  872MPD2     C12790   1.482   2.263  13.716 -0.5249 -0.0911 -0.0941
  872MPD2    C112791   1.567   2.182  13.792 -0.3348 -0.4685  0.0692
  872MPD2    C212792   1.508   2.102  13.888  0.1562 -0.3336 -0.6081
  872MPD2    C312793   1.373   2.097  13.902 -0.6973 -0.1079 -0.4962
  872MPD2    C412794   1.294   2.172  13.819  0.3765  0.7308 -0.3494
  872MPD2    C512795   1.351   2.249  13.725 -0.1043 -0.0858  0.2976
  872MPD2     H12796   1.570   2.038  13.950  2.2637 -0.2211 -2.6156
  872MPD2    H112797   1.186   2.169  13.830  0.4674  0.6215  0.5377
  872MPD2    H212798   1.518   2.344  13.653 -0.2377  0.2389  0.4903
  872MPD2    H312799   1.283   2.310  13.666  0.2799  1.3478  1.3544
  872MPD2     N12800   1.308   2.019  14.004 -0.1200  0.2588 -0.0394
  872MPD2    H512801   1.208   2.031  14.015  0.1152  0.7499  1.5843
  872MPD2    N112802   1.708   2.172  13.778 -0.4146 -0.2632 -0.3727
  872MPD2    H712803   1.749   2.094  13.829 -1.4814 -0.8286 -0.3863
  873MPD2     C12804   4.255   1.630   1.117  0.4480  0.1332  0.8283
  873MPD2    C112805   4.310   1.745   1.060  0.4861  0.2319 -0.8404
  873MPD2    C212806   4.421   1.734   0.981  0.2096  0.6764 -0.3622
  873MPD2    C312807   4.486   1.607   0.960 -0.1568  0.2352  0.8018
  873MPD2    C412808   4.440   1.504   1.039  0.0879 -0.5391  0.5102
  873MPD2    C512809   4.315   1.509   1.101 -0.2216  0.3898 -0.4938
  873MPD2     H12810   4.443   1.817   0.915  1.1923 -0.4314 -1.4288
  873MPD2    H112811   4.472   1.402   1.019 -0.0582 -0.3444 -0.7089
  873MPD2    H212812   4.159   1.638   1.168 -0.4795  0.2223 -0.9367
  873MPD2    H312813   4.283   1.412   1.138 -0.4532  0.9110  0.6769
  873MPD2     N12814   4.584   1.580   0.862  0.9237  0.1515  0.4393
  873MPD2    H512815   4.602   1.481   0.847 -0.3755  0.0154 -0.2296
  873MPD2    N112816   4.230   1.856   1.081 -0.1420 -0.0083  0.4823
  873MPD2    H712817   4.161   1.845   1.155  0.5781  0.3364  1.2069
  874MPD2     C12818   3.127   2.639  16.291 -0.4678  1.1887  0.2261
  874MPD2    C112819   3.178   2.510  16.305  0.3936  0.2593  0.0558
  874MPD2    C212820   3.292   2.489  16.388 -0.3583  0.2926  0.5233
  874MPD2    C312821   3.345   2.593  16.459 -0.4523  0.3383 -0.6325
  874MPD2    C412822   3.296   2.720  16.433 -0.8090 -0.8164 -0.3296
  874MPD2    C512823   3.187   2.745  16.351 -0.1965 -0.2636 -0.7484
  874MPD2     H12824   3.331   2.391  16.415  1.1107  0.8569  0.4385
  874MPD2    H112825   3.351   2.807  16.468  0.8714 -1.5759 -1.0644
  874MPD2    H212826   3.034   2.659  16.239  0.6518  3.2749 -0.9682
  874MPD2    H312827   3.151   2.846  16.335 -0.1017  0.1142  1.3735
  874MPD2     N12828   3.458   2.574  16.527 -0.1002  0.1085 -0.4304
  874MPD2    H512829   3.503   2.483  16.519  2.0433  1.5201 -4.1843
  874MPD2    N112830   3.101   2.400  16.251  0.0463 -0.5416  0.2930
  874MPD2    H712831   3.008   2.409  16.213  0.3784 -0.2208 -0.4363
  875MPD2     C12832   4.454   0.487  14.689 -0.4363 -0.0134 -0.1805
  875MPD2    C112833   4.315   0.499  14.684  0.6488  0.7219  0.2031
  875MPD2    C212834   4.255   0.590  14.768 -0.4277  0.4169  0.1027
  875MPD2    C312835   4.328   0.638  14.876 -1.0404 -0.5563  0.6390
  875MPD2    C412836   4.462   0.610  14.886 -0.5302 -0.1459  0.4654
  875MPD2    C512837   4.525   0.543  14.784  0.5166  0.2139 -0.1043
  875MPD2     H12838   4.148   0.596  14.753 -0.6191 -2.2661  0.5042
  875MPD2    H112839   4.530   0.661  14.953  0.2384 -1.8422  0.9677
  875MPD2    H212840   4.502   0.428  14.611 -3.2014  1.8420 -3.3055
  875MPD2    H312841   4.628   0.507  14.785  0.0717 -1.1221 -3.3589
  875MPD2     N12842   4.276   0.718  14.973  0.8391 -0.0120 -0.1225
  875MPD2    H512843   4.337   0.745  15.050  1.2729 -0.2917 -0.3713
  875MPD2    N112844   4.238   0.437  14.586 -0.0218 -0.4832  0.2861
  875MPD2    H712845   4.140   0.464  14.590  0.0538 -0.1132 -0.3706
  876MPD2     C12846   3.948   1.825  16.134 -0.2787 -0.3504  0.3067
  876MPD2    C112847   3.836   1.812  16.057  0.5977 -0.0975  0.0807
  876MPD2    C212848   3.757   1.706  16.060  0.0282 -0.2730  0.1323
  876MPD2    C312849   3.779   1.608  16.154  0.6950  0.6318 -0.3733
  876MPD2    C412850   3.884   1.621  16.237  0.7273  0.0464  0.2739
  876MPD2    C512851   3.976   1.721  16.220 -0.0396  0.8526 -0.0663
  876MPD2     H12852   3.673   1.697  15.991  0.0129 -1.8156  0.3519
  876MPD2    H112853   3.906   1.549  16.315 -1.1112 -1.1445 -0.2971
  876MPD2    H212854   4.016   1.910  16.129 -1.0750  0.2442 -0.2951
  876MPD2    H312855   4.064   1.734  16.282 -0.2775  1.9590  0.0273
  876MPD2     N12856   3.686   1.502  16.169 -0.0841  0.2469  0.6872
  876MPD2    H512857   3.619   1.492  16.093 -0.2866 -2.2258  1.1748
  876MPD2    N112858   3.812   1.915  15.964 -0.0292 -0.0357 -0.2952
  876MPD2    H712859   3.886   1.983  15.948 -0.4651  0.3773 -0.5606
  877MPD2     C12860   3.229   2.252  15.456  0.5660  0.0218 -0.6306
  877MPD2    C112861   3.355   2.269  15.400  0.2956 -0.0302  0.3058
  877MPD2    C212862   3.370   2.273  15.257  0.4991 -0.2103 -0.6680
  877MPD2    C312863   3.255   2.280  15.174  0.5595  0.5078 -0.0678
  877MPD2    C412864   3.136   2.267  15.244 -0.1865  0.3366  0.2406
  877MPD2    C512865   3.119   2.258  15.380  0.1088  0.3064 -0.2649
  877MPD2     H12866   3.472   2.273  15.220 -0.0876  3.4263 -2.3179
  877MPD2    H112867   3.044   2.277  15.188 -0.2753 -0.1830  0.2971
  877MPD2    H212868   3.217   2.247  15.564 -1.7644 -0.2005 -0.8906
  877MPD2    H312869   3.019   2.242  15.419 -0.9464  0.1708 -2.9891
  877MPD2     N12870   3.260   2.298  15.035 -0.2372  0.1626  0.3122
  877MPD2    H512871   3.171   2.321  14.992 -1.1278 -0.1114  2.0413
  877MPD2    N112872   3.472   2.260  15.482  0.2564  0.3274  0.1618
  877MPD2    H712873   3.559   2.279  15.433  0.1752 -2.4972 -1.0556
  878MPD2     C12874   3.146   1.158  13.409 -0.8816 -0.2144  0.1138
  878MPD2    C112875   3.020   1.206  13.378  0.1381 -0.4702  0.4566
  878MPD2    C212876   2.934   1.246  13.480 -0.5007  0.2764 -0.5113
  878MPD2    C312877   2.978   1.229  13.614 -0.0717  0.5966 -0.7483
  878MPD2    C412878   3.101   1.174  13.646 -0.7116  0.5140 -0.4258
  878MPD2    C512879   3.184   1.139  13.538  0.4801  0.3106  0.0908
  878MPD2     H12880   2.846   1.308  13.468 -0.2109  0.8519  0.2984
  878MPD2    H112881   3.155   1.175  13.740  1.6434 -2.1947 -1.7611
  878MPD2    H212882   3.219   1.131  13.333 -0.0402 -1.3827  1.3348
  878MPD2    H312883   3.277   1.089  13.566  1.4200  1.4052 -1.0804
  878MPD2     N12884   2.906   1.293  13.718 -0.1714 -0.0251 -0.6716
  878MPD2    H512885   2.826   1.352  13.694 -0.6382 -0.0510  0.7671
  878MPD2    N112886   2.969   1.232  13.250  0.6916  0.2079 -0.1223
  878MPD2    H712887   2.872   1.261  13.240 -0.2149 -2.3961  1.1412
  879MPD2     C12888   3.921   3.172  17.007  0.1391 -0.1317 -0.2084
  879MPD2    C112889   3.907   3.069  17.091 -0.0200 -0.2507 -0.2322
  879MPD2    C212890   3.798   2.987  17.072 -0.2158  0.0781  0.3880
  879MPD2    C312891   3.703   3.018  16.972 -0.2918 -0.2647 -0.1923
  879MPD2    C412892   3.721   3.127  16.892 -1.3750 -0.2930 -0.2244
  879MPD2    C512893   3.829   3.212  16.915 -1.2942  0.0973 -0.9913
  879MPD2     H12894   3.777   2.902  17.136 -1.5598  0.6304  0.6796
  879MPD2    H112895   3.648   3.164  16.821  0.9060  1.2436 -1.7879
  879MPD2    H212896   4.001   3.243  17.022 -0.3412  0.3952 -0.1541
  879MPD2    H312897   3.848   3.293  16.846 -0.1752  1.7084  1.2028
  879MPD2     N12898   3.590   2.942  16.941  0.0321 -0.4215  0.1599
  879MPD2    H512899   3.547   2.979  16.856  2.3233 -0.6035 -1.0775
  879MPD2    N112900   3.992   3.064  17.195  0.8024 -0.1716  0.6012
  879MPD2    H712901   4.063   3.136  17.208  0.7550  0.1802 -1.1296
  880MPD2     C12902   0.319   4.228   0.740 -0.8370  0.4367 -0.0514
  880MPD2    C112903   0.421   4.294   0.806 -0.8384 -0.1799  0.0563
  880MPD2    C212904   0.491   4.218   0.895  0.0941 -0.8562  0.1921
  880MPD2    C312905   0.466   4.086   0.925 -0.4060  0.0105 -0.2863
  880MPD2    C412906   0.358   4.028   0.865  0.0734 -0.2124 -0.0888
  880MPD2    C512907   0.289   4.096   0.769  0.4231  0.5995 -0.8010
  880MPD2     H12908   0.576   4.272   0.935 -0.4038  2.0954 -2.6981
  880MPD2    H112909   0.331   3.924   0.880 -1.3567  0.4899  2.2398
  880MPD2    H212910   0.267   4.274   0.657  0.3735  2.7197  0.4479
  880MPD2    H312911   0.209   4.051   0.711  0.7330  0.2366 -0.9444
  880MPD2     N12912   0.554   4.019   1.009  0.2263 -0.4939 -0.2529
  880MPD2    H512913   0.637   4.075   1.029 -0.2987  1.0888 -2.5860
  880MPD2    N112914   0.461   4.431   0.772 -0.1254  0.2388 -0.2283
  880MPD2    H712915   0.414   4.482   0.698 -0.3121  0.4899  0.0590
  881MPD2     C12916   0.225   0.466   0.203 -0.4083 -0.1346 -0.0977
  881MPD2    C112917   0.272   0.339   0.171  0.1588 -0.1522 -0.0769
  881MPD2    C212918   0.332   0.265   0.276 -0.1660  0.1090  0.3219
  881MPD2    C312919   0.313   0.306   0.407 -0.0657  0.4568  0.0590
  881MPD2    C412920   0.258   0.433   0.432 -0.7089 -0.3874 -0.6214
  881MPD2    C512921   0.214   0.506   0.328 -0.2518 -0.0503 -0.7063
  881MPD2     H12922   0.383   0.170   0.268  0.1770  0.1418  2.1488
  881MPD2    H112923   0.260   0.469   0.534  2.6030  1.2402 -1.2747
  881MPD2    H212924   0.181   0.523   0.122  1.4978  0.0452 -1.0062
  881MPD2    H312925   0.159   0.599   0.342 -0.8584 -0.4570 -0.3619
  881MPD2     N12926   0.378   0.237   0.511  0.3446  0.0259  0.1632
  881MPD2    H512927   0.351   0.270   0.603 -0.0425  1.8998 -0.6193
  881MPD2    N112928   0.304   0.322   0.033  0.5188  0.4921  0.3626
  881MPD2    H712929   0.267   0.387  17.652 -1.1718  0.8063  1.5878
  882MPD2     C12930   3.251   1.851  14.518 -0.1617  0.2938  0.7670
  882MPD2    C112931   3.158   1.954  14.519 -0.6961  0.4329 -0.2745
  882MPD2    C212932   3.025   1.935  14.488  0.8502  0.1457 -0.2316
  882MPD2    C312933   2.976   1.809  14.474 -0.6449  0.0383  0.5231
  882MPD2    C412934   3.071   1.709  14.469  0.8372 -0.0139  0.6077
  882MPD2    C512935   3.204   1.729  14.480 -0.2646 -0.4012 -0.4355
  882MPD2     H12936   2.965   2.022  14.466 -0.2951 -0.9837 -1.5353
  882MPD2    H112937   3.043   1.605  14.457 -0.0063  0.4819 -1.6055
  882MPD2    H212938   3.355   1.859  14.547 -0.2149  1.2170  0.7076
  882MPD2    H312939   3.280   1.652  14.467  0.5473 -0.0607  2.1704
  882MPD2     N12940   2.842   1.780  14.490  0.7014 -0.2645  0.0078
  882MPD2    H512941   2.818   1.681  14.488  1.3366 -0.4334  0.9680
  882MPD2    N112942   3.207   2.084  14.534  0.1383 -0.2943 -0.7970
  882MPD2    H712943   3.309   2.082  14.532  0.0969 -2.2019 -1.3061
  883MPD2     C12944   1.278   2.451  16.392 -0.4141  0.4409 -0.6509
  883MPD2    C112945   1.256   2.339  16.475  0.3157  0.0515  0.1793
  883MPD2    C212946   1.321   2.338  16.600 -0.2194 -0.2355  0.4633
  883MPD2    C312947   1.403   2.439  16.639  0.3262 -0.5387  0.2090
  883MPD2    C412948   1.437   2.541  16.547 -0.1665 -0.0409  0.1734
  883MPD2    C512949   1.362   2.550  16.435 -0.7359 -0.4452  0.6389
  883MPD2     H12950   1.299   2.271  16.682 -0.1157  1.9524  2.2896
  883MPD2    H112951   1.495   2.627  16.576 -0.4502  0.4951 -0.8309
  883MPD2    H212952   1.233   2.469  16.295  1.6427 -0.8003 -1.8263
  883MPD2    H312953   1.377   2.640  16.376 -1.6902 -1.3303 -0.9470
  883MPD2     N12954   1.463   2.437  16.764 -0.3954 -0.3593  0.2693
  883MPD2    H512955   1.446   2.364  16.832 -1.5064  0.2245  0.6117
  883MPD2    N112956   1.174   2.230  16.451  0.2381  0.1255 -0.5350
  883MPD2    H712957   1.169   2.167  16.530 -0.8897  0.8672 -0.0228
  884MPD2     C12958   2.336   2.565  15.291  0.4034 -0.0187  0.3929
  884MPD2    C112959   2.324   2.688  15.233  0.7045  0.5904 -0.0609
  884MPD2    C212960   2.199   2.750  15.252  0.2875  0.5437  0.2952
  884MPD2    C312961   2.102   2.695  15.339 -0.5665 -0.0696 -0.6249
  884MPD2    C412962   2.124   2.575  15.390 -0.2792 -0.1230  0.0093
  884MPD2    C512963   2.242   2.511  15.363 -0.1274 -0.0133 -0.4693
  884MPD2     H12964   2.177   2.843  15.201 -1.2761  0.5752  1.0107
  884MPD2    H112965   2.054   2.526  15.455 -0.2959  1.4927  1.2110
  884MPD2    H212966   2.438   2.529  15.300  1.2279  2.2660  0.2356
  884MPD2    H312967   2.250   2.415  15.412  1.3475 -1.1705 -3.0269
  884MPD2     N12968   1.987   2.769  15.379  0.3421  0.3005 -0.2253
  884MPD2    H512969   1.968   2.851  15.323 -1.4606  0.4778  0.6439
  884MPD2    N112970   2.420   2.761  15.162 -0.5207 -0.2830 -0.4338
  884MPD2    H712971   2.398   2.856  15.135  1.4037 -0.4511 -2.6032
  885MPD2     C12972   0.905   3.101   0.539 -0.5474  0.1565 -0.4667
  885MPD2    C112973   0.928   2.982   0.465  0.8198 -0.0420 -0.5566
  885MPD2    C212974   0.943   2.990   0.327  0.4755  0.3965 -0.0261
  885MPD2    C312975   0.931   3.109   0.256 -0.2494  0.2075 -0.1542
  885MPD2    C412976   0.915   3.225   0.326 -0.3633  0.2070  0.8809
  885MPD2    C512977   0.904   3.220   0.462  0.1881  0.2467 -1.2047
  885MPD2     H12978   0.953   2.896   0.275 -0.4497  0.6226 -0.6090
  885MPD2    H112979   0.911   3.322   0.278  0.0294 -0.5816 -0.7207
  885MPD2    H212980   0.897   3.110   0.647 -2.1535 -0.1476 -0.5612
  885MPD2    H312981   0.902   3.314   0.518  2.5079 -0.5390  0.2009
  885MPD2     N12982   0.948   3.096   0.114 -1.0934 -0.9422 -0.4545
  885MPD2    H512983   0.958   3.002   0.078 -2.0822 -1.7243  1.3608
  885MPD2    N112984   0.946   2.860   0.531  0.4399  0.3625 -0.0889
  885MPD2    H712985   0.953   2.876   0.631  3.1256 -2.2346  0.1389
  886MPD2     C12986   2.066   1.002  15.407 -0.1380  0.1065 -0.0735
  886MPD2    C112987   2.108   1.067  15.524 -1.2511  0.1145  0.3075
  886MPD2    C212988   2.078   1.201  15.544 -0.7795  0.1392  0.3124
  886MPD2    C312989   2.012   1.271  15.449  0.4022 -1.0995 -0.3917
  886MPD2    C412990   1.984   1.216  15.327 -0.2197  0.7419  0.5042
  886MPD2    C512991   2.005   1.077  15.312 -0.4756 -0.4042  0.2433
  886MPD2     H12992   2.107   1.244  15.639  1.6248  0.3022 -0.4979
  886MPD2    H112993   1.926   1.267  15.250 -1.5017 -1.6352 -0.0802
  886MPD2    H212994   2.064   0.896  15.386 -0.8450 -0.2513  1.8642
  886MPD2    H312995   1.953   1.023  15.233  1.2982 -1.2662 -0.3281
  886MPD2     N12996   1.954   1.401  15.478  0.1039  0.5338  0.3789
  886MPD2    H512997   1.909   1.454  15.404  2.2914  1.4103 -0.3525
  886MPD2    N112998   2.181   1.006  15.622  0.1029  0.4716  0.1224
  886MPD2    H712999   2.217   1.072  15.690 -0.4882 -1.5924  2.4161
  887MPD2     C13000   2.738   1.249  15.993 -0.0740 -0.8300 -0.9479
  887MPD2    C113001   2.604   1.260  15.968  0.1124 -0.0466 -0.4882
  887MPD2    C213002   2.546   1.392  15.961 -0.6113 -0.5289 -0.6300
  887MPD2    C313003   2.623   1.509  15.972  0.0547 -0.2731  0.7414
  887MPD2    C413004   2.757   1.487  16.003 -0.6849 -0.8128  0.2389
  887MPD2    C513005   2.803   1.361  16.020  0.3529  0.4152  0.3210
  887MPD2     H13006   2.444   1.395  15.924 -1.4593  1.5246  1.8794
  887MPD2    H113007   2.824   1.571  16.014  1.3037 -2.4334  0.5697
  887MPD2    H213008   2.789   1.154  16.008 -2.7878 -2.3991 -1.5291
  887MPD2    H313009   2.907   1.366  16.050  0.6314  1.5694 -0.8285
  887MPD2     N13010   2.566   1.634  15.941  0.7243  0.3596 -0.0528
  887MPD2    H513011   2.466   1.647  15.951  0.1561 -3.1943 -1.0078
  887MPD2    N113012   2.516   1.145  15.949  0.2557  0.4070 -0.2582
  887MPD2    H713013   2.418   1.166  15.931  0.8425 -0.0499 -3.9591
  888MPD2     C13014   0.100   1.345  15.219 -0.5221 -0.0387  0.7479
  888MPD2    C113015   0.001   1.420  15.278  0.0787  0.0085  0.2239
  888MPD2    C213016   4.707   1.556  15.248  0.3045  0.1660 -0.0267
  888MPD2    C313017   0.078   1.620  15.160  0.2148  0.1107  0.1035
  888MPD2    C413018   0.174   1.532  15.102  0.4402 -0.7626 -0.7464
  888MPD2    C513019   0.178   1.403  15.127 -0.1947  0.4922 -0.1081
  888MPD2     H13020   4.628   1.611  15.297  1.4951  1.7887  0.0575
  888MPD2    H113021   0.236   1.563  15.019  1.1710  0.1408  0.1421
  888MPD2    H213022   0.129   1.244  15.248  0.6167  0.2232  0.5048
  888MPD2    H313023   0.245   1.330  15.083  0.0709  0.5675  0.1703
  888MPD2     N13024   0.075   1.760  15.134 -0.5453  0.8662 -0.5637
  888MPD2    H513025   0.006   1.820  15.178  1.6696  0.5760  3.3339
  888MPD2    N113026   4.627   1.358  15.360  0.1543  0.4907 -0.3426
  888MPD2    H713027   4.557   1.416  15.406 -2.0292 -1.6534 -0.9881
  889MPD2     C13028   3.727   1.379  12.959 -0.5397 -0.2777  0.1216
  889MPD2    C113029   3.728   1.268  13.042 -0.1520  0.2498 -0.5479
  889MPD2    C213030   3.648   1.261  13.154  0.0297  0.0588  0.6835
  889MPD2    C313031   3.566   1.366  13.184  0.2162  0.0145 -0.2587
  889MPD2    C413032   3.580   1.487  13.112  0.0382  0.0888  0.5400
  889MPD2    C513033   3.657   1.489  12.998 -0.9183  0.0369  0.5120
  889MPD2     H13034   3.645   1.179  13.225 -1.2133 -0.9198 -0.5044
  889MPD2    H113035   3.522   1.578  13.124 -0.3040  0.0278 -0.6086
  889MPD2    H213036   3.798   1.394  12.878 -0.0992 -0.7649  0.4161
  889MPD2    H313037   3.668   1.576  12.935 -0.1711 -1.0186 -0.8112
  889MPD2     N13038   3.497   1.366  13.309 -0.1530  1.0844 -0.7433
  889MPD2    H513039   3.518   1.286  13.368 -1.6048  1.6198  0.5264
  889MPD2    N113040   3.796   1.147  13.001  0.2000  0.5232  0.2688
  889MPD2    H713041   3.767   1.064  13.052  2.0572 -0.0160  0.4510
  890MPD2     C13042   3.501   2.990  14.731  0.8001  0.1547 -0.4295
  890MPD2    C113043   3.402   3.057  14.813  0.4446  0.1076  0.4496
  890MPD2    C213044   3.339   2.992  14.920 -0.1439 -0.3224  0.0547
  890MPD2    C313045   3.387   2.869  14.960 -0.5642  0.0512  0.1689
  890MPD2    C413046   3.495   2.811  14.891  0.1290 -0.9448 -0.0863
  890MPD2    C513047   3.537   2.863  14.777  0.1079  0.7517  0.1870
  890MPD2     H13048   3.274   3.043  14.990 -0.2378  0.9962 -0.9848
  890MPD2    H113049   3.543   2.718  14.918  1.4684 -0.3452 -0.4137
  890MPD2    H213050   3.553   3.031  14.645 -0.0919  0.8523 -0.6460
  890MPD2    H313051   3.611   2.814  14.714  0.2370  0.3317  0.6630
  890MPD2     N13052   3.329   2.805  15.077  0.1410 -0.7066 -0.2907
  890MPD2    H513053   3.240   2.838  15.111 -0.8417 -2.7218 -0.8952
  890MPD2    N113054   3.368   3.191  14.775 -0.7223 -0.5359 -0.0731
  890MPD2    H713055   3.416   3.235  14.697 -0.9595  1.1397  0.7352
  891MPD2     C13056   1.695   0.401  16.897  0.3174 -0.2080 -0.9898
  891MPD2    C113057   1.695   0.536  16.921 -0.2235  0.2267 -0.0838
  891MPD2    C213058   1.790   0.579  17.016 -0.6296 -0.4058  0.2905
  891MPD2    C313059   1.874   0.498  17.094  0.6611  0.0735 -0.2706
  891MPD2    C413060   1.850   0.361  17.082  0.7232  0.9066  0.2631
  891MPD2    C513061   1.781   0.319  16.970  0.3254  0.3086 -0.2636
  891MPD2     H13062   1.801   0.687  17.023 -0.7386 -0.4680  1.3943
  891MPD2    H113063   1.921   0.295  17.132 -1.8982 -0.9512  1.5367
  891MPD2    H213064   1.624   0.366  16.823 -0.7694  1.7663 -0.9019
  891MPD2    H313065   1.770   0.215  16.942  0.7224  0.2427 -0.1685
  891MPD2     N13066   1.948   0.551  17.200 -0.1825  0.0876  0.3130
  891MPD2    H513067   1.926   0.647  17.221 -0.9399 -0.2139  0.8941
  891MPD2    N113068   1.594   0.623  16.857  0.3769 -0.4163  0.1496
  891MPD2    H713069   1.523   0.581  16.797 -0.2305  0.1959  0.4371
  892MPD2     C13070   2.282   2.202  15.164  0.2041  0.3703 -0.7105
  892MPD2    C113071   2.191   2.130  15.087 -0.3013 -0.1545  0.3066
  892MPD2    C213072   2.234   2.050  14.982  0.8675  0.4513 -0.4481
  892MPD2    C313073   2.366   2.031  14.959  0.2210  0.3296  0.4873
  892MPD2    C413074   2.459   2.086  15.040  1.1587 -0.8239 -0.2808
  892MPD2    C513075   2.415   2.175  15.136 -0.0610  0.3537  0.8825
  892MPD2     H13076   2.156   1.989  14.939  1.3523  1.1599 -2.3293
  892MPD2    H113077   2.564   2.060  15.039  0.6631 -2.8234  0.4384
  892MPD2    H213078   2.240   2.275  15.232 -2.4082 -1.2756 -0.5260
  892MPD2    H313079   2.491   2.235  15.186 -0.7895 -0.8921  3.4929
  892MPD2     N13080   2.427   1.948  14.857 -0.1156 -0.5355  0.4979
  892MPD2    H513081   2.526   1.928  14.858 -0.4815 -2.3308  1.0761
  892MPD2    N113082   2.050   2.142  15.108  0.0465  0.5399 -0.4140
  892MPD2    H713083   1.977   2.100  15.051 -0.2753 -0.9622  1.1067
  893MPD2     C13084   3.773   0.120   1.164 -0.3564 -0.4446 -0.0538
  893MPD2    C113085   3.805   0.163   1.291  0.0084  0.3625 -0.0763
  893MPD2    C213086   3.718   0.149   1.399  0.3636 -0.2251 -0.3500
  893MPD2    C313087   3.597   0.088   1.377  0.7010  0.2321 -0.2874
  893MPD2    C413088   3.567   0.038   1.258  0.4676  0.0663  0.2275
  893MPD2    C513089   3.654   0.048   1.155 -0.0775 -0.0382 -0.2320
  893MPD2     H13090   3.729   0.190   1.498  1.0500  0.9381 -0.9134
  893MPD2    H113091   3.469   4.716   1.241  0.6443 -0.0806 -0.4140
  893MPD2    H213092   3.836   0.143   1.078 -0.8618 -2.5980 -0.9991
  893MPD2    H313093   3.619   0.007   1.061 -1.7426  1.9019 -0.4431
  893MPD2     N13094   3.496   0.103   1.472 -0.1287  0.1434  0.2522
  893MPD2    H513095   3.405   0.061   1.456 -0.1470  0.3579 -0.2091
  893MPD2    N113096   3.924   0.237   1.303  0.9368 -0.0284  0.4225
  893MPD2    H713097   3.968   0.273   1.219 -0.0007 -1.9304 -0.8806
  894MPD2     C13098   2.224   3.175   1.399  0.0893 -0.0150  0.0102
  894MPD2    C113099   2.302   3.275   1.449 -0.1012 -0.9722 -0.0767
  894MPD2    C213100   2.271   3.404   1.418 -0.3284  0.0694 -0.5737
  894MPD2    C313101   2.170   3.435   1.330 -0.9114 -0.7724 -0.3339
  894MPD2    C413102   2.080   3.338   1.303  0.3384 -0.0406  0.3577
  894MPD2    C513103   2.112   3.211   1.331 -0.1411  0.3917  0.5409
  894MPD2     H13104   2.327   3.484   1.466  1.8234 -2.2665  0.8317
  894MPD2    H113105   1.990   3.351   1.244  1.0375  0.4394 -0.6022
  894MPD2    H213106   2.223   3.073   1.436  2.8464  0.2520  0.8285
  894MPD2    H313107   2.034   3.136   1.324  1.6261 -1.7178  3.4194
  894MPD2     N13108   2.140   3.574   1.309  0.2209  0.2043  0.1088
  894MPD2    H513109   2.203   3.646   1.344 -1.8239  1.5975  0.9195
  894MPD2    N113110   2.424   3.258   1.526 -0.7949 -0.3076 -0.2527
  894MPD2    H713111   2.474   3.345   1.537  2.1295 -2.1526  0.9636
  895MPD2     C13112   1.251   1.577  14.035 -0.8180  0.2491 -0.0252
  895MPD2    C113113   1.298   1.563  13.905  0.0877 -0.7447  0.2364
  895MPD2    C213114   1.422   1.513  13.889 -0.1319 -0.1116  0.1562
  895MPD2    C313115   1.501   1.469  13.992 -0.1371  0.1212  0.8943
  895MPD2    C413116   1.450   1.472  14.117  0.7710 -0.9559 -0.3364
  895MPD2    C513117   1.328   1.535  14.140 -0.1128  0.8689  0.7476
  895MPD2     H13118   1.457   1.491  13.788 -1.5985 -0.4805 -0.2694
  895MPD2    H113119   1.502   1.428  14.202 -1.0018  0.8839  1.6979
  895MPD2    H213120   1.157   1.627  14.057 -1.5086 -0.3254 -1.6862
  895MPD2    H313121   1.303   1.552  14.244 -1.0224 -1.4021  0.8915
  895MPD2     N13122   1.631   1.426  13.964  0.3851 -0.0647  0.5496
  895MPD2    H513123   1.649   1.432  13.865 -2.7339 -2.7235 -0.1850
  895MPD2    N113124   1.233   1.601  13.786  0.1524 -0.1475  0.2898
  895MPD2    H713125   1.264   1.561  13.698 -1.3517 -0.3903 -0.1395
  896MPD2     C13126   3.417   3.881   1.659  0.0237 -0.5072  0.0751
  896MPD2    C113127   3.361   3.920   1.540 -0.3110 -0.7905 -0.0953
  896MPD2    C213128   3.263   3.845   1.480  0.3384  0.8681 -0.4361
  896MPD2    C313129   3.216   3.733   1.540  0.1850  0.2227  0.0209
  896MPD2    C413130   3.261   3.695   1.664 -0.0574 -0.2331  0.4421
  896MPD2    C513131   3.370   3.768   1.717 -0.3781  0.2896 -0.4821
  896MPD2     H13132   3.224   3.877   1.384 -1.9551 -1.2924 -0.2196
  896MPD2    H113133   3.221   3.613   1.721  1.3516 -0.5341  0.9965
  896MPD2    H213134   3.490   3.942   1.710 -0.7796  1.7397 -1.4691
  896MPD2    H313135   3.408   3.742   1.815  2.5571  1.7595 -1.2352
  896MPD2     N13136   3.110   3.661   1.473  0.6267 -0.8523  0.0123
  896MPD2    H513137   3.084   3.697   1.381  0.8125 -1.2171 -0.1840
  896MPD2    N113138   3.413   4.046   1.492  0.3312  0.7024  0.1962
  896MPD2    H713139   3.484   4.086   1.552  0.0357  3.7903 -1.5072
  897MPD2     C13140   0.587   1.173  10.512  0.1394 -0.2458 -0.5196
  897MPD2    C113141   0.501   1.271  10.540  0.3329 -0.2566  0.2908
  897MPD2    C213142   0.427   1.268  10.658  0.2255  0.2238  0.1474
  897MPD2    C313143   0.448   1.174  10.750 -0.5303 -0.5022 -0.3735
  897MPD2    C413144   0.550   1.082  10.723  0.5992 -0.3053  0.3897
  897MPD2    C513145   0.622   1.083  10.610  0.2337  0.3911 -0.0924
  897MPD2     H13146   0.354   1.342  10.689  0.3320  0.8644 -1.1071
  897MPD2    H113147   0.571   0.995  10.784 -1.6302 -0.8195  0.4498
  897MPD2    H213148   0.641   1.168  10.418  3.2855 -1.7214  1.3480
  897MPD2    H313149   0.682   0.996  10.588  1.6703  1.3013  0.2327
  897MPD2     N13150   0.369   1.168  10.866  0.3896 -0.1030  0.7416
  897MPD2    H513151   0.308   1.248  10.879 -1.8020 -1.9212  1.4955
  897MPD2    N113152   0.514   1.380  10.445  0.0791 -0.6430 -0.8242
  897MPD2    H713153   0.570   1.360  10.363 -0.6418 -2.3206 -0.9139
  898MPD2     C13154   2.842   2.147  17.685  0.5394 -0.2630  0.4095
  898MPD2    C113155   2.861   2.127   0.136  0.0778 -0.5960 -0.0531
  898MPD2    C213156   2.785   2.202   0.222 -0.3647 -0.3487  1.0574
  898MPD2    C313157   2.677   2.268   0.177  0.5068 -0.3953  0.0873
  898MPD2    C413158   2.641   2.253   0.044 -0.7233  0.3670 -0.0966
  898MPD2    C513159   2.732   2.209  17.645  0.1843  0.2171  0.1537
  898MPD2     H13160   2.801   2.197   0.329  0.6514 -0.2111  0.9153
  898MPD2    H113161   2.542   2.280   0.008 -0.8717  1.8641  1.3999
  898MPD2    H213162   2.912   2.095  17.621  0.4971  0.5247 -0.2862
  898MPD2    H313163   2.699   2.208  17.542 -1.4969 -3.9020  0.7179
  898MPD2     N13164   2.592   2.310   0.276  0.2388  0.1451 -0.6112
  898MPD2    H513165   2.626   2.298   0.370 -0.4287  0.0735 -0.3785
  898MPD2    N113166   2.972   2.052   0.189 -0.2873  0.9096  0.2888
  898MPD2    H713167   2.998   2.061   0.286  1.6287  0.0015 -0.1387
  899MPD2     C13168   3.163   2.931   0.190  0.1455  0.1708 -0.5704
  899MPD2    C113169   3.047   2.953   0.113 -0.2170  0.5147 -0.9149
  899MPD2    C213170   2.941   3.019   0.169  0.3490 -0.2099  0.2707
  899MPD2    C313171   2.938   3.058   0.302 -1.2323  0.1085 -0.0285
  899MPD2    C413172   3.051   3.030   0.381 -0.9474 -0.1834 -0.0729
  899MPD2    C513173   3.153   2.974   0.324  0.4423 -0.0729 -0.0564
  899MPD2     H13174   2.861   3.030   0.096 -0.0306  0.0722  0.7295
  899MPD2    H113175   3.061   3.064   0.484  2.7926 -2.8676  0.4585
  899MPD2    H213176   3.243   2.868   0.153 -0.2672 -0.1085 -0.9737
  899MPD2    H313177   3.236   2.948   0.390  1.5939  0.8268 -1.1673
  899MPD2     N13178   2.827   3.121   0.359 -0.5191  0.8126 -0.0087
  899MPD2    H513179   2.818   3.130   0.459 -2.0190  0.2469 -0.0977
  899MPD2    N113180   3.056   2.910  17.661 -0.0107 -0.6150 -0.4524
  899MPD2    H713181   3.147   2.884  17.624 -1.2336  1.1956 -4.7970
  900MPD2     C13182   2.916   3.857  13.039  0.4059  0.1246 -0.0635
  900MPD2    C113183   2.871   3.779  12.938  0.4117  0.7670  0.4916
  900MPD2    C213184   2.772   3.829  12.853 -0.8297  0.3590 -0.7149
  900MPD2    C313185   2.702   3.945  12.881  0.5830 -0.3830  0.2883
  900MPD2    C413186   2.725   4.002  12.998 -0.3678 -0.2644 -0.2961
  900MPD2    C513187   2.834   3.963  13.074  0.8441 -0.1155 -0.0278
  900MPD2     H13188   2.738   3.766  12.772  1.9208 -1.5372 -0.3956
  900MPD2    H113189   2.663   4.086  13.027  0.0970  0.0201 -0.1260
  900MPD2    H213190   2.998   3.825  13.103 -1.5102 -1.1454  1.7801
  900MPD2    H313191   2.852   4.005  13.173 -0.4168 -0.7563  0.4695
  900MPD2     N13192   2.595   3.975  12.796  0.4111  0.0377  0.2848
  900MPD2    H513193   2.579   3.923  12.711 -1.5145 -0.0547  0.7085
  900MPD2    N113194   2.918   3.646  12.928 -0.2962  0.0317  0.3601
  900MPD2    H713195   3.003   3.618  12.976 -0.7353 -2.0137 -0.0486
  901MPD2     C13196   2.735   2.776  12.329 -0.4212  0.1158  0.1825
  901MPD2    C113197   2.843   2.735  12.404 -0.4363 -0.3347 -0.2387
  901MPD2    C213198   2.897   2.826  12.499  0.2733  0.0607 -0.6024
  901MPD2    C313199   2.834   2.947  12.524 -0.1808 -0.0825  0.5160
  901MPD2    C413200   2.727   2.984  12.442  0.2116  0.6591 -0.0339
  901MPD2    C513201   2.684   2.903  12.339 -0.2600  0.3405  0.4685
  901MPD2     H13202   2.969   2.789  12.571  0.3013  1.4669  0.1074
  901MPD2    H113203   2.685   3.084  12.452  1.7326  1.5868 -2.8191
  901MPD2    H213204   2.702   2.710  12.249  1.7661 -2.0216  1.0665
  901MPD2    H313205   2.615   2.933  12.262 -0.9814 -1.2521  0.4967
  901MPD2     N13206   2.863   3.020  12.647  0.1709 -0.2747  0.0397
  901MPD2    H513207   2.934   2.980  12.708  0.8239  1.1928  0.2326
  901MPD2    N113208   2.887   2.602  12.381 -0.6347 -0.0029  0.7963
  901MPD2    H713209   2.829   2.554  12.312  0.1545 -1.8288  1.3948
  902MPD2     C13210   1.502   2.011  13.157 -0.1951  0.7112 -0.2849
  902MPD2    C113211   1.560   2.091  13.056 -0.1893 -0.7324 -0.0623
  902MPD2    C213212   1.589   2.033  12.935 -0.3889 -0.7927  0.0665
  902MPD2    C313213   1.585   1.897  12.917 -0.0921 -0.4150  0.6555
  902MPD2    C413214   1.537   1.822  13.017 -0.2040 -0.5420 -0.1772
  902MPD2    C513215   1.491   1.873  13.139  0.4735 -0.4752  0.4657
  902MPD2     H13216   1.629   2.098  12.857 -1.6121 -1.0254 -0.7636
  902MPD2    H113217   1.537   1.714  13.017  0.0321 -0.5449  4.2123
  902MPD2    H213218   1.473   2.052  13.253  0.0506  2.0450 -0.7832
  902MPD2    H313219   1.454   1.812  13.220 -2.0787 -1.1654 -1.2001
  902MPD2     N13220   1.614   1.841  12.793  0.2448  0.8637 -0.6119
  902MPD2    H513221   1.582   1.746  12.773 -0.6448  1.0362 -0.0164
  902MPD2    N113222   1.591   2.232  13.089  0.4289 -0.0982 -0.4543
  902MPD2    H713223   1.559   2.256  13.183  1.8260 -1.4179  0.3732
  903MPD2     C13224   1.619   2.183  12.118  0.2704 -0.4864  0.6247
  903MPD2    C113225   1.620   2.046  12.132  0.9328 -0.7790  0.4475
  903MPD2    C213226   1.522   1.967  12.074 -0.4897  0.0371  0.1875
  903MPD2    C313227   1.420   2.030  11.997  0.0317 -0.5106  0.1321
  903MPD2    C413228   1.423   2.163  11.979  0.5195 -0.2952 -0.6433
  903MPD2    C513229   1.516   2.235  12.052 -0.0884 -0.2451  0.4875
  903MPD2     H13230   1.512   1.860  12.084  1.7354 -0.0386  1.6887
  903MPD2    H113231   1.338   2.215  11.937 -1.3265 -0.1386  3.3890
  903MPD2    H213232   1.704   2.239  12.155 -0.4475 -1.9233  4.5545
  903MPD2    H313233   1.520   2.343  12.039 -1.5074 -0.3724 -0.9660
  903MPD2     N13234   1.321   1.945  11.938 -0.6282 -0.1769  0.1864
  903MPD2    H513235   1.322   1.846  11.962 -1.7835 -0.3791 -0.6385
  903MPD2    N113236   1.725   1.985  12.205 -0.3989 -0.1006  0.0502
  903MPD2    H713237   1.772   2.044  12.272  1.2936 -1.8713  0.4259
  904MPD2     C13238   1.380   1.040  13.864  0.3005 -0.8078  0.8401
  904MPD2    C113239   1.358   0.909  13.906 -0.2440 -0.5331  0.1718
  904MPD2    C213240   1.430   0.859  14.010 -0.4991 -0.6919 -0.0748
  904MPD2    C313241   1.514   0.940  14.086 -0.2369  0.1290 -1.0169
  904MPD2    C413242   1.522   1.074  14.056 -0.6959  0.1087 -0.7795
  904MPD2    C513243   1.457   1.121  13.945  0.0199  0.0380  0.0030
  904MPD2     H13244   1.415   0.755  14.035  2.1422 -1.4043 -1.4423
  904MPD2    H113245   1.587   1.140  14.111 -0.2597 -0.8902 -0.1044
  904MPD2    H213246   1.339   1.088  13.775 -0.2151  0.0389  1.5351
  904MPD2    H313247   1.470   1.223  13.912 -1.5547 -0.0489 -0.8698
  904MPD2     N13248   1.609   0.881  14.164  0.0399 -0.0911  0.8575
  904MPD2    H513249   1.630   0.784  14.143 -0.6082 -0.0763  0.1130
  904MPD2    N113250   1.271   0.819  13.839  0.2786 -0.1650  0.0019
  904MPD2    H713251   1.277   0.719  13.848 -0.2286 -0.3725 -1.9764
  905MPD2     C13252   1.487   1.141  13.306 -0.9830 -0.7253  0.0409
  905MPD2    C113253   1.449   1.208  13.424  0.5512 -0.2430 -0.9667
  905MPD2    C213254   1.545   1.273  13.495  0.0384  0.9449 -0.1169
  905MPD2    C313255   1.678   1.263  13.460  0.7205 -0.7098  0.3648
  905MPD2    C413256   1.715   1.194  13.350  0.2473 -0.2726 -0.2257
  905MPD2    C513257   1.621   1.130  13.270 -0.0133  0.1476  0.6338
  905MPD2     H13258   1.513   1.332  13.579  1.5850 -0.6079  1.5620
  905MPD2    H113259   1.817   1.203  13.314  0.1266  0.9866 -0.2281
  905MPD2    H213260   1.420   1.081  13.245 -1.0550 -0.5119 -0.0858
  905MPD2    H313261   1.650   1.070  13.185  1.6584 -0.5051  1.6523
  905MPD2     N13262   1.783   1.321  13.537  0.2835 -0.4526  0.7617
  905MPD2    H513263   1.875   1.300  13.501  0.0299 -0.2131 -0.0115
  905MPD2    N113264   1.311   1.206  13.458  0.1312 -0.2100 -0.3077
  905MPD2    H713265   1.254   1.149  13.396 -0.1955  0.1782 -0.3593
  906MPD2     C13266   3.788   1.254  11.579 -0.3481 -0.1639  0.7226
  906MPD2    C113267   3.752   1.153  11.488  0.3448  0.6938 -0.7085
  906MPD2    C213268   3.700   1.035  11.537 -0.2162 -0.2564 -0.6375
  906MPD2    C313269   3.692   1.012  11.678  0.0173  0.3748  0.1336
  906MPD2    C413270   3.733   1.111  11.759  0.2856  0.5523 -0.4387
  906MPD2    C513271   3.786   1.226  11.711  0.3004 -0.6894  0.1561
  906MPD2     H13272   3.676   0.958  11.464 -2.2860 -2.5268  2.4486
  906MPD2    H113273   3.709   1.105  11.865 -0.1687  1.2010 -0.5099
  906MPD2    H213274   3.816   1.355  11.553  0.0844 -1.2193 -2.8226
  906MPD2    H313275   3.814   1.301  11.784 -0.7899  0.8198 -0.9850
  906MPD2     N13276   3.630   0.897  11.736  0.0921 -0.1188 -0.4945
  906MPD2    H513277   3.609   0.905  11.835  1.2731 -1.3384 -0.1383
  906MPD2    N113278   3.767   1.175  11.349  0.2307  0.5382 -0.0650
  906MPD2    H713279   3.765   1.095  11.286 -2.3668 -0.1807  0.9156
  907MPD2     C13280   2.242   0.024  15.651 -0.5392  0.8536 -0.3867
  907MPD2    C113281   2.195   4.620  15.693  0.2932  0.0493 -0.4548
  907MPD2    C213282   2.251   4.569  15.811 -0.0447  0.0360 -0.0006
  907MPD2    C313283   2.347   4.638  15.888  0.0182  0.4936 -0.4972
  907MPD2    C413284   2.388   0.040  15.848  0.1983 -0.3922 -0.7178
  907MPD2    C513285   2.332   0.098  15.733 -0.3163  0.4856  0.4507
  907MPD2     H13286   2.222   4.471  15.848  0.4017 -0.0147  0.2124
  907MPD2    H113287   2.470   0.093  15.895  0.6588 -1.0311 -0.8081
  907MPD2    H213288   2.219   0.071  15.556 -1.8190 -0.1467 -0.5545
  907MPD2    H313289   2.371   0.193  15.697 -2.8712  0.9430 -1.0792
  907MPD2     N13290   2.411   4.582  16.007  0.5089  0.2393  0.3041
  907MPD2    H513291   2.381   4.486  16.023  1.0656  0.1503  0.7781
  907MPD2    N113292   2.109   4.545  15.616 -0.3761  0.0225  0.3698
  907MPD2    H713293   2.106   4.444  15.627 -1.6149  0.0467  0.2582
  908MPD2     C13294   0.075   1.212   9.688  0.3945 -0.2837  0.5565
  908MPD2    C113295   0.162   1.145   9.778  0.6031  0.2419  0.0743
  908MPD2    C213296   0.241   1.223   9.859  0.6077 -0.9834 -0.1385
  908MPD2    C313297   0.241   1.355   9.865  0.0345  0.1410  0.4998
  908MPD2    C413298   0.166   1.414   9.767 -0.8080 -0.6015  0.5731
  908MPD2    C513299   0.082   1.347   9.681 -0.7179 -0.2493  0.1182
  908MPD2     H13300   0.311   1.170   9.923 -0.3996 -1.4643  0.5719
  908MPD2    H113301   0.152   1.522   9.774 -2.1024 -0.7056 -0.3147
  908MPD2    H213302   0.012   1.158   9.618  1.1815 -0.0525 -0.3333
  908MPD2    H313303   0.019   1.395   9.608  0.7341  1.1347 -0.2081
  908MPD2     N13304   0.309   1.417   9.971 -0.2172  0.0115 -0.0970
  908MPD2    H513305   0.352   1.353  10.038  0.1394  2.7076  2.2422
  908MPD2    N113306   0.144   1.007   9.794 -0.7590 -0.5518  0.2131
  908MPD2    H713307   0.199   0.963   9.868  1.7735 -0.1310 -1.4213
  909MPD2     C13308   0.594   3.709  11.926  0.2208 -0.2141  0.4833
  909MPD2    C113309   0.631   3.830  11.879  0.0194 -0.1454 -0.1593
  909MPD2    C213310   0.597   3.936  11.957 -0.0215  0.4027  0.0650
  909MPD2    C313311   0.538   3.924  12.084  0.1526 -0.4625 -0.0840
  909MPD2    C413312   0.519   3.794  12.136 -0.1580  0.2179  0.6622
  909MPD2    C513313   0.557   3.691  12.058  0.3647 -0.3344  0.0028
  909MPD2     H13314   0.627   4.033  11.919  1.4302  0.2222  0.7571
  909MPD2    H113315   0.471   3.774  12.231  1.8601  2.8041  2.2499
  909MPD2    H213316   0.612   3.618  11.869 -0.5459 -1.7629  2.6964
  909MPD2    H313317   0.533   3.589  12.084 -1.6421  0.2562  0.4713
  909MPD2     N13318   0.512   4.036  12.157 -0.1319  0.3521 -0.4646
  909MPD2    H513319   0.542   4.115  12.100  1.7896 -1.0045 -1.3501
  909MPD2    N113320   0.702   3.849  11.759  0.5571 -0.7903  0.1047
  909MPD2    H713321   0.715   3.948  11.740 -0.3235 -1.2666 -3.0466
  910MPD2     C13322   1.750   0.686  16.169  0.4070  0.0944 -0.6340
  910MPD2    C113323   1.745   0.557  16.121  0.0685 -0.0377 -0.6708
  910MPD2    C213324   1.661   0.527  16.016 -0.3487 -0.4462  0.7151
  910MPD2    C313325   1.571   0.623  15.966  0.4722 -0.4217 -0.0474
  910MPD2    C413326   1.574   0.752  16.012  0.0410 -0.1238  0.8508
  910MPD2    C513327   1.660   0.779  16.117 -0.6935 -0.4031  0.0535
  910MPD2     H13328   1.657   0.427  15.975 -0.5380 -0.4957  0.8540
  910MPD2    H113329   1.513   0.834  15.978  0.5741 -0.0772  0.0079
  910MPD2    H213330   1.814   0.720  16.250 -0.5959 -0.2614  0.3066
  910MPD2    H313331   1.653   0.879  16.158 -4.3559 -0.4269 -0.4939
  910MPD2     N13332   1.489   0.594  15.855  0.6589  0.4904  0.4057
  910MPD2    H513333   1.426   0.663  15.817  2.0736  1.2433 -0.5588
  910MPD2    N113334   1.825   0.453  16.174  0.6449  0.3994  0.4040
  910MPD2    H713335   1.800   0.359  16.143 -0.7792  1.2679 -1.0400
  911MPD2     C13336   0.330   1.635  16.527  0.1016  0.4961 -0.9351
  911MPD2    C113337   0.241   1.534  16.539 -0.0793 -0.0543  0.2810
  911MPD2    C213338   0.115   1.561  16.491  0.0123  0.3079 -0.7517
  911MPD2    C313339   0.083   1.670  16.410 -0.1215  0.5136 -0.1069
  911MPD2    C413340   0.190   1.746  16.373  0.3652 -0.4952 -0.2138
  911MPD2    C513341   0.308   1.737  16.440 -0.2452  0.1262 -0.0046
  911MPD2     H13342   0.033   1.493  16.510  1.8472 -0.7481  3.4185
  911MPD2    H113343   0.185   1.826  16.300  1.0915 -0.1779  0.0816
  911MPD2    H213344   0.430   1.619  16.566 -0.1662 -2.0724 -1.3131
  911MPD2    H313345   0.379   1.818  16.428  0.0295 -0.0054  0.7664
  911MPD2     N13346   4.681   1.687  16.344 -0.3274  0.7566 -0.1018
  911MPD2    H513347   4.679   1.765  16.278 -0.2619  2.8062  2.3391
  911MPD2    N113348   0.285   1.414  16.591  0.9201  0.6288  0.0514
  911MPD2    H713349   0.378   1.403  16.629  0.8634  0.7138  0.2146
  912MPD2     C13350   3.942   1.236  16.018 -0.3253 -0.4522  0.0713
  912MPD2    C113351   3.998   1.284  16.133  0.7446 -0.1486 -0.5690
  912MPD2    C213352   3.952   1.223  16.254 -0.0810 -0.2347 -0.6826
  912MPD2    C313353   3.882   1.103  16.256 -0.5804 -0.0388 -0.7135
  912MPD2    C413354   3.825   1.057  16.142 -0.2004  0.4001 -0.0183
  912MPD2    C513355   3.868   1.116  16.026 -0.3443  0.4803  0.4006
  912MPD2     H13356   3.982   1.265  16.349 -1.5483 -0.6535 -0.0474
  912MPD2    H113357   3.755   0.975  16.140  0.2209  0.0415 -0.1072
  912MPD2    H213358   3.965   1.281  15.922 -0.9531  0.4137  0.3195
  912MPD2    H313359   3.834   1.073  15.932  2.2863 -0.3573 -0.1581
  912MPD2     N13360   3.865   1.047  16.383 -0.2006 -0.2087  0.8688
  912MPD2    H513361   3.896   1.099  16.464  2.9671  1.2813 -1.2644
  912MPD2    N113362   4.100   1.387  16.124 -0.5222 -0.3936  0.4159
  912MPD2    H713363   4.098   1.446  16.041 -1.7184 -1.2233 -0.1376
  913MPD2     C13364   4.584   2.413  11.146 -0.0665  0.1291 -0.2325
  913MPD2    C113365   4.615   2.549  11.135 -0.6771  0.4184  0.1473
  913MPD2    C213366   4.619   2.610  11.009  0.9518 -0.3167  0.5533
  913MPD2    C313367   4.591   2.533  10.899 -0.7832  0.8127 -0.7522
  913MPD2    C413368   4.568   2.395  10.910 -0.3619  0.1194 -0.1063
  913MPD2    C513369   4.564   2.335  11.032  0.1646  0.1448 -1.1587
  913MPD2     H13370   4.611   2.718  11.007  1.5925 -0.2950 -1.0802
  913MPD2    H113371   4.533   2.335  10.827 -1.6345  1.2757 -0.4055
  913MPD2    H213372   4.574   2.360  11.240  1.6150  1.4947  0.7149
  913MPD2    H313373   4.542   2.229  11.036 -2.3872  0.6296 -2.7590
  913MPD2     N13374   4.567   2.587  10.769  0.9264  0.2053  0.4349
  913MPD2    H513375   4.550   2.517  10.697 -1.1364 -1.4078  2.4917
  913MPD2    N113376   4.644   2.613  11.255 -0.4465  0.7592  0.0628
  913MPD2    H713377   4.642   2.556  11.339  0.0727 -2.2935 -2.0027
  914MPD2     C13378   2.328   2.202  11.938  0.2768  0.4510 -0.2543
  914MPD2    C113379   2.374   2.327  11.978  0.1200 -0.1281  0.3256
  914MPD2    C213380   2.492   2.339  12.058  0.4043  0.8535 -0.0010
  914MPD2    C313381   2.564   2.226  12.097 -1.1198 -0.4712 -0.8520
  914MPD2    C413382   2.506   2.103  12.071  0.0738  0.2359 -0.6298
  914MPD2    C513383   2.396   2.096  11.995  0.7441 -0.3610 -0.2795
  914MPD2     H13384   2.526   2.437  12.090  0.0328  0.4945  1.4795
  914MPD2    H113385   2.544   2.008  12.104 -0.0462  0.4518  0.1438
  914MPD2    H213386   2.235   2.192  11.884 -0.4027 -0.1016  1.0040
  914MPD2    H313387   2.365   1.993  11.976  0.0850 -0.1312 -0.4287
  914MPD2     N13388   2.679   2.241  12.180  0.1747 -0.0016  0.0309
  914MPD2    H513389   2.704   2.336  12.206  1.1152  0.0797 -1.1859
  914MPD2    N113390   2.303   2.435  11.936 -0.2969 -0.2719 -0.2434
  914MPD2    H713391   2.239   2.417  11.859 -2.3183 -0.3233  1.4486
  915MPD2     C13392   0.854   2.382  15.756 -0.0209  0.7948  0.1362
  915MPD2    C113393   0.749   2.474  15.750  0.7393  0.0948 -0.8389
  915MPD2    C213394   0.694   2.539  15.864 -0.0682  0.5478 -0.6263
  915MPD2    C313395   0.754   2.511  15.985 -0.6402 -0.5189 -0.1570
  915MPD2    C413396   0.856   2.418  15.992  0.2367  0.2422 -0.4517
  915MPD2    C513397   0.903   2.350  15.885  0.4989  0.7057  0.3537
  915MPD2     H13398   0.606   2.599  15.850 -0.3771  0.7817  2.3771
  915MPD2    H113399   0.907   2.389  16.083  0.4588 -1.1451 -1.0033
  915MPD2    H213400   0.891   2.341  15.663 -0.3493 -0.5087  0.5884
  915MPD2    H313401   0.993   2.291  15.902 -0.5279 -0.5052  1.5451
  915MPD2     N13402   0.701   2.578  16.100 -1.0184 -0.3248  0.0308
  915MPD2    H513403   0.631   2.651  16.088 -0.7545 -0.4470 -2.2786
  915MPD2    N113404   0.703   2.491  15.619 -0.2018 -0.2470 -0.4197
  915MPD2    H713405   0.760   2.444  15.549  0.1797  0.4633 -0.5836
  916MPD2     C13406   3.387   1.294  15.704  0.2045  0.9616 -0.4165
  916MPD2    C113407   3.402   1.174  15.770 -0.4339  0.0868 -0.3216
  916MPD2    C213408   3.384   1.054  15.694  0.1352 -0.4104 -0.3914
  916MPD2    C313409   3.349   1.060  15.563 -0.0604 -0.4421  0.1826
  916MPD2    C413410   3.345   1.183  15.501  0.0308  0.5661  0.3766
  916MPD2    C513411   3.351   1.302  15.573 -0.1950 -0.3136  0.7509
  916MPD2     H13412   3.413   0.958  15.734  0.6511 -0.6659 -1.3542
  916MPD2    H113413   3.314   1.192  15.397 -1.6109 -0.7844  0.7377
  916MPD2    H213414   3.396   1.389  15.755 -0.7137 -0.4432  2.3439
  916MPD2    H313415   3.340   1.400  15.529 -0.9310 -0.6486  0.1799
  916MPD2     N13416   3.323   0.952  15.482 -0.4189  0.3559 -0.1886
  916MPD2    H513417   3.329   0.865  15.534 -0.8408  0.5529  0.1992
  916MPD2    N113418   3.446   1.181  15.908 -0.0188 -0.2687 -0.2221
  916MPD2    H713419   3.448   1.276  15.944  0.6352  0.3472 -1.8838
  917MPD2     C13420   3.810   3.471  10.929 -0.5001  0.3135 -0.2930
  917MPD2    C113421   3.814   3.539  11.047  0.1318  0.2314 -0.1770
  917MPD2    C213422   3.865   3.664  11.054 -0.3803  0.5168 -0.5737
  917MPD2    C313423   3.900   3.733  10.937  0.2628  0.0268 -0.2856
  917MPD2    C413424   3.890   3.669  10.814  0.0509 -1.0947  0.0143
  917MPD2    C513425   3.830   3.545  10.810  0.2270  0.1521  0.7233
  917MPD2     H13426   3.884   3.718  11.146 -1.8900 -1.6341  0.9917
  917MPD2    H113427   3.920   3.714  10.720 -1.5975 -0.1622 -0.0684
  917MPD2    H213428   3.775   3.368  10.923  0.5018  0.0467 -1.7343
  917MPD2    H313429   3.815   3.506  10.710 -0.5896 -0.2118  0.9875
  917MPD2     N13430   3.936   3.869  10.941 -0.5612  0.0370 -0.3428
  917MPD2    H513431   3.968   3.904  10.851  0.8667  2.3553  1.0593
  917MPD2    N113432   3.768   3.472  11.160  0.7119 -0.4244 -0.4171
  917MPD2    H713433   3.726   3.385  11.130  0.1691 -0.3206  0.0363
  918MPD2     C13434   3.803   3.635  12.175 -0.1307  0.2770  0.0757
  918MPD2    C113435   3.906   3.622  12.081  0.1910 -0.6148 -0.5324
  918MPD2    C213436   3.881   3.579  11.950 -0.0194 -0.0545 -0.6877
  918MPD2    C313437   3.747   3.545  11.912 -0.5378  0.1826  0.3000
  918MPD2    C413438   3.649   3.560  12.004 -0.0570 -0.9005 -0.5529
  918MPD2    C513439   3.676   3.608  12.129  0.1462  0.3158 -0.5193
  918MPD2     H13440   3.966   3.562  11.885  1.0235  0.7596  0.4563
  918MPD2    H113441   3.543   3.551  11.982  0.3764  0.4008 -3.1502
  918MPD2    H213442   3.814   3.672  12.276 -2.8468  0.5139  0.3063
  918MPD2    H313443   3.588   3.618  12.193  0.1196  1.4635 -0.7255
  918MPD2     N13444   3.731   3.492  11.783 -0.1212 -0.5190  0.2824
  918MPD2    H513445   3.814   3.488  11.724 -0.5778  0.0247 -0.4069
  918MPD2    N113446   4.047   3.630  12.123  0.0611 -0.1602 -0.2586
  918MPD2    H713447   4.117   3.613  12.053 -0.7474  0.1768 -1.1441
  919MPD2     C13448   4.423   2.886  11.705 -0.7743 -0.8150 -0.0661
  919MPD2    C113449   4.381   2.758  11.674 -0.0445 -0.2172 -1.0492
  919MPD2    C213450   4.353   2.735  11.536 -0.4244 -0.9749  0.4173
  919MPD2    C313451   4.367   2.833  11.440  0.4999 -0.1522 -0.8352
  919MPD2    C413452   4.403   2.958  11.483  0.0850 -0.6242  0.0589
  919MPD2    C513453   4.417   2.986  11.614 -0.2176 -0.5038  0.8095
  919MPD2     H13454   4.307   2.640  11.511  0.0709 -1.2972  0.7521
  919MPD2    H113455   4.389   3.039  11.412 -1.4010 -0.2304  0.8046
  919MPD2    H213456   4.450   2.919  11.805  0.3535 -0.5042 -0.4691
  919MPD2    H313457   4.459   3.082  11.641  0.7978 -0.6008 -0.4008
  919MPD2     N13458   4.335   2.824  11.302 -0.5940 -0.3439  0.2595
  919MPD2    H513459   4.366   2.904  11.247  0.0652 -0.4478  0.4793
  919MPD2    N113460   4.366   2.648  11.758  0.8670 -0.3498 -0.6302
  919MPD2    H713461   4.329   2.567  11.710 -0.3365 -0.1748 -0.0044
  920MPD2     C13462   4.367   3.162  10.359 -0.0569  0.0546  0.4437
  920MPD2    C113463   4.268   3.068  10.353 -0.4604 -0.1386 -0.2585
  920MPD2    C213464   4.229   3.008  10.467  0.1391  0.4815 -0.3073
  920MPD2    C313465   4.288   3.018  10.587 -0.0490  0.8140  0.4797
  920MPD2    C413466   4.392   3.108  10.597  0.7360 -1.1152  0.2164
  920MPD2    C513467   4.425   3.185  10.485  0.4165 -0.3362 -0.4829
  920MPD2     H13468   4.154   2.929  10.463  0.5459  0.1278 -0.8886
  920MPD2    H113469   4.433   3.145  10.690 -2.9786  1.1623  0.9517
  920MPD2    H213470   4.397   3.216  10.270  1.0053 -0.2584  0.6047
  920MPD2    H313471   4.492   3.270  10.496  2.1659 -1.3815 -3.1265
  920MPD2     N13472   4.227   2.944  10.687  0.0937 -0.4251 -0.2888
  920MPD2    H513473   4.158   2.876  10.659 -0.4538  0.2867 -0.6438
  920MPD2    N113474   4.212   3.029  10.233  0.6007  0.6488  0.1587
  920MPD2    H713475   4.136   2.963  10.247 -0.8521  2.0873 -1.0037
  921MPD2     C13476   1.017   1.270  16.934  0.5346 -0.1439  0.1743
  921MPD2    C113477   0.990   1.149  16.877  0.5253 -0.6983  0.0430
  921MPD2    C213478   0.858   1.115  16.850 -0.3661 -0.3430  0.6880
  921MPD2    C313479   0.756   1.201  16.880  0.3669 -0.3762  0.3778
  921MPD2    C413480   0.791   1.329  16.931  0.6657 -0.5964  0.6881
  921MPD2    C513481   0.924   1.362  16.961 -0.1213  0.1026  0.5280
  921MPD2     H13482   0.831   1.022  16.802 -1.5769  0.9084 -1.0817
  921MPD2    H113483   0.714   1.403  16.946  0.2278 -0.4928 -1.9718
  921MPD2    H213484   1.118   1.306  16.950 -0.0935  0.8365  1.8929
  921MPD2    H313485   0.946   1.464  16.988 -0.7345  0.1052  1.0201
  921MPD2     N13486   0.619   1.175  16.865 -0.2068 -0.4359  0.1238
  921MPD2    H513487   0.567   1.258  16.890  1.3147  0.7011 -0.4732
  921MPD2    N113488   1.087   1.054  16.839  0.1833 -0.2989  0.4502
  921MPD2    H713489   1.060   0.976  16.781 -1.8480  0.3976  0.4726
  922MPD2     C13490   1.261   4.279   1.075  0.7893 -0.3929  0.5681
  922MPD2    C113491   1.236   4.344   0.954 -1.0163  0.0158 -0.3198
  922MPD2    C213492   1.173   4.273   0.852 -0.7738  0.4612 -0.1813
  922MPD2    C313493   1.136   4.144   0.873  0.1549  0.0547 -0.9283
  922MPD2    C413494   1.162   4.078   0.985 -0.2148  0.3403  0.0067
  922MPD2    C513495   1.236   4.145   1.084 -0.3378  0.5381 -0.0962
  922MPD2     H13496   1.156   4.323   0.758 -0.3200 -1.7326 -1.4438
  922MPD2    H113497   1.158   3.970   0.991  3.1344  0.3381  2.7666
  922MPD2    H213498   1.316   4.337   1.148 -1.1955  1.7346  0.3813
  922MPD2    H313499   1.272   4.093   1.172 -2.0172 -0.1720  0.1682
  922MPD2     N13500   1.091   4.076   0.755  0.0552 -0.2854  0.1337
  922MPD2    H513501   1.092   4.132   0.671  0.1508 -2.0166 -1.0227
  922MPD2    N113502   1.275   4.472   0.921  0.8135  0.0817  0.0893
  922MPD2    H713503   1.262   4.510   0.827  1.0899 -0.5866 -0.2138
  923MPD2     C13504   2.693   1.200   9.191  0.1036 -0.2457  0.2451
  923MPD2    C113505   2.736   1.328   9.204  0.0442  0.3719 -0.3728
  923MPD2    C213506   2.848   1.345   9.283  0.1928 -0.3262  0.3796
  923MPD2    C313507   2.917   1.241   9.344  0.2168  0.0218 -0.3717
  923MPD2    C413508   2.880   1.112   9.305  0.1189  0.4803  0.6043
  923MPD2    C513509   2.763   1.091   9.240  0.0738 -0.0741  1.2310
  923MPD2     H13510   2.888   1.445   9.284  4.2644 -1.8943 -2.1026
  923MPD2    H113511   2.934   1.030   9.350 -0.6250 -0.9451 -1.0988
  923MPD2    H213512   2.608   1.171   9.130  0.7327  1.4611 -1.4259
  923MPD2    H313513   2.730   0.988   9.230  0.4050  0.1956 -2.4114
  923MPD2     N13514   3.026   1.265   9.431  0.2168 -0.2898 -0.5872
  923MPD2    H513515   3.069   1.182   9.470 -1.1443  0.2600  2.0984
  923MPD2    N113516   2.667   1.433   9.139 -0.2034 -0.3065  0.3291
  923MPD2    H713517   2.591   1.415   9.074 -1.1588  1.1036  1.0674
  924MPD2     C13518   2.264   3.885  16.108 -0.4652 -0.7040 -0.6203
  924MPD2    C113519   2.322   3.912  16.231 -0.2954 -0.4964  0.2874
  924MPD2    C213520   2.431   3.995  16.233 -0.3993 -0.2543 -0.1944
  924MPD2    C313521   2.485   4.046  16.119  0.1215  0.2721  0.3435
  924MPD2    C413522   2.432   4.010  16.000 -0.9674 -0.0770  0.1186
  924MPD2    C513523   2.317   3.935  15.988 -0.2135 -0.5884 -0.2612
  924MPD2     H13524   2.474   4.039  16.323 -0.9298 -1.9201  0.8782
  924MPD2    H113525   2.474   4.061  15.914  1.3541 -0.4771  1.0156
  924MPD2    H213526   2.175   3.824  16.108 -1.5770  0.9227 -0.8413
  924MPD2    H313527   2.275   3.912  15.892 -0.5451 -0.2098 -0.2080
  924MPD2     N13528   2.569   4.159  16.120  0.0003  0.1557  0.1869
  924MPD2    H513529   2.589   4.202  16.030  0.2593  0.9298  0.6173
  924MPD2    N113530   2.270   3.863  16.351  0.5933  0.0940 -0.2515
  924MPD2    H713531   2.188   3.805  16.351  0.9083 -0.3477  0.1321
  925MPD2     C13532   1.308   1.686  14.823  0.2987  0.2408 -0.1407
  925MPD2    C113533   1.184   1.679  14.755  0.0088  0.5153 -0.1537
  925MPD2    C213534   1.075   1.655  14.831 -0.4050  0.3963 -0.0488
  925MPD2    C313535   1.079   1.624  14.967  0.3826 -0.0882 -0.5789
  925MPD2    C413536   1.199   1.616  15.033 -0.3494  0.7178  0.3222
  925MPD2    C513537   1.315   1.652  14.959  0.3718 -1.1751  0.3494
  925MPD2     H13538   0.976   1.661  14.787  0.4530 -0.2471 -2.0784
  925MPD2    H113539   1.205   1.571  15.131  2.0757 -0.0070 -0.1573
  925MPD2    H213540   1.402   1.708  14.774  0.6189  1.0937  0.8513
  925MPD2    H313541   1.413   1.644  15.005  0.7228 -1.2120 -0.3948
  925MPD2     N13542   0.963   1.599  15.030  0.3384 -0.0659  0.0564
  925MPD2    H513543   0.886   1.555  14.980 -0.4842  1.1740  0.2526
  925MPD2    N113544   1.162   1.720  14.620  0.4226 -0.1294  0.5071
  925MPD2    H713545   1.063   1.729  14.597  0.5922 -0.6402 -0.3933
  926MPD2     C13546   0.648   1.033  12.663  0.3032  0.5240  0.2160
  926MPD2    C113547   0.524   1.012  12.715  0.2491  0.2143 -0.1834
  926MPD2    C213548   0.414   1.038  12.640 -0.0915  0.0503 -0.2837
  926MPD2    C313549   0.421   1.096  12.513 -0.3770  0.1001 -0.7623
  926MPD2    C413550   0.547   1.109  12.456  0.7960 -0.4572 -0.8645
  926MPD2    C513551   0.659   1.074  12.534 -0.0454  0.8182  0.6801
  926MPD2     H13552   0.323   1.021  12.696  0.1175  1.3811  0.4466
  926MPD2    H113553   0.564   1.145  12.354  0.2324  2.1575 -0.0359
  926MPD2    H213554   0.744   1.014  12.710  0.8720  1.1711 -0.6656
  926MPD2    H313555   0.763   1.085  12.505 -0.9407  0.5040 -2.5887
  926MPD2     N13556   0.311   1.121  12.429  0.4841 -0.1440  0.2678
  926MPD2    H513557   0.335   1.144  12.333  0.1511 -1.0933 -0.0414
  926MPD2    N113558   0.501   0.956  12.844 -0.2108  0.9776 -0.1180
  926MPD2    H713559   0.405   0.945  12.872 -0.5333  1.1702 -1.1303
  927MPD2     C13560   0.668   2.928   0.045  0.8738  0.4170  0.0257
  927MPD2    C113561   0.603   3.051   0.033  0.3405 -0.2253 -0.3481
  927MPD2    C213562   0.599   3.110  17.592 -0.1471 -0.2901 -0.4765
  927MPD2    C313563   0.649   3.040  17.482  0.6304  0.2354 -0.1327
  927MPD2    C413564   0.720   2.922  17.497  0.7764 -0.2443  0.1643
  927MPD2    C513565   0.727   2.866  17.624 -0.3045  1.4040 -0.1037
  927MPD2     H13566   0.540   3.199  17.576 -1.0472 -0.1868  3.2470
  927MPD2    H113567   0.775   2.866  17.423  0.0924  0.3079 -0.7557
  927MPD2    H213568   0.683   2.892   0.146  0.9359  0.8320  0.1666
  927MPD2    H313569   0.785   2.776  17.637 -0.7895  1.1088  0.0265
  927MPD2     N13570   0.633   3.102  17.360  0.4682  0.2131 -0.9878
  927MPD2    H513571   0.593   3.195  17.352 -1.9392 -0.7112  0.5184
  927MPD2    N113572   0.561   3.118   0.147  0.3972 -0.5973  0.4814
  927MPD2    H713573   0.563   3.060   0.230  2.3396 -1.0176  0.1437
  928MPD2     C13574   3.567   0.625   0.591 -0.3118  0.1334  0.4868
  928MPD2    C113575   3.580   0.738   0.673  0.0381  0.7161 -0.0507
  928MPD2    C213576   3.556   0.855   0.608  0.1940 -0.1136 -0.6562
  928MPD2    C313577   3.542   0.864   0.470  0.1101 -0.1520  0.0325
  928MPD2    C413578   3.529   0.751   0.396  0.4163  0.7238  0.3658
  928MPD2    C513579   3.554   0.638   0.455  0.2357 -0.4236 -0.0746
  928MPD2     H13580   3.566   0.947   0.665 -0.2696 -0.1571 -0.5043
  928MPD2    H113581   3.506   0.763   0.291  0.9533 -1.7505 -0.0354
  928MPD2    H213582   3.588   0.525   0.626  4.4359  0.4948 -1.3813
  928MPD2    H313583   3.560   0.550   0.393  1.9137 -0.4411  0.1175
  928MPD2     N13584   3.526   0.982   0.397 -0.0972 -0.2382  0.3445
  928MPD2    H513585   3.528   0.974   0.296 -0.6849  1.0024  0.2379
  928MPD2    N113586   3.607   0.724   0.813  0.0567  0.7440  0.2169
  928MPD2    H713587   3.614   0.638   0.866 -1.8828  0.6754  0.3366
  929MPD2     C13588   3.008   1.338  10.394 -0.3986  0.7348  0.0143
  929MPD2    C113589   2.877   1.314  10.418  0.2409 -0.3767  0.4119
  929MPD2    C213590   2.774   1.364  10.335  0.4809 -0.1695 -0.4707
  929MPD2    C313591   2.814   1.446  10.226  0.3537 -0.6948 -0.2135
  929MPD2    C413592   2.942   1.476  10.211 -0.5982  0.5353 -0.2800
  929MPD2    C513593   3.043   1.412  10.281 -0.3555 -0.2306  0.1274
  929MPD2     H13594   2.668   1.342  10.346  0.3055  2.1270  2.4744
  929MPD2    H113595   2.986   1.531  10.129 -1.1578 -0.1092 -0.9972
  929MPD2    H213596   3.090   1.301  10.454 -0.6897  1.7975  1.0776
  929MPD2    H313597   3.143   1.436  10.247 -0.3907 -0.7816 -0.3534
  929MPD2     N13598   2.726   1.483  10.122  0.3965  0.0937 -0.5009
  929MPD2    H513599   2.761   1.525  10.037  0.2237  0.9402 -0.1615
  929MPD2    N113600   2.854   1.227  10.526 -0.4271  0.1146  0.4561
  929MPD2    H713601   2.936   1.182  10.566  0.8903  1.7160 -0.4017
  930MPD2     C13602   0.030   3.211  14.547  0.1419 -0.6682 -0.6764
  930MPD2    C113603   4.700   3.327  14.499 -0.1626 -0.3485 -0.6758
  930MPD2    C213604   4.605   3.312  14.407  1.1757 -0.1431  0.2517
  930MPD2    C313605   4.555   3.186  14.371 -0.2789 -0.3030 -0.0410
  930MPD2    C413606   4.604   3.073  14.428 -0.2409  0.2587  0.6419
  930MPD2    C513607   4.706   3.087  14.516 -0.0435 -0.5048  0.2560
  930MPD2     H13608   4.568   3.395  14.349 -1.0330 -0.4154  1.2753
  930MPD2    H113609   4.583   2.975  14.386 -0.7687  1.0183 -0.8964
  930MPD2    H213610   0.118   3.220  14.609 -1.4101  0.1671  1.4004
  930MPD2    H313611   0.033   3.000  14.559 -0.6581 -2.4870 -3.0640
  930MPD2     N13612   4.459   3.162  14.271  0.5990 -0.4976 -0.1257
  930MPD2    H513613   4.423   3.068  14.259  0.3832 -0.3504 -0.6437
  930MPD2    N113614   0.045   3.449  14.530  0.3543 -0.0241  0.5388
  930MPD2    H713615   0.131   3.447  14.585 -0.4003  2.8621  1.7969
  931MPD2     C13616   0.634   2.855   0.639 -1.0469 -0.1318 -0.0610
  931MPD2    C113617   0.579   2.970   0.688  0.3410  0.1479  0.3936
  931MPD2    C213618   0.557   2.979   0.823  1.3256  0.2090  0.2090
  931MPD2    C313619   0.567   2.860   0.902 -0.0966 -0.2432 -0.4442
  931MPD2    C413620   0.618   2.748   0.848  0.2149 -0.3638  0.2348
  931MPD2    C513621   0.654   2.746   0.720  0.3459 -0.2579  0.1611
  931MPD2     H13622   0.500   3.060   0.868 -0.9882 -1.0948 -0.3778
  931MPD2    H113623   0.629   2.656   0.904 -0.6747  0.9908  2.6303
  931MPD2    H213624   0.655   2.842   0.533  1.2634  1.0990  0.2295
  931MPD2    H313625   0.698   2.658   0.676  0.3975  0.4377 -1.1695
  931MPD2     N13626   0.524   2.843   1.035  0.1661 -0.3979  0.2250
  931MPD2    H513627   0.547   2.755   1.079 -1.1589 -1.3051 -0.9056
  931MPD2    N113628   0.559   3.075   0.595 -0.0656  0.3595  0.0649
  931MPD2    H713629   0.573   3.059   0.495 -1.4244  1.1347 -0.2546
  932MPD2     C13630   1.057   2.380  11.383  0.6367 -0.3292 -0.4445
  932MPD2    C113631   1.187   2.336  11.381 -0.6079  0.4429  0.3516
  932MPD2    C213632   1.219   2.197  11.393 -0.0341 -0.3505  0.1830
  932MPD2    C313633   1.116   2.108  11.416  0.4510 -0.5865  0.1978
  932MPD2    C413634   0.989   2.160  11.417  0.4479  0.4328  0.4833
  932MPD2    C513635   0.955   2.300  11.401 -0.1780  0.7284 -0.2068
  932MPD2     H13636   1.325   2.174  11.394 -0.2710 -1.4480 -0.5880
  932MPD2    H113637   0.908   2.093  11.442 -0.5998  1.7186  0.5349
  932MPD2    H213638   1.030   2.485  11.372  2.5885  0.2462  0.2163
  932MPD2    H313639   0.851   2.327  11.414 -0.5113 -0.5898 -0.1476
  932MPD2     N13640   1.145   1.969  11.436 -0.4343 -0.4535  0.0609
  932MPD2    H513641   1.064   1.907  11.441  0.5014 -1.6395  0.2813
  932MPD2    N113642   1.288   2.422  11.348  0.7153  0.1993  0.1967
  932MPD2    H713643   1.375   2.381  11.316 -1.4423 -2.1472 -2.7673
  933MPD2     C13644   3.308   0.595   1.625  0.8248 -0.9039 -0.6076
  933MPD2    C113645   3.337   0.557   1.495  0.0615 -0.3657  0.1494
  933MPD2    C213646   3.283   0.433   1.462  0.3841 -0.3240 -0.1406
  933MPD2    C313647   3.180   0.373   1.536 -0.5734  0.3175 -0.1579
  933MPD2    C413648   3.151   0.414   1.662  0.0507  0.4483 -0.1822
  933MPD2    C513649   3.220   0.523   1.705  0.1865 -0.2065  0.5762
  933MPD2     H13650   3.315   0.393   1.367  2.6894 -0.5645  0.7542
  933MPD2    H113651   3.080   0.369   1.732  1.0901 -1.8987 -0.6319
  933MPD2    H213652   3.362   0.679   1.666 -0.1953 -1.2429  1.3831
  933MPD2    H313653   3.209   0.565   1.804 -1.8335  1.1114 -0.2301
  933MPD2     N13654   3.099   0.283   1.462 -0.5562  0.1090 -0.0692
  933MPD2    H513655   3.140   0.267   1.371 -0.1160  1.3428 -0.0937
  933MPD2    N113656   3.416   0.639   1.407 -0.0300 -0.4337 -0.1482
  933MPD2    H713657   3.451   0.723   1.451 -0.8018  0.4455 -1.2097
  934MPD2     C13658   3.496   3.892   2.202  0.5539 -0.8718  0.5857
  934MPD2    C113659   3.451   3.975   2.094  0.5655  0.3501  0.7017
  934MPD2    C213660   3.333   3.940   2.026  0.1494 -0.1606 -0.3214
  934MPD2    C313661   3.269   3.823   2.075 -0.4977 -0.2209 -0.1985
  934MPD2    C413662   3.317   3.749   2.175  0.4575  0.3369  0.3690
  934MPD2    C513663   3.434   3.778   2.234 -0.1799  0.1578 -0.6540
  934MPD2     H13664   3.297   4.000   1.943 -0.2720 -0.0494 -0.0559
  934MPD2    H113665   3.262   3.660   2.202  2.3236 -0.3360  2.0121
  934MPD2    H213666   3.589   3.919   2.250 -0.4964  0.3614  1.9035
  934MPD2    H313667   3.469   3.718   2.317  0.5331 -0.5340 -1.4602
  934MPD2     N13668   3.152   3.766   2.019 -1.2628 -0.2797  0.0538
  934MPD2    H513669   3.114   3.682   2.060  0.7522 -2.2048 -1.9884
  934MPD2    N113670   3.521   4.086   2.042  0.0182  0.2075 -0.0188
  934MPD2    H713671   3.480   4.131   1.961  0.3240 -0.2098 -0.4069
  935MPD2     C13672   3.042   2.925   1.831  0.3040 -0.0196 -0.1929
  935MPD2    C113673   2.990   2.992   1.724  0.3913  0.0689  0.2953
  935MPD2    C213674   2.942   3.119   1.742  0.9754 -0.4553  0.3713
  935MPD2    C313675   2.963   3.190   1.861 -0.2359 -0.4591  0.3443
  935MPD2    C413676   3.027   3.124   1.959  0.6582 -0.2144 -0.0090
  935MPD2    C513677   3.064   2.991   1.946  0.1430  0.0711  0.5864
  935MPD2     H13678   2.889   3.174   1.666 -1.6834 -3.1139  0.3051
  935MPD2    H113679   3.041   3.180   2.051 -0.4818 -1.3971  0.9010
  935MPD2    H213680   3.077   2.822   1.828  0.1032 -0.2368  5.0009
  935MPD2    H313681   3.112   2.939   2.028  1.9411  1.4946  0.4251
  935MPD2     N13682   2.925   3.325   1.884 -0.5679  0.4097  0.0454
  935MPD2    H513683   2.972   3.364   1.965  1.8844  1.4804 -1.8854
  935MPD2    N113684   2.968   2.928   1.598  0.2326 -0.2175  0.1221
  935MPD2    H713685   2.915   2.985   1.532 -0.1155  1.6613  2.0372
  936MPD2     C13686   1.446   1.089  11.926 -0.4759  0.2522  0.8633
  936MPD2    C113687   1.530   1.095  12.039 -0.8486 -0.2743 -0.2322
  936MPD2    C213688   1.631   1.187  12.035  0.1714  0.3265  0.6854
  936MPD2    C313689   1.667   1.271  11.923 -0.2578 -0.3493 -0.4695
  936MPD2    C413690   1.594   1.254  11.810  0.2762  0.0845 -0.2289
  936MPD2    C513691   1.480   1.171  11.817 -0.5394 -1.1078  0.2539
  936MPD2     H13692   1.688   1.194  12.127  0.2666 -1.8498  0.8019
  936MPD2    H113693   1.612   1.317  11.724  0.7766  0.2400 -0.0099
  936MPD2    H213694   1.358   1.025  11.917 -0.4237 -0.0035  2.2707
  936MPD2    H313695   1.406   1.180  11.739 -2.6798 -0.3863  2.3569
  936MPD2     N13696   1.770   1.356  11.940 -0.1875 -0.3801  0.0329
  936MPD2    H513697   1.806   1.362  12.034  0.2973 -2.7016 -0.0046
  936MPD2    N113698   1.518   1.028  12.160  0.1547  0.1869  0.2067
  936MPD2    H713699   1.589   1.060  12.225  1.3181  0.3064 -1.1485
  937MPD2     C13700   4.626   1.980  11.646 -0.0523 -0.3878 -0.0182
  937MPD2    C113701   4.593   2.114  11.630  0.0086 -0.8292  0.1519
  937MPD2    C213702   4.671   2.187  11.545 -0.0224 -0.0900  0.3315
  937MPD2    C313703   0.025   2.127  11.451  0.1234  0.0409 -0.6896
  937MPD2    C413704   0.041   1.988  11.446  0.2241  0.1290 -0.4394
  937MPD2    C513705   4.706   1.920  11.553  0.5386  0.1096  0.8658
  937MPD2     H13706   4.673   2.295  11.548 -0.8098 -0.1065  1.4711
  937MPD2    H113707   0.086   1.927  11.369  1.4374  0.8501 -0.3070
  937MPD2    H213708   4.576   1.924  11.725  0.5790 -0.3389  0.4205
  937MPD2    H313709   0.015   1.816  11.565 -0.2198 -0.6516 -3.8444
  937MPD2     N13710   0.073   2.204  11.351  0.2497  0.1178 -0.4026
  937MPD2    H513711   0.067   2.304  11.368 -0.5026 -0.1273  0.7543
  937MPD2    N113712   4.541   2.199  11.731  0.3790 -0.2648 -0.7380
  937MPD2    H713713   4.541   2.297  11.705  0.2473 -0.3423 -1.0238
  938MPD2     C13714   2.745   2.124   0.723 -0.4911  0.0339  0.3592
  938MPD2    C113715   2.695   2.228   0.799  0.5034 -0.0632  0.6897
  938MPD2    C213716   2.657   2.209   0.931  0.5005  0.1836  0.4557
  938MPD2    C313717   2.644   2.078   0.977 -0.0147 -0.7858 -0.0438
  938MPD2    C413718   2.695   1.971   0.906 -0.1268  0.1487  0.4711
  938MPD2    C513719   2.743   1.998   0.783  0.5660  0.4569 -0.0910
  938MPD2     H13720   2.619   2.290   0.993 -0.7053  0.1150 -0.1881
  938MPD2    H113721   2.716   1.877   0.955 -1.1713  0.0649  0.7704
  938MPD2    H213722   2.786   2.128   0.623 -0.3435 -0.7621  0.3844
  938MPD2    H313723   2.787   1.909   0.739  0.5396  0.3928  0.0139
  938MPD2     N13724   2.616   2.054   1.114  0.2676  0.5350 -0.2204
  938MPD2    H513725   2.610   1.960   1.153 -3.0313 -0.4659 -3.1312
  938MPD2    N113726   2.694   2.364   0.753  0.0986  0.6674 -0.7520
  938MPD2    H713727   2.670   2.434   0.823 -1.1687 -0.3810 -0.1547
  939MPD2     C13728   3.612   4.064   0.543  0.1033  0.0649 -0.1212
  939MPD2    C113729   3.539   3.952   0.572  0.0840 -0.3280  0.5322
  939MPD2    C213730   3.576   3.840   0.505 -0.1752 -0.2679  0.1723
  939MPD2    C313731   3.676   3.831   0.411  1.1260 -0.1485  1.1426
  939MPD2    C413732   3.746   3.949   0.378 -0.5967 -0.8075  0.1157
  939MPD2    C513733   3.710   4.062   0.444  0.2825  0.0479  0.4876
  939MPD2     H13734   3.534   3.743   0.527 -0.1458 -0.5914 -1.1805
  939MPD2    H113735   3.819   3.958   0.299 -0.5417 -1.2678  0.1142
  939MPD2    H213736   3.598   4.160   0.592 -1.6641  0.8397 -2.1590
  939MPD2    H313737   3.760   4.154   0.416 -0.6822  1.0675  2.1090
  939MPD2     N13738   3.723   3.706   0.354  0.2529  0.6010 -0.6909
  939MPD2    H513739   3.674   3.623   0.385  0.7338  1.2833  1.8723
  939MPD2    N113740   3.434   3.963   0.674 -0.2611 -0.8912 -0.3437
  939MPD2    H713741   3.418   4.056   0.712 -1.7368 -1.4720  0.4485
  940MPD2     C13742   2.125   0.558  13.251  0.0414 -0.3065 -0.3012
  940MPD2    C113743   2.257   0.520  13.267  1.0675  0.5433 -0.2140
  940MPD2    C213744   2.347   0.556  13.164 -0.8075  0.6474 -0.3280
  940MPD2    C313745   2.301   0.628  13.058  0.2721  0.4670 -0.5057
  940MPD2    C413746   2.171   0.669  13.047 -0.2905  0.1741 -0.6993
  940MPD2    C513747   2.082   0.631  13.144 -0.2334 -0.0575 -0.5265
  940MPD2     H13748   2.445   0.510  13.157 -1.2499 -0.2628 -0.6114
  940MPD2    H113749   2.136   0.734  12.968  3.0476  1.0748 -1.4353
  940MPD2    H213750   2.042   0.515  13.306 -0.2041  0.6189  0.0511
  940MPD2    H313751   1.976   0.648  13.133 -0.2470 -0.2144 -0.6469
  940MPD2     N13752   2.380   0.663  12.946 -0.5069 -0.6178 -0.1252
  940MPD2    H513753   2.326   0.703  12.870  2.0698 -0.3858 -1.8035
  940MPD2    N113754   2.300   0.419  13.360 -0.4935  0.1954 -0.5911
  940MPD2    H713755   2.400   0.407  13.369 -0.2160  1.3692 -2.2622
  941MPD2     C13756   1.891   0.190   9.996  0.3873  1.0235 -0.0705
  941MPD2    C113757   2.009   0.144  10.044  0.8098 -0.0249  0.8020
  941MPD2    C213758   2.007   0.010  10.076  0.0734  0.8313  0.8215
  941MPD2    C313759   1.894   4.652  10.072  1.1556  0.4081  0.2454
  941MPD2    C413760   1.778   4.708  10.019  0.8977  0.0010  0.7794
  941MPD2    C513761   1.770   0.120   9.994  0.1649 -0.1255  0.4203
  941MPD2     H13762   2.103   4.694  10.111 -0.5149 -0.1174  1.4256
  941MPD2    H113763   1.689   4.648  10.006 -0.2219  1.0284  3.7123
  941MPD2    H213764   1.885   0.289   9.953  0.2567  1.6496  1.3887
  941MPD2    H313765   1.676   0.166   9.965 -0.9978 -0.7360  3.2434
  941MPD2     N13766   1.881   4.516  10.114 -0.0346 -0.1162  0.3881
  941MPD2    H513767   1.790   4.475  10.094  0.3941 -0.7738 -0.2441
  941MPD2    N113768   2.120   0.226  10.064 -0.2912  0.0294 -0.0961
  941MPD2    H713769   2.209   0.179  10.079 -0.0379 -0.0903 -1.8629
  942MPD2     C13770   1.719   1.419   9.627 -1.0351  0.7694 -0.6665
  942MPD2    C113771   1.616   1.467   9.549 -0.6877  0.0571 -1.2893
  942MPD2    C213772   1.633   1.586   9.481 -0.6120 -0.0183  0.7483
  942MPD2    C313773   1.753   1.653   9.485 -0.3828  0.5391  0.1385
  942MPD2    C413774   1.854   1.607   9.564  0.5580  0.5502 -0.0793
  942MPD2    C513775   1.836   1.487   9.630 -0.5834  0.2668  0.1607
  942MPD2     H13776   1.551   1.620   9.420  0.9625  0.6843 -0.9466
  942MPD2    H113777   1.952   1.653   9.572  0.6131  0.1330  1.6221
  942MPD2    H213778   1.720   1.325   9.680 -2.5393  0.1450 -1.7281
  942MPD2    H313779   1.926   1.448   9.675 -0.1975  0.5953 -0.3366
  942MPD2     N13780   1.781   1.769   9.410  0.5432  0.1021  0.1910
  942MPD2    H513781   1.876   1.802   9.422  0.7727 -0.4342 -0.1619
  942MPD2    N113782   1.499   1.395   9.535  0.0074  0.2349  0.3464
  942MPD2    H713783   1.434   1.431   9.466  1.6356 -0.2582 -1.4419
  943MPD2     C13784   0.878   3.513   9.625 -0.2498 -0.1461 -0.6111
  943MPD2    C113785   0.766   3.570   9.693  0.2993 -0.1538 -0.0811
  943MPD2    C213786   0.788   3.686   9.763  0.5981 -1.2229 -0.4907
  943MPD2    C313787   0.917   3.741   9.781 -0.6881 -0.8750  0.0581
  943MPD2    C413788   1.018   3.679   9.721  0.9702  0.0748  0.0280
  943MPD2    C513789   1.001   3.570   9.636 -0.8007 -0.0109  0.8778
  943MPD2     H13790   0.714   3.742   9.819  1.7446 -0.1261 -0.0693
  943MPD2    H113791   1.117   3.716   9.746  1.4166 -1.4507  0.5265
  943MPD2    H213792   0.882   3.421   9.569 -3.0403 -1.2596  1.0030
  943MPD2    H313793   1.091   3.514   9.609 -0.7087  1.0145 -0.9607
  943MPD2     N13794   0.947   3.852   9.858  0.4070 -0.0048 -0.4920
  943MPD2    H513795   1.039   3.855   9.900 -0.4160  2.6312  1.1611
  943MPD2    N113796   0.641   3.513   9.660  0.2157  0.0130  0.5937
  943MPD2    H713797   0.641   3.438   9.592  0.3610 -0.2420  0.8757
  944MPD2     C13798   0.256   2.912  10.857  0.2876  0.3740 -0.2791
  944MPD2    C113799   0.354   3.009  10.848 -0.4949  0.6898 -0.6333
  944MPD2    C213800   0.337   3.126  10.918 -0.3040 -0.2636  0.1506
  944MPD2    C313801   0.229   3.143  11.005 -0.2480  0.0818  0.1547
  944MPD2    C413802   0.145   3.037  11.028 -0.5089 -0.1389  1.0558
  944MPD2    C513803   0.165   2.920  10.952 -0.0818 -0.0393 -0.1809
  944MPD2     H13804   0.405   3.208  10.898  1.1827 -1.4277  0.4329
  944MPD2    H113805   0.055   3.046  11.088  0.0373  0.0157  1.8529
  944MPD2    H213806   0.257   2.815  10.809 -2.1764  0.4044 -0.4090
  944MPD2    H313807   0.103   2.832  10.964 -1.0941  0.7529  0.3469
  944MPD2     N13808   0.216   3.267  11.068  0.1360 -0.0951 -0.5340
  944MPD2    H513809   0.286   3.340  11.058 -1.2616  1.4639  1.0211
  944MPD2    N113810   0.460   2.976  10.759  0.0104  0.2915  0.7614
  944MPD2    H713811   0.438   2.890  10.709 -2.1711  1.1538  0.2434
    1TCq1    O113812   2.925   4.302  14.709 -0.2976  0.4100  0.9900
    1TCq1    C113813   2.953   4.376  14.817  0.1423  0.7915 -0.1791
    1TCq1    O213814   2.880   4.390  14.915 -0.2084 -0.7489 -0.1728
    1TCq1    C213815   3.051   4.482  14.789 -0.3327 -0.5373 -0.3697
    1TCq1    C313816   3.026   4.603  14.843  0.1717  0.2094  0.0385
    1TCq1    C413817   3.112   4.708  14.805 -0.0371  0.6065 -0.4185
    1TCq1    C513818   3.211   4.688  14.717  0.8194 -1.0058 -0.0494
    1TCq1    C613819   3.232   4.564  14.665 -0.2878  0.0236  0.0340
    1TCq1    C713820   3.147   4.467  14.692 -0.6782  0.3536 -0.4528
    1TCq1    C813821   3.302   4.552  14.536  0.3156  0.9703 -0.6819
    1TCq1    O413822   3.283   4.445  14.480 -0.0130 -0.2658 -0.0666
    1TCq1    C913823   3.078   0.120  14.848 -0.2792 -0.0349 -0.0064
    1TCq1    O513824   2.961   0.136  14.885  0.7298 -0.6187  0.4306
    1TCq1    O613825   3.159   0.215  14.825 -0.2085  0.2315  0.1145
    1TCq1    H113826   2.986   4.312  14.633 -1.4107  0.7426  0.1431
    1TCq1    H213827   2.950   4.623  14.917  1.0343 -0.2178  1.0396
    1TCq1    H313828   3.248   0.062  14.678 -1.7852 -0.8768 -2.2027
    1TCq1    H413829   3.164   4.372  14.643 -1.7943 -1.3556  2.4868
    2MPD2     C13830   3.434   0.045  14.089 -0.1672  0.0356  0.7186
    2MPD2    C113831   3.471   0.135  14.187  0.6393 -0.1249  0.7254
    2MPD2    C213832   3.455   0.096  14.318  0.1303 -0.1974  0.3581
    2MPD2    C313833   3.403   4.691  14.354  0.3658  0.2397 -0.2903
    2MPD2    C413834   3.376   4.606  14.246  0.4200 -0.1503 -0.1117
    2MPD2    C513835   3.392   4.647  14.121  0.7960 -0.0868  0.0538
    2MPD2     H13836   3.487   0.157  14.402 -0.3832 -0.1760  0.5345
    2MPD2    H113837   3.329   4.510  14.265 -1.1324  0.8439  1.0497
    2MPD2    H213838   3.431   0.078  13.986  0.3268 -2.5454 -0.1074
    2MPD2    H313839   3.361   4.575  14.046  0.7545 -1.5941  1.5308
    2MPD2     N13840   3.364   4.668  14.492 -0.2599 -0.2341  0.6851
    2MPD2    H513841   3.389   0.012  14.565 -1.3017  0.2179  0.6427
    2MPD2    N113842   3.506   0.265  14.148  0.2956  0.1233 -0.1134
    2MPD2    H713843   3.496   0.288  14.049 -1.2235 -0.1873 -0.0266
    3TMC2    C113844   3.508   0.500  14.150  0.4113 -0.1691 -0.7083
    3TMC2    C213845   3.453   0.613  14.204 -0.0252  0.2783  0.1960
    3TMC2    C313846   3.433   0.725  14.125 -0.5556 -0.1904  0.0617
    3TMC2    C413847   3.567   0.504  14.028  0.8749  1.0225  0.3220
    3TMC2    C513848   3.542   0.614  13.947  0.9156  0.2206  0.6399
    3TMC2    C613849   3.479   0.722  13.996  0.2236  0.4121 -0.6894
    3TMC2     C13850   3.496   0.379  14.226 -0.1724 -0.3904 -0.4285
    3TMC2     O13851   3.495   0.394  14.348  0.1609 -0.4240  0.1609
    3TMC2     H13852   3.417   0.604  14.306  1.9701 -0.2505  0.8692
    3TMC2    H113853   3.620   0.416  13.993 -1.7744 -0.6886  0.6652
    3TMC2    H213854   3.472   0.806  13.927  0.5647 -0.1686 -1.4225
    3TMC2    C713855   3.572   0.595  13.806  0.2299 -0.3955 -0.2091
    3TMC2    C813856   3.422   0.859  14.181 -0.5966  0.0647 -0.3228
    3TMC2    O113857   3.662   0.516  13.784  0.1608 -0.0768  0.3640
    3TMC2    O213858   3.458   0.960  14.123  0.0533 -0.1927 -0.1116
    3TMC2    O513859   3.369   0.848  14.306  0.1934 -0.3321  0.3785
    3TMC2    H513860   3.329   0.758  14.311 -0.3232 -0.1679 -0.7263
    4MPD2     C13861   2.240   0.996  13.190 -0.2970 -0.2486  0.0187
    4MPD2    C113862   2.303   1.050  13.080 -0.2602 -0.1444 -0.0238
    4MPD2    C213863   2.434   1.031  13.050 -0.5348 -0.0643 -0.7551
    4MPD2    C313864   2.505   0.930  13.120 -0.2463  0.6741 -0.3397
    4MPD2    C413865   2.447   0.887  13.236 -0.3879  0.4954  0.3977
    4MPD2    C513866   2.316   0.911  13.269  0.0016  0.0733  0.5718
    4MPD2     H13867   2.471   1.087  12.965  0.1132  0.1305 -0.3496
    4MPD2    H113868   2.482   0.801  13.291 -0.9791  1.4649  2.2979
    4MPD2    H213869   2.136   1.019  13.212 -0.8394  0.1086 -2.9634
    4MPD2    H313870   2.264   0.862  13.350 -0.6824  1.0276  0.7116
    4MPD2     N13871   2.643   0.911  13.082 -1.0587  0.3099 -0.5953
    4MPD2    H513872   2.678   0.978  13.014 -0.4741 -0.9133 -1.4908
    4MPD2    N113873   2.215   1.128  13.001 -0.0717  0.0301 -0.0487
    4MPD2    H713874   2.123   1.132  13.043 -0.6046  0.5650 -1.2919
    5TCq2    C113875   2.735   0.825  13.145 -0.4384 -0.2172  0.2385
    5TCq2    O213876   2.717   0.746  13.239 -0.3807 -0.2257  0.2774
    5TCq2    C213877   2.870   0.864  13.113  0.2535 -0.1369  0.1923
    5TCq2    C313878   2.908   0.886  12.983 -0.0244  0.1736  0.3842
    5TCq2    C413879   3.040   0.879  12.964 -0.2773 -1.0506 -0.0949
    5TCq2    C513880   3.135   0.857  13.060  0.2450  0.5143 -0.3857
    5TCq2    C613881   3.091   0.849  13.190 -0.1055 -1.0171 -0.1446
    5TCq2    C713882   2.960   0.835  13.217  0.2198  0.7538 -0.1769
    5TCq2    C813883   3.177   0.824  13.312 -1.0308  0.2062  0.0357
    5TCq2    O413884   3.127   0.821  13.421 -0.4243 -0.1774  0.2014
    5TCq2    C913885   3.089   0.883  12.830 -0.2157 -0.4420  0.2977
    5TCq2    O513886   3.005   0.876  12.738  0.1680  0.3175 -0.7260
    5TCq2    O613887   3.217   0.891  12.816 -0.1060 -0.0974 -0.3626
    5TCq2    H213888   2.836   0.899  12.903  0.3494 -1.4709 -0.2129
    5TCq2    H313889   3.238   0.841  13.031  1.2136  2.1708  2.0415
    5TCq2    H413890   2.927   0.843  13.319  1.0545  0.2527  0.1346
    6MPD1     C13891   1.701   2.887  13.450  0.4676  0.0152 -0.4120
    6MPD1    C113892   1.804   2.894  13.357  0.2494 -0.1743  1.0399
    6MPD1    C213893   1.846   2.774  13.297  0.3200  0.0769  1.3565
    6MPD1    C313894   1.812   2.650  13.350 -0.4601 -0.2839 -0.2192
    6MPD1    C413895   1.719   2.649  13.447  0.3148 -0.1215 -0.3779
    6MPD1    C513896   1.661   2.766  13.498 -0.0182 -0.3516  0.1193
    6MPD1     H13897   1.928   2.775  13.226 -0.5497 -0.5186  0.3512
    6MPD1    H113898   1.684   2.559  13.495  0.5341 -0.0573 -0.0988
    6MPD1    H213899   1.649   2.973  13.491  0.0305 -0.8184  0.7512
    6MPD1    H313900   1.571   2.749  13.556 -0.2355  0.8082  0.1307
    6MPD1     N13901   1.874   2.525  13.321 -0.3080 -0.5479  0.2163
    6MPD1    H513902   1.849   2.441  13.372  0.3952 -1.0997 -0.3616
    6MPD1    N113903   1.844   3.017  13.312  0.1021  0.7744  0.0765
    6MPD1    H613904   1.847   3.091  13.383 -1.6743 -2.8695  3.9198
    6MPD1    H713905   1.932   3.020  13.261 -0.7669 -0.5913 -1.4745
    7MPD2     C13906   1.817   1.761  13.349  0.6187  0.1432  0.2377
    7MPD2    C113907   1.834   1.814  13.222  0.1701 -0.1733  0.2566
    7MPD2    C213908   1.816   1.735  13.108 -0.5456 -0.1649  0.2222
    7MPD2    C313909   1.803   1.595  13.121 -0.2791 -0.6753  0.2991
    7MPD2    C413910   1.803   1.539  13.250  0.1259 -0.4949 -0.6559
    7MPD2    C513911   1.792   1.624  13.361  1.3166  0.9630  0.1566
    7MPD2     H13912   1.838   1.779  13.011 -0.2212  1.3169  0.9633
    7MPD2    H113913   1.799   1.434  13.277 -0.9262  0.3553  2.4799
    7MPD2    H213914   1.824   1.817  13.442 -1.8237 -0.0015  0.5108
    7MPD2    H313915   1.775   1.576  13.456  3.3025 -0.8809 -0.4140
    7MPD2     N13916   1.831   1.528  13.000 -0.2039 -0.0044  0.2091
    7MPD2    H513917   1.866   1.587  12.925 -1.3115  2.3539  1.5431
    7MPD2    N113918   1.874   1.953  13.198 -0.0876  0.0800  0.3252
    7MPD2    H713919   1.876   1.987  13.102  0.1269  0.1823  0.3648
    8TMC3    C113920   1.895   1.336  12.876 -0.1081 -0.4373  0.2326
    8TMC3    C213921   1.998   1.249  12.904  0.6268 -0.1887  0.1025
    8TMC3    C313922   2.121   1.278  12.840  0.3700  0.2741  0.4304
    8TMC3    C413923   1.905   1.429  12.778 -0.7863 -0.0156  0.6656
    8TMC3    C513924   2.028   1.457  12.730  0.4100  0.4193  0.1376
    8TMC3    C613925   2.138   1.381  12.759 -0.0312 -0.7991  0.6812
    8TMC3     C13926   1.832   1.392  12.995  0.2437  0.2823  0.3130
    8TMC3     O13927   1.803   1.306  13.074  0.2182  0.3958  0.5035
    8TMC3     H13928   1.977   1.169  12.974 -2.6525  1.0217  0.5267
    8TMC3    H113929   1.819   1.485  12.744 -1.6753 -1.7093  0.1686
    8TMC3    H213930   2.234   1.403  12.716  0.2230  2.4700  2.8532
    8TMC3    C713931   2.047   1.599  12.740  0.2746 -0.4313  0.4918
    8TMC3    C813932   2.240   1.202  12.886  0.6189  0.0068 -0.3300
    8TMC3    O113933   1.953   1.658  12.794  0.1978  0.5639 -0.0130
    8TMC3    O213934   2.341   1.220  12.821  0.3235 -0.0663 -0.1444
    9TMC3    C113935   2.013   2.369  13.226  0.7617  0.2315 -0.3417
    9TMC3    C213936   2.106   2.339  13.129 -0.4649  0.5070 -1.0559
    9TMC3    C313937   2.146   2.212  13.108  0.2195 -0.0678 -1.0116
    9TMC3    C413938   1.942   2.271  13.288 -0.4488  0.4494 -0.4637
    9TMC3    C513939   1.972   2.150  13.246  0.1700 -0.2164  0.5865
    9TMC3    C613940   2.068   2.115  13.161  0.0588 -0.0121  0.9052
    9TMC3     C13941   1.980   2.506  13.234 -0.2743  0.2615 -0.4261
    9TMC3     O13942   2.032   2.577  13.152 -0.2886 -0.5549  0.6722
    9TMC3     H13943   2.163   2.411  13.071  0.8308 -0.4944 -1.0237
    9TMC3    H113944   1.871   2.284  13.369 -0.3084 -1.4771 -0.0187
    9TMC3    H213945   2.101   2.012  13.148 -0.5815 -0.3054  1.5909
    9TMC3    C713946   1.891   2.046  13.297  0.0837  0.4546  0.6286
    9TMC3    C813947   2.226   2.172  12.992 -0.6197 -0.5779 -0.3352
    9TMC3    O113948   1.841   2.048  13.407  0.8579  0.1800  0.1437
    9TMC3    O213949   2.318   2.236  12.952  0.1839  0.4291  0.2566
   10MPD2     C13950   2.323   1.819  12.632 -0.7806  0.1574  0.1568
   10MPD2    C113951   2.214   1.779  12.709 -0.3074 -0.1926 -0.4996
   10MPD2    C213952   2.167   1.862  12.803  0.3012 -0.3341  0.0542
   10MPD2    C313953   2.225   1.984  12.829 -0.2490  0.1977 -1.0394
   10MPD2    C413954   2.316   2.029  12.742 -0.0061  0.1132 -0.3468
   10MPD2    C513955   2.362   1.948  12.643 -0.0484 -0.0384  1.0240
   10MPD2     H13956   2.092   1.827  12.873 -0.2571 -0.4515 -0.6041
   10MPD2    H113957   2.361   2.126  12.754  1.6001 -0.7626  0.6222
   10MPD2    H213958   2.354   1.754  12.551 -1.5310  1.0751 -0.8700
   10MPD2    H313959   2.449   1.979  12.585  1.0639  0.3324  2.8827
   10MPD2     N13960   2.179   2.060  12.938  0.4858 -0.2697  0.1740
   10MPD2    H513961   2.095   2.019  12.976 -0.3094  2.2547  1.1243
   10MPD2    N113962   2.168   1.645  12.696 -0.2819 -0.0272  0.5729
   10MPD2    H713963   2.218   1.582  12.635  0.7715 -1.4121  2.8417
   11MPD2     C13964   3.586   0.575  13.510 -0.2273  1.2145 -0.2473
   11MPD2    C113965   3.487   0.641  13.579  0.4299  0.8693 -0.7475
   11MPD2    C213966   3.386   0.708  13.503 -0.2309  0.3032  0.4786
   11MPD2    C313967   3.398   0.706  13.361 -0.5496  0.0124  0.5132
   11MPD2    C413968   3.491   0.626  13.300  0.9095  0.3778  0.1154
   11MPD2    C513969   3.583   0.559  13.370  0.5325 -0.8099 -0.4045
   11MPD2     H13970   3.304   0.757  13.553 -0.0134 -1.0355  2.1406
   11MPD2    H113971   3.494   0.617  13.192  0.4392  0.4742  0.0961
   11MPD2    H213972   3.664   0.519  13.560  0.5384  0.8336 -1.8707
   11MPD2    H313973   3.662   0.498  13.327  0.9274  1.1935 -2.5341
   11MPD2     N13974   3.301   0.764  13.270  0.1201  0.0752  0.3620
   11MPD2    H513975   3.332   0.777  13.174  1.3014  0.0910  0.7467
   11MPD2    N113976   3.481   0.650  13.721 -0.4206 -0.4459  0.2329
   11MPD2    H713977   3.400   0.705  13.749  1.1317  1.1414  1.6105
    1MPD1     C13978   1.178   1.714  17.237  0.1376  0.5456  0.1495
    1MPD1    C113979   1.189   1.749  17.108 -0.1930  0.3844  0.6947
    1MPD1    C213980   1.243   1.652  17.032  0.0402  1.0976  0.0565
    1MPD1    C313981   1.317   1.547  17.071 -0.3748  0.1766  0.0093
    1MPD1    C413982   1.316   1.519  17.208  0.1058  0.9283  0.2925
    1MPD1    C513983   1.237   1.599  17.283  0.4285 -0.2522  0.6244
    1MPD1     H13984   1.239   1.673  16.926  1.1787 -0.3668 -0.2774
    1MPD1    H113985   1.371   1.434  17.247  1.4106  1.3215 -0.6894
    1MPD1    H213986   1.117   1.775  17.304 -0.3143 -0.8474  1.0036
    1MPD1    H313987   1.232   1.591  17.391 -0.7239 -1.7815  0.4617
    1MPD1     N13988   1.388   1.452  16.988  1.0006  0.2601 -0.0212
    1MPD1    H513989   1.406   1.365  17.036  0.5625  0.0058 -0.3187
    1MPD1    N113990   1.125   1.861  17.051  0.3389  0.1488  0.3594
    1MPD1    H613991   1.129   1.940  17.114 -0.4517  0.4841 -0.0138
    1MPD1    H713992   1.158   1.892  16.960  1.4181 -1.2600  0.2689
    2MPD1     C13993   2.175   0.841  17.056 -0.4053 -0.2662 -0.4251
    2MPD1    C113994   2.085   0.790  16.967  0.1799 -0.8704 -0.3110
    2MPD1    C213995   1.977   0.868  16.926 -0.8287 -0.1315 -0.3440
    2MPD1    C313996   1.946   0.986  16.995  0.2017  0.5739  0.0556
    2MPD1    C413997   2.037   1.037  17.086 -0.4609  0.2552  0.5031
    2MPD1    C513998   2.149   0.959  17.113 -0.4450  0.1628  0.0798
    2MPD1     H13999   1.910   0.840  16.845 -0.8017  2.1805 -1.1618
    2MPD1    H114000   2.014   1.126  17.144 -1.3174 -0.4350  1.2273
    2MPD1    H214001   2.258   0.787  17.100  0.5928  0.6369 -1.1863
    2MPD1    H314002   2.212   0.995  17.193  1.0681 -3.1713  0.4036
    2MPD1     N14003   1.835   1.057  16.947  0.5666 -0.3064 -0.0878
    2MPD1    H514004   1.782   1.003  16.879 -1.6042  0.8760  0.6668
    2MPD1    N114005   2.119   0.669  16.907 -0.0409  0.4322 -0.3885
    2MPD1    H614006   2.202   0.627  16.949  1.3539  3.3606 -0.1825
    2MPD1    H714007   2.044   0.601  16.896  1.1651 -1.0460  0.4785
    3TMC3    C114008   1.677   1.212  16.884 -0.0607 -0.1774  0.3313
    3TMC3    C214009   1.673   1.152  16.756 -1.0666  0.4119  0.5956
    3TMC3    C314010   1.583   1.206  16.666 -0.0813 -0.0909 -0.3376
    3TMC3    C414011   1.597   1.318  16.913 -0.6054 -0.3874  0.1184
    3TMC3    C514012   1.507   1.359  16.824 -0.7127  0.0698 -0.1924
    3TMC3    C614013   1.500   1.307  16.701 -0.0693  0.4827  0.2887
    3TMC3     C14014   1.794   1.184  16.974 -0.4828  0.1614  0.8742
    3TMC3     O14015   1.839   1.263  17.055 -0.1323 -0.2345  0.0352
    3TMC3     H14016   1.729   1.068  16.716 -0.3181  1.3485 -0.3269
    3TMC3    H114017   1.604   1.355  17.015 -1.1898 -2.9993  1.1115
    3TMC3    H214018   1.431   1.342  16.625 -0.2854  0.9494  0.7020
    3TMC3    C714019   1.437   1.480  16.865 -0.1173  0.0592  0.4749
    3TMC3    C814020   1.532   1.121  16.559 -0.4826 -0.5913 -0.1573
    3TMC3    O114021   1.414   1.566  16.780  0.4767 -0.6163 -0.1549
    3TMC3    O214022   1.566   1.001  16.570 -0.0534  0.3710 -0.3426
    4MPD1     C14023   1.373   1.062  16.064  0.1537  0.2595  0.0772
    4MPD1    C114024   1.376   1.191  16.090 -0.4018  0.3180 -0.0740
    4MPD1    C214025   1.412   1.236  16.215  0.0895  0.2131  0.0865
    4MPD1    C314026   1.443   1.146  16.320 -0.8387 -0.1627  0.2754
    4MPD1    C414027   1.423   1.011  16.291 -0.2148  0.6090  0.6100
    4MPD1    C514028   1.381   0.977  16.168 -0.1178 -0.2375  0.3497
    4MPD1     H14029   1.397   1.340  16.242 -0.4875 -0.5581  2.7074
    4MPD1    H114030   1.432   0.941  16.374 -1.6558 -0.0451  0.2092
    4MPD1    H214031   1.341   1.025  15.968 -1.3239  1.8202 -0.0444
    4MPD1    H314032   1.351   0.875  16.151 -1.0089 -0.1710  1.5236
    4MPD1     N14033   1.477   1.193  16.451  0.0308 -0.6092 -0.2251
    4MPD1    H514034   1.461   1.292  16.465  2.8215 -0.4717  2.2274
    4MPD1    N114035   1.326   1.291  16.005 -0.3413 -0.0337  0.1045
    4MPD1    H614036   1.353   1.278  15.907 -0.3638 -0.4682  0.1586
    4MPD1    H714037   1.347   1.386  16.034 -2.3827  0.6606 -0.6714
    1TCq1    O114038   1.604   0.500  11.038 -0.5841 -0.8580  0.3726
    1TCq1    C114039   1.725   0.558  11.008 -0.5551 -0.0346 -0.1671
    1TCq1    O214040   1.790   0.512  10.917  0.1188  0.8194 -0.2864
    1TCq1    C214041   1.787   0.604  11.128 -0.5435  0.3758  0.2009
    1TCq1    C314042   1.791   0.529  11.242  0.0709  0.1039  0.2782
    1TCq1    C414043   1.858   0.587  11.344  0.4364  0.8645 -0.3177
    1TCq1    C514044   1.957   0.678  11.327 -0.3987 -0.5233 -0.2038
    1TCq1    C614045   1.955   0.741  11.209 -0.1266 -0.4623 -0.1699
    1TCq1    C714046   1.869   0.702  11.110  0.4595 -0.2515  0.2592
    1TCq1    C814047   2.054   0.849  11.181 -0.0285  0.0762  0.3180
    1TCq1    O414048   2.091   0.898  11.289  0.0515 -0.2775 -0.0474
    1TCq1    C914049   1.867   0.503  11.466 -0.1965 -0.0316  0.0147
    1TCq1    O514050   1.787   0.412  11.486 -0.3040 -0.2298 -0.3237
    1TCq1    O614051   1.967   0.521  11.538  0.5259 -0.0397 -0.4196
    1TCq1    H114052   1.562   0.533  11.120  1.9156 -1.6011  1.9510
    1TCq1    H214053   1.720   0.449  11.261  1.1743 -0.9702 -0.1308
    1TCq1    H314054   2.011   0.705  11.417  0.0234  0.7878 -0.8528
    1TCq1    H414055   1.868   0.748  11.012  2.1766 -1.7754 -0.4710
    2MPD1     C14056   2.325   1.164  10.891 -0.3656  0.2877 -0.0846
    2MPD1    C114057   2.257   1.082  10.803 -0.1150  0.4772  0.8928
    2MPD1    C214058   2.177   0.983  10.858 -0.2050  0.2618 -0.6879
    2MPD1    C314059   2.172   0.967  10.999  0.2937 -0.1549 -0.3346
    2MPD1    C414060   2.239   1.058  11.081 -0.0596 -0.0146  0.1755
    2MPD1    C514061   2.312   1.155  11.024 -0.4623  0.1177  0.3338
    2MPD1     H14062   2.117   0.918  10.795  1.3036  3.4008 -5.4033
    2MPD1    H114063   2.233   1.053  11.189  0.0693 -0.3109  0.1675
    2MPD1    H214064   2.402   1.228  10.849 -0.1821 -0.1749 -0.4603
    2MPD1    H314065   2.363   1.229  11.085  1.8557 -0.4064 -0.9695
    2MPD1     N14066   2.088   0.865  11.047 -0.2104 -0.6655 -0.1761
    2MPD1    H514067   2.053   0.789  10.988 -3.0046  0.9945 -0.6498
    2MPD1    N114068   2.281   1.075  10.665 -0.4045 -0.0640  0.1862
    2MPD1    H614069   2.324   1.163  10.635  0.3743  0.0826  1.7108
    2MPD1    H714070   2.188   1.080  10.625  0.4833 -2.5835 -2.2185
    1TCq1    O114071   2.736   0.912   9.818  0.8759 -0.4525  0.5281
    1TCq1    C114072   2.789   0.885   9.694 -0.2783  0.1968 -0.6541
    1TCq1    O214073   2.830   0.964   9.607  0.6140  0.2373  0.4697
    1TCq1    C214074   2.755   0.753   9.672 -0.3314  0.1619 -0.0457
    1TCq1    C314075   2.764   0.661   9.773  0.0762  0.2712  0.4461
    1TCq1    C414076   2.709   0.535   9.755  0.9428  0.3880 -0.3280
    1TCq1    C514077   2.675   0.495   9.632  0.3114 -0.5479  0.2730
    1TCq1    C614078   2.653   0.591   9.536  0.4912  0.2196  0.0724
    1TCq1    C714079   2.688   0.724   9.555  1.4684  0.0187 -0.3484
    1TCq1    C814080   2.588   0.557   9.407  0.1487 -0.4038 -0.3737
    1TCq1    O414081   2.616   0.626   9.307  0.2556 -0.0735 -0.0096
    1TCq1    C914082   2.758   0.428   9.842 -0.7491  0.0839 -0.4921
    1TCq1    O514083   2.747   0.310   9.802 -0.9863  0.1749  0.4301
    1TCq1    O614084   2.841   0.461   9.929  0.5001  0.7103  0.4977
    1TCq1    H114085   2.707   0.828   9.860  0.3102 -0.8038 -0.5579
    1TCq1    H214086   2.836   0.673   9.853  0.9469 -1.0301 -0.1487
    1TCq1    H314087   2.661   0.391   9.603 -1.4330 -0.5773  1.1969
    1TCq1    H414088   2.653   0.808   9.496  3.0542  0.7663 -0.2224
    2MPD1     C14089   2.182   0.371   9.148 -0.4148 -0.6853  0.2328
    2MPD1    C114090   2.170   0.349   9.279 -0.2047  0.4279 -0.3009
    2MPD1    C214091   2.267   0.386   9.367  0.6917  0.9498 -0.0933
    2MPD1    C314092   2.378   0.445   9.329  0.5844 -0.2801 -0.3088
    2MPD1    C414093   2.396   0.471   9.193 -0.1804  0.8173  0.3204
    2MPD1    C514094   2.291   0.435   9.104 -0.0385  0.8904  0.3946
    2MPD1     H14095   2.255   0.367   9.473 -0.0676  1.1489 -0.1468
    2MPD1    H114096   2.480   0.526   9.151  0.0302 -1.0965 -1.7908
    2MPD1    H214097   2.112   0.350   9.067 -0.2085  1.2912 -0.4564
    2MPD1    H314098   2.296   0.467   9.001 -0.2874 -1.6373 -0.4064
    2MPD1     N14099   2.475   0.477   9.429 -0.6088 -0.2491 -0.0903
    2MPD1    H514100   2.463   0.436   9.521  2.5683 -0.9306  0.0302
    2MPD1    N114101   2.042   0.308   9.330 -0.3019 -0.8061 -0.3109
    2MPD1    H614102   2.053   0.266   9.422  1.1432 -0.3893 -0.3020
    2MPD1    H714103   1.995   0.239   9.271 -0.6419 -0.1462 -0.8136
    1MPD1     C14104   3.956   0.514  12.325  0.6834 -0.5256  0.3223
    1MPD1    C114105   4.040   0.626  12.317  0.4242 -0.0560  0.0727
    1MPD1    C214106   3.981   0.753  12.323 -0.6744  0.3515 -0.2416
    1MPD1    C314107   3.850   0.768  12.363  0.2474 -0.7217  0.5466
    1MPD1    C414108   3.779   0.654  12.400  0.1247  0.5476 -0.7653
    1MPD1    C514109   3.827   0.526  12.372  0.2767 -0.0072 -0.3748
    1MPD1     H14110   4.045   0.835  12.295 -1.6049  0.7409 -1.2516
    1MPD1    H114111   3.673   0.659  12.422  0.5217  1.3081  0.9917
    1MPD1    H214112   3.993   0.415  12.303  1.7783  0.1658 -0.9917
    1MPD1    H314113   3.762   0.440  12.385  0.4702  0.0202  0.7071
    1MPD1     N14114   3.805   0.897  12.395  0.6696  0.4168  0.0535
    1MPD1    H514115   3.878   0.967  12.402  0.0897  0.8378  1.8316
    1MPD1    N114116   4.167   0.607  12.263 -0.3209  0.1259 -0.2661
    1MPD1    H614117   4.207   0.521  12.298 -0.4752  0.5463  0.9419
    1MPD1    H714118   4.237   0.680  12.273  1.3983 -1.3175 -1.9191
    2MPD1     C14119   3.583   2.607  10.697  0.7236  0.2822 -0.1944
    2MPD1    C114120   3.703   2.566  10.655 -0.4890 -0.3648  0.2042
    2MPD1    C214121   3.763   2.459  10.724  0.3479 -0.0727 -0.3151
    2MPD1    C314122   3.690   2.382  10.818  0.2890 -0.1519  0.7814
    2MPD1    C414123   3.562   2.427  10.850 -0.7810 -0.4169  0.6201
    2MPD1    C514124   3.511   2.541  10.795  0.2906 -0.3339  0.1672
    2MPD1     H14125   3.861   2.420  10.698  0.7169 -0.7739  2.1265
    2MPD1    H114126   3.508   2.372  10.926 -0.3586 -0.5078  0.8567
    2MPD1    H214127   3.535   2.698  10.662 -0.2199  0.4547  1.5211
    2MPD1    H314128   3.413   2.583  10.816  0.0658 -1.1786  0.7944
    2MPD1     N14129   3.734   2.260  10.882  0.0050  0.3749 -0.4442
    2MPD1    H514130   3.671   2.227  10.955 -1.0867  1.2521 -0.9894
    2MPD1    N114131   3.779   2.641  10.569 -0.0368 -0.0892 -0.6716
    2MPD1    H614132   3.730   2.692  10.497  0.9618 -0.0033 -1.2909
    2MPD1    H714133   3.850   2.576  10.534 -0.6114 -0.5082 -1.0449
    3MPD1     C14134   4.235   1.634  10.404 -0.1623 -0.4190 -0.4976
    3MPD1    C114135   4.200   1.769  10.392 -0.3393 -0.0346  0.3925
    3MPD1    C214136   4.133   1.814  10.502 -0.8134 -0.3857  0.3758
    3MPD1    C314137   4.093   1.736  10.605 -0.7357 -0.4025  0.3436
    3MPD1    C414138   4.111   1.602  10.610  0.0594  0.6431 -0.0657
    3MPD1    C514139   4.175   1.554  10.499  0.1931 -0.1360 -0.3446
    3MPD1     H14140   4.118   1.921  10.508 -1.5016 -0.4414 -0.3173
    3MPD1    H114141   4.073   1.532  10.684  2.0685 -0.8288 -0.4345
    3MPD1    H214142   4.289   1.575  10.332  1.9472  0.3683  0.4496
    3MPD1    H314143   4.190   1.448  10.487  1.3327 -0.1698  1.2952
    3MPD1     N14144   4.033   1.803  10.715 -0.3092 -0.2662 -0.3330
    3MPD1    H514145   4.026   1.904  10.704  0.7980  0.0890  2.3000
    3MPD1    N114146   4.264   1.851  10.303 -0.4765 -0.1140 -0.2243
    3MPD1    H614147   4.285   1.800  10.218  1.7517  1.2096 -0.4581
    3MPD1    H714148   4.210   1.935  10.283 -0.3502 -0.0961 -0.4860
    4MPD2     C14149   3.226   1.487  12.431  0.1522  0.3066  0.2561
    4MPD2    C114150   3.363   1.486  12.434  0.3007  0.1159 -0.6105
    4MPD2    C214151   3.431   1.585  12.357 -0.5231  0.4828  0.0543
    4MPD2    C314152   3.366   1.672  12.269  0.1298  0.1661  0.1205
    4MPD2    C414153   3.228   1.653  12.259 -0.1991  0.0317 -0.1380
    4MPD2    C514154   3.162   1.568  12.340 -0.0311  0.0027 -0.9869
    4MPD2     H14155   3.537   1.601  12.371 -0.2867 -1.9282  1.1552
    4MPD2    H114156   3.166   1.715  12.196  0.0815  0.2017 -0.2496
    4MPD2    H214157   3.159   1.416  12.478  0.5471 -0.5866 -0.5298
    4MPD2    H314158   3.054   1.568  12.328 -0.1406 -1.0914  0.0163
    4MPD2     N14159   3.441   1.763  12.196 -0.0031 -0.2166  0.1443
    4MPD2    H514160   3.542   1.768  12.206  0.1725  0.5205 -2.0233
    4MPD2    N114161   3.443   1.401  12.513  0.1590  0.3507 -0.0431
    4MPD2    H714162   3.542   1.415  12.500 -0.0078 -0.7285 -2.5245
    5TMC3    C114163   3.522   1.211  12.607 -0.3309 -0.8128 -0.7099
    5TMC3    C214164   3.542   1.100  12.531  0.6698 -0.5116 -0.3708
    5TMC3    C314165   3.667   1.064  12.488  1.2866  0.4051 -0.5292
    5TMC3    C414166   3.627   1.285  12.641  0.6619  0.2395 -0.2559
    5TMC3    C514167   3.748   1.262  12.580  0.1302 -0.1951 -0.0681
    5TMC3    C614168   3.774   1.147  12.519 -1.3248  0.5292 -0.4499
    5TMC3     C14169   3.407   1.279  12.568  1.0499 -0.1002  0.6348
    5TMC3     O14170   3.304   1.217  12.546  0.0682 -0.3375  0.0287
    5TMC3     H14171   3.458   1.041  12.497  0.2447  0.1518 -0.4552
    5TMC3    H114172   3.610   1.378  12.695 -1.6564 -0.2744 -0.0766
    5TMC3    H214173   3.869   1.127  12.469 -1.6996  0.6173 -1.1950
    5TMC3    C714174   3.786   1.376  12.498  0.8430  0.1142 -0.1256
    5TMC3    C814175   3.676   0.929  12.430 -0.6614  0.4939  0.6742
    5TMC3    O114176   3.700   1.460  12.485  0.5048 -0.1512  0.0220
    5TMC3    O214177   3.576   0.869  12.409  0.1494 -0.1210 -0.4707
    6TMC3    C114178   3.870   2.074  10.931 -0.4517  0.6708  0.4932
    6TMC3    C214179   3.947   1.980  10.871 -0.2031 -0.4104 -0.8131
    6TMC3    C314180   3.941   1.854  10.923 -0.3466 -0.6266  0.2803
    6TMC3    C414181   3.806   2.047  11.044 -0.7382 -0.1955 -0.2052
    6TMC3    C514182   3.810   1.921  11.097 -0.3620  0.7363  0.0018
    6TMC3    C614183   3.873   1.820  11.034 -0.0312 -0.5584  0.6658
    6TMC3     C14184   3.849   2.196  10.852 -0.4381  0.1500 -0.1220
    6TMC3     O14185   3.928   2.216  10.759 -0.0972 -0.3928 -0.2217
    6TMC3     H14186   4.001   2.007  10.781  0.4889  0.4327 -0.1476
    6TMC3    H114187   3.732   2.114  11.087 -0.6999  0.1523 -0.6796
    6TMC3    H214188   3.876   1.721  11.078 -0.2160 -0.5519  0.6903
    6TMC3    C714189   3.752   1.905  11.227 -0.4135  0.3555 -0.4582
    6TMC3    C814190   4.001   1.750  10.841  0.0037  0.2145 -0.0983
    6TMC3    O114191   3.740   2.004  11.297 -0.2917 -0.0981 -0.2677
    6TMC3    O214192   3.997   1.637  10.887  0.1141 -0.1282 -0.3712
    7MPD2     C14193   4.115   1.656  12.203 -0.4111  0.0369 -0.0211
    7MPD2    C114194   3.983   1.678  12.240 -0.1430 -0.0072 -0.1485
    7MPD2    C214195   3.918   1.584  12.323 -0.2139 -0.4561 -0.3212
    7MPD2    C314196   3.982   1.473  12.373 -0.5556  0.2433 -0.7624
    7MPD2    C414197   4.110   1.443  12.341 -0.7008  0.2886  0.0395
    7MPD2    C514198   4.171   1.539  12.252  0.4016 -0.4285  0.0797
    7MPD2     H14199   3.821   1.603  12.366 -0.0254  2.8145 -1.3556
    7MPD2    H114200   4.150   1.345  12.362 -0.2469 -0.0864 -2.5392
    7MPD2    H214201   4.175   1.726  12.147 -1.0611  0.6379  0.0324
    7MPD2    H314202   4.271   1.517  12.218  0.8054  0.3407  0.7643
    7MPD2     N14203   3.917   1.372  12.448 -0.0440  0.0264  0.2791
    7MPD2    H514204   3.963   1.285  12.475  0.5346  0.2384 -0.0240
    7MPD2    N114205   3.919   1.789  12.183  0.1324  0.3101 -0.7516
    7MPD2    H714206   3.978   1.852  12.129 -0.1866  0.1687 -1.2589
    8TMC3    C114207   3.731   1.912  12.104 -0.1244 -0.0862  0.2834
    8TMC3    C214208   3.767   1.897  11.974  0.3835 -0.1676  0.1845
    8TMC3    C314209   3.662   1.894  11.889  0.3965 -0.0634 -0.2829
    8TMC3    C414210   3.602   1.934  12.145 -0.6819  0.1229  0.1061
    8TMC3    C514211   3.504   1.927  12.057 -0.0022 -0.0595  0.1411
    8TMC3    C614212   3.532   1.898  11.928 -0.3469  0.2805  0.5203
    8TMC3     C14213   3.783   1.822  12.199 -0.0930 -0.1759  0.8945
    8TMC3     O14214   3.694   1.772  12.273 -0.1208  0.1747  0.1139
    8TMC3     H14215   3.861   1.856  11.940  1.2366  1.5617  0.4422
    8TMC3    H114216   3.577   1.965  12.246  0.9522 -0.8004  0.7980
    8TMC3    H214217   3.447   1.888  11.862  1.6838 -0.2822 -2.0046
    8TMC3    C714218   3.390   1.851  12.108 -0.0184  0.1909 -0.1321
    8TMC3    C814219   3.689   1.856  11.756 -0.3683 -0.7285  0.1724
    8TMC3    O114220   3.279   1.865  12.057  0.2514 -0.1405  0.7988
    8TMC3    O214221   3.776   1.920  11.697  0.0164  0.2908  0.4990
    9MPD2     C14222   3.507   1.607  11.552 -0.3418  0.1261  0.2910
    9MPD2    C114223   3.592   1.712  11.579  0.2761 -0.1721  1.0640
    9MPD2    C214224   3.661   1.771  11.471 -0.5014 -0.3249  0.5666
    9MPD2    C314225   3.644   1.717  11.345 -0.0137 -0.6113 -0.1343
    9MPD2    C414226   3.568   1.600  11.323  0.1720  0.0288  0.8709
    9MPD2    C514227   3.504   1.544  11.428  0.1601  0.2481 -0.3729
    9MPD2     H14228   3.725   1.857  11.487 -1.3525 -0.1593  3.0128
    9MPD2    H114229   3.580   1.551  11.227 -1.1434 -1.8319  1.6739
    9MPD2    H214230   3.446   1.568  11.633 -1.0832  2.7644  0.9857
    9MPD2    H314231   3.442   1.457  11.408  1.2591  0.0599 -2.8939
    9MPD2     N14232   3.697   1.777  11.230  0.0411 -0.2042  0.3704
    9MPD2    H514233   3.697   1.717  11.149  1.5765  1.7594 -1.0754
    9MPD2    N114234   3.603   1.759  11.709 -0.0117 -0.4304  0.3154
    9MPD2    H714235   3.538   1.722  11.778 -0.8490 -1.2402 -0.9030
    1MPD1     C14236   3.811   0.198  15.505  0.1915  0.0197 -0.0260
    1MPD1    C114237   3.921   0.279  15.516  0.0749 -0.1274 -0.6362
    1MPD1    C214238   4.049   0.219  15.507 -0.6199  0.0862 -0.7324
    1MPD1    C314239   4.065   0.089  15.453 -0.7494  0.3198 -0.0277
    1MPD1    C414240   3.950   0.016  15.427 -0.2343  0.4849 -0.0351
    1MPD1    C514241   3.827   0.070  15.454  0.3362  0.0188 -0.1384
    1MPD1     H14242   4.129   0.285  15.539  0.8007 -1.8784 -0.2489
    1MPD1    H114243   3.948   4.635  15.391  1.9968  1.5918 -3.2322
    1MPD1    H214244   3.710   0.235  15.524  0.7393  0.7485  1.4464
    1MPD1    H314245   3.738   0.014  15.426  0.1032 -0.0381  0.7135
    1MPD1     N14246   4.194   0.030  15.422 -0.3364  0.6693 -0.2361
    1MPD1    H514247   4.192   4.662  15.374 -1.1458  1.2441 -1.2721
    1MPD1    N114248   3.897   0.411  15.570  0.1985  0.4065  0.1152
    1MPD1    H614249   3.973   0.463  15.527  1.8810 -1.0016  1.3686
    1MPD1    H714250   3.818   0.448  15.518  0.1238 -2.1960 -1.5845
    2MPD1     C14251   0.215   4.140  15.743 -0.1572 -0.3324  0.4457
    2MPD1    C114252   0.143   4.102  15.636  0.3139  0.6149  0.7028
    2MPD1    C214253   0.079   4.199  15.561 -0.1548 -0.0815 -0.1877
    2MPD1    C314254   0.079   4.335  15.595  0.5661 -1.0022  0.2354
    2MPD1    C414255   0.175   4.375  15.699 -0.6887 -0.0608  0.8186
    2MPD1    C514256   0.229   4.271  15.775  0.0972 -0.1347 -0.0008
    2MPD1     H14257   0.017   4.161  15.481  0.6884  0.4940 -1.1082
    2MPD1    H114258   0.175   4.478  15.731 -1.2991 -0.7140  2.9479
    2MPD1    H214259   0.257   4.068  15.813  0.9918  0.2414  0.3402
    2MPD1    H314260   0.286   4.285  15.867 -1.4535  1.9263  0.6627
    2MPD1     N14261   4.717   4.421  15.525  0.5419 -0.6033  0.1353
    2MPD1    H514262   4.672   4.378  15.445 -1.9674 -0.1273  1.3044
    2MPD1    N114263   0.100   3.968  15.622  0.2227 -0.0987  0.4315
    2MPD1    H614264   0.186   3.915  15.613 -0.4436 -0.2902 -4.7286
    2MPD1    H714265   0.042   3.949  15.540  2.1486  0.9651 -1.1615
    3TCq2    C114266   4.692   4.549  15.552  0.4884  0.6693 -0.4169
    3TCq2    O214267   0.003   4.613  15.648  0.5110  0.5072  0.1268
    3TCq2    C214268   4.603   4.612  15.454 -1.1969  0.1756  0.0951
    3TCq2    C314269   4.599   4.548  15.329  0.2209 -0.6440 -1.4502
    3TCq2    C414270   4.498   4.581  15.241  0.0672 -0.6475  0.0317
    3TCq2    C514271   4.411   4.682  15.281  0.4985 -0.0580 -0.5643
    3TCq2    C614272   4.420   0.008  15.409 -0.2694 -0.0011 -0.8022
    3TCq2    C714273   4.519   4.702  15.498 -0.7664 -0.2021  0.5296
    3TCq2    C814274   4.308   0.087  15.458 -0.0816 -0.1432  0.3470
    3TCq2    O414275   4.335   0.169  15.546 -0.0498 -0.7858 -0.0085
    3TCq2    C914276   4.510   4.533  15.108 -0.1754 -0.2719 -0.7090
    3TCq2    O514277   4.429   4.582  15.024 -0.3357  0.2179 -0.0347
    3TCq2    O614278   4.563   4.419  15.102 -0.1223 -0.2365 -0.4645
    3TCq2    H214279   4.677   4.482  15.295  1.0493 -0.6249  0.4049
    3TCq2    H314280   4.338   4.713  15.207  0.4685  0.2728 -0.3954
    3TCq2    H414281   4.534   0.015  15.599 -2.8956  0.1102  0.7219
    1TCq1    O114282   1.674   4.200  13.414  0.0213 -0.0358  0.7459
    1TCq1    C114283   1.622   4.286  13.317  0.2611  0.4309 -0.7084
    1TCq1    O214284   1.545   4.257  13.223  0.0140  0.4554  0.0051
    1TCq1    C214285   1.663   4.422  13.347  0.1276  0.2302 -0.0575
    1TCq1    C314286   1.580   4.523  13.307  0.7052  0.7349  0.6355
    1TCq1    C414287   1.627   4.649  13.308 -0.6160  0.4244  0.2294
    1TCq1    C514288   1.752   4.677  13.359  0.2289 -0.3581  0.0646
    1TCq1    C614289   1.832   4.570  13.397 -0.2380  0.1621  0.8035
    1TCq1    C714290   1.798   4.445  13.386  0.1042  0.3135  0.0024
    1TCq1    C814291   1.966   4.614  13.451 -0.2824 -0.2274 -0.0172
    1TCq1    O414292   2.005   0.008  13.424  0.4775 -0.5334  0.1989
    1TCq1    C914293   1.541   0.036  13.260 -0.0909  0.6741  0.7037
    1TCq1    O514294   1.417   0.015  13.251 -0.0828  0.2677 -0.5717
    1TCq1    O614295   1.597   0.129  13.200  0.3945 -0.0956 -0.0387
    1TCq1    H114296   1.714   4.251  13.488 -0.4156 -0.0168  0.9684
    1TCq1    H214297   1.486   4.491  13.263  2.0862 -0.5469 -1.4094
    1TCq1    H314298   1.786   0.059  13.361 -0.9142  0.0187  0.7118
    1TCq1    H414299   1.864   4.365  13.419  1.9252  1.4438 -0.9478
    2MPD2     C14300   2.257   4.607  13.480  0.2912 -0.6963 -0.0839
    2MPD2    C114301   2.167   4.523  13.545  0.8179  0.2438  0.0335
    2MPD2    C214302   2.210   4.443  13.650  0.0150  0.0137 -0.9216
    2MPD2    C314303   2.345   4.440  13.690 -0.5373  0.2236  0.8781
    2MPD2    C414304   2.425   4.527  13.621 -0.8762  0.1263  0.2452
    2MPD2    C514305   2.383   4.618  13.523  0.2592 -0.1259  0.5696
    2MPD2     H14306   2.136   4.383  13.701 -0.0844  1.2086  0.3198
    2MPD2    H114307   2.528   4.537  13.653 -0.6332 -0.8719 -0.2300
    2MPD2    H214308   2.213   4.673  13.405  2.4412  0.4902 -0.2852
    2MPD2    H314309   2.454   4.687  13.480 -0.4544  1.2209  1.5636
    2MPD2     N14310   2.385   4.365  13.796 -0.6262  0.1333  0.3642
    2MPD2    H514311   2.314   4.307  13.840 -2.0186 -0.0765 -2.1525
    2MPD2    N114312   2.034   4.512  13.511 -0.0520 -0.2225 -0.7629
    2MPD2    H714313   1.974   4.436  13.541  0.0390 -0.6271 -1.6174
    3TCq1    O114314   2.418   3.879  14.179  0.2792  0.0612  0.2441
    3TCq1    C114315   2.436   3.935  14.063 -0.4447 -0.3720 -0.2960
    3TCq1    O214316   2.394   3.899  13.950  0.1481  0.1907  0.2840
    3TCq1    C214317   2.485   4.074  14.079  0.0170  0.0115  0.1269
    3TCq1    C314318   2.589   4.098  14.165 -0.1503 -0.7267 -0.6211
    3TCq1    C414319   2.668   4.211  14.143  0.1796  0.0309 -0.5154
    3TCq1    C514320   2.627   4.305  14.050 -0.8605 -0.4753 -0.2026
    3TCq1    C614321   2.521   4.279  13.967  0.1497  0.2217 -0.7884
    3TCq1    C714322   2.451   4.162  13.976 -0.1842  0.2907  0.2006
    3TCq1    C814323   2.508   4.365  13.852  0.4823 -0.4879  0.2401
    3TCq1    O414324   2.604   4.437  13.828 -0.2229 -0.4937  0.0787
    3TCq1    C914325   2.785   4.241  14.222  0.1307  0.2173  0.7318
    3TCq1    O514326   2.882   4.302  14.177 -0.3183 -0.1985  0.4834
    3TCq1    O614327   2.791   4.177  14.328 -0.2618  0.0056 -0.3190
    3TCq1    H114328   2.413   3.940  14.256  0.3600  1.1648 -0.6110
    3TCq1    H214329   2.632   4.031  14.240 -1.0039 -1.5637 -0.8753
    3TCq1    H314330   2.693   4.392  14.044  0.7655 -1.6543  0.5797
    3TCq1    H414331   2.376   4.140  13.901  0.2476  0.2230 -0.2035
    1MPD2     C14332   1.686   0.343  15.131 -0.1544 -1.0491 -0.7786
    1MPD2    C114333   1.553   0.317  15.098  1.1440  0.0837  1.2868
    1MPD2    C214334   1.494   0.201  15.145  0.2043 -0.8120  0.4417
    1MPD2    C314335   1.560   0.109  15.223  0.6606  0.0780  0.2192
    1MPD2    C414336   1.697   0.140  15.251  0.8583  0.4777 -0.3307
    1MPD2    C514337   1.754   0.257  15.216  0.0232 -0.2892 -0.3441
    1MPD2     H14338   1.390   0.177  15.126  0.4693 -0.0820 -1.8475
    1MPD2    H114339   1.754   0.066  15.306  3.4860  2.9650  0.3161
    1MPD2    H214340   1.737   0.437  15.112  0.8158 -0.8862  2.6724
    1MPD2    H314341   1.855   0.284  15.245 -0.9591  2.9079  0.1104
    1MPD2     N14342   1.494   4.709  15.244 -0.0374  0.1426 -0.1081
    1MPD2    H514343   1.402   4.703  15.201 -0.0453 -0.9040  0.0613
    1MPD2    N114344   1.471   0.423  15.056  0.1042  0.2604  0.1760
    1MPD2    H714345   1.497   0.520  15.073 -0.0518  0.1421  1.0656
    2TMC3    C114346   1.251   0.509  15.053 -0.4088  0.1022  0.2216
    2TMC3    C214347   1.145   0.446  15.109  0.5265 -0.7472 -0.0168
    2TMC3    C314348   1.026   0.513  15.113 -0.1326  0.3439 -1.2691
    2TMC3    C414349   1.244   0.639  14.998 -0.1016 -0.8084 -0.6890
    2TMC3    C514350   1.115   0.694  15.009 -0.2149  0.0896  0.5259
    2TMC3    C614351   1.007   0.638  15.066 -0.3500 -0.0827 -0.6175
    2TMC3     C14352   1.345   0.408  15.003 -0.0670  0.0950 -0.0864
    2TMC3     O14353   1.301   0.309  14.952  0.0664  0.0735  0.0361
    2TMC3     H14354   1.149   0.353  15.164  2.6315 -0.0145  1.0357
    2TMC3    H114355   1.321   0.681  14.935 -0.3498  1.4438  0.5040
    2TMC3    H214356   0.917   0.695  15.087 -0.8587 -0.3199 -2.1878
    2TMC3    C714357   1.093   0.827  14.963  0.0981  0.0273 -0.4725
    2TMC3    C814358   0.909   0.443  15.155  0.3398  0.2625 -0.6620
    2TMC3    O114359   0.975   0.854  14.938 -0.3489  0.5656  0.0384
    2TMC3    O214360   0.827   0.491  15.234 -0.8622 -0.3606 -0.0630
    3TCq1    O114361   1.899   1.670  14.641 -0.1622  1.0614  0.1370
    3TCq1    C114362   1.952   1.583  14.736 -0.4163 -0.0952 -0.0320
    3TCq1    O214363   2.071   1.557  14.764 -0.0653 -0.1331  0.0984
    3TCq1    C214364   1.841   1.534  14.822 -0.1743 -0.9948  0.3303
    3TCq1    C314365   1.872   1.524  14.958 -0.0425 -0.0383  0.1958
    3TCq1    C414366   1.776   1.472  15.040  0.5356 -0.0453  0.3506
    3TCq1    C514367   1.656   1.438  14.981 -0.1160 -0.2339 -0.1312
    3TCq1    C614368   1.629   1.449  14.846  0.3202  0.2562  0.0363
    3TCq1    C714369   1.723   1.495  14.762  0.4275  0.0159  0.2881
    3TCq1    C814370   1.509   1.391  14.783 -0.5642  0.5939 -0.6114
    3TCq1    O414371   1.478   1.419  14.667 -0.9442 -0.4127  0.3678
    3TCq1    C914372   1.801   1.484  15.179  0.4593  0.2895 -0.4508
    3TCq1    O514373   1.919   1.510  15.219  0.5893  0.1333  0.3470
    3TCq1    O614374   1.700   1.456  15.251  0.2948 -0.2817  0.1719
    3TCq1    H114375   1.802   1.679  14.648  0.0547  1.9799  1.9541
    3TCq1    H214376   1.964   1.561  15.003  0.5290 -0.5311 -0.5650
    3TCq1    H314377   1.585   1.401  15.053  0.6750 -0.9451  0.2879
    3TCq1    H414378   1.690   1.495  14.658 -1.6291 -1.8903  0.9382
    4MPD2     C14379   1.230   1.290  14.781  0.1839 -0.0895 -0.5067
    4MPD2    C114380   1.333   1.235  14.858  0.0766  0.4519 -0.9350
    4MPD2    C214381   1.322   1.104  14.915  0.1303 -0.8616  0.2140
    4MPD2    C314382   1.207   1.032  14.888 -0.1668 -0.1915  0.1971
    4MPD2    C414383   1.110   1.084  14.805 -0.3277 -0.1098 -0.2480
    4MPD2    C514384   1.126   1.207  14.755 -0.0311 -0.2502  0.1608
    4MPD2     H14385   1.404   1.062  14.972 -0.0736 -1.0686  0.3526
    4MPD2    H114386   1.023   1.022  14.785 -0.3436  0.0114 -0.5539
    4MPD2    H214387   1.251   1.385  14.734 -1.7927  0.8644  0.4923
    4MPD2    H314388   1.041   1.243  14.698 -0.3122 -0.2774  0.5622
    4MPD2     N14389   1.200   0.905  14.950  0.0372 -0.0198 -0.0474
    4MPD2    H514390   1.284   0.873  14.998 -0.0774 -0.2925 -0.0330
    4MPD2    N114391   1.458   1.300  14.875  0.1823  0.1600  0.3097
    4MPD2    H714392   1.527   1.267  14.942 -1.4272 -0.4325  1.6771
    5TMC2    C114393   1.205   4.485  15.315 -0.1510  0.3200  0.1188
    5TMC2    C214394   1.183   4.443  15.444  0.8316  0.2506  0.8668
    5TMC2    C314395   1.289   4.440  15.525 -0.7321 -0.3983 -0.6593
    5TMC2    C414396   1.335   4.499  15.265 -0.0692  0.1874 -0.0553
    5TMC2    C514397   1.433   4.514  15.359  0.3474  0.3907 -0.0484
    5TMC2    C614398   1.416   4.473  15.486 -0.3880  0.8620  0.2051
    5TMC2     C14399   1.130   4.595  15.257 -0.0230 -0.2998  0.6043
    5TMC2     O14400   1.193   4.668  15.181  0.1387 -0.2301 -0.3599
    5TMC2     H14401   1.084   4.403  15.465  1.2006  0.7998  3.6013
    5TMC2    H114402   1.344   4.520  15.159  1.1923 -0.3134 -0.0512
    5TMC2    H214403   1.488   4.486  15.566 -0.7975  0.5119  0.6302
    5TMC2    C714404   1.536   4.613  15.333 -0.2313  0.2816  0.4470
    5TMC2    C814405   1.282   4.412  15.662  0.7020 -0.2178  0.1212
    5TMC2    O114406   1.637   4.610  15.404 -0.0908 -0.2592  0.1304
    5TMC2    O214407   1.382   4.362  15.714 -0.7918 -0.5265  0.4610
    5TMC2    O514408   1.195   4.492  15.727  0.5457 -0.4316 -0.1438
    5TMC2    H514409   1.127   4.538  15.674 -0.8038 -1.9760  0.2674
    6MPD2     C14410   0.756   0.214  15.281  0.7827  0.2023 -0.3271
    6MPD2    C114411   0.868   0.202  15.201 -0.5540  0.2336  1.0199
    6MPD2    C214412   0.948   0.090  15.206  0.6239 -0.0608  0.1453
    6MPD2    C314413   0.920   4.708  15.296 -1.2757 -0.4393  0.2814
    6MPD2    C414414   0.805   4.717  15.372  0.3253  0.2427  0.4149
    6MPD2    C514415   0.722   0.105  15.360  0.0947  0.1527  0.1160
    6MPD2     H14416   1.035   0.095  15.142  0.9200 -0.1958  0.5316
    6MPD2    H114417   0.764   4.641  15.438 -2.2619  1.2580 -0.0234
    6MPD2    H214418   0.683   0.295  15.277 -0.4246 -0.8903 -0.3691
    6MPD2    H314419   0.633   0.123  15.419  0.9093  1.9951  0.7917
    6MPD2     N14420   1.009   4.606  15.319 -0.3540  0.1772  0.0285
    6MPD2    H514421   0.989   4.533  15.387 -1.0568  1.1912  0.9104
    6MPD2    N114422   0.928   0.307  15.133  0.0263 -0.0462  0.1657
    6MPD2    H714423   0.998   0.270  15.069  0.1293  0.2535  0.1066
  945NH3     N114424   4.483   2.684  13.891  0.5588  0.1296  0.0819
  945NH3     H214425   4.563   2.662  13.949  0.6045  0.4979  0.1599
  945NH3     H314426   4.537   2.720  13.814  0.0512  2.0871  0.6352
  945NH3     H414427   4.456   2.596  13.848 -1.8057  0.9593 -0.1560
  946SOD     NA14428   2.380   0.188  14.869 -0.7588  0.0796  0.0072
  947SOD     NA14429   4.025   3.194   1.455 -0.4180  0.5486  0.4405
  948SOD     NA14430   0.746   2.892   8.590  0.4730 -0.5490 -0.7189
  949SOD     NA14431   0.451   0.450  10.845 -0.2198 -0.8179  0.1422
  950SOD     NA14432   4.465   1.841   9.716  0.0722 -0.4302  0.0709
  951SOD     NA14433   2.933   0.664  16.311  0.1030 -0.0662  0.0026
  952SOD     NA14434   1.618   4.368  10.464  0.0242  0.4556  0.3379
  953SOD     NA14435   3.054   4.422  14.280  0.0402  0.2083  0.2157
  954SOD     NA14436   1.130   4.118  13.159 -0.2408 -0.1163  0.3326
  955SOD     NA14437   2.589   4.692  15.033 -0.5570  0.4685  0.1574
  956SOD     NA14438   2.220   1.585  17.086 -0.2069  0.2587 -0.1486
  957SOD     NA14439   3.662   2.548  17.476 -0.3775 -0.0051  0.5344
  958SOD     NA14440   0.514   1.559  16.100 -0.1605  0.0656 -0.0380
  959SOD     NA14441   3.336   0.349  14.798  0.3517  0.0325  0.5859
  960SOD     NA14442   2.329   4.359  12.034  0.0814  0.2847  0.4957
  961SOD     NA14443   4.239   1.670   9.498  0.5338  0.1267  0.0306
  962SOD     NA14444   0.687   0.740  11.203 -0.1951  0.0470 -0.2910
  963SOD     NA14445   3.536   2.554   1.722 -0.1328 -0.1935  0.2534
  964SOD     NA14446   1.232   2.311  10.013  0.1387 -0.6268 -0.1343
  965SOD     NA14447   3.039   0.324   7.237 -0.2331  0.0913  0.2761
  966SOD     NA14448   4.550   3.298  15.350 -0.0584 -0.6289  0.2570
  967SOD     NA14449   2.232   4.019  12.117  0.0130  0.4204  0.1258
  968SOD     NA14450   3.810   3.122   0.755 -0.2615 -0.3195 -0.0999
  969SOD     NA14451   1.903   1.927   0.700  0.1436  0.1533 -0.2764
  970SOD     NA14452   3.000   4.450  11.120 -0.3747  0.1217  0.2806
  971SOD     NA14453   0.240   3.285  13.472  0.5418  0.4862 -0.0109
  972SOD     NA14454   2.270   0.276  12.676 -0.2376  0.0141 -0.2611
  973SOD     NA14455   1.332   4.192  10.427 -0.3707  0.1927  0.5226
  974SOD     NA14456   4.197   3.419  12.713 -0.4963  0.4874 -0.3123
  975SOD     NA14457   3.226   2.249   1.395  0.3269  0.0447 -0.3189
  976SOD     NA14458   2.869   0.540  10.136 -0.3217  0.1615 -0.1683
  977SOD     NA14459   1.145   2.609  10.760  0.1382 -0.5031  0.1108
  978SOD     NA14460   4.480   4.162  17.625  0.3173  0.2415  0.5073
  979SOD     NA14461   4.029   3.979  13.885 -0.7047  0.2992 -0.2931
  980SOD     NA14462   4.420   3.595  14.306  0.1908 -0.2285 -0.1203
  981SOD     NA14463   0.113   4.560  11.121 -0.0979  0.3217 -0.0112
  982SOD     NA14464   2.999   1.597   3.555 -0.2012  0.2127  0.0430
  983SOD     NA14465   1.121   0.338   1.996  0.1457 -0.3585  0.0349
  984SOD     NA14466   1.761   0.259  13.094  0.2491  0.0019 -0.2820
  985SOD     NA14467   1.332   3.936  10.293  0.1640 -0.0678 -0.2256
  986SOD     NA14468   0.829   3.726   8.551 -0.2987 -0.2429 -0.3930
  987SOD     NA14469   2.676   2.847   0.073  0.0729  0.2826  0.1762
  988SOD     NA14470   3.567   1.235   6.913  0.1164 -0.5755  0.0533
  989SOD     NA14471   1.359   3.846  10.000  0.2874  0.2827  0.6395
  990SOD     NA14472   0.381   2.827   2.205  0.3520  0.2177  0.3626
  991SOD     NA14473   3.410   0.798  12.821  0.1989  0.1610  0.8546
  992SOD     NA14474   1.690   0.234  15.681  0.0011  0.6015 -0.1259
  993SOD     NA14475   2.612   3.778  12.241  0.2412  0.4335 -0.2376
  994SOD     NA14476   3.113   0.658  13.830  0.4849  0.0780 -0.0425
  995SOD     NA14477   1.995   1.833  14.302 -0.1818  0.2131  0.2307
  996SOD     NA14478   1.887   0.347  11.676 -0.0318 -0.0728 -0.0353
  997SOD     NA14479   2.380   1.784   7.305  0.1658  0.2497  0.0744
  998SOD     NA14480   4.447   3.630   2.480 -0.1523 -0.3612  0.1058
  999SOD     NA14481   0.793   0.086  10.733 -0.3476 -0.3961  0.1893
 1000SOD     NA14482   1.414   3.430   9.179 -0.6163  0.0485 -0.1319
 1001SOD     NA14483   2.154   0.175  11.531 -0.1708  0.4423  0.3741
 1002SOD     NA14484   2.909   0.546   1.037  0.1056  0.2528  0.7109
 1003SOD     NA14485   1.427   4.660   4.304 -0.1834 -0.0641  0.1498
 1004SOD     NA14486   1.251   3.483  11.536 -0.3023 -0.2389  0.4308
 1005SOD     NA14487   3.447   2.694  13.350 -0.0690  0.0436 -0.4877
 1006SOD     NA14488   2.801   2.177  14.652 -0.2840  0.3725 -0.9690
 1007SOD     NA14489   3.410   3.261   0.909  0.1421 -0.0343 -0.0553
 1008SOD     NA14490   2.619   1.229  14.756  0.2051 -0.1740 -0.1998
 1009SOD     NA14491   0.801   0.599  15.455  0.0929 -0.2518 -0.4934
 1010SOD     NA14492   2.683   3.235  16.652  0.0420  0.1738 -0.1384
 1011SOD     NA14493   2.026   4.017   2.753 -0.2687 -0.2079  0.0436
 1012SOL     OW14494   4.451   0.384  13.626  0.0246 -0.1506 -0.3547
 1012SOL    HW114495   4.449   0.389  13.531  2.3205 -3.1522 -0.5700
 1012SOL    HW214496   4.361   0.361  13.646  0.2978  0.3260  1.4450
 1013SOL     OW14497   1.116   3.295   2.519  0.2397  0.5839  0.4964
 1013SOL    HW114498   1.188   3.292   2.582  0.8954  0.4747 -0.2601
 1013SOL    HW214499   1.110   3.203   2.493  1.1579  0.0983  1.9925
 1014SOL     OW14500   1.235   0.051   6.724 -0.1590 -0.0502  0.1711
 1014SOL    HW114501   1.322   0.020   6.697  0.3935  1.9148 -0.3761
 1014SOL    HW214502   1.189   0.054   6.640 -0.8028 -1.3606  0.4867
 1015SOL     OW14503   2.732   1.469   0.493 -0.0156  0.4779  0.3324
 1015SOL    HW114504   2.715   1.408   0.565  0.6673 -0.8482 -0.6274
 1015SOL    HW214505   2.779   1.536   0.541  0.3833 -0.3467  1.0819
 1016SOL     OW14506   2.646   2.472  14.673 -0.7736  0.4091  1.1160
 1016SOL    HW114507   2.667   2.420  14.751 -0.0428 -2.6569 -1.1730
 1016SOL    HW214508   2.692   2.417  14.609  1.5191  1.3158  1.9624
 1017SOL     OW14509   0.176   0.424   7.532 -0.6481 -0.2720 -0.7453
 1017SOL    HW114510   0.224   0.493   7.486  0.8572 -1.1128 -0.4305
 1017SOL    HW214511   0.087   0.459   7.533 -0.4232  0.3008 -0.4503
 1018SOL     OW14512   2.648   4.251   6.234  0.7255  0.4381 -0.2175
 1018SOL    HW114513   2.619   4.160   6.235  2.7141 -0.1642  1.1953
 1018SOL    HW214514   2.676   4.262   6.143  2.5243 -0.4381  0.2301
 1019SOL     OW14515   3.174   4.639   3.052 -0.4585  0.0653  0.1323
 1019SOL    HW114516   3.114   4.564   3.044 -1.5898  0.7979  1.8924
 1019SOL    HW214517   3.171   4.658   3.145 -1.8849 -2.4958  0.6003
 1020SOL     OW14518   1.700   4.344   2.062 -0.4977  0.1118  0.1125
 1020SOL    HW114519   1.764   4.354   2.133 -1.1397  0.0608  0.7056
 1020SOL    HW214520   1.756   4.338   1.985 -0.8629  0.9138 -0.2172
 1021SOL     OW14521   0.829   0.713   8.186 -0.3565  0.1034  0.6069
 1021SOL    HW114522   0.846   0.631   8.141  0.9755  1.3134 -1.1247
 1021SOL    HW214523   0.835   0.781   8.118 -0.4306 -0.4098  0.0958
 1022SOL     OW14524   2.675   4.059   5.968  0.4293  0.0225 -0.4057
 1022SOL    HW114525   2.674   4.006   6.048  1.1761  1.9178  0.8799
 1022SOL    HW214526   2.762   4.099   5.961  0.3233  0.3317  0.0268
 1023SOL     OW14527   4.560   1.661   4.477 -0.1135 -0.1179 -0.4101
 1023SOL    HW114528   4.537   1.674   4.569 -2.0227  0.8319 -1.0176
 1023SOL    HW214529   4.618   1.585   4.486 -0.4060 -0.2948  0.0099
 1024SOL     OW14530   2.180   3.941  11.707 -0.3549 -0.2341  0.2230
 1024SOL    HW114531   2.141   3.912  11.789 -0.3554  1.2604  0.7501
 1024SOL    HW214532   2.150   3.886  11.634  1.0850  2.2782 -2.2967
 1025SOL     OW14533   4.354   3.486   9.286 -0.0511 -0.2159 -0.2974
 1025SOL    HW114534   4.345   3.396   9.254  1.2580 -0.5818  0.3898
 1025SOL    HW214535   4.398   3.529   9.214  1.7117 -0.4888  0.6247
 1026SOL     OW14536   4.075   2.281   3.132  0.4094  0.1762 -0.0160
 1026SOL    HW114537   4.024   2.316   3.205 -0.1095 -0.3356 -0.1307
 1026SOL    HW214538   4.032   2.195   3.124 -2.7248  1.9937 -2.8762
 1027SOL     OW14539   2.298   1.628  15.900  0.6250 -0.3421 -0.5895
 1027SOL    HW114540   2.244   1.551  15.883  1.2083 -0.4249 -2.1031
 1027SOL    HW214541   2.286   1.684  15.822  1.4985 -1.0229 -1.2091
 1028SOL     OW14542   0.075   4.567   1.957  0.7388  0.3554 -0.4563
 1028SOL    HW114543   0.006   4.598   1.898 -1.6906 -2.5642  0.8541
 1028SOL    HW214544   0.031   4.572   2.042  0.7742  2.4590 -0.5435
 1029SOL     OW14545   1.095   1.179   6.347 -0.2761  0.1326  0.6703
 1029SOL    HW114546   1.146   1.222   6.278  2.3173 -0.0119  2.4889
 1029SOL    HW214547   1.004   1.206   6.333 -0.2402 -0.5337 -0.9189
 1030SOL     OW14548   4.639   0.911   4.412  0.2849 -0.1199 -0.0745
 1030SOL    HW114549   4.637   0.993   4.364  0.0861 -0.6720 -1.0119
 1030SOL    HW214550   4.553   0.919   4.455  0.3792  1.0275 -0.1056
 1031SOL     OW14551   1.001   2.150   2.808  0.1574  0.0461  0.1895
 1031SOL    HW114552   0.932   2.214   2.826 -0.2624  0.6583 -3.5644
 1031SOL    HW214553   1.084   2.193   2.788 -0.2152  0.3471 -0.7234
 1032SOL     OW14554   0.542   2.449   1.953  0.5767 -0.2108 -0.0319
 1032SOL    HW114555   0.606   2.428   2.021 -0.0131  0.5456  0.7573
 1032SOL    HW214556   0.506   2.363   1.928 -0.6060 -0.4915  2.6035
 1033SOL     OW14557   0.151   1.882   7.037 -0.1702 -0.0416 -0.6275
 1033SOL    HW114558   0.161   1.974   7.064  0.9965  0.1938 -1.8644
 1033SOL    HW214559   0.167   1.844   7.124 -0.3563 -2.0428 -1.4907
 1034SOL     OW14560   2.201   0.838   4.771  0.1358 -0.1345 -0.3046
 1034SOL    HW114561   2.253   0.819   4.693  0.9059 -1.9571  0.6493
 1034SOL    HW214562   2.214   0.932   4.786  0.2670 -0.3071  0.6941
 1035SOL     OW14563   2.469   0.038   3.757 -0.4243 -0.2312  0.3627
 1035SOL    HW114564   2.461   4.665   3.770 -0.8369 -0.1977  0.3513
 1035SOL    HW214565   2.564   0.048   3.748 -0.3044 -2.1471 -0.5880
 1036SOL     OW14566   4.136   1.730   6.433  0.3123 -0.7285 -0.0777
 1036SOL    HW114567   4.158   1.687   6.516  0.1146 -3.6355 -1.5181
 1036SOL    HW214568   4.100   1.815   6.457 -1.6302 -1.2806 -1.0204
 1037SOL     OW14569   4.381   3.421   7.668 -0.2202  0.2650  0.0472
 1037SOL    HW114570   4.435   3.480   7.616 -2.0963  1.3250 -0.6820
 1037SOL    HW214571   4.291   3.453   7.671 -0.6371 -0.7241 -1.9821
 1038SOL     OW14572   1.978   0.469   4.930 -0.1489 -0.0793 -0.4070
 1038SOL    HW114573   1.962   0.561   4.954  0.9309  0.0264 -0.0673
 1038SOL    HW214574   1.897   0.444   4.886 -0.9807  0.2049  0.9629
 1039SOL     OW14575   3.312   3.668  11.849  0.3442  0.2050  0.2569
 1039SOL    HW114576   3.292   3.690  11.940 -0.0157 -1.4192  0.5732
 1039SOL    HW214577   3.397   3.713  11.847 -0.9245  2.5440 -1.3565
 1040SOL     OW14578   0.342   0.703   5.695 -0.0656 -0.1488 -0.2516
 1040SOL    HW114579   0.422   0.689   5.745 -0.3314  3.1250  1.0896
 1040SOL    HW214580   0.290   0.758   5.753 -1.8759 -2.3649  0.2584
 1041SOL     OW14581   0.865   0.488  14.380  0.2562  0.2434  0.2339
 1041SOL    HW114582   0.807   0.508  14.454  1.7991 -0.4979  1.6460
 1041SOL    HW214583   0.853   0.394  14.375  0.4306  0.0444  3.8918
 1042SOL     OW14584   1.416   4.409   8.712  0.0260 -0.0958  0.0747
 1042SOL    HW114585   1.441   4.491   8.670  1.7788 -0.7270 -0.1430
 1042SOL    HW214586   1.468   4.348   8.659 -0.6466  0.6744 -1.4638
 1043SOL     OW14587   2.531   0.161   9.057 -0.5134 -0.5015  0.7509
 1043SOL    HW114588   2.589   0.233   9.083  0.0236 -0.0423 -1.6805
 1043SOL    HW214589   2.509   0.132   9.146  0.7253  1.0434  1.5761
 1044SOL     OW14590   3.091   4.612   6.910 -0.3727 -0.6442  0.2940
 1044SOL    HW114591   3.162   4.549   6.920  0.5335  0.3750  0.3178
 1044SOL    HW214592   3.072   4.627   7.003 -0.3031  0.2263  0.1681
 1045SOL     OW14593   3.952   2.518   4.515 -0.2109  0.1210  0.3368
 1045SOL    HW114594   3.939   2.468   4.435  1.1917 -0.2833  0.3796
 1045SOL    HW214595   3.943   2.606   4.478 -0.6900 -0.0028  0.1488
 1046SOL     OW14596   4.459   0.784   9.473  0.2200 -0.8339  0.2201
 1046SOL    HW114597   4.470   0.768   9.380 -1.3576 -1.7669  0.2111
 1046SOL    HW214598   4.420   0.872   9.475 -0.8668 -1.3059 -0.4455
 1047SOL     OW14599   2.941   3.571   6.835  0.0822  0.0927  0.1534
 1047SOL    HW114600   3.029   3.591   6.801 -1.5852  1.6503 -3.2925
 1047SOL    HW214601   2.949   3.480   6.861  1.1572  0.2209  0.2629
 1048SOL     OW14602   4.475   0.395  15.999  0.2889  0.1219  0.7215
 1048SOL    HW114603   4.519   0.311  16.016 -0.9862 -1.0161 -1.5097
 1048SOL    HW214604   4.536   0.455  16.041  0.9721  0.4694 -0.7480
 1049SOL     OW14605   4.062   3.807  11.738  0.2304  0.4903  0.2082
 1049SOL    HW114606   4.085   3.899  11.755 -0.9733  0.9688 -0.7914
 1049SOL    HW214607   4.135   3.753  11.768  0.2267  1.4440  1.9642
 1050SOL     OW14608   4.581   1.841   7.439 -0.1801 -0.4221 -0.6200
 1050SOL    HW114609   4.488   1.820   7.447 -0.7341  2.0587 -0.5218
 1050SOL    HW214610   4.626   1.761   7.466 -0.6960 -0.4928  0.0386
 1051SOL     OW14611   0.527   4.526   8.416 -1.0826 -0.7950 -0.3066
 1051SOL    HW114612   0.600   4.486   8.369 -0.7492  0.1781 -0.6196
 1051SOL    HW214613   0.486   4.446   8.448 -1.4122 -0.4614  0.1034
 1052SOL     OW14614   2.091   3.995   4.378 -0.2786  0.0818 -0.3783
 1052SOL    HW114615   2.127   4.040   4.301  0.6595 -0.9766 -0.5636
 1052SOL    HW214616   2.153   3.922   4.375  0.5461  0.7786 -0.5167
 1053SOL     OW14617   0.239   1.084  17.545  0.1376  0.1009  0.4441
 1053SOL    HW114618   0.319   1.119  17.505 -0.8651 -0.5067 -2.0888
 1053SOL    HW214619   0.202   1.169  17.568  0.5688  0.5750 -0.6264
 1054SOL     OW14620   1.321   3.918  14.603 -0.2051  0.1452 -0.1837
 1054SOL    HW114621   1.387   3.869  14.653 -0.6966  0.9242  1.2288
 1054SOL    HW214622   1.249   3.896  14.661  0.5507  0.2573  0.8083
 1055SOL     OW14623   1.874   2.084   9.561 -0.0098 -0.3958  0.0760
 1055SOL    HW114624   1.938   2.013   9.567 -0.0235 -0.2241  2.2827
 1055SOL    HW214625   1.921   2.154   9.516  0.4000 -0.7336 -0.0136
 1056SOL     OW14626   1.049   4.181  12.602 -0.6808 -0.4394  0.3088
 1056SOL    HW114627   1.017   4.219  12.683 -1.9405  0.6396 -0.6953
 1056SOL    HW214628   0.971   4.184  12.547 -0.5097 -0.7956  0.0449
 1057SOL     OW14629   3.499   1.837   9.657 -0.5006  0.0551  0.5894
 1057SOL    HW114630   3.530   1.758   9.702  0.3333 -0.2129 -0.4467
 1057SOL    HW214631   3.526   1.815   9.567 -2.5201 -1.1652  0.2740
 1058SOL     OW14632   3.158   1.691   5.008  0.2333  0.3253 -0.5114
 1058SOL    HW114633   3.139   1.723   4.920 -0.7717 -1.5425 -0.9683
 1058SOL    HW214634   3.073   1.703   5.050 -0.8206 -0.3746 -2.4662
 1059SOL     OW14635   1.707   4.534  14.203 -0.6780  0.7257  0.1984
 1059SOL    HW114636   1.699   4.462  14.266 -0.0113 -0.9001 -1.5712
 1059SOL    HW214637   1.631   4.533  14.146 -0.2279 -0.5868 -0.3800
 1060SOL     OW14638   3.226   1.079   6.669 -0.0831 -0.1089  0.3097
 1060SOL    HW114639   3.207   1.087   6.576 -0.3794 -2.0309  0.2105
 1060SOL    HW214640   3.195   1.165   6.697 -0.5176 -0.4425  0.8718
 1061SOL     OW14641   0.169   4.575   6.873 -0.0964 -0.7915 -0.0393
 1061SOL    HW114642   0.241   4.574   6.937  0.8411  0.9872 -1.0774
 1061SOL    HW214643   0.124   4.654   6.900 -0.5474 -1.2077  0.4207
 1062SOL     OW14644   1.734   3.504   1.417  0.0276  0.2693  0.1553
 1062SOL    HW114645   1.806   3.493   1.355 -1.0754 -0.4831 -0.9826
 1062SOL    HW214646   1.723   3.598   1.423 -0.6113  0.0727  2.2187
 1063SOL     OW14647   1.032   3.497   7.317 -0.1001 -0.1900  0.1614
 1063SOL    HW114648   0.943   3.476   7.286 -1.3565  2.1939  2.1645
 1063SOL    HW214649   1.086   3.436   7.266 -1.2566 -1.0809 -0.0283
 1064SOL     OW14650   1.385   1.710   2.493  0.2968  0.5857 -0.7179
 1064SOL    HW114651   1.431   1.763   2.429  1.1582 -0.0323 -0.6086
 1064SOL    HW214652   1.359   1.632   2.445 -0.3387 -0.5888  1.5026
 1065SOL     OW14653   1.340   2.883   5.230  0.3148 -0.5153 -0.3701
 1065SOL    HW114654   1.298   2.891   5.316  1.0615 -1.5383  0.0798
 1065SOL    HW214655   1.281   2.940   5.180  0.8407 -1.1927 -1.7465
 1066SOL     OW14656   1.461   1.394   6.017 -0.6286 -0.2837 -0.1786
 1066SOL    HW114657   1.524   1.362   6.082  1.3159 -1.7487 -2.8184
 1066SOL    HW214658   1.391   1.432   6.070 -0.2322 -1.5270  1.2494
 1067SOL     OW14659   0.363   4.375   4.185 -0.3405 -0.0523  1.0271
 1067SOL    HW114660   0.345   4.331   4.102 -0.1598 -1.4132  1.7078
 1067SOL    HW214661   0.275   4.407   4.205  0.3672  1.9156  0.9557
 1068SOL     OW14662   1.067   2.522   5.072 -0.2161  0.7457  0.0270
 1068SOL    HW114663   1.160   2.518   5.053 -0.4617 -0.9378 -0.7456
 1068SOL    HW214664   1.026   2.458   5.014  2.8362 -0.3158 -0.9152
 1069SOL     OW14665   0.448   3.680   4.833 -0.4495  0.2409  0.5271
 1069SOL    HW114666   0.486   3.717   4.753 -1.1077 -0.7434 -0.2345
 1069SOL    HW214667   0.424   3.593   4.802 -2.1227 -0.0369  2.6354
 1070SOL     OW14668   4.220   1.018  14.769  0.4410 -0.8222  0.2983
 1070SOL    HW114669   4.246   1.091  14.825  1.2031 -0.5368 -0.4188
 1070SOL    HW214670   4.302   0.971  14.754 -0.6444 -2.2932 -1.0446
 1071SOL     OW14671   4.400   1.939  16.536  0.5902  0.2718 -0.5278
 1071SOL    HW114672   4.315   1.915  16.501 -0.3721  1.8851  0.6985
 1071SOL    HW214673   4.401   1.876  16.608 -1.0388  0.7834 -0.0583
 1072SOL     OW14674   3.487   2.586  17.631  0.0726  0.1507 -0.2181
 1072SOL    HW114675   3.509   2.654   0.008 -0.7053 -0.1170  0.3332
 1072SOL    HW214676   3.417   2.535  17.672  0.2457  1.9395  2.3030
 1073SOL     OW14677   1.740   2.406   3.067  0.2491  0.3490 -0.5540
 1073SOL    HW114678   1.768   2.469   3.000  1.9299  2.6281  2.2844
 1073SOL    HW214679   1.690   2.338   3.022  0.6784 -0.4777  0.2089
 1074SOL     OW14680   2.878   0.854   5.161 -0.0778 -0.5810 -0.4545
 1074SOL    HW114681   2.782   0.860   5.161 -0.0379  0.1633 -0.9034
 1074SOL    HW214682   2.873   0.782   5.224  0.5942 -1.3124 -1.2478
 1075SOL     OW14683   0.083   1.399   3.332  0.2278  0.2884 -0.3496
 1075SOL    HW114684   0.137   1.422   3.408 -2.0336 -2.1696  1.9935
 1075SOL    HW214685   0.093   1.469   3.267  0.7279 -1.3943 -2.0746
 1076SOL     OW14686   2.858   2.153   8.506 -0.1495 -0.3722  0.2898
 1076SOL    HW114687   2.924   2.223   8.501  0.2331 -0.5848  2.2475
 1076SOL    HW214688   2.779   2.206   8.514  0.2847  0.1645  1.0390
 1077SOL     OW14689   0.286   1.025   3.708 -0.5936  0.5419  0.2327
 1077SOL    HW114690   0.294   0.956   3.774  1.9681  1.3319  0.7455
 1077SOL    HW214691   0.215   0.996   3.651  2.1295 -0.6259 -2.5481
 1078SOL     OW14692   2.387   0.816   1.318  0.3272  0.3378  0.1743
 1078SOL    HW114693   2.390   0.855   1.405  1.2410  0.5762  0.0415
 1078SOL    HW214694   2.293   0.802   1.309  0.7927 -2.1940 -0.8239
 1079SOL     OW14695   2.119   1.677  15.271  0.2647  0.2490 -0.3405
 1079SOL    HW114696   2.197   1.680  15.214 -1.1861  0.5567 -2.2959
 1079SOL    HW214697   2.062   1.617  15.224  2.8230 -1.8718 -0.7190
 1080SOL     OW14698   0.760   0.657   6.835 -0.5455 -0.0161 -0.2725
 1080SOL    HW114699   0.750   0.725   6.902 -0.0297  0.3125 -0.5313
 1080SOL    HW214700   0.853   0.635   6.834 -0.1147  1.6917  1.3799
 1081SOL     OW14701   3.788   4.302  11.278 -0.0725 -0.3555 -0.0931
 1081SOL    HW114702   3.873   4.335  11.306 -0.0276 -1.0459  0.5886
 1081SOL    HW214703   3.732   4.370  11.317 -0.1978 -0.8885  0.6586
 1082SOL     OW14704   4.209   2.952   3.339  0.4075 -0.3515  0.3647
 1082SOL    HW114705   4.126   2.907   3.329  0.2858  0.5004 -2.5394
 1082SOL    HW214706   4.231   2.922   3.427  0.1644  0.3482  0.6643
 1083SOL     OW14707   3.931   2.163   7.301  0.3522  0.5997 -0.4079
 1083SOL    HW114708   3.964   2.134   7.386 -2.0017 -0.4665  0.1417
 1083SOL    HW214709   4.012   2.209   7.277 -0.1087  1.4874 -0.2765
 1084SOL     OW14710   1.674   1.580   4.122  0.0035  0.1915  0.1964
 1084SOL    HW114711   1.660   1.577   4.217 -1.6694 -2.7047 -0.1302
 1084SOL    HW214712   1.765   1.555   4.101  0.4564  0.2829  2.0730
 1085SOL     OW14713   2.077   2.313   2.847  0.5197 -0.0332 -0.0537
 1085SOL    HW114714   1.987   2.281   2.858  0.6873 -0.7123 -0.6239
 1085SOL    HW214715   2.113   2.236   2.803  1.3585 -0.5110  1.4671
 1086SOL     OW14716   2.711   2.738   2.809 -0.6233  0.3336 -0.7451
 1086SOL    HW114717   2.658   2.679   2.755  2.0039 -2.9590  0.3252
 1086SOL    HW214718   2.670   2.717   2.892  2.3464  0.1597  0.6556
 1087SOL     OW14719   1.451   4.430   2.048  0.1497 -0.1271 -0.0376
 1087SOL    HW114720   1.412   4.380   1.976 -1.0192 -0.2341  0.6527
 1087SOL    HW214721   1.542   4.403   2.035  0.1541 -0.3013  0.3676
 1088SOL     OW14722   1.198   2.072   6.602 -0.3972  0.1198  0.4374
 1088SOL    HW114723   1.247   2.151   6.577 -0.7039 -0.0709 -0.7520
 1088SOL    HW214724   1.129   2.109   6.655 -3.1008 -0.2964 -2.8023
 1089SOL     OW14725   2.232   1.064   5.308  0.1289  0.4540  0.1842
 1089SOL    HW114726   2.268   1.016   5.382 -0.5649  0.0206  0.2381
 1089SOL    HW214727   2.280   1.145   5.327 -0.0426 -0.0566  2.6824
 1090SOL     OW14728   1.579   1.814  15.609 -0.2952  0.7750 -0.7991
 1090SOL    HW114729   1.601   1.901  15.640  1.2629  0.2813 -0.5390
 1090SOL    HW214730   1.635   1.816  15.531  1.0230 -0.5604  0.1283
 1091SOL     OW14731   1.231   3.690   8.384 -0.1013 -0.1976  0.1622
 1091SOL    HW114732   1.322   3.721   8.382 -0.8920  2.1247 -0.0943
 1091SOL    HW214733   1.250   3.621   8.321  0.3682  0.5222 -0.4876
 1092SOL     OW14734   0.168   4.443  12.984  0.5940 -0.1343  0.4297
 1092SOL    HW114735   0.184   4.380  12.914  0.1508 -0.1527  0.3445
 1092SOL    HW214736   0.079   4.473  12.966  0.5225  0.1685  1.2871
 1093SOL     OW14737   2.160   2.604  17.202 -0.9030  0.7946  0.0772
 1093SOL    HW114738   2.202   2.690  17.214 -2.1987  1.4954 -0.3833
 1093SOL    HW214739   2.112   2.619  17.121 -1.1366  0.6087  0.1820
 1094SOL     OW14740   1.242   1.798   3.844 -0.4799  0.0396 -0.1745
 1094SOL    HW114741   1.258   1.748   3.764  0.0774  1.3539 -0.8873
 1094SOL    HW214742   1.207   1.731   3.903 -0.0177  1.2800  1.4905
 1095SOL     OW14743   1.568   1.457   2.675 -0.2543  0.3569  0.1087
 1095SOL    HW114744   1.610   1.474   2.590  0.5819  0.0206  0.4509
 1095SOL    HW214745   1.488   1.407   2.662  0.7109 -0.9052 -0.9858
 1096SOL     OW14746   0.822   4.721   4.970  0.2162 -0.2212  0.1724
 1096SOL    HW114747   0.913   0.018   4.948  0.0980  1.0939  0.7725
 1096SOL    HW214748   0.797   4.633   4.941 -1.5136  0.0031  0.9592
 1097SOL     OW14749   1.411   2.138   4.850 -0.5189 -0.0184 -0.0262
 1097SOL    HW114750   1.427   2.171   4.939 -1.8048  2.8793 -0.8791
 1097SOL    HW214751   1.501   2.128   4.819 -0.5683  1.2158 -0.5366
 1098SOL     OW14752   3.165   3.358   0.243  0.2221  0.0482 -0.2276
 1098SOL    HW114753   3.194   3.339   0.333 -1.0239 -3.1025 -0.4770
 1098SOL    HW214754   3.161   3.266   0.215  2.1589  0.2012 -1.0513
 1099SOL     OW14755   1.149   1.099   4.820 -0.3938  0.2400  0.6568
 1099SOL    HW114756   1.174   1.059   4.903  2.1418  1.3354  0.4283
 1099SOL    HW214757   1.220   1.063   4.766 -1.1520 -1.6768  0.9160
 1100SOL     OW14758   2.726   2.832   8.753  0.6341  0.2046  0.3860
 1100SOL    HW114759   2.716   2.920   8.790  0.2064 -1.1448  3.4786
 1100SOL    HW214760   2.676   2.866   8.679 -1.6416  1.1858  2.3841
 1101SOL     OW14761   2.453   3.120  12.764  0.0879 -0.1975 -0.6574
 1101SOL    HW114762   2.463   3.057  12.835  1.2604 -0.4989 -1.0798
 1101SOL    HW214763   2.541   3.146  12.737  0.0757  1.1411  0.5983
 1102SOL     OW14764   3.849   3.100   6.404  0.3619 -0.7357 -0.5762
 1102SOL    HW114765   3.791   3.157   6.455  1.2373  2.7056 -3.4166
 1102SOL    HW214766   3.873   3.152   6.327 -0.6500  1.6002  0.6698
 1103SOL     OW14767   0.432   4.701   9.884  0.2565 -0.9489 -0.1964
 1103SOL    HW114768   0.441   4.717   9.790 -1.7208 -0.2889 -0.2792
 1103SOL    HW214769   0.395   0.064   9.910  0.8540 -0.6086 -0.4537
 1104SOL     OW14770   3.967   2.240   2.584  0.4471 -0.4425  0.2881
 1104SOL    HW114771   3.973   2.144   2.592 -2.0882 -0.7362 -1.1819
 1104SOL    HW214772   4.059   2.266   2.578  0.6365 -0.5226  2.9826
 1105SOL     OW14773   3.332   0.320   9.497 -0.3863  0.3380  0.6794
 1105SOL    HW114774   3.372   0.388   9.442 -0.0925 -0.4113 -0.0231
 1105SOL    HW214775   3.244   0.352   9.515 -0.9776 -1.9487  1.8325
 1106SOL     OW14776   3.960   0.751   7.884 -0.5082 -0.6410  0.2204
 1106SOL    HW114777   3.902   0.705   7.944 -1.1909  0.3446  0.3184
 1106SOL    HW214778   3.927   0.841   7.879  0.4362 -0.1794  2.2674
 1107SOL     OW14779   0.642   2.184   7.752  0.7598 -0.5044 -0.1132
 1107SOL    HW114780   0.653   2.089   7.755 -0.5379 -0.7093 -1.8384
 1107SOL    HW214781   0.695   2.225   7.820  1.0664  0.1211 -0.7214
 1108SOL     OW14782   4.079   2.592   3.915  0.2359 -0.8991  0.0421
 1108SOL    HW114783   4.088   2.535   3.838 -0.5526  0.8992 -1.3713
 1108SOL    HW214784   3.991   2.573   3.948 -0.8052  1.2738 -1.4761
 1109SOL     OW14785   4.699   1.872  10.661 -0.3238 -0.2313  0.3896
 1109SOL    HW114786   0.024   1.856  10.579  1.2347  1.3411  0.9433
 1109SOL    HW214787   4.615   1.905  10.629  0.8523 -0.7508 -3.2184
 1110SOL     OW14788   2.307   4.016   9.405 -0.9261 -0.3720  0.0242
 1110SOL    HW114789   2.359   3.941   9.431 -1.4510 -0.7735 -0.0786
 1110SOL    HW214790   2.368   4.089   9.413 -0.4083 -0.7420 -0.5709
 1111SOL     OW14791   3.918   2.659   6.304  0.0463 -0.0133 -0.3326
 1111SOL    HW114792   3.991   2.601   6.280  0.6332  1.4596 -2.0901
 1111SOL    HW214793   3.956   2.708   6.376  0.1052 -1.1932  0.4487
 1112SOL     OW14794   0.007   3.256  16.984  0.0664 -0.5191 -0.1176
 1112SOL    HW114795   0.022   3.312  16.908 -0.9575  1.4563  1.1619
 1112SOL    HW214796   0.082   3.195  16.984 -1.3227 -2.2053  1.9675
 1113SOL     OW14797   4.101   1.296  14.621 -1.0050  0.4044 -0.2416
 1113SOL    HW114798   4.124   1.311  14.712 -0.8977  1.2510 -0.4027
 1113SOL    HW214799   4.034   1.364  14.616  0.2405  1.6419 -0.0459
 1114SOL     OW14800   0.975   1.443  10.967 -0.1036 -0.0428 -0.0574
 1114SOL    HW114801   0.905   1.385  10.940 -0.3626  0.0799  0.3475
 1114SOL    HW214802   0.927   1.523  10.990  0.6539  1.1360 -2.6263
 1115SOL     OW14803   0.096   2.406   3.870 -0.0403  0.2411 -0.3293
 1115SOL    HW114804   0.062   2.355   3.797 -1.9500  0.6262  0.2906
 1115SOL    HW214805   0.173   2.454   3.841 -1.8159  2.9004 -0.6147
 1116SOL     OW14806   2.682   3.181   4.777 -0.6232  0.1610 -0.2669
 1116SOL    HW114807   2.591   3.161   4.799 -1.2751  0.4063 -2.8184
 1116SOL    HW214808   2.723   3.096   4.791 -1.1678 -0.0862 -0.1804
 1117SOL     OW14809   2.216   2.738   4.636  0.6741  0.5448  0.6011
 1117SOL    HW114810   2.279   2.723   4.706  1.4623  0.2850 -0.1490
 1117SOL    HW214811   2.266   2.708   4.560  1.2105 -0.1224  1.2171
 1118SOL     OW14812   0.669   4.233   9.414  0.1337  0.1123 -0.1053
 1118SOL    HW114813   0.721   4.153   9.416 -0.6254 -0.3759  0.5184
 1118SOL    HW214814   0.633   4.239   9.503 -1.5146  1.4711 -0.8753
 1119SOL     OW14815   2.873   3.873   3.243 -0.3050 -0.2926 -0.3876
 1119SOL    HW114816   2.798   3.818   3.221  0.7550 -0.3295 -3.9544
 1119SOL    HW214817   2.898   3.921   3.163 -0.0832  1.6418  0.8357
 1120SOL     OW14818   3.033   2.350   8.570 -0.2209  0.2570 -0.2119
 1120SOL    HW114819   3.070   2.437   8.559  1.2005 -0.5692 -2.0381
 1120SOL    HW214820   2.953   2.378   8.614  0.0078  0.6811 -0.0682
 1121SOL     OW14821   0.930   3.955   7.192 -0.0501 -0.3120  0.2537
 1121SOL    HW114822   1.012   3.967   7.143 -0.7094  1.6242 -0.3619
 1121SOL    HW214823   0.965   3.886   7.249  1.4442  2.5054  2.7551
 1122SOL     OW14824   2.342   3.288   6.835 -0.1678 -0.1662 -0.3740
 1122SOL    HW114825   2.288   3.354   6.880  1.8588  1.0151  0.2884
 1122SOL    HW214826   2.274   3.220   6.837  1.3687 -1.5913  2.4284
 1123SOL     OW14827   3.702   3.952   7.624  0.1036 -0.3375 -0.9690
 1123SOL    HW114828   3.689   4.013   7.696  0.0476 -1.8482  0.2868
 1123SOL    HW214829   3.614   3.964   7.587 -0.7342  0.1744  1.2105
 1124SOL     OW14830   3.979   2.477   2.971  0.3326  0.8651  0.5077
 1124SOL    HW114831   4.028   2.403   3.006 -0.2396  0.6256  0.8015
 1124SOL    HW214832   4.042   2.547   2.991  1.3019  0.0491  0.3029
 1125SOL     OW14833   3.257   1.200   8.474 -0.0313 -0.1402  0.0794
 1125SOL    HW114834   3.314   1.244   8.537 -1.1874  0.7880  0.4786
 1125SOL    HW214835   3.311   1.121   8.470 -0.9382 -0.7350 -0.5468
 1126SOL     OW14836   1.260   2.967   4.705 -0.2712 -0.0312  0.2337
 1126SOL    HW114837   1.262   3.050   4.753  0.2936  0.0900 -0.0003
 1126SOL    HW214838   1.292   2.902   4.768 -1.0182 -1.0425 -0.4413
 1127SOL     OW14839   2.972   4.360   8.003  0.1705 -0.2726 -0.1238
 1127SOL    HW114840   2.940   4.384   7.916 -1.8123  0.0484  0.6940
 1127SOL    HW214841   2.955   4.448   8.038 -2.8761 -0.6218 -0.6822
 1128SOL     OW14842   1.689   0.247   8.472  0.0428 -0.3714 -0.4938
 1128SOL    HW114843   1.663   0.298   8.549  1.1128 -0.9600  0.2603
 1128SOL    HW214844   1.752   0.183   8.505  0.5497 -0.0012 -0.7344
 1129SOL     OW14845   1.650   4.276  17.450 -0.0907  0.4416 -0.2235
 1129SOL    HW114846   1.636   4.347  17.512 -1.0022 -0.0762  0.1714
 1129SOL    HW214847   1.561   4.258  17.421 -0.4188 -0.0579  1.0985
 1130SOL     OW14848   2.215   0.532   8.322 -0.0772 -0.4290  0.0556
 1130SOL    HW114849   2.289   0.491   8.276 -1.5234  0.4946 -3.1501
 1130SOL    HW214850   2.257   0.582   8.391 -1.3889  0.2891  0.3250
 1131SOL     OW14851   2.393   0.490   1.612 -0.3618 -0.2194 -0.0457
 1131SOL    HW114852   2.300   0.497   1.589  0.0763  0.0628 -1.7802
 1131SOL    HW214853   2.407   0.569   1.665 -0.1122  0.3532 -0.9481
 1132SOL     OW14854   1.282   2.769   3.266 -0.5597 -0.2174  0.1379
 1132SOL    HW114855   1.220   2.729   3.205 -0.0542  0.2355 -0.6739
 1132SOL    HW214856   1.237   2.850   3.289  0.8678  0.2225  1.4115
 1133SOL     OW14857   1.542   1.491  12.831 -0.0792  0.2615 -0.0677
 1133SOL    HW114858   1.568   1.401  12.813 -4.8124 -0.8764 -1.1299
 1133SOL    HW214859   1.499   1.491  12.916 -2.3633 -0.6354 -1.2334
 1134SOL     OW14860   1.405   0.852   7.418 -0.8156 -0.2785 -0.2272
 1134SOL    HW114861   1.423   0.929   7.472  1.1792  0.1506 -1.5031
 1134SOL    HW214862   1.357   0.886   7.343  1.3892  0.0595 -1.4950
 1135SOL     OW14863   0.122   1.140   4.671 -0.2512  0.2242 -0.3340
 1135SOL    HW114864   0.189   1.196   4.634 -0.9834  2.5274  1.8923
 1135SOL    HW214865   0.138   1.049   4.643 -1.1797  0.1797 -0.7516
 1136SOL     OW14866   0.310   3.251  14.297 -0.0921 -0.1065 -0.3459
 1136SOL    HW114867   0.296   3.344  14.279  0.1471  0.3834  2.0498
 1136SOL    HW214868   0.405   3.242  14.307 -0.3159 -0.0382  1.9156
 1137SOL     OW14869   3.415   4.168   5.495 -0.5938 -0.2565  0.4337
 1137SOL    HW114870   3.326   4.133   5.505 -0.2910 -1.3194 -0.6715
 1137SOL    HW214871   3.434   4.201   5.583 -1.5862  0.3814  0.4052
 1138SOL     OW14872   0.327   3.804   0.115 -0.0919 -0.2412  0.4869
 1138SOL    HW114873   0.421   3.801   0.134  0.2744 -0.1541 -1.2650
 1138SOL    HW214874   0.286   3.736   0.168 -2.4802  1.5641  0.9628
 1139SOL     OW14875   2.253   1.222  15.878 -0.3067 -0.0486 -0.4569
 1139SOL    HW114876   2.296   1.302  15.846  0.6990 -0.6986 -0.7349
 1139SOL    HW214877   2.162   1.250  15.885 -0.3498  0.5876 -3.3040
 1140SOL     OW14878   3.828   0.497   3.392 -0.1532  0.5933 -0.1492
 1140SOL    HW114879   3.910   0.449   3.376 -0.2061  0.6858 -0.7122
 1140SOL    HW214880   3.808   0.532   3.305 -1.0607  1.5261  0.4444
 1141SOL     OW14881   2.296   1.326  15.311  0.1730  0.5458  0.4606
 1141SOL    HW114882   2.283   1.261  15.379  0.5086  0.5064  0.4848
 1141SOL    HW214883   2.299   1.405  15.365  0.3881  1.6635 -1.1660
 1142SOL     OW14884   4.038   1.394  12.020  0.0187  0.1451  0.0024
 1142SOL    HW114885   4.048   1.433  11.933  1.5590  0.0975  0.1671
 1142SOL    HW214886   4.090   1.453  12.074 -1.5288  0.0581  1.6059
 1143SOL     OW14887   3.295   4.272  11.563 -0.2913  0.0599  0.4809
 1143SOL    HW114888   3.335   4.214  11.498 -0.4711 -0.1538  0.5614
 1143SOL    HW214889   3.286   4.353  11.512 -3.3521 -0.4183  0.2749
 1144SOL     OW14890   1.450   2.811   7.217  0.2725 -0.4612  0.0147
 1144SOL    HW114891   1.543   2.819   7.238 -0.2780  0.4976  2.0783
 1144SOL    HW214892   1.419   2.787   7.304  0.9911  0.6121  0.5554
 1145SOL     OW14893   2.650   2.672   8.162  0.0186 -0.0238  0.1273
 1145SOL    HW114894   2.648   2.590   8.210 -1.2126  1.2712  2.2917
 1145SOL    HW214895   2.730   2.710   8.196 -0.3015  1.5612 -0.8856
 1146SOL     OW14896   3.969   2.403  11.109 -0.0942 -0.0016 -0.2222
 1146SOL    HW114897   3.905   2.393  11.178  0.3130 -1.7247 -0.1028
 1146SOL    HW214898   3.946   2.483  11.060  0.2783  0.5893  0.5636
 1147SOL     OW14899   1.287   2.111  10.643 -0.2713  0.2703 -0.0076
 1147SOL    HW114900   1.322   2.145  10.725 -0.1066 -1.1196  0.4999
 1147SOL    HW214901   1.312   2.186  10.588 -1.6596  0.2246 -0.6995
 1148SOL     OW14902   2.803   1.250  17.322 -0.0794 -0.6025 -0.3082
 1148SOL    HW114903   2.730   1.246  17.261 -1.2646  0.6089  1.0329
 1148SOL    HW214904   2.773   1.201  17.399 -0.3839  0.9317  0.5482
 1149SOL     OW14905   1.555   4.285   4.174 -0.0406  0.5603 -0.1351
 1149SOL    HW114906   1.620   4.215   4.171 -2.1140 -1.3078 -0.4861
 1149SOL    HW214907   1.483   4.264   4.115  0.1163 -0.6341  0.1126
 1150SOL     OW14908   2.686   0.523   8.556  0.5530  0.0294  0.5272
 1150SOL    HW114909   2.723   0.611   8.550  2.2210 -0.5769  1.9724
 1150SOL    HW214910   2.724   0.496   8.639 -2.4992 -0.1163  1.8615
 1151SOL     OW14911   1.124   3.836   2.829 -0.0957 -0.2861  0.0537
 1151SOL    HW114912   1.154   3.926   2.819 -1.7703  0.2523 -0.1125
 1151SOL    HW214913   1.126   3.801   2.740 -2.6147 -0.5000  0.0880
 1152SOL     OW14914   3.143   4.383   4.267 -0.2964 -0.4356 -0.7220
 1152SOL    HW114915   3.174   4.344   4.349 -2.8415 -0.4510  0.2483
 1152SOL    HW214916   3.163   4.475   4.280  1.2573 -0.8263 -0.2739
 1153SOL     OW14917   2.180   0.398  11.555  0.2047 -0.0244 -0.5620
 1153SOL    HW114918   2.099   0.449  11.546 -1.1670 -2.1992 -0.4624
 1153SOL    HW214919   2.233   0.454  11.499  1.1643 -0.0536  0.3364
 1154SOL     OW14920   3.631   0.215   8.956  0.0184 -0.1516  0.5998
 1154SOL    HW114921   3.725   0.196   8.957  0.1869  0.5883 -1.4773
 1154SOL    HW214922   3.626   0.260   9.040 -0.3035  1.2286 -0.1678
 1155SOL     OW14923   0.919   3.734  16.323 -0.0061  0.0008  0.0206
 1155SOL    HW114924   0.995   3.758  16.269  0.6121 -1.6451  0.1529
 1155SOL    HW214925   0.898   3.655  16.275 -2.8346  0.3992  0.6274
 1156SOL     OW14926   4.314   4.194  17.102 -0.1491 -0.3560 -0.3671
 1156SOL    HW114927   4.231   4.229  17.071  0.2882  2.0425  1.1431
 1156SOL    HW214928   4.277   4.150  17.179 -2.2904  0.5684 -0.8705
 1157SOL     OW14929   0.706   0.863   4.106  0.0826 -0.2144  0.5371
 1157SOL    HW114930   0.714   0.809   4.027  0.0818  1.5779 -0.7059
 1157SOL    HW214931   0.786   0.839   4.153  0.9357  0.8087 -0.3705
 1158SOL     OW14932   2.038   4.490   4.791 -0.2247 -0.2601 -0.1111
 1158SOL    HW114933   2.121   4.505   4.745  0.3740  0.3501  1.1565
 1158SOL    HW214934   2.007   4.580   4.798 -1.5384 -0.7468  0.2539
 1159SOL     OW14935   2.876   3.348  10.798  0.0062  0.1854 -0.2366
 1159SOL    HW114936   2.915   3.359  10.711 -0.6855  0.9841 -0.4576
 1159SOL    HW214937   2.888   3.439  10.826 -0.2441  0.2721 -0.4024
 1160SOL     OW14938   3.043   3.147   4.029 -0.1474 -0.5349 -0.3622
 1160SOL    HW114939   2.955   3.116   4.009  0.0667 -1.7927  0.6870
 1160SOL    HW214940   3.047   3.225   3.973  2.0373 -0.3121  0.0845
 1161SOL     OW14941   3.069   0.393   9.172  0.9456  0.2057 -0.2565
 1161SOL    HW114942   2.977   0.393   9.144  1.0165 -0.8089 -0.4823
 1161SOL    HW214943   3.059   0.312   9.222  2.3852 -0.6213 -1.3174
 1162SOL     OW14944   1.871   2.011   5.768 -0.5954 -0.5736 -0.0098
 1162SOL    HW114945   1.942   2.039   5.709 -1.4775 -2.2872 -1.9145
 1162SOL    HW214946   1.889   1.919   5.788  1.3969  0.2591  2.0489
 1163SOL     OW14947   1.393   1.816  15.810 -0.0385  0.1100 -0.6425
 1163SOL    HW114948   1.379   1.909  15.794  3.5010  0.5345 -1.2443
 1163SOL    HW214949   1.453   1.788  15.741 -1.3803 -1.4217 -1.1867
 1164SOL     OW14950   3.642   0.551   4.623 -0.4045 -0.4584  0.6606
 1164SOL    HW114951   3.594   0.500   4.687 -0.5110 -0.1717  0.8114
 1164SOL    HW214952   3.698   0.483   4.586 -0.3556 -0.6882  1.1629
 1165SOL     OW14953   0.905   4.322   6.589  0.3199  0.4763  0.5056
 1165SOL    HW114954   0.903   4.236   6.630 -1.9619 -0.4222 -1.4324
 1165SOL    HW214955   0.993   4.358   6.601  0.0720  0.3924  2.5173
 1166SOL     OW14956   3.630   0.505   4.277 -0.1540 -0.2133 -0.2327
 1166SOL    HW114957   3.653   0.438   4.341  0.0270  0.8706  0.8301
 1166SOL    HW214958   3.677   0.579   4.316 -1.1003  0.4264 -0.3154
 1167SOL     OW14959   0.551   1.959   2.019  0.2426  0.2191 -0.4493
 1167SOL    HW114960   0.644   1.939   2.018 -0.0178 -0.8881 -2.5241
 1167SOL    HW214961   0.531   1.915   2.101 -3.1711  0.5732 -1.0513
 1168SOL     OW14962   2.281   0.654   7.713  0.0930 -0.0316  0.3619
 1168SOL    HW114963   2.261   0.715   7.642 -0.6796 -2.3838 -1.4453
 1168SOL    HW214964   2.313   0.708   7.784  2.2081  0.6406 -1.1068
 1169SOL     OW14965   3.334   2.842  13.649  0.4795 -0.1427  0.0121
 1169SOL    HW114966   3.369   2.828  13.737  1.2066 -1.2168 -0.4472
 1169SOL    HW214967   3.394   2.914  13.629  0.1414 -0.0938 -0.8552
 1170SOL     OW14968   3.747   3.911   3.690 -0.2494  0.0876 -0.1477
 1170SOL    HW114969   3.667   3.863   3.666  0.0109 -0.5299  0.2130
 1170SOL    HW214970   3.813   3.848   3.660  0.1491  0.6471 -0.4392
 1171SOL     OW14971   0.938   2.534   3.639 -0.8217 -0.3698  0.4636
 1171SOL    HW114972   0.864   2.494   3.594  0.4515  0.4748 -2.4130
 1171SOL    HW214973   0.907   2.534   3.730  0.3926  0.9639  0.8815
 1172SOL     OW14974   0.588   1.940   5.976  0.3562 -0.6352 -0.2543
 1172SOL    HW114975   0.555   1.952   6.065  2.2107  2.4884 -0.0091
 1172SOL    HW214976   0.621   2.030   5.972  0.9993 -0.7289  2.7869
 1173SOL     OW14977   2.189   0.967   0.710 -0.3058  0.1637 -0.2336
 1173SOL    HW114978   2.174   0.930   0.623  1.1812 -1.1429  0.0555
 1173SOL    HW214979   2.270   0.919   0.727 -0.6711  0.2026  1.5752
 1174SOL     OW14980   0.404   0.599   3.048 -0.5342  0.1213  0.1922
 1174SOL    HW114981   0.379   0.682   3.089  0.7845 -0.3297  1.9142
 1174SOL    HW214982   0.496   0.609   3.025 -0.1914 -1.1040  1.0194
 1175SOL     OW14983   0.094   0.280   8.239 -0.9676  0.2844  0.5606
 1175SOL    HW114984   0.158   0.271   8.169  0.6184  0.9718  1.9273
 1175SOL    HW214985   0.122   0.209   8.295  2.0834 -0.4207 -1.8771
 1176SOL     OW14986   0.798   4.153   8.996  0.6700 -0.5784  0.1746
 1176SOL    HW114987   0.829   4.233   9.038 -1.0120  1.0768 -1.6987
 1176SOL    HW214988   0.871   4.137   8.936 -0.2714  0.1526 -1.1743
 1177SOL     OW14989   0.590   0.875   7.403  0.0463 -0.1297 -0.3513
 1177SOL    HW114990   0.682   0.889   7.423 -0.5809  1.9265  1.0738
 1177SOL    HW214991   0.584   0.935   7.329  1.9201  0.0201 -0.3879
 1178SOL     OW14992   3.193   3.627  13.067  0.2796 -0.2698 -0.2840
 1178SOL    HW114993   3.264   3.692  13.072 -1.0651  1.2065 -0.5074
 1178SOL    HW214994   3.225   3.569  13.136  2.5030 -0.5880 -1.5669
 1179SOL     OW14995   1.638   2.028  11.394 -0.4107  0.2925  0.0300
 1179SOL    HW114996   1.558   2.022  11.445 -1.1316  0.3457 -1.1009
 1179SOL    HW214997   1.659   1.937  11.412  0.9689  0.8118  1.0604
 1180SOL     OW14998   3.921   2.878  10.855  0.3288  0.4347 -0.5014
 1180SOL    HW114999   3.961   2.941  10.914  2.5816  1.0038 -2.6341
 1180SOL    HW215000   3.845   2.925  10.820  0.3606  0.2465 -0.8285
 1181SOL     OW15001   1.214   4.133   4.889 -0.4056  0.2290 -0.1209
 1181SOL    HW115002   1.147   4.199   4.909 -0.1612  0.6331 -0.6495
 1181SOL    HW215003   1.292   4.182   4.917 -0.0816  0.7063 -1.8669
 1182SOL     OW15004   4.552   1.806  11.959  0.1021  0.1377  0.8866
 1182SOL    HW115005   4.530   1.899  11.955  1.0979  0.4102  1.7790
 1182SOL    HW215006   4.647   1.816  11.966  0.5874 -0.7791 -4.4546
 1183SOL     OW15007   4.436   3.874   1.790 -0.7777  0.0411  0.2600
 1183SOL    HW115008   4.529   3.892   1.808 -1.0973 -0.4521  2.4543
 1183SOL    HW215009   4.448   3.844   1.700  1.6807 -0.9773  0.9140
 1184SOL     OW15010   1.724   3.309   7.028  0.0185 -0.7637 -0.1210
 1184SOL    HW115011   1.696   3.400   7.016  0.2970 -0.7991 -1.0393
 1184SOL    HW215012   1.657   3.262   7.079 -1.0112  0.3098 -0.4828
 1185SOL     OW15013   0.104   2.362   6.566  0.6597  0.4338 -0.2667
 1185SOL    HW115014   0.169   2.419   6.525 -0.6120  3.1848  1.5204
 1185SOL    HW215015   0.023   2.409   6.547  0.5609 -0.8391 -2.9012
 1186SOL     OW15016   4.061   2.596   6.949 -0.2842 -0.5256  0.2831
 1186SOL    HW115017   4.132   2.631   6.895 -1.4200  0.4787 -0.5615
 1186SOL    HW215018   4.079   2.634   7.035  1.6715  0.9467 -0.7612
 1187SOL     OW15019   1.091   0.800   9.841 -0.3165 -0.2649  0.0492
 1187SOL    HW115020   1.120   0.722   9.888  0.7550  0.2642  0.2587
 1187SOL    HW215021   1.095   0.766   9.751 -0.3720  0.3703 -0.1920
 1188SOL     OW15022   3.170   2.128   5.685 -0.4400 -0.9984 -0.0158
 1188SOL    HW115023   3.078   2.103   5.685 -0.5920 -0.5043  3.2799
 1188SOL    HW215024   3.201   2.058   5.628  0.2216 -0.5392 -0.2148
 1189SOL     OW15025   0.812   0.393   7.503  0.0483  0.5926 -0.2217
 1189SOL    HW115026   0.836   0.320   7.561  1.5344  0.4008 -1.0770
 1189SOL    HW215027   0.772   0.352   7.426  1.9021 -0.5015 -0.6082
 1190SOL     OW15028   2.199   1.867   2.173  0.0579 -0.1998  0.4197
 1190SOL    HW115029   2.107   1.851   2.195 -0.6696  1.6454 -1.3820
 1190SOL    HW215030   2.218   1.819   2.093  1.0711  0.4232  0.2940
 1191SOL     OW15031   0.358   2.035  10.891  0.1380 -0.3710 -0.0192
 1191SOL    HW115032   0.410   2.021  10.970  2.8810  0.2751 -1.7076
 1191SOL    HW215033   0.283   1.977  10.903  1.1068 -1.7414 -0.7301
 1192SOL     OW15034   4.635   3.363   0.697 -0.3707  0.7583 -0.1367
 1192SOL    HW115035   4.706   3.409   0.742 -3.1028  4.1974  0.6336
 1192SOL    HW215036   4.579   3.432   0.662  0.6585  2.6321  1.9805
 1193SOL     OW15037   2.802   3.014   3.994  0.3578  0.2106  0.0647
 1193SOL    HW115038   2.762   2.927   3.991 -0.3850  0.5564 -0.0351
 1193SOL    HW215039   2.737   3.061   3.941  0.4492  1.3398  0.9676
 1194SOL     OW15040   1.783   3.230  16.471  0.4303  0.1722  0.5424
 1194SOL    HW115041   1.704   3.182  16.444  1.2420  0.5860 -2.4628
 1194SOL    HW215042   1.750   3.307  16.516 -1.0441  1.1309 -2.2079
 1195SOL     OW15043   4.447   2.175   5.024  0.5416  0.0932 -0.0592
 1195SOL    HW115044   4.507   2.234   5.070  2.3176 -1.8445  0.1044
 1195SOL    HW215045   4.508   2.101   5.018 -1.0462 -1.3593  1.5621
 1196SOL     OW15046   2.318   3.044   9.283 -0.1273 -0.1903  0.3058
 1196SOL    HW115047   2.394   3.102   9.282  0.1417 -0.5545 -0.4905
 1196SOL    HW215048   2.253   3.107   9.252 -0.1252  0.4978  1.7208
 1197SOL     OW15049   0.952   4.105   4.235 -0.8664  0.0471  0.2072
 1197SOL    HW115050   1.042   4.116   4.265 -1.2459  1.4961  0.8086
 1197SOL    HW215051   0.972   4.025   4.185  0.2006 -0.3371  1.2532
 1198SOL     OW15052   0.119   2.095   7.434  0.7716 -0.2853  0.2876
 1198SOL    HW115053   0.079   2.062   7.353  0.7192  3.2956 -1.1062
 1198SOL    HW215054   0.074   2.039   7.497  0.1529 -0.9397 -0.7286
 1199SOL     OW15055   1.886   2.542  15.118 -0.0794  0.3718  0.3659
 1199SOL    HW115056   1.895   2.590  15.200 -0.6280  0.1980  0.5283
 1199SOL    HW215057   1.976   2.543  15.085 -0.0059  2.5210  0.6031
 1200SOL     OW15058   0.884   0.053   9.148 -0.1493  0.3372 -0.2598
 1200SOL    HW115059   0.976   0.029   9.142  0.2156  1.1602  2.0470
 1200SOL    HW215060   0.851   0.018   9.065 -0.9776 -0.5808  0.4533
 1201SOL     OW15061   3.369   0.675  10.126  0.5520  0.0859  0.4749
 1201SOL    HW115062   3.408   0.747  10.077 -1.8289 -0.6740 -2.5118
 1201SOL    HW215063   3.366   0.610  10.056 -0.2450 -0.9430  1.4636
 1202SOL     OW15064   1.318   2.569  13.703 -0.4476 -0.7278  0.2970
 1202SOL    HW115065   1.370   2.572  13.623 -2.5244  0.0477 -1.0153
 1202SOL    HW215066   1.238   2.619  13.685  0.4090 -0.0809 -1.7610
 1203SOL     OW15067   4.049   3.110   5.436  0.1232 -0.5349 -0.5612
 1203SOL    HW115068   4.143   3.101   5.426  0.5078  2.6609  0.2109
 1203SOL    HW215069   4.018   3.051   5.367 -2.5735 -0.0233  0.2156
 1204SOL     OW15070   3.892   0.460   8.868  0.4817 -0.4889 -0.1795
 1204SOL    HW115071   3.977   0.497   8.841  0.2325  0.8419  0.8575
 1204SOL    HW215072   3.913   0.378   8.911 -2.2753  0.3570  2.7211
 1205SOL     OW15073   1.190   2.843   6.548 -0.3550  0.2075  0.7395
 1205SOL    HW115074   1.203   2.791   6.468 -0.1777  1.8870 -0.3217
 1205SOL    HW215075   1.246   2.794   6.609 -0.3491 -0.7011  0.0123
 1206SOL     OW15076   4.203   3.270   9.592 -0.1554 -0.0128 -0.0298
 1206SOL    HW115077   4.291   3.234   9.578  0.7715  2.0073  0.6025
 1206SOL    HW215078   4.205   3.309   9.679 -0.2840 -1.8219  0.7830
 1207SOL     OW15079   1.784   4.380   6.820 -0.1277  0.1650  0.1808
 1207SOL    HW115080   1.870   4.372   6.861 -0.1866  1.6345  0.5702
 1207SOL    HW215081   1.745   4.297   6.848  0.2683  0.7048  2.3676
 1208SOL     OW15082   0.952   0.920   9.115 -0.1381  0.1673 -0.1703
 1208SOL    HW115083   0.989   1.003   9.146 -0.5893  0.2402  0.1622
 1208SOL    HW215084   1.016   0.857   9.146  2.5415  2.7945 -0.3407
 1209SOL     OW15085   0.276   1.635   5.936 -0.4337  0.5687  0.7838
 1209SOL    HW115086   0.217   1.682   5.996  0.2748  1.0931  1.0695
 1209SOL    HW215087   0.311   1.701   5.876  1.2779  0.1983  1.3940
 1210SOL     OW15088   1.832   0.680  12.898 -0.1224  0.0254 -0.0535
 1210SOL    HW115089   1.750   0.730  12.902  0.2460  0.5657  0.8357
 1210SOL    HW215090   1.873   0.698  12.814  0.5267 -0.3400  0.1908
 1211SOL     OW15091   3.800   3.240   5.104  0.6035 -0.1734 -0.1630
 1211SOL    HW115092   3.884   3.220   5.063  1.5419  3.8608 -0.2559
 1211SOL    HW215093   3.818   3.193   5.186 -0.4826 -1.9818 -0.9807
 1212SOL     OW15094   3.632   3.345   7.840  0.1307  0.1370 -0.4963
 1212SOL    HW115095   3.641   3.308   7.927  0.2257 -0.8518 -0.9241
 1212SOL    HW215096   3.650   3.437   7.860  2.4007 -0.1963 -0.9733
 1213SOL     OW15097   4.304   2.496   8.909  0.1916 -0.4063 -0.4498
 1213SOL    HW115098   4.225   2.547   8.894  0.3456 -0.4720 -1.5116
 1213SOL    HW215099   4.312   2.433   8.837 -0.1076  2.3107 -2.8507
 1214SOL     OW15100   4.611   1.227   1.886 -0.1134 -0.2321 -0.0963
 1214SOL    HW115101   4.688   1.199   1.837 -0.5020 -0.2247 -0.7069
 1214SOL    HW215102   4.585   1.149   1.935  0.7444 -0.0543  0.6455
 1215SOL     OW15103   1.577   1.791   3.775 -0.3471 -0.1606  0.0306
 1215SOL    HW115104   1.561   1.885   3.771 -0.5924 -0.1102  1.8997
 1215SOL    HW215105   1.560   1.777   3.868  0.8726  0.5602  0.3742
 1216SOL     OW15106   0.021   4.155   5.948  0.0882 -0.2465  0.0298
 1216SOL    HW115107   0.064   4.103   5.879  0.0620 -0.7076  0.3584
 1216SOL    HW215108   4.697   4.222   5.896  1.2764  0.5554  0.0553
 1217SOL     OW15109   3.618   2.993  10.534 -0.0853 -0.0601 -0.0862
 1217SOL    HW115110   3.682   2.937  10.491 -0.8538 -0.5083 -0.6454
 1217SOL    HW215111   3.591   3.051  10.463  1.8725  0.4298 -0.4335
 1218SOL     OW15112   3.249   2.223  13.190 -0.6434  0.1487  0.0892
 1218SOL    HW115113   3.286   2.202  13.104  1.9983  0.6666  1.0826
 1218SOL    HW215114   3.157   2.197  13.190 -0.4730 -0.4424 -1.7033
 1219SOL     OW15115   4.582   0.302  14.303 -0.4800  0.0161 -0.2147
 1219SOL    HW115116   4.564   0.317  14.211 -1.2946  0.2861 -0.0067
 1219SOL    HW215117   4.502   0.327  14.349 -0.2785 -0.3865  0.3645
 1220SOL     OW15118   1.084   3.829   2.559  0.9954  0.1884  0.0881
 1220SOL    HW115119   1.178   3.830   2.539  1.4035  2.0244  2.0538
 1220SOL    HW215120   1.052   3.791   2.477 -0.0114 -1.1409  1.0942
 1221SOL     OW15121   2.026   2.456   4.822  0.5161 -0.0562  0.6431
 1221SOL    HW115122   1.978   2.538   4.832 -1.7731 -1.0025 -2.6225
 1221SOL    HW215123   1.951   2.397   4.834  1.5681 -1.6931 -0.8337
 1222SOL     OW15124   0.921   3.247  16.059  0.1989  0.0116  0.6354
 1222SOL    HW115125   0.952   3.220  15.973  1.3667  3.6127 -0.0479
 1222SOL    HW215126   1.003   3.237  16.107 -0.6896 -1.2282  1.9109
 1223SOL     OW15127   0.561   2.814   6.169  0.2342  0.3118  0.5150
 1223SOL    HW115128   0.495   2.783   6.107  1.0678  3.6434 -2.0189
 1223SOL    HW215129   0.535   2.761   6.244  1.3015 -1.4763 -0.4003
 1224SOL     OW15130   0.627   3.696   7.620 -0.0371  0.1637  0.0051
 1224SOL    HW115131   0.613   3.787   7.596  0.0851 -0.0512 -0.8579
 1224SOL    HW215132   0.561   3.664   7.559 -1.0929  1.3103  0.5498
 1225SOL     OW15133   0.363   3.577   6.667  0.2789 -0.4559  0.1737
 1225SOL    HW115134   0.405   3.658   6.697 -1.6173  0.6228 -0.0873
 1225SOL    HW215135   0.362   3.590   6.572  2.6664  1.6309  0.4425
 1226SOL     OW15136   1.915   4.610   0.872  0.2262  0.3256 -0.1579
 1226SOL    HW115137   2.010   4.603   0.869  0.0966 -2.4845  2.1223
 1226SOL    HW215138   1.891   4.528   0.828  0.1183 -0.0518  0.6150
 1227SOL     OW15139   1.362   3.442  16.608  0.0019  0.0158 -0.3271
 1227SOL    HW115140   1.362   3.493  16.689  1.1084 -0.0768 -0.2729
 1227SOL    HW215141   1.269   3.421  16.608 -0.1648  0.7643  0.4878
 1228SOL     OW15142   0.476   0.687   6.972  0.1450  0.2996 -0.2616
 1228SOL    HW115143   0.549   0.745   6.995 -0.1657  0.8120 -0.5487
 1228SOL    HW215144   0.518   0.604   6.992 -0.3073  0.1186 -0.0832
 1229SOL     OW15145   3.607   3.487   4.468  0.1630 -0.2014  0.4204
 1229SOL    HW115146   3.583   3.504   4.559  1.2625  1.4760  0.4050
 1229SOL    HW215147   3.699   3.464   4.479 -0.5346 -2.8166  0.6510
 1230SOL     OW15148   4.569   1.848  15.824 -0.0167 -0.2031 -0.3432
 1230SOL    HW115149   4.540   1.758  15.807 -2.0324  0.5068 -0.7144
 1230SOL    HW215150   4.484   1.893  15.827 -0.4763 -1.2711  1.9924
 1231SOL     OW15151   2.476   1.605   6.114 -0.2045 -0.2731 -0.1828
 1231SOL    HW115152   2.399   1.557   6.145  0.0186 -0.1291  0.6151
 1231SOL    HW215153   2.446   1.694   6.133 -0.0296 -0.8769  2.9282
 1232SOL     OW15154   3.150   1.711  17.585  0.8077 -0.0122 -0.4731
 1232SOL    HW115155   3.084   1.780  17.592 -1.1454 -1.8316 -0.9877
 1232SOL    HW215156   3.090   1.639  17.599 -0.4690  1.4839  1.8001
 1233SOL     OW15157   0.954   4.531   2.411  0.0546 -0.1616  0.1430
 1233SOL    HW115158   0.894   4.461   2.437 -0.7767  0.9570  1.1984
 1233SOL    HW215159   0.998   4.494   2.334 -1.0224 -2.0025  0.4038
 1234SOL     OW15160   1.410   1.037   5.354 -0.0364 -0.1346  0.5813
 1234SOL    HW115161   1.475   1.077   5.413  1.5350 -2.0748  0.1892
 1234SOL    HW215162   1.385   1.113   5.302 -1.1289 -0.9699 -0.1146
 1235SOL     OW15163   3.647   1.374   4.616 -0.0242  0.2091  0.2358
 1235SOL    HW115164   3.587   1.427   4.564  1.4514 -0.1042 -1.8196
 1235SOL    HW215165   3.603   1.289   4.621  2.0088 -0.9302 -1.5444
 1236SOL     OW15166   1.146   2.522  16.077  0.2538  0.5178 -0.3375
 1236SOL    HW115167   1.099   2.594  16.118 -1.2370 -1.9581  2.2693
 1236SOL    HW215168   1.129   2.452  16.139  1.8847  0.6502  0.2548
 1237SOL     OW15169   1.305   1.045  10.878 -0.6106  0.7771  0.0078
 1237SOL    HW115170   1.249   1.100  10.933 -1.1175  2.1998 -1.9329
 1237SOL    HW215171   1.386   1.060  10.926 -0.6127 -0.9161  0.5408
 1238SOL     OW15172   0.008   0.547  16.091 -0.3394 -0.4480 -0.4324
 1238SOL    HW115173   0.002   0.623  16.032 -2.1052  0.9108  1.5075
 1238SOL    HW215174   0.017   0.596  16.172  0.6956 -3.0661  1.0296
 1239SOL     OW15175   0.872   0.286   5.493 -0.1593  0.3401  0.0666
 1239SOL    HW115176   0.818   0.207   5.502 -1.0860  0.9827  0.0848
 1239SOL    HW215177   0.819   0.332   5.429 -1.5835  0.2418  1.1624
 1240SOL     OW15178   2.361   1.292  17.639  0.0085 -0.7086 -0.5013
 1240SOL    HW115179   2.428   1.224  17.650  3.0444  2.3780 -0.1150
 1240SOL    HW215180   2.306   1.272   0.028 -1.3026 -0.3534 -1.3538
 1241SOL     OW15181   2.933   0.423   2.815  0.0482  0.2615  0.4109
 1241SOL    HW115182   3.026   0.406   2.833  0.4631 -0.0137 -2.0144
 1241SOL    HW215183   2.931   0.517   2.827  1.6074  0.3769 -0.1740
 1242SOL     OW15184   1.085   1.940   8.795 -0.1094 -0.0673 -0.2670
 1242SOL    HW115185   1.000   1.973   8.824 -0.2868  1.1052 -2.1009
 1242SOL    HW215186   1.056   1.856   8.759  0.8257 -0.3877 -0.2699
 1243SOL     OW15187   0.355   3.325   5.492 -0.0833  0.6269 -0.5709
 1243SOL    HW115188   0.315   3.406   5.460 -1.4231  0.2998  0.3286
 1243SOL    HW215189   0.283   3.272   5.457  1.2209 -1.5594  0.0394
 1244SOL     OW15190   2.886   3.231   4.994  0.5229 -0.3125  0.0121
 1244SOL    HW115191   2.810   3.218   4.938  1.4400  1.6243 -1.6523
 1244SOL    HW215192   2.952   3.174   4.955  0.8401  1.2307 -1.6939
 1245SOL     OW15193   2.123   2.283   8.878  0.1882 -0.8385  0.1230
 1245SOL    HW115194   2.116   2.206   8.934 -0.3783 -0.9427 -0.0850
 1245SOL    HW215195   2.218   2.289   8.874  0.0314  1.5634  0.3673
 1246SOL     OW15196   1.940   4.430   7.525 -0.2706 -0.2510  0.1211
 1246SOL    HW115197   1.851   4.405   7.500  0.1299 -1.7167  0.1290
 1246SOL    HW215198   1.932   4.525   7.532 -1.3606 -0.4010  0.8794
 1247SOL     OW15199   0.130   2.660   7.564 -0.4151 -0.0002  0.7084
 1247SOL    HW115200   0.209   2.714   7.558 -0.5410  0.1139  0.0756
 1247SOL    HW215201   0.153   2.610   7.642  2.7824 -0.5287 -0.5594
 1248SOL     OW15202   3.174   4.272   5.947 -0.0728  0.3315 -0.4712
 1248SOL    HW115203   3.237   4.309   6.008  1.7482  1.0443 -2.7633
 1248SOL    HW215204   3.210   4.187   5.922  1.0123  1.1700 -1.7896
 1249SOL     OW15205   1.991   2.629   6.166 -0.2388  0.4303  0.4897
 1249SOL    HW115206   1.910   2.670   6.136 -1.2596 -1.7237  0.2877
 1249SOL    HW215207   1.956   2.544   6.195 -0.0128  0.5908  1.2294
 1250SOL     OW15208   3.556   2.854  14.448  0.1017 -0.1271 -0.1054
 1250SOL    HW115209   3.587   2.763  14.456 -1.3800 -0.5326  0.9932
 1250SOL    HW215210   3.475   2.847  14.500 -0.5955 -3.4264 -1.6158
 1251SOL     OW15211   3.703   2.078   0.238  0.0162 -0.3875  0.2412
 1251SOL    HW115212   3.744   2.120   0.315 -1.8987  1.2094  0.3910
 1251SOL    HW215213   3.664   2.155   0.198  2.4312  1.2051  0.8908
 1252SOL     OW15214   3.684   1.075   4.370 -0.4480 -0.2002  0.1690
 1252SOL    HW115215   3.614   1.063   4.307  0.4753  1.0785 -1.0888
 1252SOL    HW215216   3.633   1.085   4.451 -0.8665  1.5188 -0.3183
 1253SOL     OW15217   3.136   3.294   4.694 -0.2595  0.2894  0.8747
 1253SOL    HW115218   3.077   3.349   4.642 -0.9627  0.8589  2.2915
 1253SOL    HW215219   3.207   3.276   4.632 -2.2164  1.5031 -1.7193
 1254SOL     OW15220   4.680   1.159   4.282 -0.3297  0.1552 -0.1183
 1254SOL    HW115221   4.688   1.189   4.191  1.3789  1.1265  0.3426
 1254SOL    HW215222   4.658   1.237   4.332  1.0223  1.4048 -1.4606
 1255SOL     OW15223   3.789   3.951   9.944  0.1078 -0.3402 -0.2703
 1255SOL    HW115224   3.864   3.939  10.002  0.0173 -0.6136 -0.2101
 1255SOL    HW215225   3.782   4.047   9.941  0.1046 -0.3407 -0.2814
 1256SOL     OW15226   0.666   2.595   1.763 -0.0935 -0.5895  0.1039
 1256SOL    HW115227   0.637   2.560   1.847 -1.7398 -1.4098 -0.7992
 1256SOL    HW215228   0.608   2.670   1.752  0.9571  0.0453 -1.1874
 1257SOL     OW15229   1.136   4.326   3.538 -0.0342 -0.2590 -0.1260
 1257SOL    HW115230   1.168   4.246   3.579  2.1427  0.3841 -0.5491
 1257SOL    HW215231   1.217   4.376   3.525 -0.5910  1.5041  3.1063
 1258SOL     OW15232   0.766   0.042  12.957 -0.2761  0.3312  0.1843
 1258SOL    HW115233   0.692   0.065  12.902 -0.3877 -0.4559  0.0101
 1258SOL    HW215234   0.827   0.101  12.912  1.2499  0.0474  1.8784
 1259SOL     OW15235   3.191   0.326  12.508 -0.1209 -0.1652 -0.8826
 1259SOL    HW115236   3.134   0.305  12.433 -1.0321  0.1446 -0.2743
 1259SOL    HW215237   3.164   0.246  12.554 -0.8673  0.8330  0.4057
 1260SOL     OW15238   0.897   0.833   8.579 -0.0639  0.0392 -0.0907
 1260SOL    HW115239   0.943   0.869   8.655  1.0332 -1.1770 -0.1849
 1260SOL    HW215240   0.933   0.889   8.509 -0.7386  0.5826  0.0021
 1261SOL     OW15241   0.165   1.418  10.871  0.3286  0.3569  0.5757
 1261SOL    HW115242   0.201   1.487  10.815  0.5296  0.7970  1.2439
 1261SOL    HW215243   0.214   1.429  10.953 -0.5298 -0.2926  1.1713
 1262SOL     OW15244   0.904   2.433   3.253  0.1621 -0.5353  0.2630
 1262SOL    HW115245   0.952   2.372   3.310  1.5067  0.1116 -0.1880
 1262SOL    HW215246   0.963   2.424   3.178 -0.4098  0.3460 -0.2823
 1263SOL     OW15247   3.042   4.441   2.771 -0.0969  0.3774  0.0758
 1263SOL    HW115248   3.044   4.536   2.774  0.0386  0.3365  1.2300
 1263SOL    HW215249   3.134   4.431   2.745 -0.3949  0.1751 -0.8997
 1264SOL     OW15250   4.621   3.588   5.338 -0.6274  0.0879 -0.6568
 1264SOL    HW115251   4.675   3.564   5.263  2.8784 -0.4458  1.9911
 1264SOL    HW215252   4.660   3.662   5.386  1.8974 -2.3863  1.1387
 1265SOL     OW15253   0.448   2.394   2.386 -0.1976  0.0812  0.2154
 1265SOL    HW115254   0.541   2.381   2.367 -0.1911 -1.0918  1.0853
 1265SOL    HW215255   0.418   2.304   2.373 -0.0883  0.1892 -0.7885
 1266SOL     OW15256   3.535   0.801   7.790  0.0782  0.4256  0.8309
 1266SOL    HW115257   3.472   0.832   7.725 -0.1126 -2.4828 -0.3888
 1266SOL    HW215258   3.593   0.769   7.721 -1.2491  0.2019 -0.1735
 1267SOL     OW15259   2.294   2.999   1.159  0.1746  0.1852  0.4916
 1267SOL    HW115260   2.286   3.037   1.247 -1.0091 -2.1345  1.4043
 1267SOL    HW215261   2.359   3.061   1.125  1.0678 -0.8504  0.3154
 1268SOL     OW15262   2.564   3.456   9.285 -0.2693  0.2177  0.4303
 1268SOL    HW115263   2.481   3.496   9.257 -0.7110 -0.3902  0.8813
 1268SOL    HW215264   2.572   3.496   9.372 -0.0952  1.3945 -0.1190
 1269SOL     OW15265   3.702   2.233   1.481  0.2639  0.3671 -0.2104
 1269SOL    HW115266   3.763   2.234   1.554 -0.5542  0.9134  0.4568
 1269SOL    HW215267   3.696   2.137   1.475  0.7453  0.4153 -1.6874
 1270SOL     OW15268   4.039   2.424   5.950  0.4725  0.1233 -0.2599
 1270SOL    HW115269   3.951   2.391   5.964  1.7276 -2.0754  2.3935
 1270SOL    HW215270   4.018   2.516   5.934  1.3920  0.4973  0.6602
 1271SOL     OW15271   2.061   1.457   0.004 -0.3550  0.4994  0.8240
 1271SOL    HW115272   2.079   1.377   0.053  0.8067  1.1234  1.4235
 1271SOL    HW215273   2.077   1.414  17.607  1.5464  0.6919  1.1014
 1272SOL     OW15274   2.260   0.807  11.491 -0.1145 -0.2017 -0.0922
 1272SOL    HW115275   2.208   0.832  11.414  0.8004  1.3464 -0.2023
 1272SOL    HW215276   2.284   0.720  11.460 -1.4920 -1.9222  3.6677
 1273SOL     OW15277   3.553   2.712   4.540 -0.2482  0.3715  0.4956
 1273SOL    HW115278   3.460   2.734   4.534 -0.6046 -0.8726  1.6069
 1273SOL    HW215279   3.586   2.802   4.545 -0.4977  0.5578 -1.2751
 1274SOL     OW15280   3.873   3.222   2.807  0.5059 -0.2525 -0.0756
 1274SOL    HW115281   3.836   3.196   2.892 -0.9089  0.4166 -0.4885
 1274SOL    HW215282   3.884   3.315   2.825 -0.3150 -0.7948  3.2140
 1275SOL     OW15283   3.544   3.551   7.617  0.0433  0.2887  0.1296
 1275SOL    HW115284   3.523   3.460   7.640  1.2330  0.1525  0.6749
 1275SOL    HW215285   3.486   3.596   7.678 -0.8040 -2.4155  1.3416
 1276SOL     OW15286   1.816   2.076   6.835 -0.1694 -0.0051 -0.3082
 1276SOL    HW115287   1.881   2.146   6.832  1.0808 -1.1652 -0.6807
 1276SOL    HW215288   1.734   2.124   6.827  0.1489  0.7787  1.2291
 1277SOL     OW15289   1.504   3.684   4.396  0.8670 -0.5875  0.4235
 1277SOL    HW115290   1.593   3.713   4.375 -0.2691  1.6782 -1.3829
 1277SOL    HW215291   1.495   3.701   4.489 -2.2120  0.6554 -0.1111
 1278SOL     OW15292   0.536   2.785   8.522 -0.4534  0.2331  0.5118
 1278SOL    HW115293   0.536   2.732   8.442 -0.0978 -0.6156  1.0641
 1278SOL    HW215294   0.443   2.797   8.540 -0.2501  3.4899 -0.7291
 1279SOL     OW15295   3.018   2.502   4.964  0.2731  0.2417 -0.0418
 1279SOL    HW115296   2.935   2.463   4.939 -0.2859  1.5954 -0.3254
 1279SOL    HW215297   3.066   2.421   4.949 -2.0279 -0.7050 -2.2430
 1280SOL     OW15298   2.541   1.523   3.605 -0.1202  0.1192  0.1634
 1280SOL    HW115299   2.457   1.497   3.568  0.3479 -0.8707 -0.2103
 1280SOL    HW215300   2.533   1.619   3.610 -3.6220 -0.0689 -1.6569
 1281SOL     OW15301   1.421   2.492  11.639  0.4025 -0.3310  0.6283
 1281SOL    HW115302   1.364   2.442  11.698  1.1756 -1.5088  0.3807
 1281SOL    HW215303   1.365   2.569  11.629 -0.0270 -0.5804  1.1224
 1282SOL     OW15304   3.156   2.128  12.100 -0.5806  0.5875  0.5849
 1282SOL    HW115305   3.147   2.033  12.095  1.8118  0.3070  1.7122
 1282SOL    HW215306   3.249   2.147  12.088 -0.3437 -1.5838 -1.2556
 1283SOL     OW15307   2.069   0.042   1.094  0.2113  0.2305 -0.4588
 1283SOL    HW115308   2.093   0.021   1.004 -0.5746  0.5413 -0.7448
 1283SOL    HW215309   2.059   0.137   1.090 -3.1573 -0.0043  3.2496
 1284SOL     OW15310   1.210   0.624   9.109 -0.4905 -0.1243 -0.0309
 1284SOL    HW115311   1.151   0.583   9.046 -1.5337  0.4476  0.5869
 1284SOL    HW215312   1.228   0.547   9.163  0.5864 -1.6686 -2.5919
 1285SOL     OW15313   0.943   1.467   0.941  0.8430 -0.4352 -0.5279
 1285SOL    HW115314   1.000   1.515   1.002  1.7873 -0.2071 -1.5880
 1285SOL    HW215315   1.004   1.421   0.883  3.3698  0.0515  1.7199
 1286SOL     OW15316   3.360   2.153   4.061  0.0681 -0.3717  0.2541
 1286SOL    HW115317   3.300   2.120   3.993 -2.8974  4.3177  0.5654
 1286SOL    HW215318   3.321   2.115   4.139 -1.6424  1.5037  0.3036
 1287SOL     OW15319   3.572   3.474   0.487 -0.3723  0.5029  0.6347
 1287SOL    HW115320   3.599   3.402   0.429  1.6631  1.7073  0.1148
 1287SOL    HW215321   3.479   3.451   0.491  0.6779 -4.4445 -2.5077
 1288SOL     OW15322   0.316   0.644  10.888  0.7664 -0.0273  0.1803
 1288SOL    HW115323   0.324   0.708  10.817 -0.6277  1.8913  1.7543
 1288SOL    HW215324   0.230   0.603  10.897 -1.1707  3.1085 -3.7686
 1289SOL     OW15325   1.418   1.822   2.218 -0.2771 -0.0723  0.5149
 1289SOL    HW115326   1.358   1.891   2.190 -2.2856 -1.7737  0.5928
 1289SOL    HW215327   1.349   1.759   2.238 -0.6186  0.1064 -0.0807
 1290SOL     OW15328   4.511   0.566   5.662 -0.2596 -0.1848 -0.1672
 1290SOL    HW115329   4.498   0.535   5.752  0.1319 -0.0363 -0.0570
 1290SOL    HW215330   4.466   0.650   5.670 -0.2923 -0.1098 -1.1707
 1291SOL     OW15331   1.759   0.901   6.594 -0.1238 -0.0821 -0.1445
 1291SOL    HW115332   1.844   0.859   6.581  0.1957  0.7491 -0.7202
 1291SOL    HW215333   1.762   0.886   6.689  2.1023  2.6843  0.2220
 1292SOL     OW15334   0.755   3.179   3.881 -0.1724  0.2515 -0.0648
 1292SOL    HW115335   0.673   3.170   3.929 -0.5044  1.9398 -0.3194
 1292SOL    HW215336   0.772   3.272   3.895  0.8107 -0.1599  1.5228
 1293SOL     OW15337   3.705   0.969   2.375 -0.2735  0.0786  0.0364
 1293SOL    HW115338   3.774   0.920   2.331  0.8391  2.2186 -0.6281
 1293SOL    HW215339   3.657   0.906   2.429 -0.9385  0.2646 -0.3257
 1294SOL     OW15340   1.756   2.976   1.964 -0.2248 -0.4647 -0.2303
 1294SOL    HW115341   1.718   3.053   1.922 -0.6995 -0.2631  0.5644
 1294SOL    HW215342   1.754   2.926   1.882 -0.8136  0.8680 -1.0404
 1295SOL     OW15343   4.714   1.197   8.397 -0.3253 -0.2126 -0.3177
 1295SOL    HW115344   0.033   1.110   8.384  0.2768 -0.2220  1.5570
 1295SOL    HW215345   0.060   1.239   8.452 -1.0096 -1.5478  1.5656
 1296SOL     OW15346   3.137   0.753  16.201  0.2789 -0.2179 -0.2083
 1296SOL    HW115347   3.152   0.834  16.250 -1.6678 -0.3504  0.5902
 1296SOL    HW215348   3.138   0.783  16.111  0.8413  1.2175  0.2808
 1297SOL     OW15349   0.942   0.159   1.994 -0.4007 -0.1222  0.6466
 1297SOL    HW115350   0.945   0.083   2.053 -0.2996 -0.7810 -0.2056
 1297SOL    HW215351   0.853   0.145   1.961 -0.1904 -1.9804  0.8669
 1298SOL     OW15352   1.697   0.205   0.044  0.2777 -0.0177  0.2562
 1298SOL    HW115353   1.682   0.275   0.108 -2.8856  0.1043 -0.6296
 1298SOL    HW215354   1.747   0.147   0.101 -1.5566 -0.8398  1.0085
 1299SOL     OW15355   0.157   4.174   3.559  0.1712  0.4921 -0.0797
 1299SOL    HW115356   0.213   4.239   3.602  0.9885 -0.2551 -0.0251
 1299SOL    HW215357   0.178   4.189   3.467  2.3570  1.3480  0.5663
 1300SOL     OW15358   3.739   2.346  11.253 -1.0284  0.6816  0.3218
 1300SOL    HW115359   3.753   2.428  11.299 -0.6853  1.3390 -0.9642
 1300SOL    HW215360   3.644   2.337  11.264 -0.6587 -2.4122  1.1753
 1301SOL     OW15361   2.567   0.431   1.044  0.4144 -0.4354 -0.0710
 1301SOL    HW115362   2.633   0.483   0.998 -0.0307  0.5101  0.3621
 1301SOL    HW215363   2.551   0.485   1.122 -0.1857 -0.5344 -0.1282
 1302SOL     OW15364   0.417   1.387   5.020 -0.1954 -0.5520 -0.2221
 1302SOL    HW115365   0.407   1.294   5.003  2.2885 -0.7246 -0.7010
 1302SOL    HW215366   0.493   1.385   5.078 -2.9337 -0.0970  3.3207
 1303SOL     OW15367   4.393   4.135   0.762  0.4210  0.0017  0.5629
 1303SOL    HW115368   4.300   4.129   0.784  0.2802 -0.1726 -0.1027
 1303SOL    HW215369   4.414   4.042   0.771 -2.3381 -0.9870 -3.5065
 1304SOL     OW15370   3.610   4.480  15.112  0.7297 -0.7788  0.4361
 1304SOL    HW115371   3.622   4.396  15.069  2.7688 -0.6186  0.6831
 1304SOL    HW215372   3.686   4.479  15.171 -0.1121  0.3856  1.5342
 1305SOL     OW15373   0.226   2.269   9.167 -0.0758  0.0216 -0.5121
 1305SOL    HW115374   0.209   2.354   9.209  0.3004  0.6319 -1.6059
 1305SOL    HW215375   0.191   2.212   9.235  0.4853  0.1606 -0.1072
 1306SOL     OW15376   3.630   0.487   6.727 -0.0809 -0.4243  0.2750
 1306SOL    HW115377   3.721   0.458   6.721 -0.4620 -1.5672 -0.0182
 1306SOL    HW215378   3.587   0.401   6.723  0.2131 -0.4971 -1.1603
 1307SOL     OW15379   0.348   0.718   6.325  0.0997 -0.1499 -0.2477
 1307SOL    HW115380   0.301   0.775   6.264 -0.9408  2.2315  2.7631
 1307SOL    HW215381   0.380   0.788   6.383  0.9125  0.0032 -0.8813
 1308SOL     OW15382   2.154   0.167  14.840  0.3214 -0.1176  0.1583
 1308SOL    HW115383   2.077   0.210  14.801  0.1642 -2.8357 -2.5607
 1308SOL    HW215384   2.122   0.081  14.865  0.5832 -0.2715 -0.0370
 1309SOL     OW15385   4.599   2.545  14.182 -0.2730  0.3008 -0.3063
 1309SOL    HW115386   4.682   2.570  14.141  0.0280 -0.7248 -0.3246
 1309SOL    HW215387   4.589   2.456  14.147  0.2355  0.8674 -1.9024
 1310SOL     OW15388   1.392   1.069   2.354  0.2650 -0.4364  0.3529
 1310SOL    HW115389   1.420   1.025   2.434  1.1384 -0.4681  0.0329
 1310SOL    HW215390   1.397   1.160   2.384  0.1339  0.6271 -2.8571
 1311SOL     OW15391   2.669   3.221   4.430  0.1742  0.8390 -0.1346
 1311SOL    HW115392   2.643   3.277   4.502  0.0818  0.5256  0.0761
 1311SOL    HW215393   2.739   3.171   4.472  1.6038  1.0239 -2.3054
 1312SOL     OW15394   2.855   2.624  12.844  0.0281  0.3872  0.0030
 1312SOL    HW115395   2.794   2.628  12.918  0.5951  1.1908  0.4183
 1312SOL    HW215396   2.801   2.592  12.771 -0.5609 -2.4956  1.6914
 1313SOL     OW15397   1.462   0.846   4.955 -0.1992 -0.4032  0.1748
 1313SOL    HW115398   1.449   0.814   5.045 -0.0610 -0.1233  0.2937
 1313SOL    HW215399   1.469   0.769   4.899  2.2728  1.1154 -1.5856
 1314SOL     OW15400   1.429   4.284   8.992 -0.0375 -0.1301 -0.3459
 1314SOL    HW115401   1.412   4.343   8.919 -2.0986  1.1071  1.1521
 1314SOL    HW215402   1.446   4.337   9.069 -0.0884 -1.0225  0.2752
 1315SOL     OW15403   0.485   4.086   3.126  0.4192  0.3834  0.1725
 1315SOL    HW115404   0.446   4.002   3.101 -1.5337  1.0796  0.8746
 1315SOL    HW215405   0.427   4.148   3.082 -1.0241 -1.9783 -1.2659
 1316SOL     OW15406   1.470   0.899   1.906  0.2319  0.2290 -0.4314
 1316SOL    HW115407   1.522   0.957   1.962  1.3950 -3.4323  2.3212
 1316SOL    HW215408   1.402   0.959   1.877  0.6883  0.9557  0.0009
 1317SOL     OW15409   1.385   2.561   2.223  0.3068  0.4487  0.0132
 1317SOL    HW115410   1.292   2.555   2.202 -0.3696  1.2152  2.7610
 1317SOL    HW215411   1.427   2.589   2.142  3.2072 -1.7607  0.7039
 1318SOL     OW15412   2.376   3.596  11.049  0.0669 -0.4388  0.4472
 1318SOL    HW115413   2.436   3.593  11.124  0.2057  1.3171  0.4090
 1318SOL    HW215414   2.400   3.677  11.003 -1.9225 -0.9867 -1.5442
 1319SOL     OW15415   2.670   1.138   7.908  0.3365 -0.0984  0.4848
 1319SOL    HW115416   2.641   1.113   7.995 -1.5058  1.3058  0.2648
 1319SOL    HW215417   2.698   1.054   7.871 -1.0421 -0.6612  0.7533
 1320SOL     OW15418   2.049   3.284   6.617 -0.2449 -0.5534 -0.3091
 1320SOL    HW115419   1.981   3.297   6.684 -0.4978  3.0866 -1.2310
 1320SOL    HW215420   2.047   3.369   6.573  0.9344 -1.4054 -1.9640
 1321SOL     OW15421   2.194   1.096   4.852  0.0691  0.0679 -0.1287
 1321SOL    HW115422   2.099   1.095   4.850  0.1296 -1.5697 -1.9317
 1321SOL    HW215423   2.202   1.161   4.782  1.6464 -0.3703 -0.3596
 1322SOL     OW15424   4.456   3.173   9.555  0.2139 -0.7696  0.1798
 1322SOL    HW115425   4.540   3.137   9.525  1.4949  1.9006  0.5758
 1322SOL    HW215426   4.429   3.098   9.607 -0.1507 -0.0027  1.0796
 1323SOL     OW15427   3.079   3.055   6.435 -0.4867  0.0826  0.0084
 1323SOL    HW115428   3.053   3.059   6.527 -2.2374 -1.3089 -0.4305
 1323SOL    HW215429   3.053   2.965   6.417  0.1532  0.0747 -0.8697
 1324SOL     OW15430   0.256   3.090   0.303 -0.1162 -0.4283 -0.2096
 1324SOL    HW115431   0.262   3.024   0.372 -2.2546 -0.1761  0.2036
 1324SOL    HW215432   0.278   3.039   0.225  0.4441 -1.3289  0.5454
 1325SOL     OW15433   3.651   1.407  15.358  0.0376 -0.5415  0.1302
 1325SOL    HW115434   3.630   1.461  15.282  2.0590  0.0795  0.0101
 1325SOL    HW215435   3.612   1.456  15.430 -1.6564 -0.9649 -0.4946
 1326SOL     OW15436   1.140   2.106   7.191 -0.7455  0.2144 -0.9416
 1326SOL    HW115437   1.173   2.059   7.115  0.9322  2.0632 -1.3543
 1326SOL    HW215438   1.075   2.169   7.158 -2.4020  0.1057  2.0830
 1327SOL     OW15439   3.344   0.280  14.574 -0.1549  0.0857  0.0478
 1327SOL    HW115440   3.269   0.282  14.514  0.2158  0.1092 -0.4145
 1327SOL    HW215441   3.413   0.325  14.526  1.5841 -1.3084  1.2421
 1328SOL     OW15442   0.624   0.779  12.291 -0.0085 -0.3423 -0.1304
 1328SOL    HW115443   0.583   0.744  12.370  2.2335 -0.3457  1.0524
 1328SOL    HW215444   0.543   0.797  12.244  0.7686  1.3608 -0.8549
 1329SOL     OW15445   1.915   0.138   8.605  0.0581 -0.1338  0.0164
 1329SOL    HW115446   2.001   0.164   8.573 -0.1792  0.3231 -0.2638
 1329SOL    HW215447   1.945   0.094   8.684  0.4043 -1.0235 -0.6056
 1330SOL     OW15448   4.285   1.556   3.129  0.0919 -0.3548  0.1112
 1330SOL    HW115449   4.228   1.622   3.167 -0.8604 -1.1121 -0.0221
 1330SOL    HW215450   4.329   1.607   3.061  0.6405 -2.8706 -1.4159
 1331SOL     OW15451   1.629   3.460   9.111 -0.2179  0.5646  0.5537
 1331SOL    HW115452   1.713   3.505   9.105 -0.7073  1.5422  1.0170
 1331SOL    HW215453   1.662   3.371   9.101 -0.9391  0.2739  0.7682
 1332SOL     OW15454   0.978   1.749   3.478  0.6945 -0.3529 -0.5096
 1332SOL    HW115455   0.892   1.708   3.469  0.8367 -0.1874 -2.7816
 1332SOL    HW215456   1.035   1.676   3.504 -1.5359 -1.9866 -0.2345
 1333SOL     OW15457   1.001   1.304   8.311 -0.0774  0.1616 -0.3381
 1333SOL    HW115458   1.020   1.387   8.268  0.6927  0.1265 -0.0722
 1333SOL    HW215459   1.019   1.317   8.404 -1.8377 -0.6025  0.0928
 1334SOL     OW15460   0.267   4.510   0.589 -0.0178 -0.2381 -0.6715
 1334SOL    HW115461   0.275   4.568   0.513 -2.0055  0.2112 -0.5597
 1334SOL    HW215462   0.171   4.507   0.591 -0.1018  1.2128 -2.1242
 1335SOL     OW15463   0.785   1.276  14.668 -0.1006  0.7057  0.3805
 1335SOL    HW115464   0.727   1.303  14.597  2.0624 -1.2795 -2.1405
 1335SOL    HW215465   0.823   1.197  14.629  0.2830  1.3334 -0.5000
 1336SOL     OW15466   0.808   1.288  11.588  1.0899  0.0026 -0.0958
 1336SOL    HW115467   0.840   1.221  11.648 -0.1469  1.1726  1.8502
 1336SOL    HW215468   0.891   1.329  11.562  0.2866  0.6817 -1.5668
 1337SOL     OW15469   2.249   0.546   3.725  0.1080 -0.0487  0.6900
 1337SOL    HW115470   2.236   0.453   3.741 -1.3993  0.0592  0.1126
 1337SOL    HW215471   2.162   0.586   3.726 -0.0809 -0.5069  1.6935
 1338SOL     OW15472   3.738   1.420   8.097 -0.1026 -0.3923 -0.2445
 1338SOL    HW115473   3.807   1.472   8.056  0.1443 -1.5011 -1.2222
 1338SOL    HW215474   3.673   1.435   8.029  1.4374  0.9492 -1.4226
 1339SOL     OW15475   4.206   0.925   3.022  0.6422  0.0563 -0.4894
 1339SOL    HW115476   4.177   0.996   2.965  0.1318  0.1190 -0.1515
 1339SOL    HW215477   4.286   0.964   3.057 -1.0128  0.9347  2.2898
 1340SOL     OW15478   2.151   2.819   5.161  0.3585 -0.6996 -0.2184
 1340SOL    HW115479   2.178   2.727   5.166  2.3129 -0.1757 -1.4639
 1340SOL    HW215480   2.205   2.850   5.089  2.9511 -1.5522  1.3290
 1341SOL     OW15481   3.013   1.404  17.419  0.6384 -0.0434  1.0072
 1341SOL    HW115482   2.942   1.349  17.386  0.2431  1.6913 -1.0161
 1341SOL    HW215483   2.994   1.491  17.385  1.4604 -0.1831  0.1679
 1342SOL     OW15484   3.291   0.461   0.111 -0.1884  0.1124 -0.1353
 1342SOL    HW115485   3.295   0.557   0.112  0.2624  0.0970 -0.9977
 1342SOL    HW215486   3.308   0.443   0.019  0.1031  0.9848 -0.2548
 1343SOL     OW15487   4.020   3.220   4.486 -0.1450 -0.3685  0.0717
 1343SOL    HW115488   4.054   3.297   4.441  0.7484 -0.6978  0.1813
 1343SOL    HW215489   4.101   3.172   4.499 -0.5569 -0.5067  2.1614
 1344SOL     OW15490   3.608   3.975   8.424  0.7668  0.0314 -0.0511
 1344SOL    HW115491   3.616   4.055   8.477 -2.8871 -0.0970  0.6991
 1344SOL    HW215492   3.565   3.917   8.487  0.7489  2.5709  2.2889
 1345SOL     OW15493   3.275   3.508   9.141  0.2475 -0.2585 -0.3741
 1345SOL    HW115494   3.289   3.501   9.235  2.7150 -0.2844 -0.7293
 1345SOL    HW215495   3.280   3.418   9.109  0.8826 -0.8597  1.4271
 1346SOL     OW15496   3.421   2.092   2.111  0.3002 -0.2632  0.9969
 1346SOL    HW115497   3.502   2.070   2.065  1.0197  1.2659  1.5531
 1346SOL    HW215498   3.456   2.149   2.179 -0.1370 -0.8257  1.6951
 1347SOL     OW15499   3.468   0.366   5.309 -0.1554 -0.0924  0.3364
 1347SOL    HW115500   3.381   0.393   5.336  0.2581  1.2091  0.3385
 1347SOL    HW215501   3.500   0.456   5.303 -1.7517  0.4821  0.4817
 1348SOL     OW15502   2.453   1.404   4.777 -0.3434  0.5293 -0.6484
 1348SOL    HW115503   2.407   1.375   4.855  0.7352  0.4210 -0.0432
 1348SOL    HW215504   2.372   1.420   4.729 -0.2867 -4.7450 -2.5704
 1349SOL     OW15505   4.555   4.230   3.059 -0.3932 -0.2705 -0.9877
 1349SOL    HW115506   4.479   4.285   3.044 -0.9903 -0.9212 -0.3430
 1349SOL    HW215507   4.623   4.280   3.014  0.1149  0.0388  0.1124
 1350SOL     OW15508   3.706   2.197   5.465 -0.2115 -0.3083 -0.2416
 1350SOL    HW115509   3.734   2.254   5.394  0.1732 -0.1439  0.0419
 1350SOL    HW215510   3.621   2.170   5.431 -0.8414  2.3434 -0.7586
 1351SOL     OW15511   4.192   4.099  17.340 -0.4039 -0.1615  0.3532
 1351SOL    HW115512   4.240   4.016  17.338 -0.8311 -0.3357 -1.9559
 1351SOL    HW215513   4.206   4.121  17.432  0.2605 -0.1477  0.2465
 1352SOL     OW15514   2.301   2.928  12.319  0.3736 -0.6110  0.1590
 1352SOL    HW115515   2.352   2.992  12.368 -0.8320  1.7564 -1.6901
 1352SOL    HW215516   2.213   2.966  12.321  0.9218  0.6074  0.7694
 1353SOL     OW15517   2.878   1.260   7.077 -0.3385  0.0950 -0.1377
 1353SOL    HW115518   2.968   1.262   7.045 -0.5646  0.2152 -0.7514
 1353SOL    HW215519   2.886   1.179   7.127  2.1843 -0.4903 -1.4906
 1354SOL     OW15520   3.259   2.168   7.739  0.0922  0.1578  0.2921
 1354SOL    HW115521   3.200   2.113   7.790 -0.6777 -0.6805 -1.4720
 1354SOL    HW215522   3.336   2.112   7.731 -0.3874 -0.2242 -1.7542
 1355SOL     OW15523   1.906   0.135   7.809  0.6557 -0.3894 -0.3526
 1355SOL    HW115524   1.936   0.212   7.761 -0.3416 -0.5257 -1.1925
 1355SOL    HW215525   1.877   0.172   7.893  0.5767 -0.4976 -0.3326
 1356SOL     OW15526   4.404   1.823   2.553  0.6275  0.1563  0.0639
 1356SOL    HW115527   4.482   1.767   2.562 -2.2009 -3.1831  3.8001
 1356SOL    HW215528   4.436   1.905   2.591 -0.3808 -0.1732  1.5904
 1357SOL     OW15529   3.866   3.492   5.612 -0.6338 -0.3459 -0.1417
 1357SOL    HW115530   3.897   3.477   5.523  1.2192  0.1730  0.4201
 1357SOL    HW215531   3.793   3.430   5.608 -2.9554  2.4473 -0.9168
 1358SOL     OW15532   1.707   0.368   4.522 -0.0784  0.7536 -0.2333
 1358SOL    HW115533   1.627   0.328   4.556  2.1037 -1.2470  2.4770
 1358SOL    HW215534   1.667   0.455   4.525 -0.9494  0.3349  0.0790
 1359SOL     OW15535   3.310   2.282  17.601 -0.0042  0.3116 -0.2620
 1359SOL    HW115536   3.308   2.196  17.560 -0.4854  0.6812 -1.0190
 1359SOL    HW215537   3.223   2.315  17.576  0.2030  1.3568  0.3801
 1360SOL     OW15538   4.106   1.593   9.857  0.5413  0.3229 -0.2501
 1360SOL    HW115539   4.182   1.598   9.915  0.3353 -1.8006  0.1718
 1360SOL    HW215540   4.032   1.603   9.916  0.6500  0.5466 -0.1492
 1361SOL     OW15541   2.431   0.280  12.853 -0.0165 -0.4542 -0.1423
 1361SOL    HW115542   2.422   0.294  12.947 -1.2617 -0.2905 -0.2845
 1361SOL    HW215543   2.520   0.245  12.849  0.4819  0.6421  1.1814
 1362SOL     OW15544   0.750   3.451   3.784  0.0105 -0.2106 -0.1739
 1362SOL    HW115545   0.673   3.394   3.775 -0.8291  0.6968  1.1512
 1362SOL    HW215546   0.766   3.478   3.694 -1.5400  1.4280  0.0345
 1363SOL     OW15547   2.947   0.119  17.237  0.9208 -0.4440 -0.2207
 1363SOL    HW115548   2.856   0.148  17.228  1.0187 -1.5615 -5.0673
 1363SOL    HW215549   2.982   0.153  17.154 -0.3334 -2.5383 -1.5989
 1364SOL     OW15550   3.495   1.867   1.867 -0.3128 -0.1519  0.2144
 1364SOL    HW115551   3.492   1.774   1.891 -0.4451  0.1372  1.2918
 1364SOL    HW215552   3.588   1.888   1.861  0.0042 -1.1110  1.6575
 1365SOL     OW15553   3.457   1.708  15.777  0.0796 -0.0016 -0.2821
 1365SOL    HW115554   3.404   1.745  15.707 -1.2175  0.0036  0.7198
 1365SOL    HW215555   3.506   1.785  15.808 -1.4438 -0.4746  3.2094
 1366SOL     OW15556   2.811   0.828   6.189 -0.5368 -0.2597  0.3654
 1366SOL    HW115557   2.819   0.756   6.252  1.0703 -0.3573  0.0513
 1366SOL    HW215558   2.854   0.777   6.121 -0.1528  1.0337 -0.3610
 1367SOL     OW15559   1.937   2.556   1.955 -0.2649 -0.4759 -0.1038
 1367SOL    HW115560   2.028   2.562   1.984 -0.2958 -0.5894  0.0144
 1367SOL    HW215561   1.944   2.611   1.877 -1.2349 -2.0091 -1.2802
 1368SOL     OW15562   1.988   3.930   8.210  0.1134 -0.1155  0.5484
 1368SOL    HW115563   1.901   3.940   8.249 -1.4310 -0.6149 -2.7063
 1368SOL    HW215564   2.036   4.005   8.245  2.7098 -0.8761 -1.3646
 1369SOL     OW15565   2.612   2.123  10.160 -0.3231 -0.1926 -0.8692
 1369SOL    HW115566   2.588   2.092  10.247  1.5725  3.6670  1.0426
 1369SOL    HW215567   2.591   2.050  10.102  0.7731 -0.3604 -1.0538
 1370SOL     OW15568   4.440   3.842   6.418 -0.2407  0.3084 -0.3945
 1370SOL    HW115569   4.408   3.851   6.507 -0.0008  0.9007 -0.3669
 1370SOL    HW215570   4.355   3.832   6.374  0.8447  2.3550 -3.0093
 1371SOL     OW15571   0.030   1.518   8.237  0.2503 -0.0984 -0.5714
 1371SOL    HW115572   0.098   1.451   8.238  0.5028  0.1485 -1.7613
 1371SOL    HW215573   0.053   1.555   8.322  2.4923 -1.9819 -0.3651
 1372SOL     OW15574   4.105   3.156   1.243  0.2095  0.1506 -0.9019
 1372SOL    HW115575   4.199   3.177   1.246 -0.3183  1.9128  3.8375
 1372SOL    HW215576   4.108   3.066   1.276  1.8612  0.6072  0.1901
 1373SOL     OW15577   2.148   4.685   0.465 -0.1073  0.6260  0.5106
 1373SOL    HW115578   2.145   4.656   0.374 -0.8595 -0.6193  0.9366
 1373SOL    HW215579   2.165   4.600   0.507 -2.0712 -0.0842 -0.1297
 1374SOL     OW15580   2.467   0.218   7.643 -0.1193 -0.3527  0.0793
 1374SOL    HW115581   2.559   0.234   7.624  0.3502 -0.7569  2.0451
 1374SOL    HW215582   2.448   0.285   7.708 -1.7144 -2.1069  1.4239
 1375SOL     OW15583   3.470   1.440  16.661  0.1333 -0.1583 -0.4906
 1375SOL    HW115584   3.565   1.448  16.666 -0.1032  1.6465  1.1243
 1375SOL    HW215585   3.458   1.518  16.605 -0.6564  1.5249  2.0191
 1376SOL     OW15586   3.335   3.255  10.385 -0.1443 -1.1253 -0.6253
 1376SOL    HW115587   3.348   3.167  10.421  0.0517 -0.8610 -0.0462
 1376SOL    HW215588   3.301   3.299  10.463 -1.2300  0.1308 -1.8105
 1377SOL     OW15589   0.870   4.150  15.572 -0.1994 -0.0609  0.4843
 1377SOL    HW115590   0.960   4.133  15.600  0.4220 -0.5005 -1.7579
 1377SOL    HW215591   0.855   4.084  15.504  2.2032 -1.1162  0.9928
 1378SOL     OW15592   1.680   4.240   3.826  0.1523  0.1812 -0.3496
 1378SOL    HW115593   1.695   4.183   3.751 -3.7979 -1.5350  0.1442
 1378SOL    HW215594   1.587   4.264   3.822  0.3431  0.9201 -0.3108
 1379SOL     OW15595   0.044   2.506   0.570 -0.1929  0.2385  0.6301
 1379SOL    HW115596   4.717   2.430   0.604  0.3600  0.3320  1.6035
 1379SOL    HW215597   0.126   2.481   0.613  0.1928 -0.1617 -0.3509
 1380SOL     OW15598   1.682   0.521  12.454 -0.6234  0.6013  0.0855
 1380SOL    HW115599   1.759   0.570  12.427 -0.2517  0.7094  1.3510
 1380SOL    HW215600   1.684   0.502  12.548 -3.3605  0.0446  0.0400
 1381SOL     OW15601   2.907   2.763   7.035 -0.2549 -0.0977  0.2840
 1381SOL    HW115602   2.959   2.786   7.111 -0.8300  0.2183  0.5811
 1381SOL    HW215603   2.825   2.733   7.076 -0.9426  1.2624 -0.0884
 1382SOL     OW15604   1.977   3.968  16.217 -0.1752 -0.1778 -0.0658
 1382SOL    HW115605   2.032   4.046  16.208  0.4529 -0.4495  1.3089
 1382SOL    HW215606   1.931   3.996  16.296 -1.4120  0.3953 -0.9942
 1383SOL     OW15607   4.370   1.663   1.685  0.7749 -0.4066 -0.8533
 1383SOL    HW115608   4.457   1.680   1.649 -0.6065 -1.0255 -4.4718
 1383SOL    HW215609   4.398   1.612   1.762 -0.7175 -0.1784 -0.1632
 1384SOL     OW15610   0.404   4.556   1.630  0.6233  0.0070 -0.3251
 1384SOL    HW115611   0.488   4.545   1.584  1.5559 -2.4774  1.9751
 1384SOL    HW215612   0.371   4.469   1.611 -0.6168 -0.2254  2.9677
 1385SOL     OW15613   0.813   3.901   2.640 -0.1088  0.4914 -0.2844
 1385SOL    HW115614   0.819   3.993   2.667  0.3345  0.2302  0.5043
 1385SOL    HW215615   0.905   3.877   2.653  0.1213  1.2929 -0.4432
 1386SOL     OW15616   2.732   2.464   8.345  0.7838 -0.2384 -0.4129
 1386SOL    HW115617   2.691   2.425   8.422  0.6226 -0.8146 -0.7945
 1386SOL    HW215618   2.782   2.537   8.383 -1.5713  1.8901 -1.3815
 1387SOL     OW15619   3.061   3.665  11.730 -0.2862  0.3439  0.3578
 1387SOL    HW115620   3.155   3.677  11.745 -1.0523  2.2582  3.8215
 1387SOL    HW215621   3.048   3.724  11.656  1.9884 -0.1499 -0.4264
 1388SOL     OW15622   1.071   2.558   7.455  0.2254  0.1030  0.0747
 1388SOL    HW115623   0.989   2.515   7.430 -0.3726  0.9234  0.5835
 1388SOL    HW215624   1.117   2.475   7.456 -1.2540 -0.7364 -2.6726
 1389SOL     OW15625   3.625   2.652   2.689 -0.5384 -0.3155 -0.3551
 1389SOL    HW115626   3.700   2.594   2.679 -0.9513 -0.8725 -0.2100
 1389SOL    HW215627   3.572   2.606   2.754  0.9998 -2.2282 -0.4641
 1390SOL     OW15628   4.096   2.117  15.695  0.1916 -0.3313 -0.2909
 1390SOL    HW115629   4.184   2.094  15.667  0.8888 -1.5802  2.8173
 1390SOL    HW215630   4.049   2.132  15.613  1.3973  1.1816 -0.7008
 1391SOL     OW15631   1.032   0.904  12.875 -0.4108 -0.3470  0.2833
 1391SOL    HW115632   1.069   0.846  12.808 -1.1961  0.6848 -1.0378
 1391SOL    HW215633   0.939   0.888  12.864 -0.6533  1.6955 -0.5183
 1392SOL     OW15634   2.039   2.902   6.922 -0.1728  0.7108  0.3521
 1392SOL    HW115635   2.024   2.812   6.951  2.3245 -0.6653 -2.6388
 1392SOL    HW215636   2.025   2.941   7.009 -1.4779  0.0135  0.4566
 1393SOL     OW15637   3.578   1.235   6.681 -0.4585  0.8089 -0.1849
 1393SOL    HW115638   3.628   1.155   6.664 -1.4905  0.3028 -0.8246
 1393SOL    HW215639   3.534   1.254   6.598 -1.3943 -0.5246  0.0060
 1394SOL     OW15640   1.844   0.819  17.235 -0.1760  0.3159 -0.2481
 1394SOL    HW115641   1.750   0.836  17.240 -0.7167 -2.4360 -0.7597
 1394SOL    HW215642   1.880   0.904  17.211  0.9756 -0.0202  0.2560
 1395SOL     OW15643   3.059   1.049  16.597 -0.2765  0.8037 -0.0727
 1395SOL    HW115644   2.987   1.106  16.624 -0.5355 -0.3867  1.7864
 1395SOL    HW215645   3.119   1.048  16.672  0.9337 -0.6385 -1.0786
 1396SOL     OW15646   1.382   4.696   3.834 -0.0732  0.2290  0.6134
 1396SOL    HW115647   1.430   0.051   3.867 -0.3797  0.6253  0.1502
 1396SOL    HW215648   1.295   4.715   3.871 -1.1575  1.2506 -2.4162
 1397SOL     OW15649   1.509   4.623   8.511 -0.2269 -0.1721  0.1419
 1397SOL    HW115650   1.489   4.699   8.566 -1.0164  0.1788 -0.6319
 1397SOL    HW215651   1.510   4.672   8.428  0.8801 -2.1935 -1.0229
 1398SOL     OW15652   1.517   0.329   7.959  0.2950  0.5148 -0.0867
 1398SOL    HW115653   1.503   0.395   8.026  1.2392 -0.7112  1.3120
 1398SOL    HW215654   1.612   0.323   7.951  0.4411  2.3629  0.3300
 1399SOL     OW15655   0.238   4.462  11.281 -0.1597  0.9306 -0.3477
 1399SOL    HW115656   0.315   4.488  11.331 -0.4092 -0.7499  0.8925
 1399SOL    HW215657   0.259   4.369  11.277 -0.9595  0.6761  1.4432
 1400SOL     OW15658   0.542   4.378   4.421 -0.2915 -0.0950 -0.2278
 1400SOL    HW115659   0.599   4.326   4.365 -0.6583 -2.1898  1.3472
 1400SOL    HW215660   0.464   4.384   4.366  0.8453  2.7224 -1.5413
 1401SOL     OW15661   4.359   1.701   3.932 -0.0728  0.0910  0.3568
 1401SOL    HW115662   4.419   1.627   3.921 -0.6623  0.0740 -2.9667
 1401SOL    HW215663   4.292   1.670   3.993 -0.4611 -0.0140 -0.1212
 1402SOL     OW15664   0.134   0.647   2.360 -0.0137 -0.5193  0.2737
 1402SOL    HW115665   0.069   0.671   2.294  0.6823  1.7836  0.4130
 1402SOL    HW215666   0.150   0.735   2.394 -5.1201  1.5178 -2.5777
 1403SOL     OW15667   2.092   1.821  14.534 -0.6957 -0.3872 -0.1343
 1403SOL    HW115668   2.034   1.754  14.571 -2.2361  1.1565  0.2526
 1403SOL    HW215669   2.139   1.842  14.615  1.6575 -0.1449 -1.5694
 1404SOL     OW15670   2.268   2.146   6.435  0.4604  0.3651 -0.2392
 1404SOL    HW115671   2.196   2.203   6.461  2.6531  1.4606  3.3825
 1404SOL    HW215672   2.220   2.083   6.381  2.8435 -2.1883  0.6443
 1405SOL     OW15673   3.345   1.534   7.289 -0.2523 -0.0103  0.2907
 1405SOL    HW115674   3.415   1.598   7.301 -0.5377  0.8305 -2.5386
 1405SOL    HW215675   3.285   1.565   7.356  1.4895  2.6198  0.6615
 1406SOL     OW15676   2.086   3.082  12.400 -0.5781 -0.1091  0.1277
 1406SOL    HW115677   2.004   3.072  12.447 -0.1840  0.0859  0.8607
 1406SOL    HW215678   2.103   3.173  12.424  0.2575  0.7056 -3.4326
 1407SOL     OW15679   4.209   0.965   3.728  0.1157 -0.2784  0.2440
 1407SOL    HW115680   4.252   0.973   3.813 -0.9676  4.9605  0.3053
 1407SOL    HW215681   4.188   0.872   3.728 -0.9477 -0.0439  0.6980
 1408SOL     OW15682   4.151   0.323   4.398  0.0577 -0.1841 -0.2137
 1408SOL    HW115683   4.091   0.392   4.426 -0.0111 -0.0960 -0.5818
 1408SOL    HW215684   4.096   0.249   4.423  1.1940 -1.2891 -0.9508
 1409SOL     OW15685   0.758   4.182   8.483  0.1408 -0.0870 -0.5280
 1409SOL    HW115686   0.774   4.224   8.568 -1.6431  0.2689 -0.3791
 1409SOL    HW215687   0.747   4.258   8.425  0.8260 -0.4793 -1.1747
 1410SOL     OW15688   0.041   3.513  15.718  0.3291  0.0068 -0.0126
 1410SOL    HW115689   0.101   3.472  15.655  0.2152 -0.6748  0.3200
 1410SOL    HW215690   0.089   3.507  15.801 -1.7310 -0.4206  1.1402
 1411SOL     OW15691   2.082   3.513   3.208 -0.1381  0.0340  0.0368
 1411SOL    HW115692   2.084   3.567   3.129 -1.9766  1.4110  0.9483
 1411SOL    HW215693   2.157   3.456   3.193 -0.3828  0.2054 -1.8436
 1412SOL     OW15694   2.858   4.384  17.482  0.5829  0.2275  0.2313
 1412SOL    HW115695   2.932   4.333  17.449 -0.9694 -0.0473 -2.7632
 1412SOL    HW215696   2.895   4.442  17.549 -0.2163 -1.6236  2.2559
 1413SOL     OW15697   0.870   3.619   8.339 -0.4164  0.3904  0.0150
 1413SOL    HW115698   0.807   3.662   8.281 -2.0407  0.9105  2.1802
 1413SOL    HW215699   0.915   3.561   8.277 -0.6019  0.0211  0.2261
 1414SOL     OW15700   3.692   0.983  14.935  0.1258 -0.0687 -0.2784
 1414SOL    HW115701   3.601   0.982  14.905 -1.1369  0.3483  3.5868
 1414SOL    HW215702   3.684   1.029  15.018  2.2496 -1.8143  0.9039
 1415SOL     OW15703   3.160   4.069   9.069  0.0100 -0.3620 -0.4938
 1415SOL    HW115704   3.136   4.050   9.160  2.2314 -1.5974 -0.1767
 1415SOL    HW215705   3.123   4.157   9.058 -0.7797 -0.8043 -1.3469
 1416SOL     OW15706   3.246   1.567  16.889 -0.0333  1.1293  0.2307
 1416SOL    HW115707   3.339   1.578  16.913  0.3701 -1.9914  0.1587
 1416SOL    HW215708   3.249   1.488  16.835 -1.3591  1.6578 -0.5939
 1417SOL     OW15709   0.384   1.433   0.145 -0.1223  0.3128  0.3583
 1417SOL    HW115710   0.294   1.431   0.176 -0.7329 -0.5062 -1.5257
 1417SOL    HW215711   0.372   1.482   0.064  2.3056 -0.4754 -0.4712
 1418SOL     OW15712   4.014   2.548   9.536 -0.3865  0.7749  0.3634
 1418SOL    HW115713   4.077   2.581   9.473 -0.6112  0.1566 -0.1839
 1418SOL    HW215714   4.069   2.529   9.612  3.4969  1.4666 -2.2794
 1419SOL     OW15715   0.301   3.594  12.933 -1.3313 -0.0345  0.6673
 1419SOL    HW115716   0.228   3.649  12.904 -0.6575 -0.5098 -1.8723
 1419SOL    HW215717   0.273   3.553  13.015 -0.9110 -1.2648  0.1898
 1420SOL     OW15718   2.407   3.353  17.037 -0.4457  0.3867 -0.6287
 1420SOL    HW115719   2.323   3.339  17.081 -0.3520 -1.1913 -0.9407
 1420SOL    HW215720   2.471   3.300  17.084 -0.0604  1.3178 -0.1088
 1421SOL     OW15721   3.622   0.401  16.670 -0.1756  0.1041 -0.4083
 1421SOL    HW115722   3.578   0.472  16.718 -0.8881 -0.0003 -0.9055
 1421SOL    HW215723   3.597   0.329  16.728 -1.3531  1.6983  1.0903
 1422SOL     OW15724   2.090   0.737   1.318 -0.2805  0.1744 -0.0340
 1422SOL    HW115725   2.038   0.806   1.276  0.8454  1.0669  0.0517
 1422SOL    HW215726   2.048   0.743   1.404  0.7115  1.6253  0.3451
 1423SOL     OW15727   2.744   0.064  10.309 -0.0344  0.0198 -0.2090
 1423SOL    HW115728   2.825   0.092  10.268 -0.1723 -0.6767 -0.9634
 1423SOL    HW215729   2.674   0.110  10.263 -1.7148 -0.1034  2.1922
 1424SOL     OW15730   2.194   4.250   9.494  0.4071  0.4068 -0.0461
 1424SOL    HW115731   2.208   4.156   9.483  0.1914  0.4991 -1.0379
 1424SOL    HW215732   2.118   4.248   9.551 -0.0900 -1.8082 -0.8076
 1425SOL     OW15733   3.857   0.835   4.892  0.0998 -0.1792 -0.3855
 1425SOL    HW115734   3.799   0.904   4.925  0.6377 -0.3568  0.9592
 1425SOL    HW215735   3.879   0.796   4.977 -0.5044 -2.3504 -1.2398
 1426SOL     OW15736   1.259   0.507   5.496  0.5072  0.1952  0.7758
 1426SOL    HW115737   1.202   0.444   5.541  0.4801  0.0509  0.5443
 1426SOL    HW215738   1.343   0.465   5.515  0.1987  0.0451  1.7959
 1427SOL     OW15739   1.694   4.587   3.765  0.2027 -0.1873 -0.3667
 1427SOL    HW115740   1.657   4.501   3.787  0.8338  0.1345  1.9170
 1427SOL    HW215741   1.740   4.612   3.845 -1.4698  1.5664  0.0597
 1428SOL     OW15742   1.941   4.611   6.273 -0.5935 -0.5637  0.1316
 1428SOL    HW115743   1.918   4.657   6.353 -0.8546 -1.2244  0.4431
 1428SOL    HW215744   2.013   4.664   6.239  1.5423 -1.2538  3.6248
 1429SOL     OW15745   4.599   1.502  14.743 -0.1234 -0.3314  0.2100
 1429SOL    HW115746   4.584   1.595  14.764  2.4532  0.4812 -1.4517
 1429SOL    HW215747   4.545   1.486  14.666  0.0933  1.8910 -0.4193
 1430SOL     OW15748   2.208   0.786  14.906 -0.5075  0.8473  0.1441
 1430SOL    HW115749   2.210   0.856  14.841  1.7335 -1.3710 -2.2002
 1430SOL    HW215750   2.155   0.719  14.863  0.8292 -1.4471  2.0579
 1431SOL     OW15751   4.067   0.275   7.200  0.2743  0.3247  0.5409
 1431SOL    HW115752   4.123   0.345   7.234  0.2263  0.0174  1.2465
 1431SOL    HW215753   4.088   0.205   7.262  0.5184 -1.7211 -1.8687
 1432SOL     OW15754   2.655   1.423   2.139 -0.2075  0.6884 -0.3203
 1432SOL    HW115755   2.642   1.489   2.207 -0.2451 -1.2712  1.6233
 1432SOL    HW215756   2.735   1.459   2.100  1.1913 -0.1121  1.7919
 1433SOL     OW15757   3.808   3.150  14.531  0.2873 -0.6746  0.1050
 1433SOL    HW115758   3.799   3.166  14.437  2.2589  2.7603  0.5194
 1433SOL    HW215759   3.822   3.239  14.562 -2.9748 -0.6686  1.5333
 1434SOL     OW15760   1.699   2.227   6.127 -0.2796 -0.1443  0.4681
 1434SOL    HW115761   1.709   2.169   6.202  2.9248 -0.7068 -0.3994
 1434SOL    HW215762   1.636   2.293   6.157  1.5940  1.1361  1.5568
 1435SOL     OW15763   4.101   0.671   8.430  0.1512 -0.1763 -0.3508
 1435SOL    HW115764   4.109   0.616   8.507  3.5802  2.3865  1.1257
 1435SOL    HW215765   4.044   0.624   8.368  4.3061 -1.1075 -3.5201
 1436SOL     OW15766   4.338   0.830   6.667 -0.0995 -0.2706  0.4455
 1436SOL    HW115767   4.294   0.857   6.747 -0.6996 -1.7942  0.6323
 1436SOL    HW215768   4.318   0.893   6.597  0.2585  0.5243  1.0633
 1437SOL     OW15769   3.379   4.702   4.840 -0.0808 -0.0508 -0.2920
 1437SOL    HW115770   3.379   4.641   4.914  1.2968  2.4125  1.7231
 1437SOL    HW215771   3.372   0.068   4.880  0.3038  0.3311 -1.0589
 1438SOL     OW15772   2.600   1.343   8.563 -0.6414  0.4498 -0.4813
 1438SOL    HW115773   2.556   1.426   8.547  1.0128  1.2205 -0.9494
 1438SOL    HW215774   2.648   1.361   8.644  1.1183  0.4020 -1.5144
 1439SOL     OW15775   1.778   4.361  17.226 -0.1634 -0.0031 -0.5448
 1439SOL    HW115776   1.716   4.315  17.169  0.5204  0.2258 -1.4624
 1439SOL    HW215777   1.746   4.328  17.310 -1.3918  1.4696 -0.4397
 1440SOL     OW15778   3.898   1.702   1.790 -0.1137  0.8908 -0.6437
 1440SOL    HW115779   3.982   1.661   1.770 -0.2183  0.0316  0.6753
 1440SOL    HW215780   3.918   1.794   1.810  0.0998  0.7330 -0.1276
 1441SOL     OW15781   3.427   3.567  16.470  0.3897  0.6205  0.0260
 1441SOL    HW115782   3.481   3.488  16.470  2.7484  2.2280 -0.6009
 1441SOL    HW215783   3.438   3.589  16.563  0.5916 -0.1500  0.1923
 1442SOL     OW15784   2.305   1.943   3.030 -0.4478 -0.1662 -0.0432
 1442SOL    HW115785   2.338   1.856   3.007  2.3494  0.4756  1.7179
 1442SOL    HW215786   2.364   2.001   2.982 -1.1667  0.5025 -0.1257
 1443SOL     OW15787   1.024   0.467   8.955 -0.9964  0.5768 -0.1562
 1443SOL    HW115788   0.943   0.496   8.996 -0.8925 -1.4117  1.4641
 1443SOL    HW215789   0.993   0.381   8.927 -1.0495  0.7783 -0.7258
 1444SOL     OW15790   1.964   0.789   7.790 -0.0914  0.3243 -0.3871
 1444SOL    HW115791   1.949   0.768   7.882 -0.5510  0.8162 -0.3523
 1444SOL    HW215792   2.011   0.717   7.747  0.8056  0.7545 -0.1397
 1445SOL     OW15793   4.092   1.253  12.641 -0.1344 -0.2554  0.0790
 1445SOL    HW115794   4.117   1.342  12.665  0.0717 -0.0809 -0.7768
 1445SOL    HW215795   4.043   1.234  12.720 -1.4411 -2.6340 -1.2989
 1446SOL     OW15796   0.479   1.312   8.287  0.4788 -0.4467  0.1504
 1446SOL    HW115797   0.493   1.275   8.374 -0.4327 -0.8906  0.1130
 1446SOL    HW215798   0.552   1.374   8.285 -0.0488  0.2006  1.2633
 1447SOL     OW15799   3.896   2.636   4.143  0.2842 -0.1651  0.1309
 1447SOL    HW115800   3.969   2.577   4.163  2.0938  0.9999 -3.0060
 1447SOL    HW215801   3.845   2.646   4.224  1.6275  0.5150  0.8961
 1448SOL     OW15802   4.231   4.349   1.582  0.0223 -0.1012  0.4322
 1448SOL    HW115803   4.233   4.275   1.643  0.3248 -1.8607 -1.7177
 1448SOL    HW215804   4.272   4.410   1.644  3.5736 -1.7618 -0.3136
 1449SOL     OW15805   2.654   0.208  11.647 -0.2608  0.5821  0.1763
 1449SOL    HW115806   2.716   0.146  11.686  1.1123  1.2479 -0.9588
 1449SOL    HW215807   2.658   0.276  11.715 -1.8262  0.3586  0.5047
 1450SOL     OW15808   3.018   0.568   2.467 -0.0931 -0.0655 -0.3606
 1450SOL    HW115809   3.003   0.662   2.463  0.9030  0.1039 -0.0500
 1450SOL    HW215810   3.003   0.533   2.379 -0.3749  0.3112 -0.4613
 1451SOL     OW15811   1.751   0.177   4.895  0.3069  0.2851  0.2917
 1451SOL    HW115812   1.697   0.175   4.974 -0.2605 -0.5598 -0.1358
 1451SOL    HW215813   1.689   0.220   4.837 -1.4390 -2.1855  0.3608
 1452SOL     OW15814   2.473   1.438   0.206 -0.1147 -0.2524 -0.6165
 1452SOL    HW115815   2.459   1.453   0.112  0.5389  1.1868 -0.4882
 1452SOL    HW215816   2.551   1.383   0.208  0.9759  1.3610  1.1889
 1453SOL     OW15817   1.075   1.337   0.748 -0.6774  0.3545 -0.4053
 1453SOL    HW115818   1.047   1.246   0.734 -1.5023  0.6268 -0.5484
 1453SOL    HW215819   1.138   1.318   0.817  0.1340  0.8500 -1.0182
 1454SOL     OW15820   1.279   0.153   4.337 -0.0721 -0.2459  0.2428
 1454SOL    HW115821   1.201   0.191   4.298  0.3939  1.1304  0.6436
 1454SOL    HW215822   1.238   0.086   4.392  0.8088  0.0372  1.2461
 1455SOL     OW15823   4.535   2.676   9.945  0.2726  0.3623  0.0100
 1455SOL    HW115824   4.574   2.680   9.858  1.3209  2.9871  0.5983
 1455SOL    HW215825   4.528   2.764   9.981  1.0801  0.3849  0.1248
 1456SOL     OW15826   1.793   0.989   1.830  0.7634 -0.0626  0.0102
 1456SOL    HW115827   1.777   0.913   1.774 -1.6154  1.5452 -1.4930
 1456SOL    HW215828   1.774   0.964   1.920  1.4559  1.5492  0.6091
 1457SOL     OW15829   3.373   3.953   7.001  1.1099  0.1849 -0.7610
 1457SOL    HW115830   3.373   3.985   6.911 -2.6292  0.8387 -0.5128
 1457SOL    HW215831   3.465   3.964   7.026  0.5952  0.1437  1.1662
 1458SOL     OW15832   0.280   1.939  15.658  0.1560 -0.2044  0.4440
 1458SOL    HW115833   0.354   1.900  15.704  0.1652 -2.5834 -1.6115
 1458SOL    HW215834   0.213   1.955  15.725  1.3968 -2.0400  2.1097
 1459SOL     OW15835   0.438   4.242   4.876 -0.2305  0.0926 -0.0480
 1459SOL    HW115836   0.415   4.218   4.786 -0.9134  0.7584 -0.0494
 1459SOL    HW215837   0.386   4.167   4.906 -2.0321  1.1307 -0.5796
 1460SOL     OW15838   1.638   4.035   5.664  0.3901  0.4748  0.0760
 1460SOL    HW115839   1.667   4.115   5.707 -1.0176  0.9837  0.0724
 1460SOL    HW215840   1.629   4.065   5.574  1.0531  0.8584  0.1365
 1461SOL     OW15841   0.712   0.330   3.873  0.1708  0.1579 -0.6120
 1461SOL    HW115842   0.676   0.399   3.817 -0.5031 -0.6339 -1.1597
 1461SOL    HW215843   0.674   0.356   3.957  0.6637 -0.3261 -0.2395
 1462SOL     OW15844   4.299   2.241  16.497 -0.0568 -0.1444  0.8405
 1462SOL    HW115845   4.327   2.153  16.523 -0.0103 -0.4694 -0.3279
 1462SOL    HW215846   4.337   2.298  16.564 -1.7020  1.1159  0.6790
 1463SOL     OW15847   1.966   2.731   0.702  0.7143 -0.4789 -0.2059
 1463SOL    HW115848   2.018   2.725   0.783 -0.0893  0.3564  0.3776
 1463SOL    HW215849   1.876   2.732   0.736  1.9669 -3.0203  3.1581
 1464SOL     OW15850   4.359   1.936   6.345  0.0923  0.0756 -0.3389
 1464SOL    HW115851   4.301   2.011   6.362  1.2646  1.8102 -4.0239
 1464SOL    HW215852   4.310   1.854   6.343 -0.8508  0.6031  0.9644
 1465SOL     OW15853   4.419   2.698   2.532  0.0011 -0.3890  0.4975
 1465SOL    HW115854   4.489   2.650   2.575 -0.4970 -0.6181  1.0466
 1465SOL    HW215855   4.373   2.733   2.608  2.7935  0.2944  1.8490
 1466SOL     OW15856   3.692   3.935  15.792 -0.1804 -0.0080 -0.1733
 1466SOL    HW115857   3.683   4.030  15.807 -0.3007  0.0514 -0.6138
 1466SOL    HW215858   3.757   3.928  15.723 -0.7635 -2.2932 -0.4647
 1467SOL     OW15859   4.512   0.950  15.037 -0.8302  0.7126 -0.5019
 1467SOL    HW115860   4.547   0.939  14.949 -0.2577  2.0921 -0.4388
 1467SOL    HW215861   4.448   1.021  15.026  0.1917  2.0837  2.5202
 1468SOL     OW15862   1.415   2.419   3.192  0.6199  0.2823  0.2492
 1468SOL    HW115863   1.449   2.490   3.138 -2.1321  2.4973  1.4523
 1468SOL    HW215864   1.419   2.343   3.133 -1.0552  0.8460 -0.5881
 1469SOL     OW15865   2.349   2.540   2.200  0.5648 -0.1307 -0.1767
 1469SOL    HW115866   2.397   2.483   2.261  2.4694  1.4247 -0.1951
 1469SOL    HW215867   2.416   2.609   2.195 -0.9726  1.3692  0.1568
 1470SOL     OW15868   1.228   2.751   5.695  0.3706  0.3330 -0.6683
 1470SOL    HW115869   1.181   2.669   5.678 -1.0680  1.5785 -2.6563
 1470SOL    HW215870   1.192   2.776   5.780 -3.4434  1.7573 -2.7207
 1471SOL     OW15871   0.612   3.618   8.556 -0.3868 -0.3370 -0.6749
 1471SOL    HW115872   0.535   3.631   8.499  0.4420  0.4738 -1.6118
 1471SOL    HW215873   0.564   3.601   8.637 -0.3465 -0.4338 -0.6717
 1472SOL     OW15874   4.258   0.804  10.837  0.0907 -0.0729  0.3466
 1472SOL    HW115875   4.286   0.713  10.845  2.4414  0.5738 -0.6236
 1472SOL    HW215876   4.303   0.849  10.909 -1.7233 -0.4830  1.7454
 1473SOL     OW15877   4.167   3.313   3.195 -0.3038 -0.2915  0.7191
 1473SOL    HW115878   4.150   3.404   3.172 -0.0101 -0.6754 -1.0344
 1473SOL    HW215879   4.261   3.314   3.216  0.2754 -1.1044 -1.7677
 1474SOL     OW15880   2.137   2.525  12.418 -0.6943 -0.0618 -0.6003
 1474SOL    HW115881   2.148   2.479  12.501 -2.1547  0.4333 -0.1374
 1474SOL    HW215882   2.210   2.586  12.420 -0.7654  0.0722 -2.1745
 1475SOL     OW15883   2.762   2.539   0.041  0.5802 -0.4934 -0.0872
 1475SOL    HW115884   2.760   2.595   0.118  1.3641 -0.4310 -0.1117
 1475SOL    HW215885   2.724   2.457   0.072  0.9606 -1.2760 -1.6629
 1476SOL     OW15886   0.404   3.494   7.692  0.7526 -0.0918  0.7203
 1476SOL    HW115887   0.442   3.407   7.682 -4.4725 -2.5146  2.0869
 1476SOL    HW215888   0.310   3.475   7.685  0.7324  0.5338 -0.7024
 1477SOL     OW15889   4.081   3.920   7.486 -0.6348  0.1721  0.8181
 1477SOL    HW115890   4.154   3.939   7.545  0.4505 -1.0689 -0.1001
 1477SOL    HW215891   4.130   3.921   7.403 -0.6512  0.8854  0.8210
 1478SOL     OW15892   4.360   1.508   4.739  0.0364 -0.3783 -0.0087
 1478SOL    HW115893   4.412   1.570   4.789 -0.4546 -0.1141  0.1801
 1478SOL    HW215894   4.434   1.459   4.703  0.5806 -0.4823  1.2565
 1479SOL     OW15895   0.055   4.617   9.953  0.5063 -0.2573  1.0582
 1479SOL    HW115896   0.060   4.684  10.022 -0.1912 -0.7199  1.5678
 1479SOL    HW215897   0.039   4.542  10.010 -1.2244 -2.8567 -2.8687
 1480SOL     OW15898   2.234   0.743  12.680  0.0093  0.0163 -0.2063
 1480SOL    HW115899   2.160   0.730  12.621 -1.0138  0.6508  0.9293
 1480SOL    HW215900   2.290   0.813  12.648 -0.9171  0.6079 -0.5456
 1481SOL     OW15901   3.686   1.482   2.648  0.0918  0.0111  0.2177
 1481SOL    HW115902   3.776   1.512   2.637 -0.7279  2.2654 -0.2462
 1481SOL    HW215903   3.691   1.404   2.704  0.3830 -1.1691 -1.4487
 1482SOL     OW15904   4.018   0.235   5.039 -0.3348 -0.5339  0.1135
 1482SOL    HW115905   4.008   0.146   5.004  3.1648 -0.4464 -1.0393
 1482SOL    HW215906   3.931   0.273   5.024  0.0130  0.4083  0.4924
 1483SOL     OW15907   1.837   4.554   7.997 -0.3345  0.2934  0.2282
 1483SOL    HW115908   1.931   4.560   8.015 -0.2853 -1.9635  0.6812
 1483SOL    HW215909   1.836   4.570   7.902 -1.5490  2.7347  0.6584
 1484SOL     OW15910   2.190   0.836  11.767 -0.1439  0.4619  0.2955
 1484SOL    HW115911   2.112   0.782  11.776 -0.3595  0.8025  0.4615
 1484SOL    HW215912   2.223   0.799  11.685 -0.6934  2.2918 -0.7492
 1485SOL     OW15913   4.590   1.206   8.110 -0.0735  0.2896 -0.3399
 1485SOL    HW115914   4.579   1.297   8.083 -1.1323  0.5069  0.8473
 1485SOL    HW215915   4.578   1.214   8.204  1.0395 -0.8208 -0.0935
 1486SOL     OW15916   4.273   2.950   7.055 -0.2802 -0.6132 -0.6437
 1486SOL    HW115917   4.324   2.957   7.136  0.5975 -0.5465 -1.1990
 1486SOL    HW215918   4.226   3.033   7.053  1.5978  0.4840  0.4682
 1487SOL     OW15919   0.352   2.697   2.009 -0.0023  0.2711  0.3503
 1487SOL    HW115920   0.427   2.639   1.995 -0.7577 -0.5622 -0.2429
 1487SOL    HW215921   0.278   2.637   2.010 -1.1313  1.6215 -1.6722
 1488SOL     OW15922   2.130   0.335  15.762  0.1264 -0.4841 -0.2132
 1488SOL    HW115923   2.197   0.374  15.819 -0.6803  0.7619 -0.1165
 1488SOL    HW215924   2.117   0.407  15.701  1.4410  1.2349  1.5568
 1489SOL     OW15925   3.398   0.523  11.016 -0.4025 -0.3614 -0.1148
 1489SOL    HW115926   3.371   0.443  10.970 -2.0206  0.6082 -0.8758
 1489SOL    HW215927   3.484   0.501  11.053  0.9455 -0.0759 -3.0842
 1490SOL     OW15928   4.146   1.426  11.368  0.4806  0.3331 -0.2828
 1490SOL    HW115929   4.236   1.392  11.361  1.0780  1.7563  0.4758
 1490SOL    HW215930   4.151   1.502  11.310  0.3182 -0.9317 -1.9375
 1491SOL     OW15931   3.232   1.269  14.807 -0.2925  0.3182 -0.0101
 1491SOL    HW115932   3.222   1.256  14.901  1.0104 -1.7704 -0.1795
 1491SOL    HW215933   3.281   1.191  14.784 -0.2389  0.7182 -1.2287
 1492SOL     OW15934   2.942   0.522   0.231 -0.2539  0.7573 -0.3542
 1492SOL    HW115935   3.015   0.505   0.290 -2.9584 -2.8109  1.9476
 1492SOL    HW215936   2.947   0.437   0.188  1.5132  1.2912 -1.1845
 1493SOL     OW15937   1.456   2.924   0.399 -0.3238  0.2022 -0.0828
 1493SOL    HW115938   1.377   2.916   0.346  0.2723  0.5386 -1.0319
 1493SOL    HW215939   1.468   2.841   0.444 -0.9984  0.7915  1.1876
 1494SOL     OW15940   1.931   2.642   6.566  0.2186 -0.3978  0.4515
 1494SOL    HW115941   1.940   2.709   6.497  1.8466 -0.4903  0.5925
 1494SOL    HW215942   2.002   2.672   6.622  1.0243 -2.8112  0.7355
 1495SOL     OW15943   4.188   2.347  11.303  0.3131 -0.0579 -0.1213
 1495SOL    HW115944   4.235   2.430  11.314 -0.5944  0.6080 -1.3231
 1495SOL    HW215945   4.117   2.370  11.244 -0.9042 -0.7430  1.0881
 1496SOL     OW15946   3.951   1.663  13.033  0.0724 -0.3124 -0.1253
 1496SOL    HW115947   3.932   1.755  13.053 -0.5420 -0.1490 -1.4141
 1496SOL    HW215948   3.948   1.623  13.120 -0.6430  0.4301  0.1925
 1497SOL     OW15949   2.904   1.429   3.022 -0.2483  0.2661  0.3858
 1497SOL    HW115950   2.978   1.486   3.000  0.6999 -1.6760 -1.5400
 1497SOL    HW215951   2.952   1.362   3.071 -2.2382 -0.5760  1.1961
 1498SOL     OW15952   4.562   1.230   2.988  0.2835 -0.7610 -0.2659
 1498SOL    HW115953   4.539   1.269   3.072 -1.1690  2.8553 -2.3379
 1498SOL    HW215954   4.537   1.305   2.933 -0.4800 -1.0389 -0.2945
 1499SOL     OW15955   1.147   3.128   6.586 -0.2206 -0.5592  0.1471
 1499SOL    HW115956   1.149   3.037   6.555 -0.2818 -0.3484 -0.4681
 1499SOL    HW215957   1.090   3.170   6.522 -0.7443 -0.2265  0.8315
 1500SOL     OW15958   0.062   2.455   2.286 -0.2243  0.0932 -0.2218
 1500SOL    HW115959   0.091   2.466   2.196  1.0103 -0.0918  0.1494
 1500SOL    HW215960   0.022   2.542   2.289  0.7604  0.4758  1.8721
 1501SOL     OW15961   3.075   1.791  16.655 -0.3313 -0.2215  0.2541
 1501SOL    HW115962   3.027   1.872  16.672 -0.6741 -0.9642  2.7675
 1501SOL    HW215963   3.019   1.731  16.704  0.2573 -1.4422 -0.5642
 1502SOL     OW15964   3.252   4.446   7.759 -0.5993 -0.0031  0.0607
 1502SOL    HW115965   3.157   4.440   7.767 -0.4170 -1.6346  0.8862
 1502SOL    HW215966   3.279   4.459   7.850 -0.4005  1.0245 -0.1453
 1503SOL     OW15967   2.940   4.238   5.523 -0.2229  0.9020 -0.5562
 1503SOL    HW115968   2.953   4.149   5.557 -2.6151  0.4883 -0.7692
 1503SOL    HW215969   2.927   4.230   5.429 -0.2804  3.2747 -0.7442
 1504SOL     OW15970   4.265   1.920   4.630 -0.8710 -0.4342 -0.2589
 1504SOL    HW115971   4.298   2.006   4.655 -2.2470 -0.7784  2.7768
 1504SOL    HW215972   4.174   1.945   4.612 -0.6692 -0.0329 -0.6997
 1505SOL     OW15973   0.687   2.263   0.949 -0.3668  0.1374  0.0781
 1505SOL    HW115974   0.723   2.285   1.034  0.3956 -1.4910  0.1741
 1505SOL    HW215975   0.740   2.190   0.917 -1.1133  1.4043 -4.1212
 1506SOL     OW15976   0.017   3.568   5.099 -0.3832 -0.5094  0.0052
 1506SOL    HW115977   4.656   3.539   5.057 -2.8931  4.5064  1.4501
 1506SOL    HW215978   0.032   3.653   5.057  0.4277 -1.0129 -0.7218
 1507SOL     OW15979   2.901   0.070   2.617  0.0456  0.3333  0.1419
 1507SOL    HW115980   2.896   0.047   2.710  0.2148  1.9949  0.5526
 1507SOL    HW215981   2.993   0.093   2.603  0.2216 -0.6256 -0.3630
 1508SOL     OW15982   2.718   4.273   2.692 -0.6081  0.0236 -0.1312
 1508SOL    HW115983   2.795   4.295   2.638 -1.1900  1.8000 -0.2296
 1508SOL    HW215984   2.741   4.186   2.725 -1.0146 -0.9420 -2.3743
 1509SOL     OW15985   4.428   4.441   4.804 -0.1443 -0.0344 -0.9478
 1509SOL    HW115986   4.395   4.393   4.728  0.7824 -0.4218 -1.1042
 1509SOL    HW215987   4.360   4.413   4.865  0.7989 -2.1207 -0.8676
 1510SOL     OW15988   2.925   1.615  17.292 -0.4891  0.0547 -0.4376
 1510SOL    HW115989   2.884   1.683  17.346 -0.1329  0.7263 -0.9998
 1510SOL    HW215990   2.974   1.676  17.237 -0.5737  0.4663 -0.0613
 1511SOL     OW15991   1.795   4.654   3.508  0.0481 -0.3402 -0.1739
 1511SOL    HW115992   1.861   4.708   3.551  0.8567 -1.7847  0.3770
 1511SOL    HW215993   1.782   4.594   3.581  2.1825 -0.5544 -0.0006
 1512SOL     OW15994   4.461   0.929   7.336 -0.5180  0.2135 -0.3168
 1512SOL    HW115995   4.425   0.984   7.405 -0.6676  0.9232 -0.9659
 1512SOL    HW215996   4.527   0.991   7.305  0.6337 -0.2994  1.0723
 1513SOL     OW15997   3.823   0.037   4.715  0.7857  0.0824  0.7466
 1513SOL    HW115998   3.855   0.050   4.804 -2.5790  0.6115  1.8775
 1513SOL    HW215999   3.772   4.678   4.717  2.7321 -1.1806 -0.7359
 1514SOL     OW16000   1.011   3.920   8.041  0.2485 -0.0988  0.2445
 1514SOL    HW116001   1.085   3.926   8.102 -0.4730 -0.1817  1.1172
 1514SOL    HW216002   1.038   3.862   7.969  0.4117 -1.2608  1.2399
 1515SOL     OW16003   3.382   0.914   8.218  0.3263  0.0626 -0.2884
 1515SOL    HW116004   3.290   0.904   8.241 -0.2321  1.8496 -1.7687
 1515SOL    HW216005   3.415   0.943   8.303  0.1521 -1.0030  0.1462
 1516SOL     OW16006   1.960   0.459   8.564 -0.6503  0.5716  0.4714
 1516SOL    HW116007   1.973   0.391   8.498  0.5937  1.3166 -0.0551
 1516SOL    HW216008   1.887   0.500   8.519 -2.0620 -3.7033 -1.1187
 1517SOL     OW16009   2.345   3.264   0.007  0.4680  0.3036 -0.0447
 1517SOL    HW116010   2.278   3.196   0.004 -2.7193  3.3759  0.8286
 1517SOL    HW216011   2.427   3.216   0.014 -0.1310 -0.8107 -0.6741
 1518SOL     OW16012   2.075   3.777   0.669 -0.0822 -0.4025 -0.0297
 1518SOL    HW116013   2.160   3.821   0.670  0.0504 -0.6353 -2.7654
 1518SOL    HW216014   2.030   3.833   0.606 -1.0917 -1.4772 -0.2650
 1519SOL     OW16015   4.538   3.766   8.009 -0.1669  0.2133 -0.5962
 1519SOL    HW116016   4.585   3.697   7.963  1.3036  0.5903  0.3286
 1519SOL    HW216017   4.582   3.763   8.094 -0.6297 -1.4133 -0.4181
 1520SOL     OW16018   1.690   3.389   1.705  0.4383 -0.2261  0.0144
 1520SOL    HW116019   1.647   3.426   1.628 -1.2179  1.0855  1.5475
 1520SOL    HW216020   1.641   3.434   1.774  0.6583 -2.4010  1.5810
 1521SOL     OW16021   0.778   2.885   5.084  0.2394 -0.2256  0.2328
 1521SOL    HW116022   0.757   2.923   5.170  0.5101  0.3438  0.0426
 1521SOL    HW216023   0.772   2.968   5.038  1.3222 -0.3802 -0.1836
 1522SOL     OW16024   0.421   3.264   6.762 -0.2508  0.4375 -0.1480
 1522SOL    HW116025   0.424   3.338   6.701  0.7963  0.7113  0.2228
 1522SOL    HW216026   0.421   3.322   6.838 -0.9467 -0.1963  0.3265
 1523SOL     OW16027   2.286   2.378  13.864 -0.1749  0.0733 -0.2057
 1523SOL    HW116028   2.300   2.404  13.955  2.3298  0.4867 -0.7151
 1523SOL    HW216029   2.200   2.415  13.845  0.0746  0.9965  0.4507
 1524SOL     OW16030   0.064   2.261   1.115  0.3808  0.3791  0.2308
 1524SOL    HW116031   0.131   2.209   1.071  0.7065  0.5987  0.4625
 1524SOL    HW216032   0.035   2.313   1.041 -0.2176 -0.4926 -0.1446
 1525SOL     OW16033   3.684   2.596   8.150 -0.1888 -0.2107  0.1682
 1525SOL    HW116034   3.681   2.682   8.192  0.1253  0.8746 -2.0369
 1525SOL    HW216035   3.764   2.566   8.194  0.0765  1.2254  0.6510
 1526SOL     OW16036   2.648   0.159   8.796  0.5169 -0.1336  0.0302
 1526SOL    HW116037   2.693   0.243   8.806  0.1659  0.4085 -2.8354
 1526SOL    HW216038   2.627   0.140   8.887 -0.1225  0.4673  0.0127
 1527SOL     OW16039   4.644   0.662   8.457 -0.0644 -0.1229 -0.4238
 1527SOL    HW116040   4.705   0.678   8.385  0.6203  2.2271  0.6712
 1527SOL    HW216041   4.689   0.695   8.535  0.1987 -1.6225  0.0513
 1528SOL     OW16042   2.715   1.160   1.440  0.3178 -0.1793 -0.0965
 1528SOL    HW116043   2.620   1.167   1.449  0.2902 -0.7878  0.0986
 1528SOL    HW216044   2.731   1.252   1.420  1.7389 -0.4563 -0.2143
 1529SOL     OW16045   1.676   0.037  11.480  0.4658  0.1134 -0.6636
 1529SOL    HW116046   1.623   0.110  11.449  0.8217 -0.0272 -1.5881
 1529SOL    HW216047   1.629   4.679  11.454  0.5983 -0.0356 -0.4493
 1530SOL     OW16048   4.507   3.430  13.416 -0.5683 -0.3839 -0.7240
 1530SOL    HW116049   4.458   3.486  13.355 -1.9530  0.9067  1.5534
 1530SOL    HW216050   4.442   3.434  13.487  0.9030 -0.1337  0.6229
 1531SOL     OW16051   4.272   0.131   5.606 -0.4344  0.0335  0.4461
 1531SOL    HW116052   4.304   0.215   5.575 -1.8361  0.9228  1.3967
 1531SOL    HW216053   4.356   0.091   5.626  0.6223  1.7835 -0.5725
 1532SOL     OW16054   0.734   1.054   6.886  0.0883  0.0448  0.0222
 1532SOL    HW116055   0.750   1.113   6.813  1.6222  0.6310  0.8293
 1532SOL    HW216056   0.642   1.037   6.864 -0.2284 -0.8242  1.9951
 1533SOL     OW16057   4.396   3.723   5.346 -0.4393 -0.6323 -0.2753
 1533SOL    HW116058   4.467   3.659   5.341  1.3052  1.1390  1.6924
 1533SOL    HW216059   4.440   3.799   5.308 -2.7970 -0.4765 -2.7092
 1534SOL     OW16060   0.664   0.710  10.424  0.0064  0.3489 -0.8642
 1534SOL    HW116061   0.716   0.787  10.402 -1.8362  1.3402 -1.8376
 1534SOL    HW216062   0.721   0.657  10.479  2.0308  1.4058 -1.9302
 1535SOL     OW16063   3.516   4.149   8.024  0.4264  0.2814  0.2946
 1535SOL    HW116064   3.467   4.159   8.105  0.9563  2.7616  0.3060
 1535SOL    HW216065   3.590   4.207   8.041  0.7889 -0.1146  0.0774
 1536SOL     OW16066   0.153   2.255  15.459  0.3605 -0.0659  0.1579
 1536SOL    HW116067   0.220   2.283  15.521  0.7572  1.5088 -0.9565
 1536SOL    HW216068   0.191   2.198  15.393 -0.1686 -0.3224  0.0773
 1537SOL     OW16069   3.057   2.378  12.098  0.4638  0.1107 -0.2134
 1537SOL    HW116070   3.082   2.393  12.007 -1.3488  1.0812 -0.5526
 1537SOL    HW216071   3.091   2.290  12.112  1.8694  1.0385  2.2219
 1538SOL     OW16072   0.518   3.754  12.466  0.6658 -0.2026  0.5751
 1538SOL    HW116073   0.439   3.752  12.519  1.0336 -0.4810  1.1097
 1538SOL    HW216074   0.496   3.833  12.417  0.7196  0.5833  1.8272
 1539SOL     OW16075   4.407   3.263   4.132  0.6452  0.1364  0.2004
 1539SOL    HW116076   4.351   3.335   4.103  2.6052  1.9266  0.8460
 1539SOL    HW216077   4.406   3.194   4.066 -2.3117  0.1242  0.2662
 1540SOL     OW16078   0.116   3.490   7.729 -0.4306 -0.3384  0.0174
 1540SOL    HW116079   0.045   3.530   7.678 -1.4483 -0.2205  1.5484
 1540SOL    HW216080   0.113   3.546   7.807  3.3611  2.5341 -1.8872
 1541SOL     OW16081   4.585   2.837   9.690  0.5466  0.3401  0.4186
 1541SOL    HW116082   4.618   2.927   9.694 -0.1137  0.5555  0.8934
 1541SOL    HW216083   4.492   2.848   9.670 -0.1321 -1.1841  2.6545
 1542SOL     OW16084   1.447   2.178   6.943 -0.3286 -0.3643  0.1831
 1542SOL    HW116085   1.490   2.203   6.861  0.7413  2.3378  1.5698
 1542SOL    HW216086   1.422   2.266   6.969 -0.2951 -0.5882  0.9506
 1543SOL     OW16087   3.626   1.906   6.007 -0.4845 -0.0048 -0.3483
 1543SOL    HW116088   3.663   1.819   5.990  1.4476  0.6319  0.6024
 1543SOL    HW216089   3.568   1.916   5.932 -2.2360 -2.7513  0.6346
 1544SOL     OW16090   0.050   1.747   5.375  0.2359  0.3049  0.3076
 1544SOL    HW116091   4.716   1.694   5.432  0.7014  1.7936  2.1126
 1544SOL    HW216092   4.705   1.756   5.306 -1.2742  0.6261  1.8182
 1545SOL     OW16093   0.822   1.768   7.331 -0.4602 -0.3410  0.2087
 1545SOL    HW116094   0.915   1.792   7.329 -0.0463 -1.8727  1.2611
 1545SOL    HW216095   0.791   1.842   7.383 -0.8995  0.9882 -1.9474
 1546SOL     OW16096   3.372   3.645   6.592  0.0883 -0.0894 -0.1139
 1546SOL    HW116097   3.453   3.595   6.579 -0.7392 -0.7371 -2.6661
 1546SOL    HW216098   3.347   3.609   6.678  2.0958  0.8902  0.8646
 1547SOL     OW16099   3.865   1.325   1.737  0.3503 -0.3386 -0.4135
 1547SOL    HW116100   3.925   1.253   1.716 -0.5046 -0.7580 -1.4045
 1547SOL    HW216101   3.858   1.362   1.649 -0.9274 -1.1944 -0.6730
 1548SOL     OW16102   2.852   0.351  12.084  0.0028 -0.2353  0.1081
 1548SOL    HW116103   2.756   0.348  12.079  0.0698  1.0966 -1.8176
 1548SOL    HW216104   2.852   0.409  12.160 -0.3049  0.3117 -0.3117
 1549SOL     OW16105   1.037   1.977   7.446  0.4795  0.9021 -0.4435
 1549SOL    HW116106   1.088   2.020   7.377  1.2183 -1.3750 -1.2928
 1549SOL    HW216107   1.103   1.957   7.511 -0.0100  0.0795 -0.1976
 1550SOL     OW16108   1.624   1.188   6.616  0.2168 -0.1191 -0.4360
 1550SOL    HW116109   1.581   1.158   6.696  1.0319  1.9071  0.7661
 1550SOL    HW216110   1.645   1.105   6.574  0.8738  0.2019 -0.7249
 1551SOL     OW16111   3.163   4.554  16.467  0.4577 -0.3814 -0.0443
 1551SOL    HW116112   3.227   4.615  16.429  0.8030 -0.3925  0.5068
 1551SOL    HW216113   3.211   4.471  16.469 -0.1658 -0.6904  1.7951
 1552SOL     OW16114   2.235   4.689  17.648 -0.0689  0.0163 -0.2434
 1552SOL    HW116115   2.158   4.634  17.632  0.4301 -0.8172  0.2008
 1552SOL    HW216116   2.215   0.034  17.581  2.1691  0.1952 -0.7268
 1553SOL     OW16117   2.158   1.387   5.887 -0.3541 -0.0730 -0.4659
 1553SOL    HW116118   2.236   1.348   5.927  0.3583  1.0838 -0.7143
 1553SOL    HW216119   2.093   1.348   5.945  0.1412  0.8568  0.7364
 1554SOL     OW16120   4.648   1.648  12.765 -0.2378 -0.0328  0.1508
 1554SOL    HW116121   4.656   1.590  12.689 -1.7007 -0.7674  0.5651
 1554SOL    HW216122   4.676   1.591  12.837  0.1588 -1.2167 -0.9300
 1555SOL     OW16123   4.350   4.661  16.859  0.5607  0.0137  0.6403
 1555SOL    HW116124   4.368   4.631  16.948  1.5379  0.8778  0.7328
 1555SOL    HW216125   4.287   0.010  16.880 -0.8878 -0.6505 -1.4021
 1556SOL     OW16126   2.695   2.745   4.000  0.2967 -0.3194 -0.4179
 1556SOL    HW116127   2.616   2.781   4.040  0.1600 -0.6678 -0.3671
 1556SOL    HW216128   2.669   2.653   3.991 -0.4535 -0.0079 -1.4310
 1557SOL     OW16129   4.389   4.654   6.888 -0.2021 -0.3763 -0.0519
 1557SOL    HW116130   4.368   4.585   6.950  1.7297  1.1623  2.3262
 1557SOL    HW216131   4.388   0.008   6.948  0.2306 -0.9885  0.7241
 1558SOL     OW16132   4.524   4.181   6.837 -0.3681  0.1422  0.0669
 1558SOL    HW116133   4.530   4.185   6.932  0.0382  1.4049 -0.0131
 1558SOL    HW216134   4.532   4.274   6.818 -1.8072 -0.0308 -1.5015
 1559SOL     OW16135   0.286   3.709  16.693 -0.7377 -0.1708  0.0127
 1559SOL    HW116136   0.330   3.744  16.771 -2.3146  0.2937  0.7069
 1559SOL    HW216137   0.208   3.670  16.732 -1.5103  0.8639 -0.5018
 1560SOL     OW16138   4.397   0.539   2.459 -0.7505  0.1730  0.1796
 1560SOL    HW116139   4.484   0.508   2.432 -1.2112 -1.4803  0.5928
 1560SOL    HW216140   4.417   0.555   2.551  1.1998  0.3873 -0.2912
 1561SOL     OW16141   1.975   4.577  10.447  0.3391  0.4768 -0.3434
 1561SOL    HW116142   1.922   4.499  10.464 -0.1314  0.3766 -2.2761
 1561SOL    HW216143   2.020   4.559  10.365  1.8436  0.1845  0.5375
 1562SOL     OW16144   2.266   3.121   5.394  0.0418  0.0780 -0.3253
 1562SOL    HW116145   2.266   3.213   5.420 -0.0241  0.8207 -2.9233
 1562SOL    HW216146   2.307   3.073   5.466  3.7384  1.0425 -1.8115
 1563SOL     OW16147   4.552   3.120   7.669 -0.0115  0.2523 -0.1953
 1563SOL    HW116148   4.516   3.115   7.758  1.2102 -1.1883  0.2097
 1563SOL    HW216149   4.631   3.167   7.694 -0.1784  2.3813 -3.6357
 1564SOL     OW16150   2.644   0.586   2.563  0.6243  0.0633  0.1904
 1564SOL    HW116151   2.605   0.667   2.594 -0.7523 -0.8117  0.7716
 1564SOL    HW216152   2.573   0.564   2.503  1.2860 -0.7355 -0.2986
 1565SOL     OW16153   0.134   4.197   1.114  0.3291  0.0032  0.0616
 1565SOL    HW116154   0.105   4.210   1.204  0.2826 -0.8094  0.1621
 1565SOL    HW216155   0.181   4.114   1.126  0.0955 -0.2827 -0.9546
 1566SOL     OW16156   0.536   0.222   5.823  0.0820 -0.1208  0.0738
 1566SOL    HW116157   0.600   0.292   5.842  0.3550 -0.5854  0.8788
 1566SOL    HW216158   0.471   0.269   5.771  1.1857  0.5673 -0.6989
 1567SOL     OW16159   2.702   0.547   8.275  0.1245  0.4238  0.5263
 1567SOL    HW116160   2.721   0.454   8.266  0.3508  0.5353 -0.1389
 1567SOL    HW216161   2.719   0.557   8.369 -1.3088 -0.4607  0.8854
 1568SOL     OW16162   4.537   2.873   3.974  0.5688  0.2865  0.1971
 1568SOL    HW116163   4.611   2.933   3.968 -0.4706  1.8706  2.8813
 1568SOL    HW216164   4.470   2.939   3.957 -0.6340 -1.4944 -1.9603
 1569SOL     OW16165   2.640   1.281   8.830  0.7245 -0.3078 -0.1333
 1569SOL    HW116166   2.569   1.291   8.893  1.3403  1.4991  0.2668
 1569SOL    HW216167   2.623   1.188   8.814 -2.5848  0.4248 -0.7825
 1570SOL     OW16168   4.491   4.013  11.937 -0.1501 -0.0157 -0.1529
 1570SOL    HW116169   4.449   4.007  12.023  1.0871  1.0262  0.5281
 1570SOL    HW216170   4.434   3.959  11.881  0.3584 -1.0719  0.3592
 1571SOL     OW16171   4.159   1.579   4.039 -0.3948  0.4034  0.6578
 1571SOL    HW116172   4.070   1.604   4.011 -0.2608 -0.7807 -0.8316
 1571SOL    HW216173   4.158   1.591   4.134  0.0619 -0.6941  0.7930
 1572SOL     OW16174   2.624   1.718   7.691  0.6194  0.4393 -0.3461
 1572SOL    HW116175   2.650   1.739   7.601 -1.4905  0.0174 -1.0717
 1572SOL    HW216176   2.709   1.690   7.723 -0.2596 -3.0668 -1.1291
 1573SOL     OW16177   2.049   1.078   2.852 -0.0384 -0.5755  0.2852
 1573SOL    HW116178   2.139   1.069   2.883 -0.6744 -1.9222  1.7635
 1573SOL    HW216179   2.059   1.046   2.762 -0.8343  1.2650 -0.4567
 1574SOL     OW16180   1.097   0.986  14.426 -0.5006  0.0181  0.0950
 1574SOL    HW116181   1.118   0.961  14.336  1.0913  0.1259  0.4366
 1574SOL    HW216182   1.178   1.032  14.447 -0.2959  0.8250 -2.4630
 1575SOL     OW16183   3.043   3.853   5.159  0.5853  0.4189 -0.2427
 1575SOL    HW116184   3.010   3.809   5.238 -0.3934 -0.6321 -1.2401
 1575SOL    HW216185   3.134   3.858   5.188  0.0436  2.2118  1.1711
 1576SOL     OW16186   0.285   2.525  16.115  0.6712  0.2626 -0.4331
 1576SOL    HW116187   0.339   2.521  16.195 -0.2450  1.1522  0.2210
 1576SOL    HW216188   0.246   2.612  16.107  2.1979  0.8719 -1.3235
 1577SOL     OW16189   1.625   0.987   7.154  0.2434  0.2012 -0.1012
 1577SOL    HW116190   1.546   1.006   7.206  0.6945 -0.6010  0.8986
 1577SOL    HW216191   1.668   1.071   7.169  0.5602  0.1901 -0.9544
 1578SOL     OW16192   2.040   0.735   1.990  0.7024  0.0272 -0.7414
 1578SOL    HW116193   1.952   0.750   1.956  0.7929  1.4529 -0.3195
 1578SOL    HW216194   2.026   0.651   2.035  0.0606  1.2061  1.2354
 1579SOL     OW16195   2.308   0.566   3.416 -0.1935  0.5916  0.5453
 1579SOL    HW116196   2.322   0.544   3.508 -2.6927  0.0539  0.7850
 1579SOL    HW216197   2.361   0.499   3.372 -1.2736 -0.8594  1.4611
 1580SOL     OW16198   0.148   0.172   4.233  0.4772  0.1201  0.0594
 1580SOL    HW116199   0.134   0.265   4.212 -0.2985  0.3793  1.7231
 1580SOL    HW216200   0.134   0.127   4.150  2.3201 -0.3304  0.0006
 1581SOL     OW16201   2.930   0.496  13.539  0.0150 -0.2707  0.8101
 1581SOL    HW116202   2.838   0.508  13.516 -0.0451 -0.4161  0.9778
 1581SOL    HW216203   2.960   0.571  13.592  2.6250  0.1664 -1.2739
 1582SOL     OW16204   2.138   1.041   7.376 -0.1320 -0.4425  0.0562
 1582SOL    HW116205   2.078   1.046   7.302 -1.2271 -0.4032  0.9476
 1582SOL    HW216206   2.184   1.123   7.362  1.2561 -1.1664  0.3483
 1583SOL     OW16207   2.943   4.689   5.696  0.2723 -0.3257 -0.1368
 1583SOL    HW116208   2.967   4.604   5.733  0.2192 -0.2223  0.1350
 1583SOL    HW216209   2.851   4.674   5.675  0.1836  2.4299 -1.6934
 1584SOL     OW16210   0.895   3.233   1.319  0.0586 -0.6687 -0.5622
 1584SOL    HW116211   0.846   3.311   1.292 -0.0533 -0.7658 -0.6399
 1584SOL    HW216212   0.819   3.174   1.324 -0.2514  0.0545  2.9242
 1585SOL     OW16213   2.446   4.267   1.494  0.2727  0.1971 -0.4005
 1585SOL    HW116214   2.509   4.326   1.535 -1.4352  2.2616 -0.7700
 1585SOL    HW216215   2.407   4.229   1.572  1.1566  1.1087  0.4892
 1586SOL     OW16216   1.721   1.669  16.503  0.0142  0.1304 -0.0913
 1586SOL    HW116217   1.782   1.719  16.449 -1.1321  0.2282 -1.2958
 1586SOL    HW216218   1.787   1.615  16.546  1.3675  1.5892 -0.3236
 1587SOL     OW16219   1.112   1.002  12.063 -0.5068 -0.0709  0.4899
 1587SOL    HW116220   1.196   0.959  12.079 -0.7121 -0.7551 -0.3084
 1587SOL    HW216221   1.057   0.994  12.141 -0.0713 -1.1809  0.6818
 1588SOL     OW16222   0.002   0.400   3.784 -0.1811 -0.0930 -0.9857
 1588SOL    HW116223   0.056   0.461   3.835 -1.1886 -0.4203  0.5033
 1588SOL    HW216224   4.648   0.396   3.844 -1.2708  2.1163 -2.1866
 1589SOL     OW16225   2.034   1.325  10.714 -0.4995  0.1272  0.1385
 1589SOL    HW116226   1.983   1.341  10.634 -2.1671  0.0156  1.1763
 1589SOL    HW216227   2.111   1.376  10.690  0.2221 -0.8273  0.4762
 1590SOL     OW16228   1.747   4.090   3.602  0.1163 -0.6861 -0.1048
 1590SOL    HW116229   1.714   4.137   3.525 -4.3099 -0.7632  1.6983
 1590SOL    HW216230   1.764   4.001   3.572  0.3004 -0.4325 -0.7747
 1591SOL     OW16231   1.443   0.346   0.638 -0.8148  0.2911 -0.2754
 1591SOL    HW116232   1.476   0.385   0.719  2.4739 -1.0276 -0.9901
 1591SOL    HW216233   1.350   0.351   0.661 -0.5532 -0.8259  1.0728
 1592SOL     OW16234   2.408   1.069  16.931 -0.1736 -0.5394  0.0233
 1592SOL    HW116235   2.334   1.126  16.910  1.5400  2.2461  1.4435
 1592SOL    HW216236   2.380   0.995  16.877  0.3640 -0.8231  0.1328
 1593SOL     OW16237   4.273   2.359   6.178  0.1261  0.2803 -0.0579
 1593SOL    HW116238   4.341   2.292   6.179 -1.3935 -1.2432  0.2138
 1593SOL    HW216239   4.289   2.408   6.097  0.0392 -0.4101 -0.4973
 1594SOL     OW16240   4.063   2.055   8.339 -0.6241  0.1874  0.5147
 1594SOL    HW116241   3.987   2.076   8.392 -0.8729  1.8993 -0.5279
 1594SOL    HW216242   4.030   1.983   8.285  1.0625 -0.8340  0.8335
 1595SOL     OW16243   4.357   0.053   8.957 -0.6888  0.1240 -0.4801
 1595SOL    HW116244   4.442   0.089   8.934 -0.0955 -0.3838  0.9312
 1595SOL    HW216245   4.311   0.133   8.981 -0.5591 -0.9178  3.2447
 1596SOL     OW16246   3.211   2.681   2.963  0.5314  0.6500  0.1971
 1596SOL    HW116247   3.167   2.753   3.008  1.5640  1.9583 -0.8645
 1596SOL    HW216248   3.210   2.713   2.873 -1.6563 -0.9104 -0.2995
 1597SOL     OW16249   3.968   4.350  15.507  0.6689  0.0232 -0.2230
 1597SOL    HW116250   4.009   4.421  15.555 -0.4771 -0.7044  1.8298
 1597SOL    HW216251   4.014   4.277  15.549 -0.6931 -0.4777  0.4157
 1598SOL     OW16252   0.082   0.935  10.776 -0.1224 -0.3727  0.3398
 1598SOL    HW116253   0.012   0.875  10.802 -0.6860  0.7379  1.3887
 1598SOL    HW216254   0.039   1.000  10.722 -0.7788 -0.1937  1.0823
 1599SOL     OW16255   1.532   3.942  13.307 -0.0152  0.1425  0.5183
 1599SOL    HW116256   1.470   3.927  13.235 -0.2441  1.7955  0.3709
 1599SOL    HW216257   1.574   4.024  13.280 -0.0513 -0.5330 -1.5739
 1600SOL     OW16258   0.735   1.317   6.069  0.2560  0.3685 -0.0153
 1600SOL    HW116259   0.812   1.309   6.013  0.5765  1.0944  0.3213
 1600SOL    HW216260   0.688   1.388   6.024  1.4840 -0.2057 -2.1883
 1601SOL     OW16261   2.658   1.832   0.295 -0.2798 -0.4098 -0.0345
 1601SOL    HW116262   2.588   1.886   0.330  1.7839  1.2570  1.5307
 1601SOL    HW216263   2.734   1.857   0.349 -1.1849  1.0820  0.5301
 1602SOL     OW16264   4.291   0.124   4.696 -0.2079 -0.0529 -0.4066
 1602SOL    HW116265   4.257   0.213   4.702  0.5451  0.1573  0.6848
 1602SOL    HW216266   4.246   0.096   4.616 -0.3958  1.1574 -0.7170
 1603SOL     OW16267   4.553   2.609   2.301 -0.3843 -0.1526 -0.1668
 1603SOL    HW116268   4.592   2.696   2.306 -1.9836  0.5614  0.1638
 1603SOL    HW216269   4.493   2.613   2.376  0.5257 -1.3490  0.6331
 1604SOL     OW16270   0.923   1.548   4.697 -0.1920 -0.4510 -0.1916
 1604SOL    HW116271   0.852   1.501   4.742  0.8644 -1.9289 -0.0968
 1604SOL    HW216272   0.979   1.478   4.665 -0.2918 -0.9568  0.7587
 1605SOL     OW16273   1.482   4.107  13.650  0.0924  0.4280  0.1976
 1605SOL    HW116274   1.456   4.041  13.586 -0.6654 -0.1189  1.0684
 1605SOL    HW216275   1.442   4.185  13.611 -3.1619  0.0371  2.8642
 1606SOL     OW16276   4.337   4.386   3.018  0.4811  0.2132 -0.2280
 1606SOL    HW116277   4.281   4.453   2.980  2.4579  2.1844  0.3259
 1606SOL    HW216278   4.353   4.424   3.105 -2.6773  1.3584 -0.1703
 1607SOL     OW16279   2.736   1.626  14.796  0.1305 -0.3226 -0.2230
 1607SOL    HW116280   2.659   1.571  14.811 -1.2307  1.1382 -1.8171
 1607SOL    HW216281   2.776   1.560  14.740  0.3827  0.0146 -0.4379
 1608SOL     OW16282   1.084   1.162   2.546  0.3198  0.5240  0.1141
 1608SOL    HW116283   0.989   1.174   2.556  0.6674  0.8742  2.9063
 1608SOL    HW216284   1.091   1.070   2.520  2.7460  1.0966 -1.2070
 1609SOL     OW16285   3.891   2.712   8.450  0.0167 -0.0176 -0.0135
 1609SOL    HW116286   3.987   2.711   8.452  0.0120 -0.3512  0.1844
 1609SOL    HW216287   3.879   2.638   8.511  0.4171  1.5827  2.0043
 1610SOL     OW16288   1.451   1.990   8.122  0.1649  0.1436  0.5127
 1610SOL    HW116289   1.459   2.052   8.195 -0.4472 -0.4845  1.1084
 1610SOL    HW216290   1.359   1.993   8.096  1.0795 -1.1354 -2.8436
 1611SOL     OW16291   4.001   0.219   8.373  0.0228 -0.0471 -0.2539
 1611SOL    HW116292   3.972   0.286   8.436 -0.1595  0.6398 -1.0645
 1611SOL    HW216293   3.924   0.163   8.370  0.1040 -0.3566  3.3338
 1612SOL     OW16294   4.509   2.552   5.804  0.3362  0.3457  0.6977
 1612SOL    HW116295   4.503   2.496   5.881 -0.1814 -0.5617  0.0046
 1612SOL    HW216296   4.415   2.567   5.790  0.3723  0.8926  1.0310
 1613SOL     OW16297   4.490   3.095   0.831  0.3045  0.5644 -0.4922
 1613SOL    HW116298   4.531   3.014   0.859  1.6566  0.8596 -1.6195
 1613SOL    HW216299   4.560   3.130   0.776  0.1943  1.3992 -0.1118
 1614SOL     OW16300   2.438   1.529   5.833  0.0474  0.3413  0.3776
 1614SOL    HW116301   2.467   1.597   5.893  0.4018 -0.4672  1.1242
 1614SOL    HW216302   2.391   1.467   5.890 -1.3935  1.0527 -0.0296
 1615SOL     OW16303   0.464   1.208   2.729 -0.1163  0.0771 -0.5597
 1615SOL    HW116304   0.551   1.223   2.767  0.4434  0.0336 -1.8383
 1615SOL    HW216305   0.459   1.250   2.643  1.2498  0.7819 -0.2860
 1616SOL     OW16306   3.437   0.130   8.057  0.3139  0.2152  0.0799
 1616SOL    HW116307   3.397   0.071   7.992  1.0368 -1.2119  0.9151
 1616SOL    HW216308   3.452   0.080   8.137 -1.2565 -0.6706 -0.1781
 1617SOL     OW16309   1.502   2.513   8.585 -0.3168 -0.5580 -0.2461
 1617SOL    HW116310   1.470   2.440   8.638 -0.7461 -1.5483 -1.8703
 1617SOL    HW216311   1.467   2.581   8.642  1.7316 -0.7502  1.2309
 1618SOL     OW16312   3.423   0.665   6.152  0.1410 -0.1761 -0.2286
 1618SOL    HW116313   3.404   0.571   6.164 -3.5336  0.6149  0.3836
 1618SOL    HW216314   3.364   0.694   6.221 -0.1721  0.4519 -0.7617
 1619SOL     OW16315   4.665   2.489   9.018 -0.0183 -0.4739  0.4180
 1619SOL    HW116316   4.630   2.415   9.070  1.5364 -0.0764  2.0158
 1619SOL    HW216317   0.039   2.483   9.021 -0.0375 -1.5552 -1.0335
 1620SOL     OW16318   0.463   1.975   6.207 -0.1875 -0.3687 -0.4367
 1620SOL    HW116319   0.411   2.055   6.216 -1.4202 -1.1326 -0.8376
 1620SOL    HW216320   0.407   1.907   6.245 -3.8235  1.6489 -2.2108
 1621SOL     OW16321   0.730   3.216   7.733 -0.3055 -0.3303  0.1476
 1621SOL    HW116322   0.716   3.253   7.820 -1.0826  0.9946 -0.5303
 1621SOL    HW216323   0.774   3.132   7.743  0.3800  0.1785  1.3540
 1622SOL     OW16324   2.079   1.136   0.904 -0.7304  0.5067 -0.1725
 1622SOL    HW116325   2.124   1.106   0.983 -1.7491  2.6199  1.2169
 1622SOL    HW216326   2.125   1.086   0.837  0.3382  1.1726  0.0665
 1623SOL     OW16327   2.146   0.516   5.251 -0.0923  0.6056 -0.1923
 1623SOL    HW116328   2.109   0.603   5.235  1.2577  1.5036  1.5840
 1623SOL    HW216329   2.190   0.506   5.167  0.9168  0.4452  0.3538
 1624SOL     OW16330   0.415   2.951   4.160 -0.1048  0.5963 -0.2188
 1624SOL    HW116331   0.326   2.933   4.189  0.1224 -1.0865 -0.6127
 1624SOL    HW216332   0.407   3.004   4.080 -3.2684 -0.3795 -0.5404
 1625SOL     OW16333   1.420   1.959  15.386 -0.3702 -0.5497  0.5047
 1625SOL    HW116334   1.352   1.901  15.420 -0.1134 -1.4644 -0.5585
 1625SOL    HW216335   1.500   1.907  15.388  0.0814  0.1867  1.4370
 1626SOL     OW16336   3.487   0.497  14.736  0.0692 -0.4292  0.0264
 1626SOL    HW116337   3.466   0.548  14.815 -1.0335 -1.8316  0.6416
 1626SOL    HW216338   3.535   0.560  14.682 -1.1757  0.6955  0.2418
 1627SOL     OW16339   1.082   0.587   2.645 -0.0091 -0.1397  0.3496
 1627SOL    HW116340   1.099   0.534   2.567  2.5634  1.3437 -0.0855
 1627SOL    HW216341   1.165   0.634   2.648 -0.2894  0.3807 -0.1531
 1628SOL     OW16342   0.506   3.907   2.176  0.6674 -0.1615  0.3747
 1628SOL    HW116343   0.473   3.822   2.206  0.0799  0.2176  0.8179
 1628SOL    HW216344   0.592   3.886   2.140  0.4507  2.8453 -1.9188
 1629SOL     OW16345   2.672   2.347   6.588  0.5498  0.3033 -0.1420
 1629SOL    HW116346   2.713   2.267   6.554 -1.2777 -0.1078 -1.3680
 1629SOL    HW216347   2.749   2.379   6.634  0.7884  0.3608 -0.5844
 1630SOL     OW16348   4.568   1.790   1.279 -0.0370 -0.2572 -0.0929
 1630SOL    HW116349   4.506   1.767   1.210 -0.6576  0.5740  0.1922
 1630SOL    HW216350   4.594   1.880   1.260  0.1393 -0.8362 -2.6125
 1631SOL     OW16351   0.203   3.958  13.330 -0.3675 -0.2742 -0.0194
 1631SOL    HW116352   0.225   3.871  13.364  0.9960  0.4225  0.8889
 1631SOL    HW216353   0.141   3.984  13.398 -1.7920 -2.0836 -0.6136
 1632SOL     OW16354   0.975   0.011   6.918 -0.0861  0.1979  0.2897
 1632SOL    HW116355   0.934   0.020   6.832 -1.2374 -1.1555  0.6957
 1632SOL    HW216356   1.059   0.046   6.890 -0.5150 -1.2345 -2.8004
 1633SOL     OW16357   3.996   1.956  12.697  0.3867  0.0755 -0.4693
 1633SOL    HW116358   3.960   1.965  12.609  0.5681 -2.6690 -0.8284
 1633SOL    HW216359   4.059   2.027  12.697  1.3838 -0.8271 -4.6676
 1634SOL     OW16360   0.989   4.578  13.395  0.7607 -0.3147 -0.2731
 1634SOL    HW116361   0.909   4.572  13.446  0.6951  1.3346 -0.1818
 1634SOL    HW216362   0.976   4.639  13.323  2.6518 -1.8555 -1.9177
 1635SOL     OW16363   2.020   2.999   2.065 -0.4466 -0.3788  0.8928
 1635SOL    HW116364   2.060   2.981   1.980 -0.0409  1.6626  0.6650
 1635SOL    HW216365   1.929   3.018   2.044 -0.2623 -0.4011  0.0810
 1636SOL     OW16366   3.810   0.208  10.639 -0.1869  0.0024  0.3440
 1636SOL    HW116367   3.736   0.225  10.697 -1.1746  3.1610 -1.8417
 1636SOL    HW216368   3.763   0.134  10.602 -1.3660 -0.2040  2.2364
 1637SOL     OW16369   3.721   2.013   1.754  0.3511 -0.4837 -0.0157
 1637SOL    HW116370   3.813   2.010   1.779  0.3429  4.3634  0.4799
 1637SOL    HW216371   3.722   1.966   1.670  1.4965  1.6822 -1.2118
 1638SOL     OW16372   3.682   2.408   8.898 -0.0433 -0.3187 -0.0493
 1638SOL    HW116373   3.647   2.329   8.938 -1.6487  0.0690 -0.6924
 1638SOL    HW216374   3.670   2.396   8.804 -2.1375  0.3200  0.1340
 1639SOL     OW16375   3.781   1.245   0.591  0.3020  0.3609 -0.4439
 1639SOL    HW116376   3.685   1.241   0.589  0.3465 -1.7052  1.0287
 1639SOL    HW216377   3.808   1.153   0.590 -0.0452  0.2519 -0.0217
 1640SOL     OW16378   0.489   4.599   8.764 -0.9808  0.1421 -0.0477
 1640SOL    HW116379   0.449   4.622   8.679 -1.8680 -2.5338 -0.3554
 1640SOL    HW216380   0.410   4.564   8.806 -0.5475 -2.7421 -1.6645
 1641SOL     OW16381   2.631   0.408  14.510  0.4925  0.1240 -0.5302
 1641SOL    HW116382   2.558   0.446  14.461 -0.2415  0.3407  0.7264
 1641SOL    HW216383   2.703   0.401  14.447 -2.1694 -0.6046 -3.4700
 1642SOL     OW16384   2.247   3.242   9.099 -0.1576  0.5340  0.2920
 1642SOL    HW116385   2.234   3.303   9.026 -0.4208  0.0190 -0.0939
 1642SOL    HW216386   2.155   3.219   9.111 -0.2293 -0.8945 -2.9016
 1643SOL     OW16387   3.233   0.737   6.342 -0.0949 -0.2123  0.1377
 1643SOL    HW116388   3.141   0.759   6.354 -0.2100  0.4874 -1.9236
 1643SOL    HW216389   3.241   0.651   6.382 -0.8227 -0.0898  0.5516
 1644SOL     OW16390   3.837   3.705   9.004  0.0390 -0.5427 -0.3994
 1644SOL    HW116391   3.845   3.662   9.088 -1.0533 -0.9610 -0.5116
 1644SOL    HW216392   3.789   3.783   9.033  1.3048  0.5615 -1.3118
 1645SOL     OW16393   1.018   4.416   2.976  0.0115 -0.8630 -0.2717
 1645SOL    HW116394   1.021   4.395   3.069 -1.3628  1.7748  0.3718
 1645SOL    HW216395   0.926   4.439   2.964  0.0293 -0.7128 -0.1181
 1646SOL     OW16396   0.161   0.333  16.432  0.2357  0.3749  0.4818
 1646SOL    HW116397   0.218   0.411  16.432  0.6440  0.0889 -2.0691
 1646SOL    HW216398   0.146   0.313  16.340 -0.6099  0.2392  0.6552
 1647SOL     OW16399   0.325   1.506   7.085  0.2266 -0.5002  0.3411
 1647SOL    HW116400   0.281   1.485   7.167 -1.6375 -0.1026 -0.5587
 1647SOL    HW216401   0.401   1.559   7.112  0.9611 -1.4455  0.1163
 1648SOL     OW16402   0.912   0.607   6.139  0.1199 -0.1920  0.0492
 1648SOL    HW116403   0.824   0.570   6.133  0.1273 -0.4724  1.6744
 1648SOL    HW216404   0.907   0.684   6.083  0.0120 -0.8591 -0.8586
 1649SOL     OW16405   3.343   3.055   0.562  0.3919  0.5173 -0.1356
 1649SOL    HW116406   3.319   3.074   0.652 -0.8713 -2.2359  0.1023
 1649SOL    HW216407   3.332   3.142   0.524 -1.9091  0.0348 -0.5769
 1650SOL     OW16408   2.463   0.215   1.728 -0.1580 -0.1755 -0.5057
 1650SOL    HW116409   2.427   0.299   1.700  1.2345  0.1898 -1.1821
 1650SOL    HW216410   2.539   0.235   1.782  0.0345  0.8018 -1.1432
 1651SOL     OW16411   2.504   3.119   2.454 -0.2082  0.1771 -0.6850
 1651SOL    HW116412   2.420   3.127   2.409 -1.2652 -1.5515  0.9851
 1651SOL    HW216413   2.543   3.038   2.423 -0.8890 -0.0201 -1.0383
 1652SOL     OW16414   2.914   0.218   5.249  0.8492  0.6742 -0.1872
 1652SOL    HW116415   2.987   0.266   5.288  0.5432  0.3820  0.7400
 1652SOL    HW216416   2.920   0.139   5.302 -0.3986  1.1842  0.6858
 1653SOL     OW16417   0.085   4.710   2.833 -0.4650  0.1756 -0.4838
 1653SOL    HW116418   0.034   4.719   2.752 -0.3543  0.1342 -0.5589
 1653SOL    HW216419   0.067   0.075   2.870  4.3229  0.4227  1.2472
 1654SOL     OW16420   4.369   4.700   2.327 -0.4540  0.2595 -0.1623
 1654SOL    HW116421   4.287   4.690   2.277 -0.8165  0.1328  0.4572
 1654SOL    HW216422   4.382   0.072   2.344 -2.0430  0.2464  1.2090
 1655SOL     OW16423   4.152   2.150  12.618 -0.3466 -0.1726 -0.1695
 1655SOL    HW116424   4.136   2.164  12.525  1.2991  1.3171 -0.2062
 1655SOL    HW216425   4.163   2.241  12.645 -1.0296 -0.0074 -0.4555
 1656SOL     OW16426   0.114   3.226   2.703  0.1502 -0.0706 -0.2214
 1656SOL    HW116427   0.106   3.252   2.795 -0.3726 -1.4396  0.1265
 1656SOL    HW216428   0.200   3.183   2.702 -0.2943 -0.9372 -1.2517
 1657SOL     OW16429   4.104   0.686   5.363 -0.3463 -0.3652  0.0646
 1657SOL    HW116430   4.058   0.602   5.369  0.2648 -0.7201 -0.3305
 1657SOL    HW216431   4.059   0.733   5.433 -0.8087  1.8212 -1.6902
 1658SOL     OW16432   0.109   1.939   7.799  0.0490  0.2536 -0.3498
 1658SOL    HW116433   0.088   1.846   7.801  0.5067  0.2359  3.0159
 1658SOL    HW216434   0.039   1.969   7.741  1.6533  1.1939 -1.8000
 1659SOL     OW16435   4.096   3.107   6.556 -0.4862  0.1758 -0.1812
 1659SOL    HW116436   4.141   3.029   6.524 -0.0172  0.2581  0.2756
 1659SOL    HW216437   4.007   3.090   6.525 -0.6418 -0.0993  0.4142
 1660SOL     OW16438   3.658   4.441   8.401 -0.0118  0.1454 -0.9750
 1660SOL    HW116439   3.731   4.470   8.456  1.0515  0.6510 -2.6335
 1660SOL    HW216440   3.710   4.389   8.338  2.2455  0.9417  0.2237
 1661SOL     OW16441   3.087   3.985   8.821  0.3773  0.2291  0.4803
 1661SOL    HW116442   3.110   4.049   8.754 -1.9525 -0.7096 -1.2200
 1661SOL    HW216443   3.142   4.001   8.898 -0.7308 -0.9583  1.5183
 1662SOL     OW16444   2.891   2.665  16.009  0.3196 -0.0873  0.6425
 1662SOL    HW116445   2.809   2.658  15.960 -0.0600  0.7742  1.1610
 1662SOL    HW216446   2.958   2.640  15.946 -0.1330 -0.7276  0.4131
 1663SOL     OW16447   2.159   0.079   6.221  0.0285  0.0693 -0.1251
 1663SOL    HW116448   2.153   0.171   6.245 -2.4274  0.7866 -3.4857
 1663SOL    HW216449   2.216   0.052   6.293 -1.1253  1.3923  1.2814
 1664SOL     OW16450   2.276   4.416  16.997  0.0534 -0.4148 -0.4375
 1664SOL    HW116451   2.286   4.329  16.958 -1.8787  0.1189 -2.0958
 1664SOL    HW216452   2.368   4.443  16.995 -0.0605 -0.3808 -3.7870
 1665SOL     OW16453   0.902   2.743  17.260 -0.0950 -0.6186  0.4696
 1665SOL    HW116454   0.828   2.796  17.231  0.9755  0.9325  0.5587
 1665SOL    HW216455   0.849   2.678  17.305 -0.4847  0.3467  1.4079
 1666SOL     OW16456   3.921   2.062   3.740  0.0491 -0.2748 -0.3187
 1666SOL    HW116457   3.977   2.100   3.806  0.0051  1.1215 -1.0793
 1666SOL    HW216458   3.861   2.007   3.791 -0.5642 -0.4703 -1.2334
 1667SOL     OW16459   1.607   1.377   2.407 -0.2040 -0.5841  0.4186
 1667SOL    HW116460   1.617   1.458   2.357  0.3948 -1.1039 -0.2994
 1667SOL    HW216461   1.650   1.314   2.349 -1.2490 -0.2079 -0.7773
 1668SOL     OW16462   3.093   4.429  17.024 -0.2334 -0.2078  0.0313
 1668SOL    HW116463   3.051   4.476  16.953  1.5147 -0.2942 -1.0451
 1668SOL    HW216464   3.052   4.477  17.096  1.1717  2.5313 -0.9828
 1669SOL     OW16465   4.145   2.788   0.632 -0.1735 -0.4720  0.3459
 1669SOL    HW116466   4.238   2.805   0.615  0.1181 -1.1976  1.1675
 1669SOL    HW216467   4.153   2.819   0.723 -4.6038  0.6056  0.3403
 1670SOL     OW16468   3.221   4.407  13.381 -0.0607  0.7119  0.2705
 1670SOL    HW116469   3.185   4.386  13.295  0.4589  0.6106  0.0817
 1670SOL    HW216470   3.269   4.489  13.370  0.8226  0.0444 -0.8370
 1671SOL     OW16471   1.175   4.015   3.140 -0.1679 -0.1458  0.8200
 1671SOL    HW116472   1.171   3.946   3.074  1.0546  1.9389 -1.4281
 1671SOL    HW216473   1.152   3.964   3.217  0.3426 -0.8382  0.5066
 1672SOL     OW16474   4.658   0.885  11.675 -0.1193  0.4429  0.7291
 1672SOL    HW116475   0.006   0.943  11.645 -0.0197 -1.1191 -2.1615
 1672SOL    HW216476   4.658   0.809  11.616  0.4419 -0.2600  1.6460
 1673SOL     OW16477   3.543   0.119   9.759 -0.3865 -0.1252 -0.2549
 1673SOL    HW116478   3.574   0.124   9.669  1.3081  1.0698  0.3930
 1673SOL    HW216479   3.561   0.026   9.776 -0.0805 -0.2719 -1.4058
 1674SOL     OW16480   3.668   2.125  10.291  0.5859  0.1847 -0.0528
 1674SOL    HW116481   3.721   2.135  10.212 -1.2900  4.8555 -0.7270
 1674SOL    HW216482   3.585   2.118  10.245  0.5114  2.1588 -0.2143
 1675SOL     OW16483   1.463   2.983   4.039  0.7895 -0.5518 -0.8518
 1675SOL    HW116484   1.421   2.966   4.123  2.8946 -2.8476 -0.2607
 1675SOL    HW216485   1.468   2.893   4.005 -3.3986 -0.9029 -0.5787
 1676SOL     OW16486   1.741   0.456   3.572  0.3142 -0.0263  0.1965
 1676SOL    HW116487   1.790   0.404   3.636  2.0695  0.3279 -0.8548
 1676SOL    HW216488   1.755   0.397   3.498 -1.9276  0.5553 -0.6986
 1677SOL     OW16489   1.375   0.853   6.875 -0.4180  0.1948  0.8519
 1677SOL    HW116490   1.407   0.778   6.924  0.5462 -1.7387 -2.7172
 1677SOL    HW216491   1.354   0.813   6.790  0.2332 -0.2889  0.9191
 1678SOL     OW16492   2.550   1.694   5.473 -0.1563 -0.7545 -0.1346
 1678SOL    HW116493   2.555   1.753   5.548 -0.7196  0.7593 -1.2916
 1678SOL    HW216494   2.631   1.644   5.481 -1.4168 -2.8370 -0.4377
 1679SOL     OW16495   0.597   3.608   9.313 -0.1433  0.0663  0.4205
 1679SOL    HW116496   0.513   3.562   9.315 -1.1262  1.9126  2.0882
 1679SOL    HW216497   0.584   3.666   9.388 -0.0387 -0.2270  0.6692
 1680SOL     OW16498   0.552   0.913   1.881 -0.3187  0.2345 -0.7451
 1680SOL    HW116499   0.497   0.876   1.950  3.7270 -1.8506  1.3168
 1680SOL    HW216500   0.615   0.843   1.868 -2.2059 -1.4264 -1.0140
 1681SOL     OW16501   3.322   2.935   4.850 -0.2546  0.3798 -0.0848
 1681SOL    HW116502   3.395   2.983   4.810 -1.0001  1.4203 -0.1801
 1681SOL    HW216503   3.301   2.868   4.785 -3.4048  0.6262  0.7020
 1682SOL     OW16504   1.330   1.817   2.753 -0.6939  0.2705 -0.2728
 1682SOL    HW116505   1.333   1.785   2.663  3.4058  1.4943 -0.5892
 1682SOL    HW216506   1.270   1.752   2.789 -0.6084  0.5452  0.3694
 1683SOL     OW16507   2.691   3.445   8.559  0.8395  0.2447  0.3208
 1683SOL    HW116508   2.613   3.430   8.613 -0.4380  1.0450 -1.3148
 1683SOL    HW216509   2.743   3.370   8.590  0.0900  0.6591  2.5618
 1684SOL     OW16510   1.575   3.637   4.832 -0.1405  0.0089  0.0741
 1684SOL    HW116511   1.624   3.703   4.784  1.3762 -1.8838 -0.9826
 1684SOL    HW216512   1.548   3.574   4.765  0.6205 -1.8990  1.5433
 1685SOL     OW16513   3.506   2.033   8.745 -0.2411  0.4808  0.1901
 1685SOL    HW116514   3.446   2.074   8.808  0.4185  1.9176 -0.1095
 1685SOL    HW216515   3.478   2.075   8.664  2.6938  1.1324 -0.4912
 1686SOL     OW16516   1.129   1.970   0.333  0.0198 -0.3581  0.4738
 1686SOL    HW116517   1.167   1.893   0.291  2.4348  1.7036 -1.1144
 1686SOL    HW216518   1.044   1.937   0.364 -0.9733  3.2265  1.5717
 1687SOL     OW16519   0.306   0.841   6.720  0.4319 -0.0244 -0.0274
 1687SOL    HW116520   0.300   0.774   6.652  0.0839  0.3589 -0.3737
 1687SOL    HW216521   0.212   0.838   6.741  0.8348  1.9531  1.9695
 1688SOL     OW16522   0.910   0.019   6.656 -0.1271 -0.1950 -0.0576
 1688SOL    HW116523   0.874   4.717   6.571 -3.3290 -0.3481  1.3445
 1688SOL    HW216524   1.000   0.028   6.626  0.1576  1.8467  1.3643
 1689SOL     OW16525   3.715   2.823  10.300  0.1076 -0.5481  0.1032
 1689SOL    HW116526   3.645   2.878  10.265 -0.2358  0.9556  3.1507
 1689SOL    HW216527   3.778   2.837  10.230 -1.9889 -0.2488 -1.7377
 1690SOL     OW16528   2.579   0.314  13.305  0.1784  0.1919 -0.0341
 1690SOL    HW116529   2.648   0.266  13.351  1.7160 -1.6538 -4.2226
 1690SOL    HW216530   2.554   0.249  13.238  1.0505  0.1756 -0.3509
 1691SOL     OW16531   3.564   2.242   9.101 -0.1567  0.7909  0.2317
 1691SOL    HW116532   3.636   2.194   9.142 -0.5323 -0.7056 -0.8736
 1691SOL    HW216533   3.546   2.291   9.181 -0.5244 -1.9481  1.8467
 1692SOL     OW16534   1.500   0.704   8.115  0.2481  0.0437  0.9361
 1692SOL    HW116535   1.534   0.617   8.093 -1.1217 -0.0850 -0.6261
 1692SOL    HW216536   1.454   0.687   8.197  0.5692 -0.1152  1.0839
 1693SOL     OW16537   3.600   4.549  15.602  0.2363 -0.3519  0.0666
 1693SOL    HW116538   3.617   4.463  15.641 -0.3859  0.3894  1.9700
 1693SOL    HW216539   3.530   4.514  15.547 -0.4458  0.2455  0.5489
 1694SOL     OW16540   0.685   3.523   2.451  0.2437  0.7774  0.0175
 1694SOL    HW116541   0.687   3.584   2.525 -0.0283 -1.8185  2.1287
 1694SOL    HW216542   0.654   3.454   2.508  1.5712  0.7856  0.7444
 1695SOL     OW16543   0.175   1.010   8.399 -0.0371 -0.0071 -0.2276
 1695SOL    HW116544   0.161   0.919   8.426 -2.5838  0.2259 -0.7150
 1695SOL    HW216545   0.266   1.004   8.370 -0.2239 -1.6281 -0.4730
 1696SOL     OW16546   4.634   2.866   2.350  0.1792  0.2317 -0.0088
 1696SOL    HW116547   4.625   2.870   2.445 -1.1657  2.7501 -0.2530
 1696SOL    HW216548   4.581   2.944   2.335  2.7735  1.3803 -3.0589
 1697SOL     OW16549   3.464   4.509   5.046 -0.1393  0.4197  0.1756
 1697SOL    HW116550   3.390   4.469   5.092  0.9697  0.1255  1.7205
 1697SOL    HW216551   3.523   4.437   5.028 -0.6783  0.3225 -1.2105
 1698SOL     OW16552   2.915   3.234   7.913  0.0734  0.7526 -0.3361
 1698SOL    HW116553   2.848   3.166   7.919  0.7816  0.2346  1.5896
 1698SOL    HW216554   2.960   3.228   7.997  0.5240  0.2024 -0.6198
 1699SOL     OW16555   3.812   1.699   5.646 -0.2798  0.0551 -0.2017
 1699SOL    HW116556   3.875   1.733   5.710  0.6410 -0.8429 -0.6332
 1699SOL    HW216557   3.747   1.663   5.706 -0.8740 -1.6671 -1.9020
 1700SOL     OW16558   0.440   3.058   5.794 -0.4358 -0.3384 -0.1837
 1700SOL    HW116559   0.514   3.012   5.833 -0.9548 -1.3678 -0.3912
 1700SOL    HW216560   0.365   3.003   5.818 -0.2280 -0.7347 -0.4326
 1701SOL     OW16561   1.906   3.380   6.815 -0.0477  0.0095  0.2154
 1701SOL    HW116562   1.842   3.448   6.793  0.2350  0.1070 -0.3023
 1701SOL    HW216563   1.856   3.318   6.868 -2.9545  1.9158 -0.2910
 1702SOL     OW16564   1.392   3.250   7.946  0.2436 -0.6180 -0.1996
 1702SOL    HW116565   1.377   3.344   7.952  0.7081 -0.5043 -0.8665
 1702SOL    HW216566   1.451   3.218   8.015  0.6353 -0.2407 -0.3627
 1703SOL     OW16567   1.788   2.088   2.226 -0.1521  0.1946  0.4379
 1703SOL    HW116568   1.854   2.147   2.264 -0.0904  1.1717 -1.1527
 1703SOL    HW216569   1.844   2.019   2.189  2.3671  1.6141  1.5752
 1704SOL     OW16570   2.056   2.084  15.897  0.3322  0.3657 -0.1635
 1704SOL    HW116571   2.048   2.073  15.802  2.0576  1.9456 -0.5006
 1704SOL    HW216572   1.971   2.125  15.914  1.1397  0.9108  2.5312
 1705SOL     OW16573   3.827   0.032   5.606 -0.1661 -0.4449 -0.4113
 1705SOL    HW116574   3.922   0.031   5.619 -0.2598 -2.2312  0.1054
 1705SOL    HW216575   3.793   0.084   5.678 -2.3424 -3.0479  0.4512
 1706SOL     OW16576   1.087   1.904   8.379  0.8020 -0.1323  0.0913
 1706SOL    HW116577   1.145   1.897   8.303  0.2132 -2.0248 -0.1949
 1706SOL    HW216578   1.142   1.893   8.456  1.8707 -3.3585 -1.1094
 1707SOL     OW16579   0.752   0.029  10.276 -0.4280  0.1310  0.2951
 1707SOL    HW116580   0.745   0.038  10.181 -1.4883  0.6998  0.4224
 1707SOL    HW216581   0.682   4.686  10.290 -1.3234  0.5192 -2.5001
 1708SOL     OW16582   3.851   3.003   7.266  0.1587 -0.2799 -0.4883
 1708SOL    HW116583   3.850   3.097   7.246  0.2762 -0.5198 -1.6455
 1708SOL    HW216584   3.934   2.998   7.314 -0.6188  0.3436  0.9060
 1709SOL     OW16585   0.620   2.394   2.955 -0.0245  0.0279  0.2725
 1709SOL    HW116586   0.555   2.434   3.012  2.6540  2.3139  1.6796
 1709SOL    HW216587   0.619   2.304   2.989 -0.6203  0.3587  1.1129
 1710SOL     OW16588   1.237   1.313   7.626  0.0523 -0.0726  0.4412
 1710SOL    HW116589   1.251   1.338   7.534 -0.9014 -1.2611 -0.0252
 1710SOL    HW216590   1.327   1.315   7.660  0.1490  2.1735  0.0775
 1711SOL     OW16591   2.530   2.035   4.547 -0.5871 -0.3849  0.0505
 1711SOL    HW116592   2.503   2.119   4.509  0.0844 -0.5870 -0.8646
 1711SOL    HW216593   2.543   2.062   4.637 -0.5671  0.7382 -0.2928
 1712SOL     OW16594   3.860   2.242   7.686  0.0287  0.2986 -0.2059
 1712SOL    HW116595   3.766   2.256   7.677  0.0984  0.5118 -0.6084
 1712SOL    HW216596   3.883   2.334   7.702  0.2957 -0.0934  1.6091
 1713SOL     OW16597   4.695   2.784   8.892  0.7978  0.0841 -0.3192
 1713SOL    HW116598   0.001   2.737   8.971 -0.4811 -0.3260 -0.1268
 1713SOL    HW216599   4.655   2.710   8.847 -1.9190  0.6448  1.1394
 1714SOL     OW16600   3.584   2.122   4.270  0.0232  0.3739 -0.4063
 1714SOL    HW116601   3.579   2.036   4.229 -0.2988  1.1546 -1.9794
 1714SOL    HW216602   3.642   2.111   4.346  1.5446 -1.7474 -1.8764
 1715SOL     OW16603   3.078   1.941   3.163  0.4633 -0.5085  0.1374
 1715SOL    HW116604   3.107   2.021   3.205 -3.6679  1.5319 -0.8853
 1715SOL    HW216605   3.145   1.875   3.182  0.5209 -0.3908  0.3414
 1716SOL     OW16606   3.553   1.439   6.256 -0.0002 -0.1990  0.1200
 1716SOL    HW116607   3.477   1.395   6.293  0.4773 -0.9615  0.1872
 1716SOL    HW216608   3.590   1.484   6.332 -2.7906  1.4210  0.5293
 1717SOL     OW16609   1.089   2.891   1.642 -0.1355  0.0082  0.3577
 1717SOL    HW116610   1.126   2.859   1.560 -0.7506 -0.4728  0.2690
 1717SOL    HW216611   1.119   2.982   1.643  1.7543 -0.5900 -2.7102
 1718SOL     OW16612   0.322   1.228  14.337 -0.1885 -0.1879  0.5182
 1718SOL    HW116613   0.297   1.146  14.380 -0.7570 -0.0575  0.4367
 1718SOL    HW216614   0.417   1.223  14.329 -0.4390 -3.2710 -0.3719
 1719SOL     OW16615   2.075   1.641  10.340  0.4084  0.2606 -0.5375
 1719SOL    HW116616   2.067   1.716  10.399 -2.3030 -0.9341  0.5856
 1719SOL    HW216617   2.151   1.594  10.376 -0.7589 -1.4187 -0.2932
 1720SOL     OW16618   0.397   3.244   4.406 -0.2450 -0.7694 -0.1670
 1720SOL    HW116619   0.328   3.208   4.461  0.1415  1.1635  1.5544
 1720SOL    HW216620   0.386   3.184   4.332  0.4772 -0.6249 -0.4026
 1721SOL     OW16621   4.282   0.933  12.417  0.1306 -0.2123  0.0953
 1721SOL    HW116622   4.316   1.011  12.460  0.6866 -1.5890  2.1641
 1721SOL    HW216623   4.248   0.885  12.492  2.2313 -0.4711  0.8627
 1722SOL     OW16624   1.568   1.171  12.431 -0.0418 -0.1513 -0.3878
 1722SOL    HW116625   1.569   1.266  12.439  0.7014 -0.3530  1.8570
 1722SOL    HW216626   1.484   1.136  12.460 -0.3204  0.8720  0.0644
 1723SOL     OW16627   3.574   1.414  10.917 -0.4658  0.0839  0.1307
 1723SOL    HW116628   3.581   1.506  10.943  2.2116  0.2486 -1.1379
 1723SOL    HW216629   3.638   1.411  10.845  0.5320  2.1561  0.9114
 1724SOL     OW16630   1.889   4.361  10.958  0.5903 -0.0521  0.1472
 1724SOL    HW116631   1.835   4.317  11.024  0.9446 -2.5887 -1.2393
 1724SOL    HW216632   1.938   4.432  11.000 -0.2952  0.1554  0.8511
 1725SOL     OW16633   4.281   1.622   5.828  0.2776 -0.5549  0.5426
 1725SOL    HW116634   4.366   1.600   5.790  1.2607  0.3639  2.2348
 1725SOL    HW216635   4.229   1.548   5.797 -0.9852  1.1564 -1.3863
 1726SOL     OW16636   2.401   2.087   4.108  0.1272  0.1522 -0.1523
 1726SOL    HW116637   2.422   2.006   4.155  0.5971  0.5469  0.3176
 1726SOL    HW216638   2.463   2.092   4.035 -1.6897 -3.9161 -1.9059
 1727SOL     OW16639   2.872   3.072   2.258  0.4180  0.2750  0.8621
 1727SOL    HW116640   2.838   3.022   2.184 -0.5881  2.4699 -0.1530
 1727SOL    HW216641   2.858   3.164   2.236 -0.6352  0.0898  0.7737
 1728SOL     OW16642   3.046   3.834  15.213 -0.3004  0.2342 -0.1113
 1728SOL    HW116643   3.120   3.783  15.180 -0.4867  0.1193 -0.3550
 1728SOL    HW216644   2.982   3.799  15.150  0.3582 -0.4914 -0.3762
 1729SOL     OW16645   4.304   3.529  14.482 -0.5464 -0.6863 -0.1265
 1729SOL    HW116646   4.214   3.496  14.489 -0.1826 -1.1799  2.1720
 1729SOL    HW216647   4.330   3.521  14.573  2.1478  2.3397 -0.6364
 1730SOL     OW16648   4.356   2.975  12.113  0.3985 -0.2921 -0.0632
 1730SOL    HW116649   4.289   3.031  12.073 -0.4011 -1.2203 -0.0138
 1730SOL    HW216650   4.369   2.900  12.055 -2.2728 -0.4986 -0.4002
 1731SOL     OW16651   2.369   0.995   6.393  0.0409  0.9624 -0.3136
 1731SOL    HW116652   2.434   0.926   6.407  0.8481  1.6974 -0.4273
 1731SOL    HW216653   2.293   0.943   6.366  0.3103 -0.0489  0.9081
 1732SOL     OW16654   0.610   0.470   5.646  0.3652 -0.3800 -0.2274
 1732SOL    HW116655   0.588   0.547   5.698 -0.5171 -1.3753  0.8597
 1732SOL    HW216656   0.700   0.455   5.676  0.1085 -2.2077 -0.3681
 1733SOL     OW16657   0.053   0.090  15.097 -0.5316  0.2454  0.1443
 1733SOL    HW116658   0.025   0.162  15.153 -2.2366 -0.9185  0.7921
 1733SOL    HW216659   4.705   0.087  15.030  1.7135 -0.7181 -2.1474
 1734SOL     OW16660   3.943   2.707   5.934 -0.0329 -0.1722  0.5361
 1734SOL    HW116661   3.866   2.659   5.964 -0.2418 -1.0016 -1.3752
 1734SOL    HW216662   3.935   2.789   5.982  0.2237 -0.0506  0.3724
 1735SOL     OW16663   2.789   1.299   4.902 -0.1510 -0.1685  0.2968
 1735SOL    HW116664   2.800   1.256   4.818 -0.9248 -0.2078  0.2128
 1735SOL    HW216665   2.851   1.371   4.891  1.5274 -1.6492  0.2227
 1736SOL     OW16666   0.777   3.254   6.935  0.9389  0.0519  0.6079
 1736SOL    HW116667   0.851   3.278   6.880  0.5984  0.0167  0.1349
 1736SOL    HW216668   0.800   3.292   7.020  1.3091  0.8696  0.1434
 1737SOL     OW16669   1.992   1.659  17.242 -0.3721 -0.0466  0.3685
 1737SOL    HW116670   2.007   1.753  17.246  3.3488 -0.5297 -2.5283
 1737SOL    HW216671   1.983   1.645  17.336  0.2716 -0.7145  0.3316
 1738SOL     OW16672   3.200   0.387   5.468 -0.1221 -0.5671  0.0224
 1738SOL    HW116673   3.247   0.413   5.547 -2.9797  1.7600  0.9304
 1738SOL    HW216674   3.161   0.307   5.503 -0.1302  0.2319  1.8519
 1739SOL     OW16675   0.188   2.665   0.365 -0.1999  0.2692  0.0160
 1739SOL    HW116676   0.156   2.638   0.279 -0.5435 -0.7248  0.4507
 1739SOL    HW216677   0.129   2.605   0.411  1.8730 -1.8231 -0.1112
 1740SOL     OW16678   0.166   3.418   0.792  0.3694 -0.7394 -0.6397
 1740SOL    HW116679   0.167   3.461   0.878 -0.9321 -1.0674 -0.4535
 1740SOL    HW216680   0.206   3.334   0.812  1.1775 -0.2141 -0.0270
 1741SOL     OW16681   2.908   3.015   3.721  0.2587 -0.4955  0.2731
 1741SOL    HW116682   2.843   2.979   3.660 -1.8884  1.7566  1.2023
 1741SOL    HW216683   2.871   3.102   3.733 -0.4472 -0.9613  1.5176
 1742SOL     OW16684   0.770   4.658   6.430  0.2647 -0.1174 -0.2025
 1742SOL    HW116685   0.703   4.721   6.457  0.3028 -0.2067  0.1034
 1742SOL    HW216686   0.731   4.576   6.462 -1.2885  0.6303 -0.2028
 1743SOL     OW16687   0.864   1.229   5.623  0.0898 -0.0194 -0.2274
 1743SOL    HW116688   0.871   1.135   5.606  0.3703 -0.1811  0.8028
 1743SOL    HW216689   0.936   1.261   5.569  0.8439 -0.9288  0.2264
 1744SOL     OW16690   2.373   4.042   3.343 -0.1416  0.0366  0.3455
 1744SOL    HW116691   2.397   3.953   3.369  0.0908 -0.6875 -2.3730
 1744SOL    HW216692   2.460   4.081   3.340 -1.3136  2.5990 -0.4078
 1745SOL     OW16693   2.396   4.292   2.862  0.3026 -0.3069 -0.2141
 1745SOL    HW116694   2.339   4.367   2.850  0.5595 -0.2019 -0.7944
 1745SOL    HW216695   2.414   4.270   2.770  1.6860  0.6513 -0.1723
 1746SOL     OW16696   1.208   2.124   6.309 -0.5007 -0.0432 -0.2003
 1746SOL    HW116697   1.250   2.080   6.235  1.8160 -0.7773  1.5435
 1746SOL    HW216698   1.229   2.067   6.382 -1.2905  0.4288  0.4014
 1747SOL     OW16699   4.547   2.230   4.051  0.8907  0.2158 -0.5856
 1747SOL    HW116700   4.558   2.136   4.037 -0.2797 -0.3586  2.2626
 1747SOL    HW216701   4.637   2.252   4.076  0.9666 -0.8166  0.0826
 1748SOL     OW16702   4.721   2.697  14.565  0.0510  0.3648 -0.2236
 1748SOL    HW116703   4.683   2.615  14.597  1.5996 -1.1982 -2.4577
 1748SOL    HW216704   0.037   2.729  14.647  1.8429 -0.9226 -0.5542
 1749SOL     OW16705   4.027   1.706   6.172  0.5278  0.5115 -0.5017
 1749SOL    HW116706   4.114   1.670   6.151 -0.2335 -0.3680 -2.1752
 1749SOL    HW216707   4.038   1.724   6.265  2.1976  1.8454 -0.9684
 1750SOL     OW16708   3.434   2.026  16.383  0.0291 -0.1253 -0.0292
 1750SOL    HW116709   3.393   1.954  16.431 -1.2088  1.8613  1.9410
 1750SOL    HW216710   3.363   2.065  16.331  0.8370  0.0179 -1.0298
 1751SOL     OW16711   1.585   4.496   4.312 -0.4490 -0.6072  0.1398
 1751SOL    HW116712   1.628   4.443   4.379 -1.4376 -0.3092  1.0027
 1751SOL    HW216713   1.561   4.421   4.257 -2.0771 -2.9832  4.1194
 1752SOL     OW16714   3.279   2.869  10.814  0.1265  0.4561 -0.1120
 1752SOL    HW116715   3.366   2.900  10.788  0.6683 -1.0735 -0.1329
 1752SOL    HW216716   3.239   2.854  10.729 -3.3890  1.8313  1.2842
 1753SOL     OW16717   0.552   1.751  14.483  0.3506 -0.2458  0.7925
 1753SOL    HW116718   0.563   1.674  14.427 -1.2754  0.1579 -0.0875
 1753SOL    HW216719   0.482   1.718  14.539  0.3174  1.1606  1.5641
 1754SOL     OW16720   0.980   3.319   6.121 -0.6062 -0.3298  0.6276
 1754SOL    HW116721   1.072   3.340   6.105 -0.8870  2.9954  3.3336
 1754SOL    HW216722   0.953   3.284   6.036  1.4713  0.5934 -0.4167
 1755SOL     OW16723   0.376   3.335   7.269  0.4218  0.2610  0.1607
 1755SOL    HW116724   0.281   3.332   7.283  0.5909 -0.8867  1.0745
 1755SOL    HW216725   0.420   3.296   7.345 -0.6384  0.7145  0.9933
 1756SOL     OW16726   0.143   2.850   2.211  0.1183 -0.3316  0.3738
 1756SOL    HW116727   0.103   2.903   2.143  1.2354 -0.7734 -0.6264
 1756SOL    HW216728   0.084   2.848   2.286 -0.3505 -1.9569 -0.0414
 1757SOL     OW16729   2.836   4.617   2.398 -0.1532 -0.6173  0.7143
 1757SOL    HW116730   2.843   4.705   2.362 -0.4205 -0.1404  1.8217
 1757SOL    HW216731   2.820   4.631   2.492  1.4685 -0.1732  0.9194
 1758SOL     OW16732   0.795   4.326   4.061 -0.0605 -0.3659  0.3904
 1758SOL    HW116733   0.783   4.280   4.143 -1.8100  0.2365  0.4723
 1758SOL    HW216734   0.798   4.256   3.996 -2.4707 -0.7932  0.7473
 1759SOL     OW16735   0.923   3.057  13.802 -0.3209 -0.0007 -0.4001
 1759SOL    HW116736   0.849   3.116  13.788 -1.1694 -0.8113  0.7128
 1759SOL    HW216737   0.984   3.091  13.736  0.9256  1.8598  1.6933
 1760SOL     OW16738   2.821   1.128   5.646  0.2384 -0.3178  0.4310
 1760SOL    HW116739   2.790   1.214   5.620 -1.0753 -1.5351 -2.0744
 1760SOL    HW216740   2.915   1.145   5.648  0.2873 -0.7986  2.3725
 1761SOL     OW16741   4.094   4.432   6.588  0.4642 -0.2084  0.0078
 1761SOL    HW116742   4.068   4.524   6.587 -2.1093 -0.9237  2.2156
 1761SOL    HW216743   4.021   4.385   6.548  1.4787 -1.4839 -0.3450
 1762SOL     OW16744   3.001   1.414   5.439 -0.0184 -0.8093  0.4165
 1762SOL    HW116745   3.070   1.412   5.372 -0.7892 -0.0602 -0.3894
 1762SOL    HW216746   3.020   1.332   5.485 -0.1690 -2.1857 -1.9675
 1763SOL     OW16747   3.223   1.272   9.106  0.2695 -0.4944  0.3243
 1763SOL    HW116748   3.319   1.272   9.107  0.2690  0.1564 -0.9760
 1763SOL    HW216749   3.210   1.347   9.164 -0.5939 -0.4364  0.0479
 1764SOL     OW16750   3.618   1.102   5.290 -0.2821  0.3627 -0.4100
 1764SOL    HW116751   3.615   1.194   5.265 -1.6015  0.5510  0.4295
 1764SOL    HW216752   3.635   1.112   5.384 -1.5975 -1.4038  0.0154
 1765SOL     OW16753   3.904   2.229  12.824  0.9077  0.3565  0.3957
 1765SOL    HW116754   3.901   2.266  12.736 -1.7898 -1.0685 -0.1206
 1765SOL    HW216755   3.838   2.283  12.868 -1.0270 -2.6851  1.1986
 1766SOL     OW16756   4.092   0.379   4.133  0.1164 -0.2966  0.1989
 1766SOL    HW116757   4.113   0.331   4.213 -0.1010  2.3426  1.8201
 1766SOL    HW216758   4.153   0.342   4.069 -0.6738 -0.5468 -0.4099
 1767SOL     OW16759   4.277   1.217   7.802 -0.4986 -0.3353  0.1491
 1767SOL    HW116760   4.355   1.185   7.847 -0.4045 -0.6760 -0.2607
 1767SOL    HW216761   4.205   1.194   7.861 -1.1558  1.2613 -0.0253
 1768SOL     OW16762   1.079   3.929   1.782 -0.3760 -0.1561  0.1160
 1768SOL    HW116763   1.088   3.933   1.687 -3.5981 -1.8008 -0.2376
 1768SOL    HW216764   1.171   3.924   1.809  0.3101 -0.2065 -2.2265
 1769SOL     OW16765   2.053   1.083   0.435  0.0499 -0.6860 -0.0024
 1769SOL    HW116766   2.096   1.168   0.448 -1.7840  0.2842 -0.2179
 1769SOL    HW216767   2.112   1.038   0.374 -0.5891  0.4330 -1.4425
 1770SOL     OW16768   3.758   0.700   5.814  0.5632  0.6089 -0.2150
 1770SOL    HW116769   3.716   0.640   5.752 -0.0467  1.2580 -0.4195
 1770SOL    HW216770   3.813   0.633   5.856  0.6323  1.9883  1.9394
 1771SOL     OW16771   1.780   0.140  11.728 -0.4320  0.3088 -0.5868
 1771SOL    HW116772   1.872   0.113  11.727 -1.0099 -1.6941  1.6101
 1771SOL    HW216773   1.738   0.085  11.662 -1.1551 -0.5754  0.6313
 1772SOL     OW16774   4.247   0.777  14.410  0.1486 -0.3265  0.3230
 1772SOL    HW116775   4.303   0.847  14.377  0.1346 -0.4441  0.0509
 1772SOL    HW216776   4.319   0.728  14.450  0.4509  1.1261  1.5420
 1773SOL     OW16777   2.017   1.438   7.222 -0.8022 -0.0086  0.0753
 1773SOL    HW116778   2.056   1.383   7.154 -2.0288  1.9575 -2.2215
 1773SOL    HW216779   1.945   1.479   7.175  0.4254  2.8792  0.7436
 1774SOL     OW16780   4.500   3.717   9.684 -0.4563  0.0509  0.5572
 1774SOL    HW116781   4.592   3.707   9.710 -0.7528 -2.4960  0.6552
 1774SOL    HW216782   4.488   3.637   9.633 -1.2817 -1.2358  2.7765
 1775SOL     OW16783   1.758   4.128   6.897 -0.2883  1.4802  0.0977
 1775SOL    HW116784   1.729   4.096   6.983  1.6361 -2.2229 -0.5962
 1775SOL    HW216785   1.805   4.049   6.871  1.8329  1.7601  3.0319
 1776SOL     OW16786   3.626   4.133  11.955  0.5429  0.5115  0.1988
 1776SOL    HW116787   3.721   4.135  11.964  0.8281  0.5034 -2.8051
 1776SOL    HW216788   3.615   4.161  11.864 -0.8619  0.9961  0.5179
 1777SOL     OW16789   2.748   0.019  15.924  0.2036 -0.0136  0.0175
 1777SOL    HW116790   2.745   0.095  15.866  1.4719  0.0962  0.0971
 1777SOL    HW216791   2.726   0.064  16.006  1.2799  1.3008 -0.4127
 1778SOL     OW16792   4.371   1.748   7.765 -0.1348 -0.0048  0.3416
 1778SOL    HW116793   4.336   1.773   7.679 -1.0418 -2.0025  0.1330
 1778SOL    HW216794   4.294   1.755   7.821  0.3338 -1.1438  1.1337
 1779SOL     OW16795   2.099   4.707  16.153 -0.4359 -0.1244  0.5485
 1779SOL    HW116796   2.081   4.630  16.100  2.7757  1.2115 -2.4952
 1779SOL    HW216797   2.156   4.668  16.220 -0.4232 -1.1597 -0.0790
 1780SOL     OW16798   2.800   2.107   7.257 -0.0961 -0.1788 -0.4759
 1780SOL    HW116799   2.740   2.153   7.316 -0.7905  1.9882 -2.8636
 1780SOL    HW216800   2.881   2.100   7.307  0.9169  1.3724 -1.9014
 1781SOL     OW16801   3.302   0.672   8.588  0.0086 -0.2174 -0.3045
 1781SOL    HW116802   3.372   0.617   8.553  0.1843  0.1166 -0.4731
 1781SOL    HW216803   3.263   0.614   8.654  0.2188  1.1664  1.0400
 1782SOL     OW16804   0.866   3.498  16.183  0.9162 -0.6168  0.0713
 1782SOL    HW116805   0.900   3.415  16.152  0.1439 -0.2964 -1.6035
 1782SOL    HW216806   0.828   3.540  16.106  2.1864  1.3291  0.4962
 1783SOL     OW16807   2.961   1.825   6.671  0.4029  0.1448  0.4467
 1783SOL    HW116808   3.035   1.828   6.611  1.1407 -1.3902  1.2999
 1783SOL    HW216809   3.004   1.761   6.728 -0.4283 -1.2585 -0.5174
 1784SOL     OW16810   3.917   1.995  12.951 -0.0163 -0.3428  0.2087
 1784SOL    HW116811   3.910   2.082  12.911 -0.3521 -0.5830 -0.2565
 1784SOL    HW216812   3.919   1.962  12.861 -0.7293 -1.2030  0.5140
 1785SOL     OW16813   3.081   4.574   4.463  0.0492 -0.1892 -0.0327
 1785SOL    HW116814   3.088   4.667   4.487 -1.0923  0.2437 -1.3731
 1785SOL    HW216815   3.119   4.530   4.539  0.0644 -0.3137 -0.1126
 1786SOL     OW16816   3.775   0.287   2.985 -0.4344 -0.3968  0.0419
 1786SOL    HW116817   3.865   0.294   2.954  0.3663  0.0946  2.4813
 1786SOL    HW216818   3.729   0.301   2.902 -1.7852  3.0932  1.3699
 1787SOL     OW16819   4.719   0.059   8.542 -0.7898  0.4434  0.1456
 1787SOL    HW116820   0.040   0.049   8.457  3.0852  0.3266  2.0488
 1787SOL    HW216821   4.691   0.150   8.538 -0.9422  0.4359  1.0417
 1788SOL     OW16822   3.427   2.403   2.704 -0.4859 -0.0922  0.0426
 1788SOL    HW116823   3.442   2.420   2.797  0.1069  1.2930 -0.3204
 1788SOL    HW216824   3.336   2.425   2.687  0.2834  0.5146 -3.3829
 1789SOL     OW16825   1.609   0.327   2.710  0.5863 -0.4364 -0.7221
 1789SOL    HW116826   1.627   0.367   2.795  0.4531  1.3123 -1.5231
 1789SOL    HW216827   1.514   0.335   2.714  0.4419 -0.7304 -3.2632
 1790SOL     OW16828   3.806   2.852   4.659  0.5119  0.1222 -0.2796
 1790SOL    HW116829   3.804   2.944   4.687 -0.3201  0.3107 -0.9755
 1790SOL    HW216830   3.895   2.831   4.687 -0.4631 -0.8044  2.1787
 1791SOL     OW16831   0.331   3.464  11.882 -0.2170 -0.1342 -0.1520
 1791SOL    HW116832   0.256   3.516  11.853 -0.8225 -1.5627 -1.1747
 1791SOL    HW216833   0.285   3.395  11.931  0.1170  0.5404  1.1296
 1792SOL     OW16834   3.277   1.511   9.216  0.4341 -0.1633  0.1996
 1792SOL    HW116835   3.320   1.524   9.300 -1.3076  0.4406  1.0017
 1792SOL    HW216836   3.191   1.551   9.227  0.2269 -0.1318 -1.4711
 1793SOL     OW16837   2.671   1.428   2.796  0.1404 -0.1670 -0.9255
 1793SOL    HW116838   2.705   1.485   2.865 -1.8351  0.3720 -0.3874
 1793SOL    HW216839   2.740   1.363   2.801  1.1789  0.8374 -2.0503
 1794SOL     OW16840   3.430   2.813   0.468 -0.0404 -0.3345  0.2988
 1794SOL    HW116841   3.426   2.892   0.522  0.1769  1.3012 -2.0718
 1794SOL    HW216842   3.495   2.751   0.500  1.6255  0.5786 -1.2969
 1795SOL     OW16843   3.359   4.281   9.885  0.1295  0.2687 -0.6136
 1795SOL    HW116844   3.347   4.285   9.790 -0.9440 -0.2848 -0.4956
 1795SOL    HW216845   3.369   4.187   9.898  2.0180  0.2234 -2.3749
 1796SOL     OW16846   4.707   2.367   5.757 -0.2025  0.5712 -0.1808
 1796SOL    HW116847   4.622   2.411   5.756 -0.9221 -0.7857  1.0323
 1796SOL    HW216848   4.678   2.280   5.785  2.4677  0.1417  1.1915
 1797SOL     OW16849   0.599   1.679   3.032 -0.1792  0.2074  0.1463
 1797SOL    HW116850   0.572   1.587   3.035 -2.8559  0.9564 -0.9415
 1797SOL    HW216851   0.676   1.679   3.088  0.5281 -0.1003 -0.8301
 1798SOL     OW16852   1.870   2.293  11.665 -0.4094  0.0908  0.2700
 1798SOL    HW116853   1.886   2.231  11.594 -1.2292  1.4758 -1.1337
 1798SOL    HW216854   1.789   2.332  11.632 -1.1739 -0.7733  1.1341
 1799SOL     OW16855   1.174   4.242   0.520 -0.2838  0.0669 -0.6490
 1799SOL    HW116856   1.224   4.323   0.530  0.1384 -0.2068 -0.5301
 1799SOL    HW216857   1.222   4.179   0.466 -1.3635 -1.5958  0.3175
 1800SOL     OW16858   2.245   4.440   0.567 -0.0319  0.1164 -0.3663
 1800SOL    HW116859   2.193   4.376   0.518 -0.8355  0.3092  0.2250
 1800SOL    HW216860   2.251   4.408   0.657 -0.5081 -0.0435 -0.3914
 1801SOL     OW16861   0.424   0.951   6.478 -0.1745 -0.2133  0.2942
 1801SOL    HW116862   0.427   0.923   6.569 -1.8602 -1.4417 -0.0210
 1801SOL    HW216863   0.360   1.022   6.472  1.4403  1.2950  0.8738
 1802SOL     OW16864   4.498   2.588   7.783  0.3156 -0.1034 -0.1932
 1802SOL    HW116865   4.515   2.655   7.716  0.2367  1.3055  1.1938
 1802SOL    HW216866   4.575   2.611   7.835 -0.2462  2.3629 -0.4465
 1803SOL     OW16867   2.684   4.190  17.665  1.0951  0.2776  0.0280
 1803SOL    HW116868   2.760   4.200  17.609  1.1430 -3.1598 -0.5137
 1803SOL    HW216869   2.613   4.242  17.627 -0.1605 -0.5200  1.2363
 1804SOL     OW16870   1.328   1.177  17.172  0.1374  0.5678  0.4941
 1804SOL    HW116871   1.328   1.170  17.077 -1.1993 -1.4363  0.6471
 1804SOL    HW216872   1.386   1.111  17.211 -0.5586  0.0220  0.6047
 1805SOL     OW16873   0.835   3.928  15.311 -0.0702  0.2430  0.0647
 1805SOL    HW116874   0.782   3.962  15.239  0.3349 -0.1094 -0.3993
 1805SOL    HW216875   0.919   3.971  15.291 -0.5762  0.4659 -1.5850
 1806SOL     OW16876   3.338   3.111  11.116  0.7718 -0.0221  0.4478
 1806SOL    HW116877   3.363   3.096  11.207 -0.0570  0.3658  0.7419
 1806SOL    HW216878   3.291   3.027  11.110  0.1428  0.3963 -0.6155
 1807SOL     OW16879   3.956   3.573   5.859 -0.1739 -0.6260  0.3264
 1807SOL    HW116880   3.995   3.490   5.888 -2.3273 -2.1261 -1.1325
 1807SOL    HW216881   3.947   3.547   5.767  0.6193  0.1374  0.0277
 1808SOL     OW16882   2.517   4.008   8.174 -0.5178  0.2849 -0.0818
 1808SOL    HW116883   2.607   4.006   8.143  0.2974 -0.7009  2.4334
 1808SOL    HW216884   2.526   3.930   8.229  0.3178 -2.5316 -4.1855
 1809SOL     OW16885   3.940   2.653   1.958 -0.1034  1.1687  0.1864
 1809SOL    HW116886   4.031   2.625   1.959 -0.7564 -0.9048  0.7245
 1809SOL    HW216887   3.904   2.608   2.035  0.7623  1.9124  1.0241
 1810SOL     OW16888   3.624   1.162   7.121  0.2563 -0.0937  0.0111
 1810SOL    HW116889   3.543   1.175   7.170  0.4587  2.1406 -0.2437
 1810SOL    HW216890   3.656   1.078   7.152 -0.3448 -0.9403 -1.6643
 1811SOL     OW16891   3.809   4.499   3.675 -0.2835 -0.4234 -0.3258
 1811SOL    HW116892   3.720   4.495   3.711  0.3525 -1.1580  1.1600
 1811SOL    HW216893   3.816   4.593   3.660 -1.9754 -0.2413 -0.0436
 1812SOL     OW16894   3.357   2.928   1.808 -0.1324  0.0857  0.1948
 1812SOL    HW116895   3.400   2.848   1.778  0.4620 -0.4960  2.6444
 1812SOL    HW216896   3.412   2.951   1.882  1.5519 -1.0296 -0.7173
 1813SOL     OW16897   3.390   1.777   5.127  0.6749 -0.1087  0.0453
 1813SOL    HW116898   3.307   1.745   5.092  0.1202  1.3413  0.0151
 1813SOL    HW216899   3.432   1.703   5.171  0.5862  0.3057  0.8306
 1814SOL     OW16900   0.005   2.471  15.391 -0.2808  0.7766 -0.3096
 1814SOL    HW116901   4.710   2.418  15.313  1.2497 -1.6364  1.0137
 1814SOL    HW216902   0.079   2.429  15.436 -0.7792  0.8183  0.5390
 1815SOL     OW16903   0.208   4.355   3.908 -0.2720  0.4719  0.3439
 1815SOL    HW116904   0.270   4.360   3.835 -0.1407  0.1246  0.4288
 1815SOL    HW216905   0.190   4.261   3.912  1.8544  0.0876  0.8859
 1816SOL     OW16906   2.873   2.444   7.211 -0.4043 -0.2274  0.0659
 1816SOL    HW116907   2.903   2.361   7.249 -0.2816 -0.3523 -0.3070
 1816SOL    HW216908   2.897   2.497   7.287  0.4577  0.1060 -0.4441
 1817SOL     OW16909   0.637   3.985   7.548 -0.1951 -0.0451  0.4881
 1817SOL    HW116910   0.718   4.005   7.501  0.1560  0.3069  1.2441
 1817SOL    HW216911   0.658   4.026   7.631 -0.0798  0.8128  0.0402
 1818SOL     OW16912   3.626   3.091   3.505  0.2480 -0.1010 -0.1761
 1818SOL    HW116913   3.535   3.074   3.480  0.0631  0.6862 -0.0490
 1818SOL    HW216914   3.656   3.001   3.519  0.5899  0.3050  1.6952
 1819SOL     OW16915   2.214   2.350   9.211 -0.5077 -0.2178 -0.4113
 1819SOL    HW116916   2.205   2.274   9.154 -0.1344 -0.5916  0.0353
 1819SOL    HW216917   2.133   2.392   9.181  0.0904  2.0551  1.1483
 1820SOL     OW16918   0.320   3.702   1.451  0.6080 -0.5031  0.0744
 1820SOL    HW116919   0.383   3.765   1.487  1.5408 -2.4336  1.8176
 1820SOL    HW216920   0.244   3.757   1.470  0.4904 -0.6536  0.0389
 1821SOL     OW16921   0.500   1.007   4.111 -0.2166 -0.2416 -0.1448
 1821SOL    HW116922   0.562   1.065   4.068  0.1705  0.0606  0.8116
 1821SOL    HW216923   0.563   0.934   4.106  1.1451  1.0464 -1.6361
 1822SOL     OW16924   0.284   2.891   3.689  0.6030  0.6076 -0.2720
 1822SOL    HW116925   0.347   2.880   3.761 -0.9725 -3.2990  0.5026
 1822SOL    HW216926   0.294   2.807   3.646  0.5681  0.7463 -0.5469
 1823SOL     OW16927   4.334   0.692  10.558 -0.2862  0.3602  0.3207
 1823SOL    HW116928   4.287   0.773  10.580  0.0712  0.3296  1.1910
 1823SOL    HW216929   4.414   0.710  10.607 -0.4736  4.1549 -0.7548
 1824SOL     OW16930   0.843   1.603   8.094 -0.0138  0.0005  0.4700
 1824SOL    HW116931   0.857   1.692   8.125 -1.3975  0.0584  0.9370
 1824SOL    HW216932   0.913   1.564   8.146  0.3106 -0.5341 -0.3520
 1825SOL     OW16933   3.981   4.238   4.416 -0.7762 -0.1615 -0.0305
 1825SOL    HW116934   3.939   4.267   4.497  0.9521  2.8039 -0.2101
 1825SOL    HW216935   3.909   4.218   4.355 -0.7571 -0.9232  0.1948
 1826SOL     OW16936   2.436   0.899   6.736  0.1145  0.2969  0.4691
 1826SOL    HW116937   2.346   0.883   6.707  0.1266 -0.8895  1.0969
 1826SOL    HW216938   2.429   0.843   6.813  0.0261  1.7742  1.5309
 1827SOL     OW16939   0.525   1.301   2.421  0.3026  0.2856  0.1142
 1827SOL    HW116940   0.501   1.244   2.348  2.1718  0.3607 -0.5651
 1827SOL    HW216941   0.441   1.340   2.445  1.2264  1.8600  0.8432
 1828SOL     OW16942   2.874   1.575   8.299  0.2378 -0.0923 -0.0203
 1828SOL    HW116943   2.872   1.605   8.390 -1.5030  1.8039 -0.6912
 1828SOL    HW216944   2.823   1.645   8.260  0.8846  0.7737  0.6609
 1829SOL     OW16945   1.194   3.671  14.517  0.0184  0.7925  0.4912
 1829SOL    HW116946   1.229   3.731  14.583  1.7994 -0.3192  0.5727
 1829SOL    HW216947   1.196   3.724  14.437  0.5151  0.4718  0.2887
 1830SOL     OW16948   0.824   2.566   8.120 -0.3836 -0.0357  0.3385
 1830SOL    HW116949   0.815   2.504   8.048 -1.2772 -0.6855  1.0027
 1830SOL    HW216950   0.918   2.583   8.124 -0.4051  1.0743 -3.8317
 1831SOL     OW16951   0.253   3.953   1.257 -0.0270 -0.0786 -0.0031
 1831SOL    HW116952   0.239   3.886   1.190  1.0848 -0.5229  0.2096
 1831SOL    HW216953   0.188   3.934   1.324  1.0211  1.0656  1.3430
 1832SOL     OW16954   4.183   2.888   6.786 -0.9323  0.4769  0.0418
 1832SOL    HW116955   4.185   2.899   6.881  2.1830 -1.6507  0.2425
 1832SOL    HW216956   4.223   2.968   6.752  1.7061 -1.1878 -0.7669
 1833SOL     OW16957   1.759   4.388   5.584  0.7734  0.3462  0.2393
 1833SOL    HW116958   1.685   4.445   5.561  0.5367  0.0065  0.1613
 1833SOL    HW216959   1.819   4.400   5.510 -0.9458  0.2966 -1.1687
 1834SOL     OW16960   4.116   4.161   4.175 -0.0892 -0.2977  0.0351
 1834SOL    HW116961   4.121   4.147   4.269 -0.9816 -2.8215 -0.2718
 1834SOL    HW216962   4.116   4.256   4.165 -1.1595 -0.3190 -0.2412
 1835SOL     OW16963   2.717   3.325   6.825  0.6853  0.5879 -0.4669
 1835SOL    HW116964   2.790   3.369   6.867  1.0221  2.8884 -3.4273
 1835SOL    HW216965   2.730   3.233   6.850  1.9629  1.1042  0.7520
 1836SOL     OW16966   0.258   2.668   4.067 -0.1032  0.1356 -0.7136
 1836SOL    HW116967   0.314   2.619   4.007  0.0024 -0.6397  0.0303
 1836SOL    HW216968   0.314   2.659   4.143  0.0022  1.6016 -0.6106
 1837SOL     OW16969   0.703   3.078   4.575  0.2257  0.1581  0.2520
 1837SOL    HW116970   0.691   3.158   4.625 -1.8356 -1.4616  2.3569
 1837SOL    HW216971   0.778   3.101   4.521  0.7247 -3.3167 -0.5436
 1838SOL     OW16972   0.398   4.549  14.860 -0.1804  0.6031  0.5892
 1838SOL    HW116973   0.329   4.607  14.892 -0.5774 -0.8360  2.3036
 1838SOL    HW216974   0.457   4.560  14.935 -0.7737  1.2193  0.9557
 1839SOL     OW16975   0.111   3.914  17.620 -0.7188 -0.3634 -0.4461
 1839SOL    HW116976   0.195   3.897  17.661  0.0941 -1.1444 -2.4261
 1839SOL    HW216977   0.117   4.003  17.586 -1.1935  0.4504  1.5897
 1840SOL     OW16978   4.452   1.439   5.024 -0.5061  0.9431 -0.4510
 1840SOL    HW116979   4.475   1.516   4.971  1.5958  0.2953 -0.4748
 1840SOL    HW216980   4.396   1.386   4.967 -0.0297 -0.5403  0.4518
 1841SOL     OW16981   0.099   2.542   1.999 -0.3338 -0.4027  0.2693
 1841SOL    HW116982   0.045   2.618   1.976  1.0596  0.1908 -1.0103
 1841SOL    HW216983   0.055   2.468   1.957 -1.4754 -0.7856  2.1167
 1842SOL     OW16984   3.097   2.932  13.924 -0.0665 -0.3488  0.1958
 1842SOL    HW116985   3.151   2.883  13.986 -0.6206  1.6533  2.2350
 1842SOL    HW216986   3.030   2.866  13.901  2.1031 -1.7716 -2.0818
 1843SOL     OW16987   1.263   3.618   4.258  0.5527  0.4241  0.2822
 1843SOL    HW116988   1.285   3.710   4.239 -2.3520  1.1908  0.5215
 1843SOL    HW216989   1.334   3.608   4.321  1.6224  2.1396 -0.6403
 1844SOL     OW16990   0.065   4.379   2.373  0.2696  0.0240  0.0418
 1844SOL    HW116991   0.158   4.366   2.354  0.7939  3.9097 -0.0959
 1844SOL    HW216992   0.032   4.309   2.318  0.9852 -1.0201  0.9464
 1845SOL     OW16993   2.937   3.214   6.234 -0.4939  0.4998 -0.0448
 1845SOL    HW116994   2.981   3.157   6.171  1.0155 -1.1748  2.5586
 1845SOL    HW216995   3.001   3.185   6.299  0.2118 -0.1741 -1.0315
 1846SOL     OW16996   1.538   0.071  10.285  0.5940  0.0072  0.1342
 1846SOL    HW116997   1.493   0.098  10.365 -1.3840  1.7237 -1.5255
 1846SOL    HW216998   1.570   0.159  10.263 -3.5109  2.1786  2.8218
 1847SOL     OW16999   4.050   0.102  14.608 -0.0056 -0.0863 -0.4653
 1847SOL    HW117000   4.032   0.188  14.647 -0.6423 -0.3766 -0.1301
 1847SOL    HW217001   4.133   0.076  14.649  0.4437  1.3254 -0.4694
 1848SOL     OW17002   0.583   4.088  11.640  0.4808  0.0098 -0.3799
 1848SOL    HW117003   0.488   4.073  11.640  0.5081 -0.0650  1.4605
 1848SOL    HW217004   0.604   4.119  11.552 -0.1476 -1.2621 -0.9797
 1849SOL     OW17005   3.089   3.344   6.674 -0.1698 -0.4033 -0.3168
 1849SOL    HW117006   3.121   3.324   6.762 -0.7137 -0.1377 -0.0618
 1849SOL    HW217007   3.148   3.284   6.628 -0.5793 -1.7180  0.8739
 1850SOL     OW17008   3.435   3.801   9.092  0.3319 -0.0984  0.0588
 1850SOL    HW117009   3.392   3.816   9.176  1.3081 -1.5424  0.8315
 1850SOL    HW217010   3.412   3.710   9.070  1.3001  0.1029 -1.7584
 1851SOL     OW17011   2.112   4.618   8.103 -0.1661  0.0386  0.6288
 1851SOL    HW117012   2.204   4.643   8.097 -0.6227  1.6408  0.2035
 1851SOL    HW217013   2.066   4.679   8.160 -3.4398 -1.0235 -0.8435
 1852SOL     OW17014   2.270   4.444   9.317 -0.0895 -0.1024 -0.3317
 1852SOL    HW117015   2.260   4.396   9.399  0.0606 -2.1785 -1.5030
 1852SOL    HW217016   2.180   4.475   9.310 -0.2031 -0.0731  1.3580
 1853SOL     OW17017   2.060   1.269  13.442 -0.1614  0.3872 -0.0955
 1853SOL    HW117018   2.085   1.176  13.434  0.3860  0.4499  0.9670
 1853SOL    HW217019   2.140   1.319  13.428  0.6518 -0.5863  1.1065
 1854SOL     OW17020   0.160   2.321   7.576  0.3042 -0.0028  0.3915
 1854SOL    HW117021   0.173   2.234   7.539 -1.1360  0.7980 -1.9635
 1854SOL    HW217022   0.070   2.337   7.549  0.8843 -0.2687 -1.7115
 1855SOL     OW17023   4.341   0.079   2.720 -0.8631  0.1191 -0.0832
 1855SOL    HW117024   4.395   0.049   2.647 -1.8090 -1.1227 -0.2695
 1855SOL    HW217025   4.388   0.158   2.749  0.4090 -1.2290  1.4947
 1856SOL     OW17026   3.434   1.505   4.516 -0.5405  0.3597  0.5962
 1856SOL    HW117027   3.394   1.503   4.603  0.1419  0.3396  0.9088
 1856SOL    HW217028   3.354   1.515   4.464 -0.3248 -1.2131 -0.0140
 1857SOL     OW17029   0.215   2.212   2.292 -0.2468 -0.0619  0.3118
 1857SOL    HW117030   0.180   2.300   2.279 -0.3336 -0.4001 -1.7522
 1857SOL    HW217031   0.204   2.176   2.204  0.8299  1.0816 -0.2870
 1858SOL     OW17032   0.027   0.601   6.815  0.2359  0.0294 -0.2190
 1858SOL    HW117033   4.698   0.642   6.744 -0.2422 -1.5044 -0.7673
 1858SOL    HW217034   0.113   0.591   6.774  0.9683  1.5980  0.9331
 1859SOL     OW17035   3.116   3.685  12.644  0.1826 -0.0462  0.2154
 1859SOL    HW117036   3.041   3.628  12.629  0.8872 -1.1218  0.8068
 1859SOL    HW217037   3.081   3.762  12.600 -2.3731 -1.1320  0.3724
 1860SOL     OW17038   2.990   0.356  15.986 -0.5760  0.1874  0.6822
 1860SOL    HW117039   2.998   0.361  16.081 -0.0608 -0.1917  0.6605
 1860SOL    HW217040   2.904   0.394  15.973 -1.3747 -1.8849 -0.0231
 1861SOL     OW17041   1.805   2.324   9.730  0.3901  0.0892 -1.0174
 1861SOL    HW117042   1.834   2.250   9.677  1.7158 -1.6932  2.1472
 1861SOL    HW217043   1.875   2.352   9.789  1.4476 -0.6709 -1.9042
 1862SOL     OW17044   2.344   2.406   2.731  0.0577 -0.3628 -0.4118
 1862SOL    HW117045   2.279   2.419   2.800  1.5481 -0.0609  0.9336
 1862SOL    HW217046   2.312   2.328   2.685 -1.2320 -1.1367  1.8277
 1863SOL     OW17047   3.851   4.325   7.085  0.0700 -1.0574  0.2717
 1863SOL    HW117048   3.782   4.390   7.077  1.3618  0.4641  1.4051
 1863SOL    HW217049   3.893   4.322   6.999  0.6095  0.3143  0.4866
 1864SOL     OW17050   1.620   0.193   6.316 -0.5732  0.1461  0.4448
 1864SOL    HW117051   1.657   0.189   6.228  1.4211  0.5824  1.2634
 1864SOL    HW217052   1.530   0.175   6.286 -0.7764  1.7991  0.0630
 1865SOL     OW17053   2.989   1.620   5.932  0.0959 -0.1665  0.7286
 1865SOL    HW117054   3.002   1.637   6.026  0.1865 -0.0432  0.6930
 1865SOL    HW217055   3.046   1.686   5.892 -1.0310  0.4830  0.1804
 1866SOL     OW17056   3.973   1.135   2.012  0.8730 -0.6539  0.2154
 1866SOL    HW117057   3.935   1.221   2.028 -1.2947 -1.8880  1.5802
 1866SOL    HW217058   4.064   1.164   1.999  0.7162  0.2828  1.2814
 1867SOL     OW17059   2.221   1.081  14.746 -0.8012 -0.1619  0.3783
 1867SOL    HW117060   2.205   1.106  14.837 -2.2620  1.5290 -0.3328
 1867SOL    HW217061   2.133   1.079  14.708 -0.6175  0.0933 -0.0633
 1868SOL     OW17062   4.491   0.096  10.099  0.7055 -0.0297 -0.5720
 1868SOL    HW117063   4.529   0.161  10.039 -0.0523  0.6902 -0.2708
 1868SOL    HW217064   4.420   0.151  10.132  1.7136 -0.1658  1.7543
 1869SOL     OW17065   1.362   1.416   3.651  0.2625  0.0782 -0.4483
 1869SOL    HW117066   1.438   1.363   3.626  2.2911  1.8193  1.9598
 1869SOL    HW217067   1.395   1.441   3.737 -0.0086  0.4518 -0.4524
 1870SOL     OW17068   3.522   2.694   1.925  0.5074  0.6677 -0.2124
 1870SOL    HW117069   3.530   2.768   1.985 -0.1890  0.0585  0.6363
 1870SOL    HW217070   3.507   2.614   1.976  0.3676  1.4237  0.9472
 1871SOL     OW17071   2.382   2.920  13.981 -0.2675 -0.1110 -0.1957
 1871SOL    HW117072   2.295   2.910  13.941 -0.5241 -0.4505  0.4441
 1871SOL    HW217073   2.437   2.898  13.906  1.7603 -2.9018  2.1473
 1872SOL     OW17074   4.149   3.431   4.372 -0.0136  0.2614 -0.0570
 1872SOL    HW117075   4.206   3.490   4.321 -0.1066  0.2262 -0.2041
 1872SOL    HW217076   4.072   3.485   4.388  1.2269  1.4437  1.9168
 1873SOL     OW17077   1.392   1.892   9.924  0.6009  0.4675 -0.0704
 1873SOL    HW117078   1.465   1.876   9.864 -0.0517 -1.4662 -0.3388
 1873SOL    HW217079   1.427   1.862  10.008 -0.1293 -1.5739 -0.5067
 1874SOL     OW17080   1.084   3.537   2.421  0.7227 -0.0506  0.3045
 1874SOL    HW117081   1.073   3.444   2.440  2.7627 -0.0884  1.2740
 1874SOL    HW217082   1.166   3.553   2.469 -0.1681  0.2861  1.7260
 1875SOL     OW17083   1.670   3.785  14.962 -0.0325  0.1915  0.1481
 1875SOL    HW117084   1.746   3.758  14.911  1.7156  0.1559  2.7551
 1875SOL    HW217085   1.621   3.827  14.892  3.2628  2.6340 -0.6916
 1876SOL     OW17086   3.431   4.244  10.841  0.8727  0.1861  0.0540
 1876SOL    HW117087   3.507   4.246  10.783  0.6932  1.8319 -0.1323
 1876SOL    HW217088   3.355   4.256  10.784  0.1689 -0.8129  0.8027
 1877SOL     OW17089   3.928   1.117   3.320 -0.5391  0.6012  0.3908
 1877SOL    HW117090   3.965   1.201   3.347 -0.1978  0.8688 -0.8778
 1877SOL    HW217091   3.938   1.069   3.402 -1.3453 -0.2173  0.0026
 1878SOL     OW17092   2.411   1.286   8.091  0.5739  0.3971  0.1147
 1878SOL    HW117093   2.387   1.314   8.003  1.4612 -0.5021 -0.4150
 1878SOL    HW217094   2.438   1.370   8.129 -1.1644  0.8107  0.4341
 1879SOL     OW17095   4.600   4.557   2.139  0.1638  0.6705  0.2479
 1879SOL    HW117096   4.536   4.590   2.202 -0.1033  1.7057 -0.5638
 1879SOL    HW217097   4.548   4.493   2.092  0.0945  1.9979 -1.5092
 1880SOL     OW17098   4.667   4.004  11.642 -0.0015 -0.0181 -0.2434
 1880SOL    HW117099   4.637   3.917  11.669 -1.4290  0.7228  0.6096
 1880SOL    HW217100   0.016   4.030  11.701  0.1579  0.1977 -0.5325
 1881SOL     OW17101   2.157   0.460  11.127 -0.0308 -0.0945 -0.0221
 1881SOL    HW117102   2.223   0.496  11.068 -0.2189  1.8144  0.9461
 1881SOL    HW217103   2.087   0.449  11.062  0.9153 -0.8551 -0.8967
 1882SOL     OW17104   3.503   4.217   5.755  0.0907  0.2500 -0.7465
 1882SOL    HW117105   3.571   4.161   5.718 -1.3658 -1.5884 -0.5825
 1882SOL    HW217106   3.460   4.162   5.820  0.8728 -1.0829 -1.3598
 1883SOL     OW17107   1.424   0.690   3.920  0.3273  0.3545  0.7148
 1883SOL    HW117108   1.515   0.705   3.893  1.3330 -2.2430  2.6852
 1883SOL    HW217109   1.415   0.737   4.002 -0.0752 -1.9853  2.0187
 1884SOL     OW17110   2.161   4.609  16.627 -0.4845  0.1826  0.5724
 1884SOL    HW117111   2.235   4.552  16.650  0.2224  1.6426  1.9222
 1884SOL    HW217112   2.117   4.617  16.712  0.7101  1.3930  1.0742
 1885SOL     OW17113   4.584   0.706   7.251 -0.3390  0.2509 -0.3520
 1885SOL    HW117114   4.530   0.628   7.241  1.3351 -0.8677 -0.7255
 1885SOL    HW217115   4.533   0.781   7.283  0.7111  0.3514  1.1356
 1886SOL     OW17116   1.448   1.176   7.264  0.0052  0.2522  0.1984
 1886SOL    HW117117   1.357   1.161   7.239  0.4207 -1.7835 -0.0742
 1886SOL    HW217118   1.455   1.270   7.248  0.6039  0.1928  0.1210
 1887SOL     OW17119   3.323   0.523   9.911  0.0385 -0.1936  0.1247
 1887SOL    HW117120   3.391   0.457   9.898  0.0882 -0.0485 -0.3390
 1887SOL    HW217121   3.248   0.497   9.858 -0.6890  1.1683  0.4835
 1888SOL     OW17122   2.320   4.298  16.435  0.3453  0.3177 -0.6873
 1888SOL    HW117123   2.371   4.375  16.463  0.1044  1.1361 -2.4925
 1888SOL    HW217124   2.300   4.250  16.516 -0.0014  1.5862 -0.0079
 1889SOL     OW17125   4.355   0.397   8.721 -0.3479 -0.1945  0.5761
 1889SOL    HW117126   4.341   0.302   8.718 -0.6640 -0.0990 -0.6254
 1889SOL    HW217127   4.423   0.414   8.657 -0.9877 -0.5987 -0.2048
 1890SOL     OW17128   1.046   3.942  11.823 -0.9019  0.0691  0.1297
 1890SOL    HW117129   1.003   3.997  11.888 -0.5961 -0.3395  0.6726
 1890SOL    HW217130   1.076   3.868  11.876 -2.1094 -0.7451 -0.3378
 1891SOL     OW17131   0.868   1.166  11.899  0.0884  1.1511 -0.6486
 1891SOL    HW117132   0.909   1.079  11.896 -2.9788 -0.3187 -0.1314
 1891SOL    HW217133   0.938   1.225  11.873  0.5053  1.0157  0.1678
 1892SOL     OW17134   0.274   2.814   8.502  0.4900 -0.6108  0.0760
 1892SOL    HW117135   0.233   2.896   8.530  0.6390 -0.1206 -1.1609
 1892SOL    HW217136   0.197   2.771   8.464  0.3436 -1.7789  1.6945
 1893SOL     OW17137   1.944   2.903  15.130 -0.3740 -0.6348  0.0367
 1893SOL    HW117138   1.858   2.861  15.129 -2.0926  2.8918 -0.8382
 1893SOL    HW217139   1.985   2.879  15.047 -0.7326 -3.0135  0.5711
 1894SOL     OW17140   2.853   0.815  16.853  0.6592  0.3008  0.4155
 1894SOL    HW117141   2.807   0.891  16.889 -1.1510 -0.2271 -0.8308
 1894SOL    HW217142   2.815   0.816  16.766 -0.9218  0.7624  1.1225
 1895SOL     OW17143   4.582   0.196   8.802  0.4220  0.2757 -0.0071
 1895SOL    HW117144   4.525   0.196   8.726 -0.6930  1.6017  0.8286
 1895SOL    HW217145   4.641   0.269   8.782  0.5239 -0.1425 -1.2245
 1896SOL     OW17146   1.130   0.052   6.485 -0.0192 -0.3659 -0.5454
 1896SOL    HW117147   1.149   0.001   6.407 -0.9710 -2.5662  0.6602
 1896SOL    HW217148   1.128   0.140   6.449  0.2076 -0.1009  0.0801
 1897SOL     OW17149   4.711   3.828   5.020 -0.0488  0.0127  0.2521
 1897SOL    HW117150   4.640   3.849   5.081 -0.1379 -0.3853  0.2874
 1897SOL    HW217151   0.001   3.908   4.969 -2.1221  0.1491  0.0270
 1898SOL     OW17152   3.554   2.286  16.130 -0.2850 -0.0707  0.5780
 1898SOL    HW117153   3.476   2.303  16.077  0.0731 -0.2248  0.0062
 1898SOL    HW217154   3.613   2.354  16.098 -1.3030 -0.5239 -2.2533
 1899SOL     OW17155   1.522   0.033   4.110 -0.1551 -0.4226 -0.0798
 1899SOL    HW117156   1.588   4.704   4.063  2.8276  1.5913  1.9498
 1899SOL    HW217157   1.524   0.111   4.054  2.4802  1.0809  2.0964
 1900SOL     OW17158   1.061   3.432   7.587  0.1411 -0.6149 -0.5863
 1900SOL    HW117159   1.034   3.449   7.497  1.0041  1.8047 -0.3886
 1900SOL    HW217160   0.974   3.421   7.625  0.6617  0.2528  0.8490
 1901SOL     OW17161   2.217   4.481   5.934 -0.2200  0.1810 -0.0847
 1901SOL    HW117162   2.273   4.468   6.011 -2.0997  1.4548  1.5025
 1901SOL    HW217163   2.132   4.453   5.967 -0.6964 -1.5627 -2.7999
 1902SOL     OW17164   2.249   1.470   7.547 -0.3341  0.3753  0.4506
 1902SOL    HW117165   2.165   1.428   7.564  0.5494 -0.7388  2.1052
 1902SOL    HW217166   2.269   1.507   7.633  0.4861  0.8963  0.0265
 1903SOL     OW17167   3.642   3.777   5.867  0.1313 -0.7059  0.2038
 1903SOL    HW117168   3.702   3.754   5.796  0.4160  0.7848 -0.0242
 1903SOL    HW217169   3.605   3.859   5.835  1.0044  0.0894  1.2878
 1904SOL     OW17170   4.536   3.954   5.218  0.0218  0.0678  0.4068
 1904SOL    HW117171   4.539   4.024   5.153  0.9883  1.6615  2.1656
 1904SOL    HW217172   4.568   4.010   5.289  0.6436 -0.3539  0.4529
 1905SOL     OW17173   4.045   0.370   6.445  0.5346 -0.3518 -0.6949
 1905SOL    HW117174   3.983   0.396   6.513  0.5079  0.0248 -0.8616
 1905SOL    HW217175   4.092   0.306   6.497 -0.3767 -0.1107  0.4277
 1906SOL     OW17176   1.819   1.590   5.063 -0.3513 -0.1060 -0.3429
 1906SOL    HW117177   1.908   1.575   5.096  0.0604  3.1560  0.0089
 1906SOL    HW217178   1.843   1.634   4.982  1.2284 -0.2325  0.0430
 1907SOL     OW17179   1.293   2.036  13.461 -0.1389 -0.0307 -0.0607
 1907SOL    HW117180   1.383   2.023  13.489 -0.2428  1.3708  0.9037
 1907SOL    HW217181   1.279   2.128  13.438 -1.0984 -0.3921 -0.9331
 1908SOL     OW17182   1.260   3.876   4.994  0.2594  0.0905 -0.1816
 1908SOL    HW117183   1.286   3.826   4.916 -0.1596 -0.2492 -0.1069
 1908SOL    HW217184   1.274   3.965   4.964  0.0700  0.1153 -0.2004
 1909SOL     OW17185   3.871   1.605   3.394 -0.1470 -0.0995 -0.6216
 1909SOL    HW117186   3.798   1.545   3.412  0.1145  0.4854  2.4990
 1909SOL    HW217187   3.876   1.635   3.485 -3.1803  5.0567 -2.1638
 1910SOL     OW17188   2.143   2.981   1.674  0.1047 -0.1106 -0.4631
 1910SOL    HW117189   2.203   3.041   1.631 -1.1528  2.1991  1.0037
 1910SOL    HW217190   2.060   3.029   1.664 -1.6125 -3.2003 -1.1072
 1911SOL     OW17191   1.549   1.555   6.280  0.0265  0.2271  0.8085
 1911SOL    HW117192   1.586   1.509   6.356  0.4405 -1.3164 -0.3439
 1911SOL    HW217193   1.461   1.576   6.309 -0.5410 -0.0955 -0.6994
 1912SOL     OW17194   0.387   4.263   9.742  0.0349 -0.8428  0.2442
 1912SOL    HW117195   0.349   4.333   9.794  2.2267  0.7236 -0.2740
 1912SOL    HW217196   0.406   4.304   9.657 -1.0518  1.0071  0.8905
 1913SOL     OW17197   4.628   0.120   5.454 -0.4281  0.3893 -0.1622
 1913SOL    HW117198   4.607   0.153   5.366 -3.4625  0.0751  0.4709
 1913SOL    HW217199   4.629   0.199   5.507  1.8731 -0.4310  1.0286
 1914SOL     OW17200   1.974   4.294   8.881 -0.3009  0.0116  0.1358
 1914SOL    HW117201   1.878   4.296   8.889 -0.2446 -1.2705  1.0975
 1914SOL    HW217202   2.002   4.240   8.807  2.1186  0.8443  0.4725
 1915SOL     OW17203   1.223   1.289   0.991  0.3228 -0.1124  0.0072
 1915SOL    HW117204   1.248   1.197   0.997 -0.7439 -0.2814  1.8290
 1915SOL    HW217205   1.192   1.305   1.080 -1.0569  0.3024 -0.5551
 1916SOL     OW17206   2.793   2.378   4.921 -0.0733  0.5627 -0.0951
 1916SOL    HW117207   2.729   2.365   4.851  0.7987  0.4677 -0.8613
 1916SOL    HW217208   2.738   2.387   4.999 -0.4635 -0.6484 -0.2270
 1917SOL     OW17209   3.199   3.838   7.447 -0.3407  0.4261 -0.0246
 1917SOL    HW117210   3.205   3.745   7.468  2.6213  1.2807  2.7483
 1917SOL    HW217211   3.186   3.879   7.533 -2.0105  0.2211 -0.1675
 1918SOL     OW17212   1.048   4.518  13.908  0.1546  0.4079 -0.0188
 1918SOL    HW117213   1.068   4.522  13.815  1.4069  0.5192  0.2554
 1918SOL    HW217214   1.057   4.426  13.933 -0.6865  0.1524 -0.6634
 1919SOL     OW17215   0.564   0.505   3.737  0.0485  0.3916 -0.3192
 1919SOL    HW117216   0.519   0.512   3.653 -0.8758  0.3362  0.1701
 1919SOL    HW217217   0.493   0.540   3.791  1.0498  0.7538  0.7640
 1920SOL     OW17218   3.712   3.490  13.565 -0.3454 -0.1018  0.5020
 1920SOL    HW117219   3.708   3.560  13.630 -0.1548 -0.9604  1.4314
 1920SOL    HW217220   3.791   3.441  13.588 -0.2518 -0.8033 -1.2953
 1921SOL     OW17221   0.064   0.331   4.565  0.2683 -0.1192 -0.3551
 1921SOL    HW117222   0.095   0.272   4.633  0.4069  1.4188  0.9083
 1921SOL    HW217223   4.689   0.331   4.574  0.3783 -1.7862  0.7406
 1922SOL     OW17224   1.320   2.865  12.248 -0.7580  0.1093  0.4088
 1922SOL    HW117225   1.271   2.947  12.251  1.1469  1.3541 -1.5054
 1922SOL    HW217226   1.336   2.846  12.340  0.7180 -2.5371 -0.3763
 1923SOL     OW17227   0.187   4.278   3.303 -0.6172 -0.5410 -0.4499
 1923SOL    HW117228   0.121   4.331   3.349  0.4502 -0.1069  0.5738
 1923SOL    HW217229   0.204   4.337   3.230  0.3078 -1.1541 -0.7243
 1924SOL     OW17230   0.888   3.539   8.053 -0.3908 -0.4185 -0.1065
 1924SOL    HW117231   0.863   3.447   8.065 -0.3575  0.0788  3.7106
 1924SOL    HW217232   0.858   3.555   7.963 -0.7098  3.5970  0.7370
 1925SOL     OW17233   2.085   0.452   4.625  0.3543  0.6465  0.1538
 1925SOL    HW117234   2.173   0.475   4.594  0.8922  0.9061  1.8529
 1925SOL    HW217235   2.065   0.533   4.673 -1.8762  0.3655 -0.3202
 1926SOL     OW17236   1.030   0.408   0.889  0.0026  0.0884 -0.2769
 1926SOL    HW117237   0.963   0.345   0.863  0.8357 -0.1922 -1.7340
 1926SOL    HW217238   0.979   0.469   0.943 -0.1545  0.4776 -0.8615
 1927SOL     OW17239   3.844   1.290  15.111 -0.3852  0.1330 -0.5177
 1927SOL    HW117240   3.817   1.230  15.181 -0.4682  1.3965  0.5228
 1927SOL    HW217241   3.880   1.221  15.054 -0.2902  0.1788 -0.5125
 1928SOL     OW17242   3.698   4.299   6.310 -0.0120  0.1704  0.3043
 1928SOL    HW117243   3.716   4.254   6.227  0.9596 -0.0090  0.6170
 1928SOL    HW217244   3.623   4.350   6.281  0.0415  0.2637  0.3312
 1929SOL     OW17245   3.187   0.948  12.518 -0.4143 -0.6873  0.3060
 1929SOL    HW117246   3.140   0.904  12.588 -1.5947 -1.3576 -0.9078
 1929SOL    HW217247   3.269   0.974  12.560 -0.6320 -0.8341  0.8228
 1930SOL     OW17248   2.203   3.464   8.956  0.0300 -0.1757  0.1360
 1930SOL    HW117249   2.125   3.515   8.933 -1.0968 -2.5289 -1.1847
 1930SOL    HW217250   2.264   3.490   8.887 -0.5724  2.3584  0.5402
 1931SOL     OW17251   1.124   2.598   8.763  0.0153 -0.2887  0.5746
 1931SOL    HW117252   1.214   2.628   8.777  0.3061 -0.8892 -0.0262
 1931SOL    HW217253   1.076   2.650   8.828 -0.3893  1.0067 -0.7585
 1932SOL     OW17254   4.404   1.082   7.577 -0.1375  0.2282 -0.5300
 1932SOL    HW117255   4.365   1.165   7.606  1.0189  1.0770 -1.4150
 1932SOL    HW217256   4.480   1.076   7.635 -0.6692  0.2077  0.1700
 1933SOL     OW17257   3.633   1.432   7.634  0.4199  0.7317 -0.6769
 1933SOL    HW117258   3.630   1.358   7.574  2.1620 -0.0107  0.1735
 1933SOL    HW217259   3.647   1.500   7.568 -0.4885  0.7961 -0.8051
 1934SOL     OW17260   2.276   1.797   8.144 -0.1907  0.0288  0.3909
 1934SOL    HW117261   2.307   1.879   8.106  1.3432  0.2420  2.0780
 1934SOL    HW217262   2.184   1.808   8.122  0.0467  0.7553 -0.2467
 1935SOL     OW17263   4.720   3.064   5.698 -0.0012  0.1384 -0.4791
 1935SOL    HW117264   4.718   2.970   5.677  1.6580 -0.0406  0.1191
 1935SOL    HW217265   4.658   3.088   5.630 -2.2684 -3.0550  0.4557
 1936SOL     OW17266   1.502   1.014   9.163  0.3298  0.6696  0.2096
 1936SOL    HW117267   1.554   1.075   9.111 -0.4213 -1.2110 -2.7701
 1936SOL    HW217268   1.551   1.001   9.244 -0.9657  0.1905  0.9181
 1937SOL     OW17269   2.213   3.152   1.946  0.4178 -0.0740  0.3078
 1937SOL    HW117270   2.145   3.146   2.013  1.3045  1.3651  1.3428
 1937SOL    HW217271   2.188   3.239   1.915 -1.0229 -0.3320  0.7523
 1938SOL     OW17272   1.798   1.319   4.628  0.1849  0.1118  0.1289
 1938SOL    HW117273   1.720   1.293   4.579  0.0446 -0.0476  0.4378
 1938SOL    HW217274   1.788   1.413   4.639 -2.2559 -0.1071 -0.1406
 1939SOL     OW17275   3.593   4.073   3.390  0.1286  0.4123  0.2298
 1939SOL    HW117276   3.613   4.162   3.363  0.1009 -0.5839 -3.0418
 1939SOL    HW217277   3.535   4.091   3.464  0.9099  0.0299  0.9378
 1940SOL     OW17278   1.534   1.472   0.150  0.1459  0.0931  0.5433
 1940SOL    HW117279   1.553   1.389   0.194  0.4211 -0.8141 -1.2882
 1940SOL    HW217280   1.445   1.457   0.117  0.9441 -1.7475 -0.7722
 1941SOL     OW17281   1.235   3.655   3.564  0.5489 -0.4764 -0.0346
 1941SOL    HW117282   1.198   3.710   3.495  0.1458 -1.7003 -0.7839
 1941SOL    HW217283   1.268   3.580   3.514 -1.1948 -0.6660 -0.8791
 1942SOL     OW17284   0.525   3.847  15.387 -0.0973 -0.3176 -0.3599
 1942SOL    HW117285   0.520   3.934  15.424  2.0088 -0.2251 -0.2678
 1942SOL    HW217286   0.562   3.851  15.298 -0.0926 -0.7432 -0.3818
 1943SOL     OW17287   2.447   4.698   7.490 -0.0033 -0.3764 -0.2307
 1943SOL    HW117288   2.384   4.652   7.547 -0.5884 -0.6784 -1.1276
 1943SOL    HW217289   2.436   0.067   7.521 -0.4881 -0.7086  0.5669
 1944SOL     OW17290   0.066   1.125  16.957  0.0626  0.1612  0.1281
 1944SOL    HW117291   0.084   1.218  16.941 -1.2216  0.2349 -0.9319
 1944SOL    HW217292   0.150   1.084  16.976  0.4846  0.5295 -0.9403
 1945SOL     OW17293   1.023   2.138   5.617 -0.3924  0.0513  0.2798
 1945SOL    HW117294   1.013   2.150   5.522  0.7501  0.8397  0.2637
 1945SOL    HW217295   1.088   2.068   5.622 -1.0295 -0.4645  1.6134
 1946SOL     OW17296   0.554   1.227  10.134  0.4710 -0.1997  0.0003
 1946SOL    HW117297   0.535   1.134  10.145 -2.0551  0.0776 -1.9160
 1946SOL    HW217298   0.635   1.225  10.083 -0.6844 -2.3724 -1.7577
 1947SOL     OW17299   2.526   0.648   4.220 -0.0521  0.2006 -0.5560
 1947SOL    HW117300   2.574   0.703   4.157 -0.3228  3.5529  2.1671
 1947SOL    HW217301   2.477   0.593   4.159 -0.3171  2.1049 -2.0581
 1948SOL     OW17302   3.392   3.645   5.832 -0.3732 -0.5749  0.0173
 1948SOL    HW117303   3.471   3.695   5.852 -0.7244  0.1557 -0.4340
 1948SOL    HW217304   3.406   3.588   5.756 -2.7019  2.2655 -2.5581
 1949SOL     OW17305   2.890   4.448  10.744 -0.2576 -0.0406  0.0854
 1949SOL    HW117306   2.984   4.452  10.730 -0.4981  0.2035 -1.4353
 1949SOL    HW217307   2.859   4.538  10.753 -0.3312 -0.2662  2.1008
 1950SOL     OW17308   0.460   2.663   6.371 -0.4639  0.0851  0.2162
 1950SOL    HW117309   0.484   2.658   6.463 -0.7308 -0.3498  0.2619
 1950SOL    HW217310   0.383   2.607   6.381  0.6865 -1.5940 -0.2767
 1951SOL     OW17311   2.746   1.870   4.921  0.1346  0.0541  0.1178
 1951SOL    HW117312   2.707   1.797   4.872 -0.5492  0.6499 -0.2152
 1951SOL    HW217313   2.786   1.827   4.997 -2.9167 -1.2065  0.9815
 1952SOL     OW17314   0.697   2.567   1.184 -0.0068 -0.6109  0.3843
 1952SOL    HW117315   0.722   2.475   1.178 -0.5802 -0.8473  1.5210
 1952SOL    HW217316   0.668   2.577   1.275  1.8997  1.4462  0.7657
 1953SOL     OW17317   1.182   0.095   5.438 -0.0621  0.3784 -0.5573
 1953SOL    HW117318   1.207   0.003   5.438  0.0667  0.4054  1.5448
 1953SOL    HW217319   1.087   0.089   5.428 -0.0544  0.9224 -0.9593
 1954SOL     OW17320   4.419   3.352   7.138 -0.4814  0.4727  0.0421
 1954SOL    HW117321   4.462   3.366   7.053 -1.4469 -3.2458 -1.0504
 1954SOL    HW217322   4.440   3.261   7.155  3.1008  0.6654 -3.3349
 1955SOL     OW17323   3.189   1.861   2.313  0.5691  0.0018  0.0122
 1955SOL    HW117324   3.203   1.893   2.224 -0.3815  0.4460  0.0212
 1955SOL    HW217325   3.191   1.942   2.365  0.7240 -0.1693  0.2740
 1956SOL     OW17326   3.002   1.248  15.091 -0.6157 -0.1316  0.3210
 1956SOL    HW117327   3.047   1.173  15.130  1.5699 -0.9543 -3.8382
 1956SOL    HW217328   3.052   1.321  15.129 -1.1788  1.8253 -2.7653
 1957SOL     OW17329   2.536   2.172   5.453  0.3035 -0.2985 -0.6896
 1957SOL    HW117330   2.479   2.144   5.525  2.1694 -0.9490  0.5220
 1957SOL    HW217331   2.572   2.256   5.484  0.3646 -0.5683 -0.0294
 1958SOL     OW17332   4.646   1.156  11.878 -0.3543  0.6273  0.4358
 1958SOL    HW117333   4.603   1.224  11.827 -1.7783 -0.7835 -0.2501
 1958SOL    HW217334   4.714   1.122  11.820 -0.7140  2.2161 -0.9209
 1959SOL     OW17335   2.660   1.760   5.731  0.6377  0.6888 -0.3225
 1959SOL    HW117336   2.626   1.828   5.789 -0.7235  0.3090 -0.6656
 1959SOL    HW217337   2.676   1.687   5.791 -1.4702  0.0749 -0.4898
 1960SOL     OW17338   3.640   0.573   1.887 -0.2857 -0.3122 -0.4419
 1960SOL    HW117339   3.624   0.483   1.916  1.5342 -0.2082  0.9190
 1960SOL    HW217340   3.734   0.585   1.903 -0.2074  0.4039 -1.4918
 1961SOL     OW17341   4.568   1.858   4.675  0.4461 -0.2832 -0.1469
 1961SOL    HW117342   4.479   1.859   4.640  1.5224 -0.2734 -2.9095
 1961SOL    HW217343   4.590   1.952   4.677 -0.5961 -0.0914  2.7745
 1962SOL     OW17344   2.920   1.802  12.205 -0.4284  0.0436  0.2005
 1962SOL    HW117345   2.851   1.768  12.262 -1.0059  1.0221  0.0995
 1962SOL    HW217346   2.882   1.890  12.196 -1.4422 -0.4096  0.1005
 1963SOL     OW17347   1.372   2.169   3.078  0.0715 -0.0200  0.4384
 1963SOL    HW117348   1.278   2.183   3.093 -0.2507 -2.5153  0.7431
 1963SOL    HW217349   1.400   2.098   3.135 -0.2977  0.5949  1.3810
 1964SOL     OW17350   4.480   1.076   5.718 -0.1021 -0.0557 -0.1752
 1964SOL    HW117351   4.422   1.107   5.649 -0.5278  2.0924  1.1660
 1964SOL    HW217352   4.566   1.093   5.680  0.0584 -1.8030 -0.6059
 1965SOL     OW17353   0.350   4.429   7.303 -0.4514 -0.1764 -0.4706
 1965SOL    HW117354   0.358   4.524   7.310  1.4523 -0.5658  2.5449
 1965SOL    HW217355   0.329   4.408   7.394 -1.3005  2.1313 -0.1484
 1966SOL     OW17356   1.207   4.124  17.514  0.2028  1.0821  0.4411
 1966SOL    HW117357   1.160   4.069  17.577  1.4917  0.0645  0.5292
 1966SOL    HW217358   1.145   4.111  17.443 -0.4944  1.4796  0.9739
 1967SOL     OW17359   0.120   2.884   4.241 -0.0525 -0.1121  0.0272
 1967SOL    HW117360   0.089   2.865   4.152 -1.2656  0.3354  0.3671
 1967SOL    HW217361   0.148   2.798   4.273 -0.2885 -0.3043 -0.2835
 1968SOL     OW17362   3.868   3.786  15.966 -0.1470 -0.4157 -0.0315
 1968SOL    HW117363   3.859   3.833  15.883 -0.5076 -0.0373  0.2177
 1968SOL    HW217364   3.835   3.861  16.015 -1.3220 -1.7693  1.2473
 1969SOL     OW17365   2.121   0.487  14.511  0.7662  0.3583  0.8980
 1969SOL    HW117366   2.101   0.526  14.596  1.1740 -0.6663  1.4543
 1969SOL    HW217367   2.207   0.519  14.483  0.2070 -1.3813 -2.7741
 1970SOL     OW17368   0.207   3.176   8.937 -0.2643 -0.0582  0.4560
 1970SOL    HW117369   0.173   3.088   8.919 -1.2699  0.0391  1.8595
 1970SOL    HW217370   0.213   3.176   9.033  0.9944 -1.8250  0.3763
 1971SOL     OW17371   2.712   4.572   4.595 -0.3443  0.1453  0.6942
 1971SOL    HW117372   2.622   4.542   4.596 -0.0915 -0.6899 -1.4462
 1971SOL    HW217373   2.760   4.512   4.538  0.0972 -2.4536  3.7505
 1972SOL     OW17374   4.538   1.323  17.005 -0.1607  0.2200  0.3228
 1972SOL    HW117375   4.625   1.288  16.989 -0.4934  0.2346 -1.6059
 1972SOL    HW217376   4.496   1.238  16.988  1.3624 -0.6998  1.2119
 1973SOL     OW17377   1.502   1.940   7.358 -0.2492 -0.0980  0.4002
 1973SOL    HW117378   1.491   1.944   7.263  2.4539 -1.9193  0.0076
 1973SOL    HW217379   1.572   2.003   7.375  0.2824 -0.8471  0.9856
 1974SOL     OW17380   2.804   4.333   3.938 -0.0982 -0.7020  0.1627
 1974SOL    HW117381   2.897   4.346   3.917  0.0352  0.0938  1.2528
 1974SOL    HW217382   2.807   4.244   3.974 -3.0385 -0.3170  1.3336
 1975SOL     OW17383   1.645   4.156   5.932 -0.0674  0.4568 -0.3868
 1975SOL    HW117384   1.655   4.215   6.007 -1.8807  1.0647 -0.6297
 1975SOL    HW217385   1.573   4.102   5.964  0.5606  0.2540  0.7002
 1976SOL     OW17386   2.810   4.464   5.817  0.1119  0.0648  0.4668
 1976SOL    HW117387   2.802   4.465   5.913  2.4913 -0.8678  0.6770
 1976SOL    HW217388   2.889   4.411   5.805  0.3911 -0.0045  2.5358
 1977SOL     OW17389   3.974   3.935   4.150 -0.0297  0.0665 -0.1152
 1977SOL    HW117390   4.024   4.013   4.126  1.0124 -0.6983 -0.4022
 1977SOL    HW217391   3.904   3.949   4.086 -0.8277 -1.2487  0.4829
 1978SOL     OW17392   3.554   3.582   1.924  0.5282 -0.1044  0.4773
 1978SOL    HW117393   3.591   3.577   2.012 -0.4473  0.0712  0.9036
 1978SOL    HW217394   3.610   3.652   1.890 -0.9269 -1.2230 -4.2700
 1979SOL     OW17395   4.537   4.256  15.340  0.4558 -0.2796  0.1807
 1979SOL    HW117396   4.476   4.182  15.334  2.8881 -2.2713 -0.0135
 1979SOL    HW217397   4.517   4.299  15.257 -5.6953 -2.3041  0.5717
 1980SOL     OW17398   1.859   1.768   6.907 -0.2607  1.0827 -0.0767
 1980SOL    HW117399   1.949   1.790   6.932  0.2139  0.0578 -0.9131
 1980SOL    HW217400   1.827   1.858   6.895  1.8463  1.7596 -0.6939
 1981SOL     OW17401   2.008   2.406  12.805 -0.1081 -0.0205  0.1361
 1981SOL    HW117402   1.944   2.372  12.867 -0.3087  3.0945  1.6933
 1981SOL    HW217403   1.945   2.449  12.748 -0.1999 -1.7626 -1.0593
 1982SOL     OW17404   2.284   3.988   2.362 -0.7263  0.1224  0.3642
 1982SOL    HW117405   2.195   3.998   2.327 -0.5805 -0.8519 -0.2694
 1982SOL    HW217406   2.328   4.069   2.336 -0.6314  0.8372  2.7391
 1983SOL     OW17407   1.793   2.646   8.251 -0.2990  0.2973  0.0922
 1983SOL    HW117408   1.741   2.700   8.311 -1.3249 -1.1235  0.4860
 1983SOL    HW217409   1.723   2.607   8.199  0.3229  0.1892 -0.6624
 1984SOL     OW17410   2.595   4.479   4.063  0.2665  0.3550 -0.1347
 1984SOL    HW117411   2.636   4.511   4.144 -1.0900 -1.9224  1.4541
 1984SOL    HW217412   2.662   4.448   4.002  0.5960  2.5919 -0.9056
 1985SOL     OW17413   2.687   4.600   4.290 -0.1537  0.1016  0.0335
 1985SOL    HW117414   2.617   4.655   4.326  0.9547  0.5087  1.5803
 1985SOL    HW217415   2.752   4.659   4.253 -1.0438  1.1849  0.2108
 1986SOL     OW17416   0.262   4.037   9.668 -0.0289  0.2049 -0.0766
 1986SOL    HW117417   0.306   4.119   9.691  3.4425 -1.3051 -1.2891
 1986SOL    HW217418   0.300   3.978   9.734  1.1704  1.1629  0.1027
 1987SOL     OW17419   3.666   4.169  15.437 -0.6459  0.6978 -0.2309
 1987SOL    HW117420   3.589   4.181  15.382 -2.0317 -3.0991  0.9217
 1987SOL    HW217421   3.646   4.231  15.508  0.9380  0.1452  0.7103
 1988SOL     OW17422   1.739   2.711   6.089  0.7156 -0.6478  0.6719
 1988SOL    HW117423   1.698   2.714   6.002  1.9980 -0.8750  0.0550
 1988SOL    HW217424   1.660   2.711   6.143  0.2581  0.8785  0.0217
 1989SOL     OW17425   1.152   0.046   3.946  0.2821  0.0712 -0.1376
 1989SOL    HW117426   1.070   0.082   3.979  0.3190  0.6285 -0.6743
 1989SOL    HW217427   1.196   0.072   4.027  1.0241 -0.4406 -0.3724
 1990SOL     OW17428   2.837   1.241   0.101 -0.3595 -0.5742 -0.3109
 1990SOL    HW117429   2.926   1.254   0.133 -0.9785  1.5150  0.5354
 1990SOL    HW217430   2.785   1.258   0.179  0.8435  0.2124  0.3198
 1991SOL     OW17431   1.480   4.087   8.798  0.8236  0.0076  0.4118
 1991SOL    HW117432   1.479   4.157   8.863  1.7264 -0.2598  0.7204
 1991SOL    HW217433   1.475   4.141   8.720  1.6773 -0.1513  0.2439
 1992SOL     OW17434   4.586   2.549   2.691  0.4897  0.1845  0.3159
 1992SOL    HW117435   4.673   2.519   2.667  0.3428 -0.1409  0.2005
 1992SOL    HW217436   4.611   2.597   2.770 -1.5959  1.7360  0.0444
 1993SOL     OW17437   1.519   4.497   4.895 -0.3673 -0.4390 -0.3474
 1993SOL    HW117438   1.451   4.469   4.957 -1.4553  1.0600 -0.8733
 1993SOL    HW217439   1.598   4.483   4.947 -0.3315 -2.0102 -0.8166
 1994SOL     OW17440   2.233   4.230  13.283 -0.4986 -0.2521  0.0126
 1994SOL    HW117441   2.187   4.277  13.214 -1.6288  0.5416  1.3216
 1994SOL    HW217442   2.193   4.258  13.365  0.6681  2.1760 -0.2305
 1995SOL     OW17443   4.400   3.697   1.546 -0.2760 -0.3429 -0.1172
 1995SOL    HW117444   4.484   3.735   1.520  0.8051  0.0336  3.8743
 1995SOL    HW217445   4.372   3.665   1.461 -0.7766  0.9027 -0.4133
 1996SOL     OW17446   0.221   0.335  15.227  0.0852 -0.3909 -0.1275
 1996SOL    HW117447   0.250   0.297  15.144 -1.8588  0.6910 -1.3192
 1996SOL    HW217448   0.128   0.313  15.232  0.6354 -3.0262 -1.0654
 1997SOL     OW17449   3.912   0.055  16.052 -0.0961 -0.6239  0.0344
 1997SOL    HW117450   3.864   0.045  15.970  1.1181  0.1327 -0.7841
 1997SOL    HW217451   3.954   4.692  16.068  0.7695  0.3825  3.1104
 1998SOL     OW17452   0.836   1.209   7.867  0.2082 -0.6984 -0.0134
 1998SOL    HW117453   0.752   1.210   7.914  0.4403  0.8710  0.3831
 1998SOL    HW217454   0.890   1.167   7.934  0.6502 -0.3983 -0.1794
 1999SOL     OW17455   0.453   1.787   1.815  0.0574  0.3742  0.2820
 1999SOL    HW117456   0.477   1.852   1.881  1.8667  0.7723 -0.7713
 1999SOL    HW217457   0.361   1.777   1.838 -0.3001  0.0123 -1.2735
 2000SOL     OW17458   4.096   2.448   3.680  0.0322  0.0017  0.4411
 2000SOL    HW117459   4.091   2.361   3.643 -0.1243  0.1871  0.0298
 2000SOL    HW217460   4.191   2.462   3.678  0.1717 -0.9164  0.8266
 2001SOL     OW17461   2.281   0.447   6.564 -0.0530  0.2969  0.1258
 2001SOL    HW117462   2.219   0.416   6.630  1.5945 -1.8542  0.6755
 2001SOL    HW217463   2.363   0.411   6.597  0.0899 -1.1311 -1.7711
 2002SOL     OW17464   3.402   2.988   2.369  0.7782 -0.1342 -0.0728
 2002SOL    HW117465   3.399   2.984   2.465  2.1825  2.0056  0.0582
 2002SOL    HW217466   3.324   3.042   2.352 -0.0991 -1.2135  0.5057
 2003SOL     OW17467   2.994   1.844   7.045  0.4954  0.1836  0.1682
 2003SOL    HW117468   3.033   1.760   7.021 -1.3799 -0.8160  0.6081
 2003SOL    HW217469   3.065   1.888   7.092  1.4993 -0.4761 -0.7113
 2004SOL     OW17470   4.552   1.365   6.575 -0.3140  0.6508 -0.3150
 2004SOL    HW117471   4.622   1.425   6.599  0.2168 -0.3339  0.6498
 2004SOL    HW217472   4.599   1.313   6.509  0.1798 -0.1773  0.6828
 2005SOL     OW17473   4.242   2.825   2.083 -0.9208  0.6143  0.0628
 2005SOL    HW117474   4.236   2.745   2.032 -0.9859  0.8894 -0.3582
 2005SOL    HW217475   4.260   2.895   2.020 -0.4437  0.8460  0.4591
 2006SOL     OW17476   1.668   0.634   4.382  0.3112 -0.1107 -0.1183
 2006SOL    HW117477   1.720   0.645   4.461 -2.0440 -0.1113  1.4482
 2006SOL    HW217478   1.643   0.725   4.372 -1.1969 -0.4474  0.5474
 2007SOL     OW17479   1.070   4.387  12.401 -0.4655  0.0788  0.0573
 2007SOL    HW117480   1.162   4.400  12.380 -0.2161 -3.8375 -1.1870
 2007SOL    HW217481   1.077   4.332  12.478  0.3833  1.0447  0.6689
 2008SOL     OW17482   1.767   3.379   2.711  0.1946 -0.3143  0.0965
 2008SOL    HW117483   1.727   3.346   2.791  0.8618  0.4379  0.7273
 2008SOL    HW217484   1.730   3.337   2.633 -0.5788  1.8315 -0.6956
 2009SOL     OW17485   0.315   3.045   7.471 -0.2565 -0.0214  0.3864
 2009SOL    HW117486   0.233   3.089   7.448 -1.6522 -2.6631  0.3918
 2009SOL    HW217487   0.351   3.030   7.384 -0.7223 -0.3774  0.2608
 2010SOL     OW17488   2.966   3.321   6.958 -0.0477 -0.1609 -0.4593
 2010SOL    HW117489   3.031   3.261   6.994 -1.0485 -2.1722 -1.9916
 2010SOL    HW217490   2.936   3.368   7.036 -1.2963 -0.6392 -0.6426
 2011SOL     OW17491   2.803   1.504   8.842  0.3163  0.3041  0.0889
 2011SOL    HW117492   2.752   1.424   8.856 -1.2450  1.6552  2.1400
 2011SOL    HW217493   2.892   1.484   8.871  1.1433  3.1839 -0.4916
 2012SOL     OW17494   3.699   3.934  10.248  0.2166 -0.0492 -0.5594
 2012SOL    HW117495   3.764   3.990  10.290 -1.0789 -0.4343  1.9673
 2012SOL    HW217496   3.745   3.853  10.267 -1.1345 -1.0981 -1.7330
 2013SOL     OW17497   4.665   2.290  15.810  0.0923 -0.1720 -0.3132
 2013SOL    HW117498   0.007   2.343  15.859  0.1773  1.4938 -2.2590
 2013SOL    HW217499   4.634   2.228  15.877  1.2798  0.9078  1.2275
 2014SOL     OW17500   0.796   2.775   2.164  0.1678 -0.7440 -0.0051
 2014SOL    HW117501   0.822   2.824   2.085  0.0360  1.5306  1.3596
 2014SOL    HW217502   0.752   2.845   2.211  0.4203 -0.4148 -0.2552
 2015SOL     OW17503   0.348   1.483  16.236  0.0634  0.0644  0.1570
 2015SOL    HW117504   0.320   1.550  16.299 -1.7559  0.7298 -1.3419
 2015SOL    HW217505   0.274   1.421  16.241 -0.7206  0.9721 -0.2033
 2016SOL     OW17506   0.819   3.845   6.783  0.1140  0.0318 -0.5424
 2016SOL    HW117507   0.768   3.779   6.736 -1.3118 -0.1161  1.2428
 2016SOL    HW217508   0.793   3.824   6.873 -0.3905 -0.8151 -0.8841
 2017SOL     OW17509   0.661   4.500   5.219 -0.1535  0.3868 -0.9717
 2017SOL    HW117510   0.651   4.462   5.132  1.3223  0.8002 -1.3196
 2017SOL    HW217511   0.583   4.553   5.234  1.2943  2.0448  0.7900
 2018SOL     OW17512   1.744   0.733   5.375 -0.3046  0.0045  0.4819
 2018SOL    HW117513   1.774   0.822   5.393 -2.2644  0.1723  2.8808
 2018SOL    HW217514   1.657   0.742   5.413  0.2045 -1.4413  1.9903
 2019SOL     OW17515   4.393   2.648  16.850 -0.8118  0.7123 -0.2792
 2019SOL    HW117516   4.374   2.740  16.868 -0.2612  0.9996 -1.1811
 2019SOL    HW217517   4.387   2.649  16.755 -2.2176 -0.1611 -0.2025
 2020SOL     OW17518   4.679   3.928   8.871 -0.1285 -0.0105  0.0770
 2020SOL    HW117519   4.718   3.975   8.797 -0.8046 -1.6983 -1.3626
 2020SOL    HW217520   0.014   3.850   8.873  0.9831  0.8526  2.8184
 2021SOL     OW17521   4.401   4.209   1.402 -0.4792  0.3361 -0.4410
 2021SOL    HW117522   4.392   4.256   1.319 -0.9657  0.9154 -0.0630
 2021SOL    HW217523   4.338   4.260   1.454  1.5793  0.5012  1.8822
 2022SOL     OW17524   4.662   4.423   6.852 -0.6360  0.0863 -0.3445
 2022SOL    HW117525   4.667   4.390   6.942  1.7465  0.1785 -0.4255
 2022SOL    HW217526   0.025   4.469   6.846 -0.4634  0.0575  1.8828
 2023SOL     OW17527   3.597   0.182   4.614 -0.3721  0.3093  0.4680
 2023SOL    HW117528   3.550   0.118   4.560  2.1315 -0.8961 -0.2923
 2023SOL    HW217529   3.669   0.129   4.648 -1.1211  0.0751  1.6573
 2024SOL     OW17530   1.055   2.068   3.688  0.2365  0.6604  0.3075
 2024SOL    HW117531   1.109   2.132   3.734 -0.6641  1.0618  0.8151
 2024SOL    HW217532   1.075   1.990   3.741 -1.6788  2.4134  3.6505
 2025SOL     OW17533   2.687   0.413   5.292 -0.0843  0.3638 -0.5052
 2025SOL    HW117534   2.605   0.364   5.305 -0.3358  0.1885 -2.7113
 2025SOL    HW217535   2.749   0.341   5.276  0.1532  0.7766 -1.4369
 2026SOL     OW17536   3.761   2.831   8.642  0.1968  0.6366  0.2912
 2026SOL    HW117537   3.835   2.842   8.700  0.7620  3.4001 -0.9310
 2026SOL    HW217538   3.793   2.781   8.567 -1.9995  1.1162 -0.9803
 2027SOL     OW17539   4.203   2.195   9.554  0.1175  0.3190  0.2507
 2027SOL    HW117540   4.144   2.168   9.483 -0.3306 -0.0838  0.7664
 2027SOL    HW217541   4.222   2.280   9.517  1.3872  0.1401  0.5130
 2028SOL     OW17542   3.983   3.482   2.288 -0.5413  0.1020  0.2582
 2028SOL    HW117543   4.040   3.405   2.294  0.7249  1.0224  0.0638
 2028SOL    HW217544   4.011   3.527   2.208  0.1615 -1.9223 -0.6406
 2029SOL     OW17545   1.408   4.247   5.045 -0.3005  0.6047 -0.0373
 2029SOL    HW117546   1.438   4.311   5.110  2.8037 -0.3104 -0.5561
 2029SOL    HW217547   1.412   4.162   5.090 -1.9388  0.6134  0.1097
 2030SOL     OW17548   2.367   4.651   6.372 -0.3418  0.6169  0.2836
 2030SOL    HW117549   2.409   4.634   6.456 -2.6005  0.3047  1.3526
 2030SOL    HW217550   2.326   4.566   6.355  2.1650 -0.5643  0.1256
 2031SOL     OW17551   3.350   3.464   2.982  0.0602  0.3485  0.1536
 2031SOL    HW117552   3.346   3.520   3.059  1.1967  1.9407 -0.9535
 2031SOL    HW217553   3.378   3.523   2.912  0.6186  2.2211  1.9633
 2032SOL     OW17554   4.232   3.916   7.012  0.7473  0.0843  0.4780
 2032SOL    HW117555   4.276   3.918   7.097  0.5947  3.1666  0.4847
 2032SOL    HW217556   4.302   3.912   6.947  1.8564 -1.7128  1.7673
 2033SOL     OW17557   1.774   2.381   0.595 -0.1234 -0.1098  0.3729
 2033SOL    HW117558   1.733   2.348   0.515 -2.2855  0.1421  1.3739
 2033SOL    HW217559   1.836   2.439   0.552  0.3980 -1.1004 -0.2049
 2034SOL     OW17560   3.507   0.137   0.484  0.4020 -0.1826  0.0326
 2034SOL    HW117561   3.589   0.186   0.475  0.5244 -0.2725  0.7022
 2034SOL    HW217562   3.456   0.217   0.494 -1.4580 -1.6106  2.0309
 2035SOL     OW17563   1.100   2.742   3.038 -0.3099 -0.3395 -0.0451
 2035SOL    HW117564   1.008   2.733   3.016 -0.2352 -0.7985 -0.1659
 2035SOL    HW217565   1.139   2.686   2.971 -2.0832 -0.3489 -1.0478
 2036SOL     OW17566   3.494   4.435   6.223 -0.3496  0.5964  0.1293
 2036SOL    HW117567   3.415   4.411   6.174 -0.9028  0.4736  1.0736
 2036SOL    HW217568   3.468   4.521   6.257 -1.3462  0.6202 -0.6885
 2037SOL     OW17569   3.678   3.990   5.327  0.6900  0.0257  0.1857
 2037SOL    HW117570   3.636   3.905   5.319  1.0155 -0.1850  0.7718
 2037SOL    HW217571   3.707   3.994   5.418  0.9207 -0.3636  0.1287
 2038SOL     OW17572   4.489   0.769   9.751  0.1074  0.1785  0.1866
 2038SOL    HW117573   4.488   0.783   9.656 -1.1948 -0.3151  0.1298
 2038SOL    HW217574   4.463   0.856   9.781 -0.6037 -0.1338  0.4875
 2039SOL     OW17575   1.932   4.034   4.001  0.7972  0.0500 -0.4993
 2039SOL    HW117576   1.968   4.067   3.918  0.6155 -1.5979 -1.2238
 2039SOL    HW217577   1.996   4.071   4.063 -0.3583  0.0224  0.7058
 2040SOL     OW17578   4.052   1.928   6.021 -0.3956 -0.2297  0.6364
 2040SOL    HW117579   3.973   1.946   5.970 -0.1823  2.2051  1.1527
 2040SOL    HW217580   4.021   1.857   6.076  2.9017  0.5381  3.5224
 2041SOL     OW17581   2.715   2.894   3.570  0.3838 -0.3988 -0.7131
 2041SOL    HW117582   2.759   2.817   3.535 -0.9295 -1.8071  0.7202
 2041SOL    HW217583   2.629   2.856   3.590  0.0244  1.4080  1.1281
 2042SOL     OW17584   0.536   1.820   9.467 -0.7387 -0.6404 -0.0093
 2042SOL    HW117585   0.505   1.843   9.380 -1.3318 -1.9982 -0.1600
 2042SOL    HW217586   0.506   1.893   9.521  1.0868 -0.6992  1.0944
 2043SOL     OW17587   3.535   2.258   2.283  0.7212 -0.2369  0.1147
 2043SOL    HW117588   3.589   2.194   2.329  2.7847  1.3926 -0.0761
 2043SOL    HW217589   3.545   2.329   2.347 -3.0688  1.0515 -0.7485
 2044SOL     OW17590   1.602   4.586   6.864  0.2887 -0.3854  0.5797
 2044SOL    HW117591   1.671   4.521   6.852  0.7554  0.4017 -0.9504
 2044SOL    HW217592   1.541   4.585   6.791 -0.0970  0.4954  0.8881
 2045SOL     OW17593   0.987   1.279   4.501  0.1171  0.0589  0.1523
 2045SOL    HW117594   0.894   1.268   4.524  0.1412  2.6431  1.4541
 2045SOL    HW217595   1.005   1.187   4.518  0.4661 -0.1299 -1.2367
 2046SOL     OW17596   2.090   4.396   5.527  0.2343 -0.1633  0.4697
 2046SOL    HW117597   2.151   4.362   5.592  1.1033 -0.9354 -0.7625
 2046SOL    HW217598   2.148   4.464   5.493  0.5946 -0.5726  0.2684
 2047SOL     OW17599   0.281   2.398  13.016 -0.3010  0.2304  0.1011
 2047SOL    HW117600   0.200   2.436  12.981  0.0208 -0.7064 -1.6130
 2047SOL    HW217601   0.286   2.320  12.961  1.1676  0.8921 -0.6978
 2048SOL     OW17602   4.209   0.112  17.114 -0.1325 -0.7059  0.0860
 2048SOL    HW117603   4.263   0.172  17.165 -2.5553  1.2652  0.3176
 2048SOL    HW217604   4.127   0.103  17.163  0.6432 -0.3670  1.4312
 2049SOL     OW17605   3.705   1.634   8.266  0.2503  0.3123 -0.3117
 2049SOL    HW117606   3.647   1.588   8.327 -0.2735  1.5816  0.1677
 2049SOL    HW217607   3.731   1.562   8.209 -0.0683 -1.3349  1.6062
 2050SOL     OW17608   2.057   0.373   8.808  1.0088  0.0466  0.1749
 2050SOL    HW117609   2.012   0.373   8.724  1.7937 -0.9324 -0.2421
 2050SOL    HW217610   1.984   0.377   8.870  1.4536 -1.1969  0.7625
 2051SOL     OW17611   4.121   2.344   0.468  0.0590 -0.0575 -0.4003
 2051SOL    HW117612   4.034   2.360   0.504  0.3955 -1.6121  1.1398
 2051SOL    HW217613   4.128   2.422   0.414 -1.1863 -1.5731 -2.7714
 2052SOL     OW17614   1.051   0.914   7.780  0.3181 -0.1726 -0.6696
 2052SOL    HW117615   1.069   0.845   7.844  0.1190  0.7094  0.3302
 2052SOL    HW217616   1.129   0.921   7.725  0.3936 -1.4083 -0.7287
 2053SOL     OW17617   2.050   1.397   9.072  0.1306 -0.6509  0.0661
 2053SOL    HW117618   2.102   1.468   9.036 -2.5533  1.3836  0.1944
 2053SOL    HW217619   2.116   1.346   9.118  0.8835 -0.0913 -0.3864
 2054SOL     OW17620   3.331   3.222   4.226 -0.2030 -0.1709  0.1778
 2054SOL    HW117621   3.305   3.184   4.142 -1.2615 -0.7196  0.7400
 2054SOL    HW217622   3.420   3.254   4.215 -0.3832  0.6782  1.2438
 2055SOL     OW17623   4.191   2.823   2.797  0.5476 -0.5226  0.1377
 2055SOL    HW117624   4.134   2.887   2.839  0.4820 -0.8732  0.5793
 2055SOL    HW217625   4.257   2.885   2.765 -1.1017  0.5760 -1.1183
 2056SOL     OW17626   3.313   2.673   8.989  0.1305 -0.1400 -0.0105
 2056SOL    HW117627   3.359   2.742   8.940 -1.3546 -0.2907 -1.6078
 2056SOL    HW217628   3.350   2.589   8.962  0.8567  0.0529  0.4037
 2057SOL     OW17629   1.527   0.051   4.477 -0.1917 -0.2306  0.7413
 2057SOL    HW117630   1.566   0.003   4.550 -0.9578 -0.9271  0.6889
 2057SOL    HW217631   1.497   0.128   4.526  0.8924  2.2296 -2.4812
 2058SOL     OW17632   3.823   1.346   4.146 -0.0354  0.0020  0.3914
 2058SOL    HW117633   3.751   1.289   4.122  0.1880 -1.7229  3.8028
 2058SOL    HW217634   3.858   1.302   4.224  0.2368  0.3361  0.4585
 2059SOL     OW17635   0.805   2.670   8.656  0.4523  0.0552  0.5600
 2059SOL    HW117636   0.783   2.634   8.742  0.0031  0.0135  0.4255
 2059SOL    HW217637   0.884   2.619   8.637  1.1748  0.0353  3.5032
 2060SOL     OW17638   0.017   1.836   5.687  0.2856 -0.0540 -0.3671
 2060SOL    HW117639   0.017   1.741   5.679  0.4718 -0.0554 -0.3571
 2060SOL    HW217640   4.653   1.843   5.644  0.7377  1.3425 -1.0140
 2061SOL     OW17641   1.252   1.802  16.135 -0.2269  0.5659 -0.3771
 2061SOL    HW117642   1.244   1.896  16.122  1.4081  0.5738 -1.3084
 2061SOL    HW217643   1.225   1.762  16.052 -0.7521  0.6734 -0.2577
 2062SOL     OW17644   1.405   3.235   6.668 -0.3440  0.2241  0.3497
 2062SOL    HW117645   1.311   3.223   6.679 -0.3514  1.0567  1.1396
 2062SOL    HW217646   1.417   3.210   6.576 -1.4927  0.6755  0.0734
 2063SOL     OW17647   4.056   1.151   7.948  0.0792  0.0511 -0.2498
 2063SOL    HW117648   3.999   1.107   8.012 -1.7684 -0.2896 -2.1552
 2063SOL    HW217649   3.983   1.194   7.904  1.5054  2.3423 -0.3477
 2064SOL     OW17650   1.525   3.769   5.342 -0.4222  0.1062  0.1970
 2064SOL    HW117651   1.583   3.717   5.397  0.3369  2.3037  1.4715
 2064SOL    HW217652   1.494   3.713   5.271 -0.7163  0.5689 -0.0388
 2065SOL     OW17653   3.848   2.013   5.838  0.0078 -0.4228  0.2345
 2065SOL    HW117654   3.878   2.005   5.748 -1.0956  0.1086 -0.1881
 2065SOL    HW217655   3.752   2.015   5.831  0.1146  1.6184 -0.7229
 2066SOL     OW17656   2.448   1.439  12.277 -0.3007  0.4486  0.0693
 2066SOL    HW117657   2.513   1.495  12.235  1.8590 -1.3707  0.9946
 2066SOL    HW217658   2.451   1.365  12.215 -0.3229  0.7581 -0.3034
 2067SOL     OW17659   4.174   1.237   3.788  0.4306 -0.2490 -0.2168
 2067SOL    HW117660   4.103   1.221   3.850 -0.2621 -4.1116 -1.9934
 2067SOL    HW217661   4.195   1.148   3.758  1.5170 -0.7515  1.9989
 2068SOL     OW17662   3.749   0.700   6.851  0.6358 -0.1105 -0.2012
 2068SOL    HW117663   3.697   0.628   6.817  0.3102  0.2002 -0.3584
 2068SOL    HW217664   3.771   0.650   6.930 -0.7205  0.8586  0.7980
 2069SOL     OW17665   3.679   0.228  17.333 -0.2671  0.1794  0.1093
 2069SOL    HW117666   3.754   0.176  17.305 -0.2737  0.9758 -1.3504
 2069SOL    HW217667   3.613   0.208  17.267  0.1425  0.1426 -0.2893
 2070SOL     OW17668   0.576   3.164   5.437  0.1025 -0.5389 -0.1382
 2070SOL    HW117669   0.563   3.114   5.518  1.3256  0.6204  0.7587
 2070SOL    HW217670   0.495   3.213   5.449  0.1931 -0.2170 -0.8583
 2071SOL     OW17671   1.559   0.628   6.921  0.1753  0.3252 -0.1403
 2071SOL    HW117672   1.566   0.620   6.826  0.5499 -3.0320  0.1663
 2071SOL    HW217673   1.563   0.537   6.952 -4.0688 -0.1998 -1.1794
 2072SOL     OW17674   4.246   3.592  10.009 -0.1819 -0.4818  0.4435
 2072SOL    HW117675   4.176   3.627   9.954  1.1113 -1.6978 -1.9669
 2072SOL    HW217676   4.304   3.669  10.010 -1.6472  0.6062  1.6093
 2073SOL     OW17677   3.369   0.090  16.068  0.3777 -0.3142 -0.1343
 2073SOL    HW117678   3.289   0.128  16.032 -1.5142 -0.2206  4.1213
 2073SOL    HW217679   3.398   0.057  15.983 -1.7833 -0.6317 -0.7661
 2074SOL     OW17680   4.379   3.042   2.296 -0.0785  0.0259  0.0049
 2074SOL    HW117681   4.301   3.032   2.350 -0.6551  0.2169 -0.7841
 2074SOL    HW217682   4.357   2.980   2.227  0.8698  0.8848 -1.0782
 2075SOL     OW17683   2.495   1.819  10.243  0.5655  0.6001 -0.2655
 2075SOL    HW117684   2.581   1.848  10.274  0.4098 -0.7801  1.4807
 2075SOL    HW217685   2.504   1.811  10.148  0.6779  0.0564 -0.2091
 2076SOL     OW17686   2.825   3.973   6.957 -0.4552  0.0519 -0.1506
 2076SOL    HW117687   2.871   3.935   7.031  0.7494 -0.1102 -0.9922
 2076SOL    HW217688   2.884   3.960   6.883  0.0052  3.1067 -0.3177
 2077SOL     OW17689   1.963   4.482   6.037 -0.3808 -0.3185  0.1303
 2077SOL    HW117690   1.948   4.528   6.120  4.1454  0.6949  0.4193
 2077SOL    HW217691   1.873   4.479   6.006 -0.2021 -0.2412 -0.4021
 2078SOL     OW17692   3.182   0.393   4.031  0.5424  0.2734  0.1682
 2078SOL    HW117693   3.267   0.359   4.060 -0.0229 -1.4046 -0.1288
 2078SOL    HW217694   3.206   0.485   4.022  1.5723 -0.1601 -1.6795
 2079SOL     OW17695   2.858   3.574  12.562  0.5770 -0.0760  0.3479
 2079SOL    HW117696   2.826   3.662  12.541  1.2521  0.0473 -0.1587
 2079SOL    HW217697   2.772   3.533  12.563  1.0459 -1.0989 -1.7229
 2080SOL     OW17698   2.475   4.491  12.237  0.8059  0.0697 -0.1799
 2080SOL    HW117699   2.525   4.456  12.310  0.8254 -1.2901 -0.8422
 2080SOL    HW217700   2.394   4.447  12.263  0.3666  0.3050 -1.1446
 2081SOL     OW17701   4.151   3.922  13.338 -0.6554  0.2168 -0.5138
 2081SOL    HW117702   4.143   3.828  13.323  2.1258 -0.1336  0.0730
 2081SOL    HW217703   4.071   3.938  13.387  1.0090  1.4790  1.7908
 2082SOL     OW17704   0.396   1.340   4.332  0.4644  0.0309  0.3421
 2082SOL    HW117705   0.360   1.317   4.247  0.4141  0.7824  0.1657
 2082SOL    HW217706   0.476   1.383   4.303  1.0969 -1.0207  0.5026
 2083SOL     OW17707   2.015   2.486   7.498  0.7177  0.1062  0.1266
 2083SOL    HW117708   2.099   2.507   7.458  0.6593 -2.8535 -1.6147
 2083SOL    HW217709   2.028   2.392   7.512 -2.0913 -0.2174  0.6740
 2084SOL     OW17710   3.357   4.132  11.353 -0.0615 -0.1152  0.5852
 2084SOL    HW117711   3.441   4.095  11.327  0.6181  1.5561  0.4209
 2084SOL    HW217712   3.309   4.050  11.341 -0.2078  0.0338  0.1354
 2085SOL     OW17713   3.843   0.542   6.086 -0.6239 -0.3106  0.1327
 2085SOL    HW117714   3.888   0.505   6.010 -1.9903  1.4529 -1.5285
 2085SOL    HW217715   3.793   0.466   6.115 -0.5317  0.0296  1.1744
 2086SOL     OW17716   1.411   1.252  10.438  0.4582  0.2197  0.2431
 2086SOL    HW117717   1.460   1.333  10.451  1.2366 -0.0471 -0.9882
 2086SOL    HW217718   1.421   1.209  10.522 -2.8749  0.5752  0.8229
 2087SOL     OW17719   2.976   2.814   4.605  0.1736 -0.4029  0.0944
 2087SOL    HW117720   2.959   2.757   4.530 -0.8311  0.0785 -0.0474
 2087SOL    HW217721   3.029   2.759   4.663  2.2586 -0.3891 -1.7715
 2088SOL     OW17722   1.356   3.192   4.878 -0.4676 -0.8220 -0.5389
 2088SOL    HW117723   1.338   3.271   4.930  2.2933 -0.5529  0.0270
 2088SOL    HW217724   1.450   3.201   4.864 -0.2621 -3.4755 -0.7993
 2089SOL     OW17725   4.329   2.294   5.563  0.5800  0.3010  0.0640
 2089SOL    HW117726   4.308   2.213   5.517  0.1424 -0.3132  1.3290
 2089SOL    HW217727   4.253   2.317   5.617  0.8413  1.4722 -0.0732
 2090SOL     OW17728   0.149   0.908   2.496 -0.1657 -0.0119 -0.2485
 2090SOL    HW117729   0.229   0.934   2.452 -0.7762 -0.2441 -1.4928
 2090SOL    HW217730   0.158   0.961   2.575  2.2975  0.6861 -1.0101
 2091SOL     OW17731   1.999   0.318  10.683 -0.5360 -0.2131  0.0810
 2091SOL    HW117732   2.055   0.280  10.616 -1.3913 -2.0441  0.4117
 2091SOL    HW217733   2.054   0.348  10.755 -2.0330 -0.7713  1.4546
 2092SOL     OW17734   2.388   2.581   8.081  0.0935  0.4983 -0.2588
 2092SOL    HW117735   2.482   2.600   8.076  0.6589 -1.7050  2.1799
 2092SOL    HW217736   2.356   2.671   8.083 -1.3033  0.0656 -3.0169
 2093SOL     OW17737   2.845   3.277  12.391 -0.1475  0.2689 -0.5363
 2093SOL    HW117738   2.826   3.234  12.475  0.5431  1.0448  0.0201
 2093SOL    HW217739   2.762   3.295  12.348 -0.0943 -1.1166 -1.2413
 2094SOL     OW17740   3.053   0.894  17.479  0.1279 -0.0979 -0.2675
 2094SOL    HW117741   2.982   0.953  17.507 -0.3074 -0.4180 -0.6918
 2094SOL    HW217742   3.083   0.954  17.411 -1.3497  0.1683 -0.7040
 2095SOL     OW17743   4.016   3.462   6.986  0.2291 -0.1590 -0.0325
 2095SOL    HW117744   4.004   3.541   7.038 -0.7816 -1.6418  2.0121
 2095SOL    HW217745   4.087   3.490   6.929  0.9774  1.4831  1.7142
 2096SOL     OW17746   1.450   2.019   3.311 -0.0066  0.0646  0.1912
 2096SOL    HW117747   1.364   1.980   3.294 -0.9397  1.8790  0.7364
 2096SOL    HW217748   1.448   2.041   3.404 -1.7566 -1.5305  0.5283
 2097SOL     OW17749   0.123   4.225   8.006 -0.1152  0.2579 -0.1634
 2097SOL    HW117750   0.108   4.230   7.912 -0.0600 -0.9136 -0.2369
 2097SOL    HW217751   0.101   4.315   8.029  0.0146  0.3350 -0.3357
 2098SOL     OW17752   3.382   4.356   3.301  0.4693  0.1657 -0.4230
 2098SOL    HW117753   3.335   4.353   3.385  0.4558 -1.2137 -0.4863
 2098SOL    HW217754   3.474   4.350   3.325  0.4183 -1.0733 -0.5219
 2099SOL     OW17755   2.371   3.914  17.665 -0.2750 -0.4846  0.4636
 2099SOL    HW117756   2.453   3.948  17.628 -0.7089 -1.3927 -1.3276
 2099SOL    HW217757   2.361   3.831  17.619  1.5465  0.0922 -0.9835
 2100SOL     OW17758   1.165   1.482   3.278 -0.0651  0.3991  0.2695
 2100SOL    HW117759   1.124   1.488   3.365 -1.8743  0.3983 -0.5765
 2100SOL    HW217760   1.253   1.520   3.282  0.2775 -0.2518 -1.2214
 2101SOL     OW17761   3.709   4.038   4.908  0.2870  0.2075 -0.7482
 2101SOL    HW117762   3.769   3.964   4.923 -0.0954  0.3235  1.3705
 2101SOL    HW217763   3.639   4.007   4.850 -0.0783  2.0202 -1.2715
 2102SOL     OW17764   1.674   4.337   4.530 -0.2154  1.0403 -0.0339
 2102SOL    HW117765   1.752   4.325   4.584 -1.0212 -2.1514  0.4137
 2102SOL    HW217766   1.676   4.254   4.482  1.8269  1.0709 -0.0305
 2103SOL     OW17767   4.466   2.792   8.035  0.3399  0.6805  0.1251
 2103SOL    HW117768   4.423   2.720   8.080  1.6641  0.0041  0.3128
 2103SOL    HW217769   4.545   2.746   8.008 -0.3207 -0.8685  0.8608
 2104SOL     OW17770   3.488   2.574  13.779 -0.1252  0.3208 -0.3627
 2104SOL    HW117771   3.510   2.638  13.847  0.3575 -2.6530  2.2854
 2104SOL    HW217772   3.554   2.505  13.789 -0.7362 -0.6266 -3.0028
 2105SOL     OW17773   2.850   0.697   2.729  0.2959 -0.0955  0.4852
 2105SOL    HW117774   2.783   0.641   2.691  0.7368  0.6733 -1.4458
 2105SOL    HW217775   2.888   0.755   2.662  2.9427 -1.6938  0.5913
 2106SOL     OW17776   2.559   3.372   2.997  0.2483  0.2529 -0.9217
 2106SOL    HW117777   2.629   3.417   2.950  1.1613 -2.6087 -2.2873
 2106SOL    HW217778   2.615   3.324   3.059  1.5273  0.7077 -1.7307
 2107SOL     OW17779   4.353   0.274   3.082 -0.0834 -0.5201 -0.2943
 2107SOL    HW117780   4.280   0.217   3.107 -1.9118  0.1095 -4.2093
 2107SOL    HW217781   4.304   0.352   3.109  1.9872  1.2058 -1.5207
 2108SOL     OW17782   1.250   3.533  11.302 -0.0082  0.5645  0.1656
 2108SOL    HW117783   1.311   3.578  11.244 -0.9277  0.5322 -0.8305
 2108SOL    HW217784   1.252   3.446  11.262 -0.4110  0.8651 -0.5219
 2109SOL     OW17785   3.085   3.441   2.105 -0.2436 -0.2749 -0.0440
 2109SOL    HW117786   3.114   3.440   2.196  1.8791  1.0795 -0.7349
 2109SOL    HW217787   3.169   3.462   2.064  0.9786  0.0449  2.6222
 2110SOL     OW17788   3.358   3.309  11.986 -0.5510 -0.4589 -0.1101
 2110SOL    HW117789   3.405   3.361  11.921 -0.0739  1.5914  1.8500
 2110SOL    HW217790   3.294   3.266  11.930 -1.8095  0.5428  0.5674
 2111SOL     OW17791   2.838   0.658   4.198  0.0636 -0.0756 -0.2392
 2111SOL    HW117792   2.927   0.638   4.168 -0.2863 -2.2139  0.1377
 2111SOL    HW217793   2.795   0.690   4.119 -0.9837 -4.3494 -1.4073
 2112SOL     OW17794   0.990   4.280   4.941  0.0134  0.3484  0.0259
 2112SOL    HW117795   0.973   4.336   5.017  0.3726 -0.4411  0.6868
 2112SOL    HW217796   0.909   4.241   4.910  1.0736 -0.2166 -2.0764
 2113SOL     OW17797   3.381   1.451   0.641 -0.5306  0.3120 -0.4580
 2113SOL    HW117798   3.313   1.457   0.573  0.7327 -2.4553 -1.9725
 2113SOL    HW217799   3.331   1.437   0.721 -1.1602 -1.2778 -1.1078
 2114SOL     OW17800   4.363   0.988  14.297  0.1744 -0.3015  0.1681
 2114SOL    HW117801   4.319   1.058  14.346  0.5144  0.5467 -0.7356
 2114SOL    HW217802   4.431   1.040  14.254  1.3195 -0.5778  1.6346
 2115SOL     OW17803   0.670   4.100  13.110  0.3841  0.3541 -0.0507
 2115SOL    HW117804   0.645   4.023  13.059  0.2187  0.1472  0.3481
 2115SOL    HW217805   0.579   4.121  13.131  0.1719 -2.0006  1.2541
 2116SOL     OW17806   3.308   1.901   0.861 -0.1436 -0.0389  0.1118
 2116SOL    HW117807   3.357   1.820   0.873  2.0064  0.8914 -2.3276
 2116SOL    HW217808   3.352   1.943   0.786 -0.9506  0.5158 -0.0530
 2117SOL     OW17809   2.916   0.310   6.516 -0.5807 -0.4024 -1.0648
 2117SOL    HW117810   2.907   0.243   6.584 -0.3861  0.8478  0.1967
 2117SOL    HW217811   2.830   0.351   6.528  1.1954  2.8414  0.5112
 2118SOL     OW17812   0.260   2.927   6.667 -0.4447  0.7506 -0.4535
 2118SOL    HW117813   0.337   2.950   6.718  1.7282 -1.7468 -2.6130
 2118SOL    HW217814   0.292   2.951   6.580  1.0543  2.8020  0.6738
 2119SOL     OW17815   4.141   3.612   6.609 -0.3489  0.0018 -0.3255
 2119SOL    HW117816   4.227   3.631   6.646 -0.5361 -0.0710  0.1403
 2119SOL    HW217817   4.144   3.517   6.607  3.2485  0.1754 -2.7016
 2120SOL     OW17818   4.461   3.035   6.211 -0.0123  0.1136 -0.0271
 2120SOL    HW117819   4.390   2.981   6.176 -0.6814  0.3804  0.9271
 2120SOL    HW217820   4.530   3.011   6.148  0.2764  0.8781 -0.0033
 2121SOL     OW17821   1.559   1.417   5.430 -0.2936 -0.3726 -0.2141
 2121SOL    HW117822   1.483   1.435   5.374  1.6995  1.2333 -2.4017
 2121SOL    HW217823   1.535   1.486   5.493 -2.9576 -0.2570 -1.3463
 2122SOL     OW17824   4.194   4.059   0.921 -0.2422 -0.4512 -0.9277
 2122SOL    HW117825   4.195   3.974   0.965  0.8090 -1.0557 -2.1200
 2122SOL    HW217826   4.203   4.127   0.988 -0.9972 -2.2585  0.9992
 2123SOL     OW17827   1.969   4.444   9.158  0.4192  0.6570 -0.0253
 2123SOL    HW117828   1.919   4.399   9.090 -0.7197  2.7197 -0.5560
 2123SOL    HW217829   1.949   4.529   9.118 -1.3089  1.8785  3.4149
 2124SOL     OW17830   1.093   0.834   4.493 -0.1509  0.3578  0.0779
 2124SOL    HW117831   1.113   0.809   4.403  0.4042  1.3838 -0.0820
 2124SOL    HW217832   1.023   0.899   4.482  0.0687 -0.1141 -4.0234
 2125SOL     OW17833   3.503   3.262   3.015  0.5962 -0.3594  0.1366
 2125SOL    HW117834   3.462   3.348   3.004 -2.9769 -1.8128  2.1326
 2125SOL    HW217835   3.439   3.223   3.074  1.7349 -3.3399 -0.6131
 2126SOL     OW17836   3.767   3.982  12.144  0.1258 -0.1117  0.4617
 2126SOL    HW117837   3.769   3.920  12.071 -2.6763  0.1780  0.1252
 2126SOL    HW217838   3.692   4.039  12.125 -0.3318 -1.2046 -0.9846
 2127SOL     OW17839   2.603   1.281   5.410  0.3162 -0.6058 -0.0846
 2127SOL    HW117840   2.617   1.306   5.501  1.5822  0.4385 -0.5552
 2127SOL    HW217841   2.509   1.293   5.423  0.3428 -0.6782  0.1599
 2128SOL     OW17842   1.136   1.530   3.915  0.1922  0.1404 -0.2583
 2128SOL    HW117843   1.183   1.459   3.872  0.7486  0.4078 -0.0882
 2128SOL    HW217844   1.086   1.487   3.984  0.2796  1.8326  0.8710
 2129SOL     OW17845   1.078   2.804   7.269 -0.2505 -0.0321 -0.2987
 2129SOL    HW117846   0.987   2.832   7.266 -0.1207  0.2428 -1.4711
 2129SOL    HW217847   1.070   2.716   7.308  0.2763  0.6430  1.3449
 2130SOL     OW17848   0.947   3.664   2.996 -0.0054  0.0855  0.4529
 2130SOL    HW117849   0.946   3.751   2.956 -0.2162  0.1738  0.6519
 2130SOL    HW217850   1.033   3.629   2.972 -1.2654 -1.3835 -1.9843
 2131SOL     OW17851   0.930   0.058   2.515  0.0781  1.1391 -0.2765
 2131SOL    HW117852   0.938   4.686   2.492  1.0806  0.8903  1.0442
 2131SOL    HW217853   0.925   0.092   2.426 -1.8854 -0.3553 -0.7450
 2132SOL     OW17854   4.006   4.617   2.468  0.3835 -0.0768  0.1921
 2132SOL    HW117855   4.077   4.566   2.428  0.4393  1.3918 -1.6298
 2132SOL    HW217856   3.936   4.607   2.403 -0.8884  2.2609  1.2182
 2133SOL     OW17857   0.836   2.528   5.377 -0.0807 -0.3854  0.2796
 2133SOL    HW117858   0.760   2.492   5.422 -1.4010  0.2244 -1.4495
 2133SOL    HW217859   0.898   2.455   5.387  2.2788  1.4041 -1.1720
 2134SOL     OW17860   1.975   1.773  16.681 -0.0530  0.1608 -0.0552
 2134SOL    HW117861   1.953   1.681  16.669  1.2938 -0.2689  0.8208
 2134SOL    HW217862   1.887   1.812  16.681 -0.5879 -1.0293  1.7257
 2135SOL     OW17863   1.388   1.646  10.144 -0.6196  0.3247 -0.1282
 2135SOL    HW117864   1.461   1.614  10.091 -0.6094  2.7237 -1.5497
 2135SOL    HW217865   1.311   1.601  10.110 -0.2885  1.0231 -1.7917
 2136SOL     OW17866   2.509   0.464   7.346  0.0629 -0.9167  0.0124
 2136SOL    HW117867   2.413   0.462   7.339 -0.1099  1.7202  1.6112
 2136SOL    HW217868   2.521   0.546   7.297 -0.2565 -0.9717 -0.1595
 2137SOL     OW17869   0.767   0.921   6.535  0.8785  0.5817  0.2877
 2137SOL    HW117870   0.712   0.894   6.609  1.8618 -1.7348  0.1747
 2137SOL    HW217871   0.834   0.854   6.549 -0.4756 -0.0982  3.4523
 2138SOL     OW17872   0.183   0.048   8.336 -0.1455  0.4400 -0.0727
 2138SOL    HW117873   0.221   0.003   8.261 -2.5651 -0.9307 -0.4733
 2138SOL    HW217874   0.258   0.048   8.396 -2.0618  1.9572  2.3441
 2139SOL     OW17875   0.102   0.492  10.852 -0.3206  0.3663 -0.2892
 2139SOL    HW117876   0.142   0.406  10.841 -0.4280  0.4133 -1.0280
 2139SOL    HW217877   0.083   0.507  10.760 -0.5713  0.9493 -0.1392
 2140SOL     OW17878   2.775   2.094   6.996 -0.0661 -0.0166 -0.0243
 2140SOL    HW117879   2.797   2.001   6.998  0.2372  0.0919  1.5386
 2140SOL    HW217880   2.800   2.118   7.085  0.7834  0.8056 -0.4896
 2141SOL     OW17881   1.703   1.797  11.708 -0.0595 -0.3083 -0.2563
 2141SOL    HW117882   1.636   1.752  11.760  1.0305 -2.1889 -0.4652
 2141SOL    HW217883   1.675   1.887  11.722  1.3059 -0.3746  2.8060
 2142SOL     OW17884   0.280   3.313  13.966 -0.1972  0.1827  0.1863
 2142SOL    HW117885   0.309   3.390  14.013 -0.2502  1.0571 -1.1950
 2142SOL    HW217886   0.361   3.283  13.926 -0.5287  0.3379 -0.6148
 2143SOL     OW17887   0.826   2.359   7.939 -0.1969 -0.9053 -0.0361
 2143SOL    HW117888   0.854   2.273   7.970  0.3038 -1.3366 -1.6777
 2143SOL    HW217889   0.911   2.403   7.951 -0.5718 -0.4759  1.0985
 2144SOL     OW17890   3.202   0.546   3.102  0.0300  0.0997 -0.2027
 2144SOL    HW117891   3.199   0.516   3.011 -1.4430 -0.3081 -0.0319
 2144SOL    HW217892   3.268   0.615   3.101  0.5997 -0.4119  2.4194
 2145SOL     OW17893   2.917   4.374   2.508 -0.3214  0.6480  0.1108
 2145SOL    HW117894   2.897   4.457   2.465  0.9546  0.8928 -0.0068
 2145SOL    HW217895   3.001   4.391   2.550  0.4085 -0.4612 -0.8649
 2146SOL     OW17896   0.396   0.626   2.307 -0.1044 -0.1165 -0.0469
 2146SOL    HW117897   0.426   0.537   2.324  0.0003 -0.5455 -2.4276
 2146SOL    HW217898   0.300   0.622   2.310 -0.1737  0.5510 -1.3251
 2147SOL     OW17899   0.030   4.539   4.252  0.0065 -0.7797 -0.1584
 2147SOL    HW117900   0.080   4.467   4.291  0.6376  0.0971  0.6464
 2147SOL    HW217901   4.718   4.588   4.327  1.0499  1.5184 -1.1879
 2148SOL     OW17902   1.113   3.894   9.157  0.4422 -0.1585  0.0966
 2148SOL    HW117903   1.208   3.899   9.142  0.2725 -2.0266 -1.5636
 2148SOL    HW217904   1.101   3.915   9.064 -0.9954 -1.1056  0.0791
 2149SOL     OW17905   1.716   2.612   4.474  0.3676 -0.2820  0.8653
 2149SOL    HW117906   1.623   2.622   4.453  0.3984  0.4960  1.1071
 2149SOL    HW217907   1.715   2.602   4.569 -0.9688 -1.0834  0.7664
 2150SOL     OW17908   0.051   3.039  14.810  0.8051 -0.4365  0.9001
 2150SOL    HW117909   0.025   2.949  14.828 -0.5768 -0.5012 -1.4511
 2150SOL    HW217910   0.147   3.039  14.808  0.7976 -1.5970  0.5386
 2151SOL     OW17911   4.208   3.052   8.468 -0.2504 -0.1969 -0.2033
 2151SOL    HW117912   4.300   3.075   8.455 -0.2159 -0.6958 -0.8641
 2151SOL    HW217913   4.173   3.053   8.379  1.6486  1.6361 -0.9101
 2152SOL     OW17914   4.238   2.417  15.072  0.1084 -0.1976 -0.1712
 2152SOL    HW117915   4.255   2.349  15.138  1.5681 -0.3222 -0.6684
 2152SOL    HW217916   4.324   2.432  15.032  0.5208 -0.1311  0.7412
 2153SOL     OW17917   0.464   1.086  14.092 -0.1765  0.5951  0.0750
 2153SOL    HW117918   0.403   1.125  14.030 -2.0889  0.0292  1.5975
 2153SOL    HW217919   0.549   1.129  14.081  0.0661 -0.0112 -0.4455
 2154SOL     OW17920   2.855   2.775   5.407  0.5806 -0.1556 -0.0436
 2154SOL    HW117921   2.929   2.717   5.427  0.3972 -0.1166  0.7844
 2154SOL    HW217922   2.801   2.712   5.358  0.4540 -0.2995  0.2778
 2155SOL     OW17923   2.517   0.063   7.004  0.3731  0.0245  0.1218
 2155SOL    HW117924   2.552   4.696   6.991 -1.3692 -0.5903 -0.4884
 2155SOL    HW217925   2.433   0.049   7.047 -0.5500  0.1879 -1.6036
 2156SOL     OW17926   1.718   2.604   2.111  0.1500  0.8826  0.1334
 2156SOL    HW117927   1.709   2.521   2.159  0.3278 -0.8141 -2.7944
 2156SOL    HW217928   1.801   2.597   2.064 -0.3506 -1.0465 -0.4727
 2157SOL     OW17929   3.454   1.277   5.022  0.6457 -0.2210 -0.3830
 2157SOL    HW117930   3.368   1.319   5.019  1.1060  0.6578 -1.3362
 2157SOL    HW217931   3.504   1.341   4.970 -0.0112 -0.3483 -1.1707
 2158SOL     OW17932   0.121   3.237   7.383 -0.2100 -0.3567  0.3081
 2158SOL    HW117933   0.032   3.229   7.417  0.1772  0.7061  1.5635
 2158SOL    HW217934   0.122   3.156   7.332 -0.3332 -0.7420  0.9201
 2159SOL     OW17935   3.078   0.578  11.905  0.5853  0.0305 -0.5017
 2159SOL    HW117936   3.006   0.637  11.927  2.1855  0.7603  2.8328
 2159SOL    HW217937   3.046   0.527  11.831 -0.9719 -1.5196  1.2562
 2160SOL     OW17938   3.466   0.387   3.310 -0.0761  0.1822 -0.4696
 2160SOL    HW117939   3.552   0.359   3.342 -1.2999  0.9203  3.3875
 2160SOL    HW217940   3.465   0.322   3.239  1.7238 -0.2519 -0.0887
 2161SOL     OW17941   1.623   1.197   8.300 -0.2566  0.7672  0.5095
 2161SOL    HW117942   1.704   1.244   8.317  0.0972  0.6273 -0.7540
 2161SOL    HW217943   1.650   1.108   8.276 -0.6988  0.6802  0.3245
 2162SOL     OW17944   1.763   0.865  13.280 -0.6345 -0.0244 -0.0855
 2162SOL    HW117945   1.782   0.798  13.346 -1.2990 -0.8956 -0.7856
 2162SOL    HW217946   1.692   0.909  13.327  0.9361  1.5319  0.8861
 2163SOL     OW17947   3.965   4.352  11.718  0.2554 -0.0423  0.7842
 2163SOL    HW117948   3.936   4.411  11.648  1.0363 -1.2180 -0.5315
 2163SOL    HW217949   4.022   4.302  11.660 -1.6286  0.7123 -1.7901
 2164SOL     OW17950   1.318   2.460   1.926  0.3378 -0.0630 -0.5214
 2164SOL    HW117951   1.241   2.450   1.870  0.1466  0.5118 -0.3533
 2164SOL    HW217952   1.348   2.544   1.893  1.2381 -0.7338 -1.4204
 2165SOL     OW17953   1.147   3.913   4.391  0.3113 -0.4718  0.3687
 2165SOL    HW117954   1.242   3.918   4.387  0.2705 -0.4802 -0.5970
 2165SOL    HW217955   1.126   3.939   4.481 -0.4839 -1.8239  0.5713
 2166SOL     OW17956   0.489   2.438  12.099  0.0769  0.1939 -0.2495
 2166SOL    HW117957   0.527   2.516  12.139  0.5159  1.3584 -2.8776
 2166SOL    HW217958   0.398   2.441  12.129 -0.4984 -0.4608 -1.8910
 2167SOL     OW17959   2.785   1.569   5.523  0.3044 -0.0482  0.1302
 2167SOL    HW117960   2.822   1.638   5.578  0.9058 -1.3098  1.2992
 2167SOL    HW217961   2.861   1.512   5.510  0.9782  0.8187  0.2731
 2168SOL     OW17962   0.859   4.383  15.450 -0.0606 -0.5217  0.1078
 2168SOL    HW117963   0.859   4.293  15.483 -0.7082 -0.5748 -0.0442
 2168SOL    HW217964   0.867   4.430  15.534 -1.6700 -3.1472  1.7242
 2169SOL     OW17965   2.929   2.811   3.065  0.2624  0.2990 -0.1604
 2169SOL    HW117966   2.942   2.810   3.160  3.1493 -1.2022 -0.5517
 2169SOL    HW217967   2.835   2.827   3.069  0.3099  0.7762 -0.8923
 2170SOL     OW17968   0.683   3.464  15.279 -0.2808 -0.2737 -0.1410
 2170SOL    HW117969   0.624   3.408  15.329 -0.5958  0.3323  0.1801
 2170SOL    HW217970   0.633   3.535  15.237  0.2611 -1.2557 -2.4328
 2171SOL     OW17971   0.604   3.982   2.442  0.6797 -0.4301  0.4237
 2171SOL    HW117972   0.628   4.010   2.354 -1.1076  0.8147  0.3415
 2171SOL    HW217973   0.689   3.963   2.482  0.7451 -0.2792  0.3555
 2172SOL     OW17974   0.859   0.450  16.207 -0.2708  0.3202  0.1243
 2172SOL    HW117975   0.886   0.502  16.131 -0.2806 -0.4932 -0.4358
 2172SOL    HW217976   0.768   0.429  16.187 -0.2982  0.2183  0.3558
 2173SOL     OW17977   1.480   0.439  11.871 -0.2262  0.2700 -0.0029
 2173SOL    HW117978   1.480   0.377  11.943 -1.5722  0.7776  0.4296
 2173SOL    HW217979   1.405   0.495  11.892 -2.1068 -2.1360 -0.3721
 2174SOL     OW17980   2.345   0.110   4.564 -0.4512  0.4938  0.3656
 2174SOL    HW117981   2.309   0.113   4.653  0.2942 -2.0652  0.7479
 2174SOL    HW217982   2.267   0.109   4.509 -0.4755  0.7854  0.3916
 2175SOL     OW17983   3.655   4.258   4.613 -0.1546 -0.0112 -0.1993
 2175SOL    HW117984   3.588   4.298   4.668 -1.7436 -0.9265 -1.4498
 2175SOL    HW217985   3.599   4.214   4.548  0.8834  2.1901 -2.5440
 2176SOL     OW17986   3.231   4.448   5.207  0.0272 -0.3320  0.0936
 2176SOL    HW117987   3.193   4.460   5.294  1.9047  0.2442  0.8189
 2176SOL    HW217988   3.181   4.372   5.176  0.0307 -1.2150  2.2726
 2177SOL     OW17989   3.057   0.103   4.324 -0.0111 -0.0243 -0.2861
 2177SOL    HW117990   3.025   0.183   4.283  0.4030  1.3978  2.1802
 2177SOL    HW217991   3.016   0.039   4.266 -0.3594 -0.1478  0.0957
 2178SOL     OW17992   1.303   1.436   2.742  0.1554  0.5094 -0.1433
 2178SOL    HW117993   1.375   1.500   2.741  0.2336  0.4144 -0.6041
 2178SOL    HW217994   1.285   1.404   2.654  2.3869  0.0520 -0.4477
 2179SOL     OW17995   4.036   0.310  14.770  0.1348  0.0797  0.4543
 2179SOL    HW117996   3.987   0.388  14.795  1.1271  0.5187  1.0472
 2179SOL    HW217997   4.045   0.274  14.859 -0.7011 -1.2437  0.0078
 2180SOL     OW17998   0.197   1.578   3.143 -0.0858 -0.3839  0.2228
 2180SOL    HW117999   0.242   1.632   3.078  1.1098  0.1614  1.4772
 2180SOL    HW218000   0.107   1.579   3.111 -0.4075  0.1680  1.1453
 2181SOL     OW18001   2.413   0.653  12.404  1.0809  0.0131 -0.1451
 2181SOL    HW118002   2.322   0.656  12.374  0.9581 -0.0479  0.2239
 2181SOL    HW218003   2.456   0.695  12.329  0.4165  2.0293  0.5973
 2182SOL     OW18004   0.787   3.931  13.278  0.2732 -0.4071  0.3124
 2182SOL    HW118005   0.746   3.976  13.204  0.3192 -0.4288  0.2741
 2182SOL    HW218006   0.849   4.000  13.302 -2.2096  1.5077  1.2065
 2183SOL     OW18007   1.704   4.700   5.352 -0.4294  0.2559  0.2507
 2183SOL    HW118008   1.618   0.009   5.324  0.3956  1.0215 -1.4225
 2183SOL    HW218009   1.699   4.703   5.448 -1.3753  2.8624  0.1280
 2184SOL     OW18010   1.847   3.490  13.614 -0.4129 -0.1074 -0.1143
 2184SOL    HW118011   1.788   3.555  13.575 -0.1908 -0.3204 -0.8188
 2184SOL    HW218012   1.923   3.505  13.557  1.4191 -2.7685  1.6362
 2185SOL     OW18013   1.213   2.864   0.294 -0.1643 -0.3445 -0.6178
 2185SOL    HW118014   1.194   2.772   0.313  2.7558 -0.5409  1.3982
 2185SOL    HW218015   1.145   2.904   0.348  1.7358  1.7958  0.2291
 2186SOL     OW18016   3.604   3.260   6.491 -0.1521  0.1312  0.5365
 2186SOL    HW118017   3.603   3.306   6.407 -0.2379 -2.4720 -0.8787
 2186SOL    HW218018   3.516   3.223   6.494  0.1076 -0.4932  0.4908
 2187SOL     OW18019   4.112   1.608   7.478 -0.1932 -0.3509 -0.0040
 2187SOL    HW118020   4.023   1.639   7.496  0.8038  1.3945  1.9244
 2187SOL    HW218021   4.136   1.566   7.561  0.8306  1.1325  0.4558
 2188SOL     OW18022   2.598   2.267   4.212  0.3944 -0.4860  0.5891
 2188SOL    HW118023   2.624   2.317   4.135  1.6422 -0.5828  0.9553
 2188SOL    HW218024   2.515   2.230   4.181  0.3365  0.9317 -0.9530
 2189SOL     OW18025   3.313   0.568  12.203 -0.0781 -0.4264 -0.2438
 2189SOL    HW118026   3.277   0.650  12.235  0.8534 -0.2712  0.4182
 2189SOL    HW218027   3.406   0.580  12.224 -0.1963  0.0930 -0.0238
 2190SOL     OW18028   4.535   2.667   9.284  0.2911 -0.4001  0.0344
 2190SOL    HW118029   4.504   2.662   9.374 -1.2237  2.7679 -0.3140
 2190SOL    HW218030   4.573   2.754   9.289 -2.3151  0.6828  1.0956
 2191SOL     OW18031   1.361   2.511   7.000 -0.0271 -0.0081 -0.2233
 2191SOL    HW118032   1.273   2.547   6.995 -0.3284 -0.8296 -0.9410
 2191SOL    HW218033   1.398   2.592   7.035 -0.3842 -1.0467  2.4977
 2192SOL     OW18034   0.744   3.127   4.965 -0.0756 -0.5720  0.3032
 2192SOL    HW118035   0.722   3.176   4.885  2.1519 -1.2035 -0.7052
 2192SOL    HW218036   0.660   3.141   5.010 -0.1542  0.2473 -0.0988
 2193SOL     OW18037   3.586   1.326  14.994 -0.4874  0.0229 -0.3652
 2193SOL    HW118038   3.543   1.343  15.078  0.0116 -2.1597  0.3405
 2193SOL    HW218039   3.673   1.300  15.021  0.0202  0.4639 -1.5623
 2194SOL     OW18040   0.887   3.731   2.334 -0.0804 -0.1259 -0.2110
 2194SOL    HW118041   0.925   3.649   2.366 -0.6731 -0.3038  0.0237
 2194SOL    HW218042   0.800   3.731   2.373  0.5641 -1.2632  1.2499
 2195SOL     OW18043   3.381   2.090   1.759 -0.1245  0.1615  0.4172
 2195SOL    HW118044   3.433   2.022   1.802  0.0214 -0.1250 -0.2198
 2195SOL    HW218045   3.294   2.053   1.773 -0.1145 -1.0305 -2.6866
 2196SOL     OW18046   1.484   1.666   4.698  0.0811 -0.0913 -0.3063
 2196SOL    HW118047   1.416   1.616   4.742  0.6009 -0.6479 -0.1440
 2196SOL    HW218048   1.432   1.700   4.625 -1.8372  2.6597  2.3271
 2197SOL     OW18049   0.879   0.223   1.242 -0.1456  0.6251 -0.1641
 2197SOL    HW118050   0.923   0.305   1.218 -1.0436  1.0120 -0.4665
 2197SOL    HW218051   0.907   0.196   1.329  1.9156 -1.0710 -1.3471
 2198SOL     OW18052   1.387   3.534   8.072  0.0771 -0.2609  0.1966
 2198SOL    HW118053   1.453   3.581   8.021 -1.0152  0.1316 -0.8470
 2198SOL    HW218054   1.448   3.501   8.138 -1.0152 -1.6273  0.5319
 2199SOL     OW18055   2.343   2.321   8.134  0.7717 -0.3020 -0.1751
 2199SOL    HW118056   2.355   2.411   8.103 -1.2643 -0.1839 -0.6310
 2199SOL    HW218057   2.254   2.323   8.168  0.8337  2.3796 -0.1634
 2200SOL     OW18058   1.698   1.655  10.240 -0.2010 -0.2520  0.6413
 2200SOL    HW118059   1.715   1.726  10.302 -0.9665 -0.7847  1.4558
 2200SOL    HW218060   1.607   1.630  10.256 -0.2666  0.1789  0.9530
 2201SOL     OW18061   4.010   2.658  14.129  0.6109 -0.5873  0.3239
 2201SOL    HW118062   3.991   2.609  14.049 -0.4684  0.7617 -0.2532
 2201SOL    HW218063   4.105   2.664  14.134  0.5411 -0.1207  1.1314
 2202SOL     OW18064   1.051   3.283   7.031  0.2382  0.1439  0.1162
 2202SOL    HW118065   1.037   3.263   6.939 -0.5060  0.1688  0.2239
 2202SOL    HW218066   1.091   3.369   7.020  0.4972  0.2348  1.6952
 2203SOL     OW18067   3.772   2.431  17.267  0.1791  0.4721 -0.8106
 2203SOL    HW118068   3.725   2.349  17.282 -1.7870  1.8363  0.4060
 2203SOL    HW218069   3.839   2.397  17.207  1.0896  1.6974 -0.4790
 2204SOL     OW18070   3.030   2.138   7.392  0.0563  0.1805  0.4869
 2204SOL    HW118071   3.093   2.202   7.360 -1.1238  0.1816 -1.8473
 2204SOL    HW218072   3.050   2.129   7.485  1.0567 -0.0360  0.2473
 2205SOL     OW18073   2.632   2.117   1.770  0.0498  0.1603 -0.7375
 2205SOL    HW118074   2.551   2.070   1.786  0.4882  0.3072  1.8421
 2205SOL    HW218075   2.604   2.202   1.737  1.0604  0.3346 -1.1665
 2206SOL     OW18076   3.995   0.184  16.471  0.1762  0.0334  0.3141
 2206SOL    HW118077   3.940   0.262  16.479 -2.1740 -1.5977  0.2746
 2206SOL    HW218078   4.048   0.205  16.394 -2.7738  1.7319 -1.2522
 2207SOL     OW18079   1.997   2.758   4.791  0.0310 -0.1590  0.2064
 2207SOL    HW118080   2.076   2.766   4.737  1.0021  1.3187  1.8447
 2207SOL    HW218081   2.007   2.834   4.849  1.5199  1.4669 -2.1521
 2208SOL     OW18082   1.162   0.466   8.253 -0.7872 -0.5620  0.3421
 2208SOL    HW118083   1.125   0.380   8.268 -1.1015 -0.6389 -0.8361
 2208SOL    HW218084   1.153   0.515   8.335  1.9514  2.5861 -1.2190
 2209SOL     OW18085   4.239   3.240   6.267 -0.1132  0.7453 -0.1334
 2209SOL    HW118086   4.234   3.328   6.231  3.0931  1.2040  0.5927
 2209SOL    HW218087   4.320   3.203   6.231 -0.4022  1.6594 -1.7465
 2210SOL     OW18088   2.345   4.105   5.022 -0.4530  0.0229  1.3169
 2210SOL    HW118089   2.261   4.094   5.066 -1.0851 -0.4188 -0.0159
 2210SOL    HW218090   2.363   4.011   5.021  0.9348  0.2905  1.0821
 2211SOL     OW18091   1.806   1.033   0.798 -0.3346  0.8934  0.2223
 2211SOL    HW118092   1.813   1.025   0.703  0.7790 -1.6890  0.5214
 2211SOL    HW218093   1.875   0.973   0.823  1.0906  1.8933 -1.2994
 2212SOL     OW18094   2.553   0.921  11.407  0.5966 -0.2402 -0.2526
 2212SOL    HW118095   2.537   0.997  11.463  1.1304  0.5730 -1.2150
 2212SOL    HW218096   2.637   0.949  11.371 -0.4173  1.6403 -1.1415
 2213SOL     OW18097   2.326   0.285   3.163  0.1829  0.0066 -0.3216
 2213SOL    HW118098   2.370   0.207   3.128 -0.9047 -0.7985  0.1288
 2213SOL    HW218099   2.396   0.349   3.171  0.5308 -0.4661  0.3976
 2214SOL     OW18100   0.057   0.819  10.479  0.3611 -0.5849  0.8729
 2214SOL    HW118101   0.105   0.865  10.411 -1.9145  0.2064 -0.2090
 2214SOL    HW218102   4.696   0.867  10.473  0.8026  0.2706  1.8248
 2215SOL     OW18103   3.315   1.130   3.915  0.3173  0.3302  0.3169
 2215SOL    HW118104   3.379   1.158   3.850 -1.9487  0.0920 -2.0038
 2215SOL    HW218105   3.354   1.052   3.954  0.0077  0.2327  0.4317
 2216SOL     OW18106   2.432   4.069   8.873 -0.2466  0.0237  0.2071
 2216SOL    HW118107   2.491   3.994   8.864 -1.1910 -0.7625  0.6397
 2216SOL    HW218108   2.501   4.134   8.888  1.3786 -0.8873 -3.1930
 2217SOL     OW18109   2.535   0.381   4.385  0.1071  0.8681  0.4546
 2217SOL    HW118110   2.532   0.464   4.432 -1.0044  0.5383  0.9459
 2217SOL    HW218111   2.580   0.410   4.305 -0.0362  1.1071  0.4621
 2218SOL     OW18112   4.604   2.588   6.580 -0.9146 -0.0829 -0.4921
 2218SOL    HW118113   4.509   2.599   6.578 -0.7426  1.9240  1.8693
 2218SOL    HW218114   4.629   2.551   6.496  0.6568 -0.4432  0.1252
 2219SOL     OW18115   2.757   0.400  17.523  0.6340  0.0483 -0.2612
 2219SOL    HW118116   2.852   0.389  17.528  0.4166 -1.6625  0.0314
 2219SOL    HW218117   2.740   0.483  17.567 -0.5935  0.2738 -1.1773
 2220SOL     OW18118   0.844   3.312   3.177  0.6134 -0.1787 -0.0986
 2220SOL    HW118119   0.907   3.302   3.248 -0.1067 -2.2216  0.2579
 2220SOL    HW218120   0.763   3.277   3.215  0.4642  1.8608  1.4198
 2221SOL     OW18121   0.623   2.277   5.064 -0.2431 -0.7788  0.2216
 2221SOL    HW118122   0.576   2.216   5.006 -3.0159 -0.1923  1.8369
 2221SOL    HW218123   0.565   2.311   5.132  1.0396  1.5330  0.1623
 2222SOL     OW18124   0.009   3.236   9.493 -0.0248 -0.1597 -0.6541
 2222SOL    HW118125   0.008   3.293   9.417 -0.5897 -0.9300 -1.2276
 2222SOL    HW218126   0.092   3.192   9.477 -0.0439  0.5850 -2.7758
 2223SOL     OW18127   1.849   1.091   7.470  0.1384  0.0262 -0.2493
 2223SOL    HW118128   1.842   1.009   7.519  1.2218 -0.2772 -0.5935
 2223SOL    HW218129   1.933   1.068   7.430  0.4094  0.1630  0.2376
 2224SOL     OW18130   2.908   0.923  13.790 -0.1672 -0.0082 -0.3082
 2224SOL    HW118131   2.898   1.010  13.829  0.0944  0.1509 -0.5962
 2224SOL    HW218132   2.907   0.868  13.869 -2.1830 -0.0590 -0.3879
 2225SOL     OW18133   1.708   2.590   4.757  0.1973  0.3282 -0.3449
 2225SOL    HW118134   1.616   2.564   4.766 -0.5271  2.7857 -0.6930
 2225SOL    HW218135   1.708   2.676   4.798  1.5790  0.0398  0.2664
 2226SOL     OW18136   3.076   4.095   9.354  0.1553  0.1110 -0.0863
 2226SOL    HW118137   3.044   4.185   9.362 -1.3298 -0.5642  1.6533
 2226SOL    HW218138   2.996   4.043   9.357  0.1024  0.0724 -2.4360
 2227SOL     OW18139   4.159   1.740   2.509 -0.5589 -0.2701  0.0131
 2227SOL    HW118140   4.250   1.763   2.526 -0.7278  0.4047  0.0175
 2227SOL    HW218141   4.162   1.706   2.419 -1.9633 -0.0592 -0.1161
 2228SOL     OW18142   4.017   1.644   0.703  0.3335  0.1691 -0.2254
 2228SOL    HW118143   3.984   1.556   0.718  0.4979  0.2889  0.8234
 2228SOL    HW218144   4.011   1.644   0.607 -3.4404 -2.5976  0.0600
 2229SOL     OW18145   1.420   2.324   8.762  0.0330 -0.0191 -0.4946
 2229SOL    HW118146   1.477   2.362   8.829  1.8520 -1.7430 -1.0295
 2229SOL    HW218147   1.336   2.337   8.805  0.0419 -0.0806 -0.4589
 2230SOL     OW18148   0.451   4.126   7.436  0.4254 -0.8518  0.2264
 2230SOL    HW118149   0.511   4.053   7.450  0.5904 -0.6897  0.3523
 2230SOL    HW218150   0.497   4.199   7.477 -0.6937  0.2218 -0.4320
 2231SOL     OW18151   0.965   1.182  10.218 -0.8062  0.2461  0.4933
 2231SOL    HW118152   1.041   1.239  10.223 -0.6608 -0.0134  1.1671
 2231SOL    HW218153   0.950   1.170  10.312  0.4739  0.9609  0.7818
 2232SOL     OW18154   3.915   3.789  17.444 -0.3470  0.0500  0.5700
 2232SOL    HW118155   3.846   3.725  17.464 -0.5727  0.5419  1.4000
 2232SOL    HW218156   3.970   3.732  17.391 -0.3465 -1.4994  2.1966
 2233SOL     OW18157   0.628   4.586   6.969 -0.6316 -0.4743  0.3319
 2233SOL    HW118158   0.587   4.547   6.892  0.4842 -1.4296  0.2312
 2233SOL    HW218159   0.717   4.586   6.934 -0.3674 -0.5160  1.0016
 2234SOL     OW18160   3.514   2.686  13.131 -0.0915 -0.7324  0.2650
 2234SOL    HW118161   3.571   2.731  13.070 -1.2297 -1.4906 -1.3681
 2234SOL    HW218162   3.480   2.629  13.061 -2.7342  0.4242  0.5931
 2235SOL     OW18163   3.029   3.440   3.175  0.2126  0.2711  0.0391
 2235SOL    HW118164   2.937   3.463   3.163  0.6365  1.8979 -0.1436
 2235SOL    HW218165   3.049   3.397   3.092  1.2802  1.0615 -0.1173
 2236SOL     OW18166   1.107   2.551   7.746  0.1040 -0.0890  0.8196
 2236SOL    HW118167   1.063   2.560   7.661  1.4585 -0.2747  0.1033
 2236SOL    HW218168   1.191   2.515   7.717 -0.4547 -0.8364  0.1445
 2237SOL     OW18169   2.797   1.228   3.711 -0.1400  0.6988  0.3266
 2237SOL    HW118170   2.740   1.161   3.673 -1.1330  0.8218  1.6345
 2237SOL    HW218171   2.754   1.309   3.683  1.1757  1.2313 -0.1558
 2238SOL     OW18172   4.451   0.003   4.112 -0.7095 -0.1943 -0.2878
 2238SOL    HW118173   4.506   0.041   4.181 -0.4694 -0.3412 -0.3999
 2238SOL    HW218174   4.373   0.059   4.118 -0.3601  0.2586  0.0291
 2239SOL     OW18175   3.122   2.699  13.638 -0.3506  0.6211 -0.1643
 2239SOL    HW118176   3.161   2.624  13.684 -1.5434  0.3683  0.4226
 2239SOL    HW218177   3.199   2.753  13.617 -2.1410  2.3621 -2.1730
 2240SOL     OW18178   1.953   1.644   9.988  0.1858 -0.1594 -0.2297
 2240SOL    HW118179   1.953   1.558  10.030  1.9465 -0.1212 -0.1906
 2240SOL    HW218180   1.859   1.652   9.968  0.1509  1.4877  0.6307
 2241SOL     OW18181   2.489   4.545  15.497  0.0578  0.2656  0.1434
 2241SOL    HW118182   2.420   4.517  15.558 -0.7599 -0.2054 -0.9747
 2241SOL    HW218183   2.568   4.541  15.550  0.3794 -0.3528 -0.3808
 2242SOL     OW18184   4.435   1.915   8.555  0.0218 -0.0505 -0.1714
 2242SOL    HW118185   4.514   1.925   8.608 -0.4001  1.9381  0.0904
 2242SOL    HW218186   4.390   1.843   8.599  0.7710 -0.6459 -0.3876
 2243SOL     OW18187   0.066   1.587   7.411  0.4119  0.0154  0.2794
 2243SOL    HW118188   4.718   1.522   7.407  1.1200 -0.6684 -0.8855
 2243SOL    HW218189   0.143   1.537   7.437  2.0963  2.5871  0.3215
 2244SOL     OW18190   1.881   3.641   2.233 -0.5055  0.0042  0.1412
 2244SOL    HW118191   1.898   3.549   2.254 -0.2385 -0.7046 -3.2180
 2244SOL    HW218192   1.855   3.641   2.141  1.4575 -3.8456 -0.4142
 2245SOL     OW18193   3.559   0.039   0.747 -0.3643  0.1030 -0.3451
 2245SOL    HW118194   3.541   0.053   0.654  1.9419  0.6164 -0.7216
 2245SOL    HW218195   3.634   4.701   0.739  0.6043  1.1874  0.5105
 2246SOL     OW18196   4.069   4.198  11.512  0.5546  0.3170 -0.9172
 2246SOL    HW118197   4.156   4.171  11.481  0.0838 -1.1368 -0.9856
 2246SOL    HW218198   4.054   4.261  11.442  0.9956  1.3647 -0.0604
 2247SOL     OW18199   3.789   2.400  16.330  0.2642 -0.1138  0.1890
 2247SOL    HW118200   3.853   2.383  16.399  0.8362  1.4577  0.0409
 2247SOL    HW218201   3.756   2.312  16.311 -0.9799  0.0334  1.6674
 2248SOL     OW18202   1.587   1.242  12.744 -0.1707  0.2044  0.1606
 2248SOL    HW118203   1.570   1.220  12.652  1.0104 -3.0522  0.7445
 2248SOL    HW218204   1.651   1.176  12.769  0.6437  0.0326 -2.3566
 2249SOL     OW18205   4.059   2.460  14.860 -0.2210 -0.4656  0.2538
 2249SOL    HW118206   4.085   2.439  14.950  2.4247 -0.3184 -0.4807
 2249SOL    HW218207   4.087   2.551  14.848  1.4631 -1.2248 -1.4658
 2250SOL     OW18208   2.342   0.485  12.609 -0.0876 -0.0940  0.0296
 2250SOL    HW118209   2.298   0.564  12.641 -1.0259 -0.3806 -0.5610
 2250SOL    HW218210   2.396   0.514  12.536 -0.9663 -2.0626 -1.3871
 2251SOL     OW18211   0.639   4.058   7.805 -0.3168  0.0439  0.0294
 2251SOL    HW118212   0.677   4.018   7.883 -1.4395  2.8717  2.0426
 2251SOL    HW218213   0.583   4.120   7.852  0.8374  1.8490 -0.9363
 2252SOL     OW18214   0.756   4.430  13.481  0.6840 -0.3228 -0.3317
 2252SOL    HW118215   0.790   4.437  13.392  2.0758  0.3395  0.2394
 2252SOL    HW218216   0.674   4.384  13.464  0.2509  1.5222 -3.1122
 2253SOL     OW18217   2.058   3.047   2.516  0.3744 -0.1088 -0.1945
 2253SOL    HW118218   2.062   3.133   2.558 -3.2066 -0.0746  0.0728
 2253SOL    HW218219   2.093   2.983   2.578  2.0972  0.9591 -0.0878
 2254SOL     OW18220   3.663   1.084  13.783 -0.0389 -0.4871  0.3777
 2254SOL    HW118221   3.577   1.092  13.824 -1.0464 -1.7805 -1.5152
 2254SOL    HW218222   3.685   1.176  13.798 -1.4044 -0.2528  0.8881
 2255SOL     OW18223   4.126   1.291   3.125 -0.0021  0.0080 -0.1750
 2255SOL    HW118224   4.115   1.243   3.043 -3.8086  2.2657 -0.9543
 2255SOL    HW218225   4.185   1.363   3.103 -0.0997  0.0123 -0.4178
 2256SOL     OW18226   3.295   2.268   6.498 -0.1799  0.1203  0.0871
 2256SOL    HW118227   3.333   2.294   6.414  0.4839 -1.0687  0.0232
 2256SOL    HW218228   3.203   2.289   6.480 -0.0107 -0.3505 -1.3915
 2257SOL     OW18229   3.074   4.503   8.423 -0.1486 -0.7612 -0.1465
 2257SOL    HW118230   3.020   4.424   8.431 -1.4860  0.1379 -0.4378
 2257SOL    HW218231   3.013   4.576   8.426  1.0913  0.2803 -0.5125
 2258SOL     OW18232   3.530   1.700   3.978  0.2969  0.2646 -0.0279
 2258SOL    HW118233   3.504   1.757   4.050 -0.3384 -0.6640  0.4725
 2258SOL    HW218234   3.501   1.613   4.007  1.9614 -0.1965  0.2532
 2259SOL     OW18235   1.095   0.085   5.805  0.2447 -0.3780  0.4024
 2259SOL    HW118236   1.038   0.098   5.881  0.2978 -3.7736  1.0576
 2259SOL    HW218237   1.088   0.166   5.756  1.5670 -0.3442  0.2621
 2260SOL     OW18238   1.071   2.738   5.260 -0.7247 -0.4123 -0.0973
 2260SOL    HW118239   1.023   2.704   5.185  1.1139 -0.7158 -1.1199
 2260SOL    HW218240   1.156   2.698   5.241  0.1875  1.4546 -0.0017
 2261SOL     OW18241   0.961   1.550  16.096  0.2575  0.1197 -0.3318
 2261SOL    HW118242   1.040   1.559  16.044  0.3060 -0.9196 -0.4481
 2261SOL    HW218243   0.908   1.510  16.028 -1.6279  2.1943 -0.0650
 2262SOL     OW18244   4.331   3.418   5.247 -0.3847  0.1381  0.1474
 2262SOL    HW118245   4.381   3.355   5.195 -3.4344 -1.6533 -0.5995
 2262SOL    HW218246   4.388   3.453   5.315 -1.2247 -0.3663  1.1099
 2263SOL     OW18247   2.796   0.475   1.461 -0.1642  0.2097 -0.3084
 2263SOL    HW118248   2.715   0.424   1.465 -0.0094 -0.0195 -0.1224
 2263SOL    HW218249   2.772   0.531   1.534  3.1419 -0.1731  1.0556
 2264SOL     OW18250   0.932   3.545   6.956  0.1715  0.5854 -0.0359
 2264SOL    HW118251   1.026   3.565   6.960  0.7111 -1.6399 -1.8683
 2264SOL    HW218252   0.914   3.612   6.890 -0.8424 -0.5522 -0.9025
 2265SOL     OW18253   3.204   2.883  11.078 -0.2644  0.6132 -0.3707
 2265SOL    HW118254   3.247   2.875  10.993 -0.2908  0.2192 -0.3431
 2265SOL    HW218255   3.187   2.791  11.097  0.8896 -0.0010 -2.3302
 2266SOL     OW18256   2.612   4.613  13.124  0.0761  0.0383  0.1357
 2266SOL    HW118257   2.633   4.597  13.216  0.2430 -1.2068 -0.1250
 2266SOL    HW218258   2.593   4.522  13.100 -1.5184  0.8732 -1.7940
 2267SOL     OW18259   0.128   0.119   6.935  0.3242 -0.0939 -0.0943
 2267SOL    HW118260   0.153   0.204   6.899  1.7737 -0.8157 -0.8046
 2267SOL    HW218261   0.068   0.142   7.005 -0.1192  0.9677 -0.8211
 2268SOL     OW18262   2.459   0.148   9.336  0.3592 -0.3512 -0.2426
 2268SOL    HW118263   2.438   0.095   9.413 -0.2726  0.0130 -0.1696
 2268SOL    HW218264   2.408   0.224   9.363 -0.8745 -0.5873 -1.9902
 2269SOL     OW18265   2.605   4.588   8.034 -0.0385 -0.3119  0.3132
 2269SOL    HW118266   2.665   4.524   8.072  1.0574  0.1202 -0.6730
 2269SOL    HW218267   2.538   4.537   7.987 -0.9686  0.1132  1.1748
 2270SOL     OW18268   4.338   0.715   7.459 -0.6428  0.1817 -0.1191
 2270SOL    HW118269   4.366   0.796   7.415  1.3019 -1.4464 -1.9166
 2270SOL    HW218270   4.329   0.746   7.549 -1.7621 -0.8452  0.1186
 2271SOL     OW18271   3.836   3.396  14.602 -0.4480  0.4004 -0.3059
 2271SOL    HW118272   3.837   3.444  14.685  0.4097 -1.9049  1.0076
 2271SOL    HW218273   3.909   3.436  14.555  1.3604 -1.5041  0.8844
 2272SOL     OW18274   2.769   2.476  16.508  0.2973  0.0641  0.3891
 2272SOL    HW118275   2.735   2.480  16.597  0.1617  0.5224  0.3158
 2272SOL    HW218276   2.808   2.563  16.515 -1.0594  0.6568  0.6977
 2273SOL     OW18277   4.035   4.032   6.106  0.4372  0.4631 -0.1582
 2273SOL    HW118278   4.027   4.093   6.033 -0.4147  1.7871  1.0385
 2273SOL    HW218279   3.957   3.978   6.098  0.5958  0.1746  0.2057
 2274SOL     OW18280   2.577   4.241  15.667  0.1807 -0.3236 -0.1197
 2274SOL    HW118281   2.658   4.215  15.624  1.1791  3.9268 -0.7824
 2274SOL    HW218282   2.604   4.263  15.756 -2.2311  2.9712 -0.1735
 2275SOL     OW18283   2.833   2.123   6.618  0.2265  0.0393  1.0712
 2275SOL    HW118284   2.767   2.066   6.657 -0.5436  0.5122  0.4834
 2275SOL    HW218285   2.906   2.065   6.639 -0.7156 -1.5782 -0.0870
 2276SOL     OW18286   0.209   3.153   4.236 -0.9266 -0.1473  0.2423
 2276SOL    HW118287   0.200   3.206   4.157 -0.4525  0.8516  0.8675
 2276SOL    HW218288   0.148   3.081   4.218 -0.9853 -0.2902  0.9849
 2277SOL     OW18289   3.046   0.799   5.759 -0.3451 -0.3269 -0.3054
 2277SOL    HW118290   3.058   0.792   5.664 -2.0044  0.4414 -0.5761
 2277SOL    HW218291   3.135   0.802   5.794  0.0329  1.6309 -1.4179
 2278SOL     OW18292   2.964   4.460   6.185 -0.3219 -0.1624 -0.3451
 2278SOL    HW118293   2.882   4.508   6.175 -0.2350  0.1079  0.2676
 2278SOL    HW218294   2.998   4.499   6.266 -1.3079  1.4565 -0.6986
 2279SOL     OW18295   2.632   4.140   5.036 -0.3509  0.1339  0.3441
 2279SOL    HW118296   2.632   4.058   5.086 -0.8943  0.0371  0.1879
 2279SOL    HW218297   2.542   4.168   5.050  0.3038  1.9667  0.8457
 2280SOL     OW18298   0.812   0.173   7.681  0.2880  0.2541 -0.1898
 2280SOL    HW118299   0.741   0.109   7.674 -0.0047  0.1711  3.3919
 2280SOL    HW218300   0.841   0.163   7.772 -1.2533 -0.3520  0.2448
 2281SOL     OW18301   2.673   0.528   3.697  0.3763 -0.6402  0.6828
 2281SOL    HW118302   2.604   0.587   3.728  0.5823  0.6433 -1.2660
 2281SOL    HW218303   2.715   0.521   3.783  1.3813  1.0468  0.3386
 2282SOL     OW18304   4.610   2.796   5.210  0.2955 -0.1987  0.2270
 2282SOL    HW118305   4.609   2.736   5.285 -0.2277 -1.1884 -0.5669
 2282SOL    HW218306   4.583   2.746   5.132  0.3972 -0.7722  0.5551
 2283SOL     OW18307   1.321   2.695   6.738  0.1780 -0.5152  0.0529
 2283SOL    HW118308   1.396   2.739   6.776 -0.2499  0.7595 -0.5630
 2283SOL    HW218309   1.276   2.675   6.820  2.0869 -0.5785  1.0731
 2284SOL     OW18310   0.031   0.105   6.430 -0.2976  0.0783 -0.1084
 2284SOL    HW118311   0.111   0.114   6.378 -0.6355 -0.4489 -0.7137
 2284SOL    HW218312   0.068   0.059   6.505  1.0519 -1.2337 -1.6044
 2285SOL     OW18313   0.672   2.629   8.337 -0.1838  0.0072  0.7639
 2285SOL    HW118314   0.705   2.636   8.248 -1.3325 -0.8892  0.2722
 2285SOL    HW218315   0.708   2.542   8.353 -0.9324 -0.3152  0.6884
 2286SOL     OW18316   3.255   1.937   8.897 -0.2655 -0.0603  0.2210
 2286SOL    HW118317   3.160   1.932   8.908 -0.2178  1.8891  1.5322
 2286SOL    HW218318   3.273   2.029   8.912  0.0731 -0.0171 -0.4639
 2287SOL     OW18319   1.380   4.468   3.526  0.5784 -0.3874  0.0096
 2287SOL    HW118320   1.459   4.500   3.482  0.6554  0.3493  0.6907
 2287SOL    HW218321   1.330   4.550   3.523  1.0794 -0.0250  1.7948
 2288SOL     OW18322   4.662   1.235   2.384 -0.0022 -0.1348 -0.0662
 2288SOL    HW118323   4.710   1.305   2.341 -0.8343 -0.4987 -1.5693
 2288SOL    HW218324   4.663   1.165   2.318  1.3677  1.9034 -2.1877
 2289SOL     OW18325   4.489   0.645   6.926  0.2984 -0.1464 -0.6151
 2289SOL    HW118326   4.573   0.629   6.883  0.1521 -0.8338 -0.6516
 2289SOL    HW218327   4.501   0.730   6.968 -0.5157 -0.1914 -0.2878
 2290SOL     OW18328   2.728   2.944   5.603 -0.1582  0.3659 -0.3616
 2290SOL    HW118329   2.792   2.890   5.556  0.5327 -0.2585  1.3191
 2290SOL    HW218330   2.713   2.898   5.685 -1.4410 -0.4615 -1.0560
 2291SOL     OW18331   0.585   0.178   5.288  0.3178 -0.8773  0.0223
 2291SOL    HW118332   0.525   0.104   5.279 -0.5791 -0.2910  1.3216
 2291SOL    HW218333   0.655   0.142   5.342 -0.6409  0.6476  2.2858
 2292SOL     OW18334   1.163   3.051   6.230 -0.5880 -0.1600  0.5740
 2292SOL    HW118335   1.234   3.112   6.247 -0.5281  0.2490 -1.1634
 2292SOL    HW218336   1.097   3.115   6.258 -0.4065 -0.2219  1.1354
 2293SOL     OW18337   0.599   0.425   7.081 -0.0573  0.1156  0.3191
 2293SOL    HW118338   0.633   0.354   7.136  1.4898 -0.3869 -1.2811
 2293SOL    HW218339   0.507   0.400   7.090  0.1447 -0.2553  1.2970
 2294SOL     OW18340   2.373   1.708   2.006 -0.2178  0.2691 -0.2421
 2294SOL    HW118341   2.407   1.640   1.948  1.1235 -1.5677  2.7044
 2294SOL    HW218342   2.410   1.668   2.085  0.9215  0.8455 -0.4847
 2295SOL     OW18343   3.476   2.197  11.095 -0.7815 -0.1913  0.0172
 2295SOL    HW118344   3.491   2.139  11.170 -1.4523  0.2968  0.5190
 2295SOL    HW218345   3.451   2.277  11.141  0.3120 -0.7983  1.6694
 2296SOL     OW18346   0.964   4.269   7.125  0.2003  0.2576 -0.5227
 2296SOL    HW118347   0.903   4.262   7.052 -0.5602  0.7290  0.0595
 2296SOL    HW218348   0.996   4.359   7.129  0.8184  0.0728 -1.2790
 2297SOL     OW18349   0.810   4.132   6.295 -0.0598  0.5047 -0.6087
 2297SOL    HW118350   0.824   4.121   6.389 -0.4201  0.3766 -0.5725
 2297SOL    HW218351   0.716   4.145   6.285 -0.3141  2.1094  4.0977
 2298SOL     OW18352   3.762   2.463   5.235 -0.5449 -0.4817 -0.0038
 2298SOL    HW118353   3.799   2.461   5.147  1.5233 -0.0221  0.8478
 2298SOL    HW218354   3.839   2.454   5.291 -0.4156  0.2447 -0.0565
 2299SOL     OW18355   4.527   2.611   3.938 -0.6695 -0.2176  0.4422
 2299SOL    HW118356   4.583   2.575   4.006  0.5071  0.2792 -0.2550
 2299SOL    HW218357   4.557   2.702   3.943 -0.7288 -0.1966  0.4169
 2300SOL     OW18358   4.266   1.587  14.738 -0.7340  0.7484 -0.1225
 2300SOL    HW118359   4.283   1.565  14.646  3.0762  1.5061  0.4177
 2300SOL    HW218360   4.260   1.683  14.740  0.7656  0.7355  5.1784
 2301SOL     OW18361   3.532   2.285   3.068  0.6418  0.1517  0.2052
 2301SOL    HW118362   3.479   2.350   3.022  1.6596  0.1193 -1.0063
 2301SOL    HW218363   3.614   2.334   3.064 -0.3126  1.7092 -0.1923
 2302SOL     OW18364   1.260   1.173  11.523  0.6401  0.0739  0.0409
 2302SOL    HW118365   1.176   1.215  11.504  0.7156  0.6439  1.0002
 2302SOL    HW218366   1.230   1.089  11.558  0.1024 -0.0841 -0.7806
 2303SOL     OW18367   1.473   0.028   8.972  0.2559  0.1347 -0.2980
 2303SOL    HW118368   1.400   0.079   9.006  0.2311  0.0397 -0.2071
 2303SOL    HW218369   1.525   0.102   8.942  1.4078 -0.0931  1.1223
 2304SOL     OW18370   0.075   0.562  10.598 -0.1611  0.5510  0.2140
 2304SOL    HW118371   0.124   0.502  10.541  0.3080  2.3300 -1.2565
 2304SOL    HW218372   0.091   0.644  10.552  1.5372 -0.1426 -0.4234
 2305SOL     OW18373   4.623   3.445   3.819  0.1231 -0.2204 -0.3325
 2305SOL    HW118374   4.691   3.501   3.856  0.7707 -0.7120 -0.7763
 2305SOL    HW218375   4.664   3.411   3.740 -2.2733 -2.2314 -0.7299
 2306SOL     OW18376   1.727   2.604   5.811 -0.1041  0.4328 -0.4792
 2306SOL    HW118377   1.779   2.666   5.760  2.6860 -1.2075  0.3899
 2306SOL    HW218378   1.643   2.610   5.766  1.2310 -0.8239 -3.1609
 2307SOL     OW18379   4.640   2.567   4.407  0.7507  0.4960  0.4054
 2307SOL    HW118380   4.656   2.578   4.313  1.5420 -0.0709  0.4661
 2307SOL    HW218381   4.720   2.518   4.427  0.5328  0.0220  0.1303
 2308SOL     OW18382   0.503   2.379   6.452 -0.6212  0.2850  0.5538
 2308SOL    HW118383   0.588   2.402   6.490 -0.6081  1.4756 -0.1838
 2308SOL    HW218384   0.519   2.285   6.458  1.7143  0.6253 -0.4182
 2309SOL     OW18385   0.044   4.243   7.751  0.2248  0.1403  0.0234
 2309SOL    HW118386   4.681   4.229   7.707  0.9524  1.5149 -1.7993
 2309SOL    HW218387   0.103   4.189   7.698 -0.9074 -0.5441 -0.5299
 2310SOL     OW18388   4.569   2.249   3.185  0.3060  0.5305  0.5841
 2310SOL    HW118389   4.656   2.256   3.225  0.3789 -3.3032  1.0485
 2310SOL    HW218390   4.507   2.236   3.257  0.1574  2.3155  0.7808
 2311SOL     OW18391   1.146   1.262   5.494 -0.1317  0.0505 -0.6641
 2311SOL    HW118392   1.124   1.272   5.401 -1.8217  0.9694 -0.1487
 2311SOL    HW218393   1.176   1.352   5.500  1.2250 -0.2602 -2.6490
 2312SOL     OW18394   3.245   4.000  13.345  0.1679  0.1757 -0.1757
 2312SOL    HW118395   3.229   4.038  13.432  0.9370 -0.2867  0.1687
 2312SOL    HW218396   3.181   3.929  13.336 -0.8360  1.1195 -0.4577
 2313SOL     OW18397   1.648   3.556   5.468 -0.0621  0.0387  0.2991
 2313SOL    HW118398   1.612   3.468   5.456 -0.5477  0.3975 -0.9312
 2313SOL    HW218399   1.629   3.568   5.561  1.7471 -0.3752  0.7181
 2314SOL     OW18400   3.555   2.897   5.370 -0.8126 -0.0454 -0.4472
 2314SOL    HW118401   3.623   2.961   5.345 -1.2344  0.8118  0.5897
 2314SOL    HW218402   3.527   2.873   5.282 -1.9825  1.0192 -0.3623
 2315SOL     OW18403   1.052   2.368   5.429  0.2831 -0.7996  0.1395
 2315SOL    HW118404   1.051   2.279   5.395 -3.0146 -0.9858  0.7690
 2315SOL    HW218405   1.130   2.402   5.385 -0.2552 -1.1697 -1.1003
 2316SOL     OW18406   1.948   2.520   6.817 -0.3702 -0.4201  0.1957
 2316SOL    HW118407   1.894   2.522   6.738 -1.0929 -0.9890  0.6703
 2316SOL    HW218408   2.023   2.567   6.780  0.8531 -0.8474  2.0790
 2317SOL     OW18409   1.225   1.831  10.274  0.1763  0.5994  0.1077
 2317SOL    HW118410   1.274   1.833  10.356 -1.3569  0.8092  1.0263
 2317SOL    HW218411   1.275   1.755  10.244 -1.3157 -1.4908  2.8671
 2318SOL     OW18412   3.806   0.979   5.788  0.5154 -0.2246 -0.4839
 2318SOL    HW118413   3.801   0.884   5.799 -0.0129 -0.0968  0.4168
 2318SOL    HW218414   3.789   1.006   5.878 -0.1220  2.1270 -1.3159
 2319SOL     OW18415   1.918   2.084  11.889 -0.0087  0.2257 -0.0546
 2319SOL    HW118416   1.931   2.081  11.795 -0.4328 -1.2292 -0.0546
 2319SOL    HW218417   1.823   2.078  11.892  0.0152 -0.8045 -1.6822
 2320SOL     OW18418   2.337   1.257   6.275  0.9763  0.1997 -0.4752
 2320SOL    HW118419   2.309   1.176   6.318  0.6729 -0.4700 -1.9517
 2320SOL    HW218420   2.370   1.306   6.351  1.1863 -1.2821  0.4030
 2321SOL     OW18421   3.753   4.418  15.357  0.0626 -0.0195  0.5339
 2321SOL    HW118422   3.735   4.330  15.389 -0.1436  0.2381  1.1115
 2321SOL    HW218423   3.848   4.414  15.372  0.3546  0.3620 -1.1976
 2322SOL     OW18424   1.223   0.561   6.843 -0.8390  0.7310  0.4495
 2322SOL    HW118425   1.253   0.592   6.757 -1.4787  1.6152  0.5443
 2322SOL    HW218426   1.294   0.509   6.881 -1.0967  1.1569  1.5000
 2323SOL     OW18427   4.187   0.406   2.319  0.2764  0.4838  0.3992
 2323SOL    HW118428   4.196   0.434   2.228 -0.4707  1.4073  0.6155
 2323SOL    HW218429   4.262   0.441   2.369  0.1260  2.1321 -0.5288
 2324SOL     OW18430   1.337   3.934   2.483 -0.2714 -0.3978  0.5380
 2324SOL    HW118431   1.318   4.019   2.523 -1.5744 -1.6949  2.7062
 2324SOL    HW218432   1.334   3.968   2.393  0.3242 -0.2433  0.5782
 2325SOL     OW18433   3.201   1.996   7.113 -0.8202  0.2412  0.3772
 2325SOL    HW118434   3.243   2.013   7.029 -0.3446  2.0055  0.9801
 2325SOL    HW218435   3.199   2.086   7.144 -1.9076  0.1150  0.6800
 2326SOL     OW18436   0.922   3.184   1.703 -0.2753 -0.0192 -0.4055
 2326SOL    HW118437   0.861   3.138   1.645 -1.2515  1.3387 -0.4610
 2326SOL    HW218438   1.002   3.175   1.651  0.6818  1.3143  0.8289
 2327SOL     OW18439   2.117   2.549   3.492 -0.1809  0.0597 -0.7003
 2327SOL    HW118440   2.091   2.567   3.583 -1.6115 -1.2411 -0.8605
 2327SOL    HW218441   2.089   2.459   3.477 -1.1141 -0.0864  1.8895
 2328SOL     OW18442   2.937   1.210   7.705  0.4681  0.0756  0.1363
 2328SOL    HW118443   2.950   1.186   7.797  2.6887 -1.6605 -0.6308
 2328SOL    HW218444   2.846   1.240   7.709 -0.0435 -1.2639 -1.4038
 2329SOL     OW18445   3.661   1.658   1.657 -0.0615  0.2305 -0.3355
 2329SOL    HW118446   3.756   1.658   1.666 -0.3042 -0.6661  2.2157
 2329SOL    HW218447   3.641   1.654   1.751 -0.0108 -1.7906 -0.4121
 2330SOL     OW18448   2.838   3.174   9.152 -0.0330 -0.0153  0.2946
 2330SOL    HW118449   2.914   3.153   9.098 -0.4302 -0.3773 -0.1221
 2330SOL    HW218450   2.867   3.261   9.181 -1.9861  0.2801  1.3778
 2331SOL     OW18451   1.173   3.732   6.648 -0.1749  0.6994 -0.1957
 2331SOL    HW118452   1.225   3.654   6.667 -2.0792 -0.3913  0.4705
 2331SOL    HW218453   1.095   3.704   6.601  0.0595  0.5094 -0.4697
 2332SOL     OW18454   2.774   3.838  12.498 -0.0098  0.3667 -0.0101
 2332SOL    HW118455   2.695   3.890  12.483 -0.0939 -0.1980 -1.5365
 2332SOL    HW218456   2.830   3.911  12.524  0.0860 -0.3990  1.9383
 2333SOL     OW18457   1.999   4.523   9.414  0.5216  0.1440  0.0070
 2333SOL    HW118458   1.938   4.474   9.468  1.3372 -1.2887 -0.3690
 2333SOL    HW218459   1.969   4.492   9.328 -0.1390 -1.5310  0.8525
 2334SOL     OW18460   2.219   2.614   5.459  0.1852  0.4789  0.0670
 2334SOL    HW118461   2.265   2.695   5.438  1.0590 -0.3861 -1.3508
 2334SOL    HW218462   2.147   2.607   5.396 -1.5606  0.9157  2.0128
 2335SOL     OW18463   4.501   0.571   2.700 -0.0759  0.4915 -0.1525
 2335SOL    HW118464   4.450   0.627   2.758  1.3474  0.4316  1.1537
 2335SOL    HW218465   4.578   0.626   2.682  0.5070  0.2611  1.6346
 2336SOL     OW18466   4.046   3.688   1.402  0.0687 -0.6935  0.2091
 2336SOL    HW118467   3.992   3.652   1.332 -0.6685  1.3762 -0.2669
 2336SOL    HW218468   4.068   3.775   1.369  3.5846 -1.1155  1.4747
 2337SOL     OW18469   3.240   0.978   2.955 -0.1347  0.2342  0.0963
 2337SOL    HW118470   3.223   1.072   2.950  0.4439  0.3711  0.6037
 2337SOL    HW218471   3.200   0.965   3.041  0.2353  0.7704  0.3554
 2338SOL     OW18472   1.247   0.152   6.981  0.1636  0.3071  0.1852
 2338SOL    HW118473   1.284   0.089   7.042 -0.4951 -0.6069 -0.3610
 2338SOL    HW218474   1.251   0.112   6.895  0.5505 -0.2577  0.4668
 2339SOL     OW18475   0.443   2.712   2.992  0.0848  0.0007 -0.2472
 2339SOL    HW118476   0.482   2.692   2.907  0.9901 -1.2874  0.4765
 2339SOL    HW218477   0.451   2.628   3.037  0.2713  0.0083 -0.2675
 2340SOL     OW18478   1.848   3.142   3.536 -0.0837 -0.1285  0.3200
 2340SOL    HW118479   1.846   3.235   3.516  2.4803 -0.4604 -1.5674
 2340SOL    HW218480   1.878   3.141   3.627  1.1810  1.6964 -0.0796
 2341SOL     OW18481   2.583   3.178   9.261  0.4068  0.1021  0.1028
 2341SOL    HW118482   2.655   3.174   9.198  1.5397 -0.3018  1.4188
 2341SOL    HW218483   2.592   3.272   9.278  1.8409 -0.1998  1.0131
 2342SOL     OW18484   4.094   1.767   2.824  0.2302 -0.4666 -0.5620
 2342SOL    HW118485   4.066   1.703   2.759 -0.7697 -0.4742 -0.1236
 2342SOL    HW218486   4.025   1.758   2.890 -0.2735 -0.6858 -1.1257
 2343SOL     OW18487   2.787   3.207   8.606  0.8354 -0.3546  0.2162
 2343SOL    HW118488   2.749   3.158   8.678  0.5258  1.3150  1.1924
 2343SOL    HW218489   2.881   3.205   8.627  0.5673  0.1304  1.4625
 2344SOL     OW18490   0.760   4.321   2.125 -0.6958 -0.4444 -0.1665
 2344SOL    HW118491   0.674   4.288   2.149 -1.6400  1.1033 -1.4512
 2344SOL    HW218492   0.804   4.281   2.200 -0.2447 -1.8070 -1.1530
 2345SOL     OW18493   1.396   4.716   0.226  0.0665 -0.1431 -0.2889
 2345SOL    HW118494   1.335   0.063   0.256  0.2893 -0.3893  0.7249
 2345SOL    HW218495   1.422   0.035   0.143  1.5485 -1.4156 -0.4275
 2346SOL     OW18496   3.530   4.191   5.251 -0.1112  0.4914 -0.3319
 2346SOL    HW118497   3.470   4.204   5.324 -3.0051  0.0099 -2.6413
 2346SOL    HW218498   3.584   4.117   5.279 -2.2461 -0.9117  0.0585
 2347SOL     OW18499   2.431   2.271   8.405  0.0816  0.3237 -0.0929
 2347SOL    HW118500   2.347   2.232   8.429 -0.4382  0.1939 -2.1458
 2347SOL    HW218501   2.413   2.291   8.313 -0.3991  0.3917  0.0147
 2348SOL     OW18502   0.032   0.368   6.530  0.1310 -0.2934  0.2661
 2348SOL    HW118503   4.705   0.350   6.610 -0.5945 -2.4616 -0.6576
 2348SOL    HW218504   0.047   0.276   6.511 -0.9879 -0.2941 -0.6359
 2349SOL     OW18505   4.110   2.000   2.111 -0.0263  0.2079  0.1597
 2349SOL    HW118506   4.112   2.045   2.196 -3.5623 -0.7458  0.7208
 2349SOL    HW218507   4.112   1.909   2.139  1.4920 -0.7649 -3.1413
 2350SOL     OW18508   0.647   1.176  11.217 -0.4761  0.3774 -0.1273
 2350SOL    HW118509   0.732   1.212  11.239 -1.4508  1.8417  1.2614
 2350SOL    HW218510   0.598   1.255  11.194 -2.8791 -0.7939  0.9546
 2351SOL     OW18511   3.120   2.663   4.793  0.1621 -0.1757 -0.0862
 2351SOL    HW118512   3.198   2.613   4.770 -0.9959 -0.9212 -2.3758
 2351SOL    HW218513   3.074   2.600   4.848 -1.1730  0.3742 -0.5673
 2352SOL     OW18514   1.536   2.525  11.913 -0.4361 -0.2585 -0.8938
 2352SOL    HW118515   1.481   2.525  11.835  2.3542  0.8360 -2.8598
 2352SOL    HW218516   1.496   2.598  11.961  2.8771  1.1857 -0.2999
 2353SOL     OW18517   0.454   3.316   4.940 -0.1434  0.7181 -0.4566
 2353SOL    HW118518   0.372   3.360   4.962  0.2992  1.9240 -1.2098
 2353SOL    HW218519   0.471   3.276   5.025 -0.1971 -0.3541 -0.9599
 2354SOL     OW18520   0.735   4.642   7.431  0.0046 -0.0606  0.5990
 2354SOL    HW118521   0.656   4.645   7.377 -1.1688 -1.3580  2.2277
 2354SOL    HW218522   0.746   4.547   7.442  0.8151 -0.0917 -0.5494
 2355SOL     OW18523   0.527   3.155   5.159  0.0409 -0.1277 -0.4068
 2355SOL    HW118524   0.519   3.188   5.248 -0.9517 -0.8817 -0.2059
 2355SOL    HW218525   0.480   3.074   5.178 -0.5166  0.0186 -1.1290
 2356SOL     OW18526   3.532   2.694   3.729 -0.1200 -0.1126 -0.9259
 2356SOL    HW118527   3.501   2.617   3.778  0.2181  0.2932 -0.0705
 2356SOL    HW218528   3.576   2.735   3.803 -1.7511 -1.4060  0.7609
 2357SOL     OW18529   2.543   2.311  14.397 -0.0511  0.5386  0.1217
 2357SOL    HW118530   2.525   2.398  14.363  2.7125  0.1234 -2.4453
 2357SOL    HW218531   2.627   2.321  14.444 -0.2223  2.0219  0.0992
 2358SOL     OW18532   0.845   3.663  13.818  0.1570  0.2342  0.4172
 2358SOL    HW118533   0.760   3.656  13.774  0.0564  1.9472  0.3668
 2358SOL    HW218534   0.836   3.733  13.882  0.0726 -0.6048  1.3148
 2359SOL     OW18535   2.584   2.916   5.119 -0.0486  0.1458 -0.1876
 2359SOL    HW118536   2.504   2.966   5.126 -0.6289 -0.4975 -2.1153
 2359SOL    HW218537   2.553   2.835   5.077 -0.9606  1.3090 -1.7412
 2360SOL     OW18538   3.093   3.133  10.754 -0.1084 -0.4650  0.3607
 2360SOL    HW118539   3.006   3.118  10.718 -0.1317  1.3163 -0.3170
 2360SOL    HW218540   3.071   3.124  10.847 -0.8620 -0.1496  0.2048
 2361SOL     OW18541   4.600   1.968   7.174 -0.2312 -0.5039 -0.4703
 2361SOL    HW118542   4.575   1.926   7.092 -1.4399 -1.0278  0.1673
 2361SOL    HW218543   4.597   1.899   7.240  0.8889 -1.2568 -1.2127
 2362SOL     OW18544   2.672   4.378  17.266 -0.8198  0.3694  0.4802
 2362SOL    HW118545   2.692   4.285  17.274 -0.5648  0.2350 -1.5215
 2362SOL    HW218546   2.727   4.413  17.336 -0.4284  0.5712  0.0797
 2363SOL     OW18547   1.034   3.957   7.611 -0.0098 -0.0011 -0.0375
 2363SOL    HW118548   1.114   3.937   7.660  0.9051  2.8352 -0.3492
 2363SOL    HW218549   0.996   3.869   7.611  1.8525 -0.8102  1.5254
 2364SOL     OW18550   0.313   1.792   6.819  0.0896 -0.0444  0.2429
 2364SOL    HW118551   0.270   1.834   6.893 -0.8525 -0.1736 -0.2280
 2364SOL    HW218552   0.304   1.701   6.844  2.6779 -0.4583 -0.3598
 2365SOL     OW18553   3.840   3.034   2.243  0.0039 -0.1514  0.3148
 2365SOL    HW118554   3.798   3.053   2.327 -2.1788 -0.6869 -0.6763
 2365SOL    HW218555   3.796   3.090   2.180 -1.7346 -2.7600 -0.7733
 2366SOL     OW18556   3.436   3.038   1.232  0.6177 -0.4158 -0.5207
 2366SOL    HW118557   3.356   3.083   1.261  1.4506  0.3122  0.6404
 2366SOL    HW218558   3.424   3.044   1.137  1.3207  0.0830 -0.5788
 2367SOL     OW18559   3.016   2.273   3.513  0.1768  0.4463  0.4364
 2367SOL    HW118560   3.034   2.219   3.436  1.0736 -2.0803  2.4436
 2367SOL    HW218561   3.085   2.237   3.569 -0.6955 -1.6976  0.1269
 2368SOL     OW18562   4.327   2.055  10.076  0.0702  0.2154  0.0111
 2368SOL    HW118563   4.397   2.057  10.141 -0.1317 -0.3858  0.2462
 2368SOL    HW218564   4.327   2.147  10.051 -1.0999 -0.0342 -0.9199
 2369SOL     OW18565   1.093   1.559  10.380  0.1530 -0.5400 -0.0883
 2369SOL    HW118566   1.090   1.497  10.307 -2.5776  0.2254 -0.6373
 2369SOL    HW218567   1.185   1.554  10.405  0.3872  1.4124 -0.5629
 2370SOL     OW18568   1.011   4.105   1.484  0.2801  0.1541 -0.5399
 2370SOL    HW118569   0.964   4.169   1.431 -1.0249 -0.8730 -0.6432
 2370SOL    HW218570   1.076   4.163   1.523 -1.5731  1.8883 -0.0526
 2371SOL     OW18571   1.844   1.236   2.872  0.2007 -0.5211 -0.5827
 2371SOL    HW118572   1.914   1.171   2.867 -0.9331 -1.6683 -1.5337
 2371SOL    HW218573   1.780   1.189   2.926  0.3919  0.5056  0.5428
 2372SOL     OW18574   2.885   1.167   4.683 -0.1585 -0.0693 -0.2675
 2372SOL    HW118575   2.971   1.150   4.721 -0.6199 -0.8970  0.4110
 2372SOL    HW218576   2.874   1.074   4.664  0.3668 -0.0884 -0.4663
 2373SOL     OW18577   2.460   4.657   5.723 -0.8444  0.4657  0.0035
 2373SOL    HW118578   2.520   4.669   5.649  0.8917  0.7578  1.4585
 2373SOL    HW218579   2.460   0.026   5.757  0.6047  0.5079 -0.1110
 2374SOL     OW18580   1.778   1.751   2.449  0.2889  0.1947 -0.5128
 2374SOL    HW118581   1.714   1.816   2.479  0.2407  0.5260 -1.3180
 2374SOL    HW218582   1.725   1.694   2.393 -0.8041  0.8183 -0.1118
 2375SOL     OW18583   1.525   0.072   8.320  0.3740 -0.5200  0.3896
 2375SOL    HW118584   1.556   0.071   8.230  0.4557 -2.1416  0.4304
 2375SOL    HW218585   1.572   0.147   8.356  0.3346 -0.8975  1.2308
 2376SOL     OW18586   2.362   1.253   6.555  0.3877  0.1726  0.2427
 2376SOL    HW118587   2.292   1.222   6.613 -1.0682  2.3408 -0.3181
 2376SOL    HW218588   2.405   1.173   6.526  0.0761  0.2130 -0.3398
 2377SOL     OW18589   0.499   2.996   7.233  0.3310 -0.2323 -0.0114
 2377SOL    HW118590   0.488   2.915   7.184  0.7160  0.9443 -2.0282
 2377SOL    HW218591   0.482   3.054   7.160 -1.8275 -0.7649  0.0751
 2378SOL     OW18592   1.523   3.890   7.317 -0.2376 -0.2599 -0.2770
 2378SOL    HW118593   1.545   3.959   7.255 -2.0122 -0.3226 -0.9729
 2378SOL    HW218594   1.577   3.915   7.392 -1.5304  1.3563  0.0961
 2379SOL     OW18595   0.945   3.916   2.039  0.1087 -0.0346 -0.0158
 2379SOL    HW118596   1.002   3.843   2.064 -0.2144 -0.7863 -1.4650
 2379SOL    HW218597   0.944   3.901   1.944  0.5799  1.0007 -0.1779
 2380SOL     OW18598   3.625   2.717   3.070  0.7626 -0.2493 -0.0006
 2380SOL    HW118599   3.618   2.810   3.049 -0.4245  0.1338  2.0952
 2380SOL    HW218600   3.629   2.726   3.165 -0.8968  0.0451  0.0305
 2381SOL     OW18601   3.358   4.635  17.047  0.4592 -0.2526  0.3197
 2381SOL    HW118602   3.433   4.587  17.083  0.5612 -1.3316 -1.3260
 2381SOL    HW218603   3.357   4.618  16.952  1.2146 -1.3436  0.5015
 2382SOL     OW18604   3.829   1.189  15.360 -0.8255 -0.7776 -0.5748
 2382SOL    HW118605   3.846   1.179  15.454  2.4066 -3.4522 -1.4224
 2382SOL    HW218606   3.761   1.256  15.354 -1.1291 -1.2409 -2.2698
 2383SOL     OW18607   2.184   4.713   0.846 -0.0536  0.4023  0.0119
 2383SOL    HW118608   2.194   4.618   0.845  1.0606  0.5083  1.0458
 2383SOL    HW218609   2.271   0.027   0.828  0.6414 -1.5094 -0.4015
 2384SOL     OW18610   1.347   3.057   2.551 -0.2183  0.4112  0.5345
 2384SOL    HW118611   1.267   3.055   2.500  0.8503 -0.2865 -1.1216
 2384SOL    HW218612   1.400   2.993   2.504 -1.3104  0.1077 -0.2579
 2385SOL     OW18613   1.700   1.490   2.906  0.1165 -1.0962  0.0905
 2385SOL    HW118614   1.640   1.477   2.833  1.1693  0.9776 -1.1320
 2385SOL    HW218615   1.759   1.417   2.891  0.5291 -0.6658 -0.3666
 2386SOL     OW18616   3.364   2.009  17.656  0.5373  0.2100 -0.4119
 2386SOL    HW118617   3.402   1.961   0.044 -0.0288  0.2855 -0.0793
 2386SOL    HW218618   3.431   2.007  17.588  1.3611  0.4575  0.3798
 2387SOL     OW18619   1.970   3.530   0.549  0.8561  0.4803 -1.3142
 2387SOL    HW118620   1.986   3.500   0.638  1.1701 -2.1082 -2.2483
 2387SOL    HW218621   1.998   3.622   0.556  1.5212  0.0795  1.2067
 2388SOL     OW18622   3.313   1.693   1.728  0.2115  0.2690 -0.4484
 2388SOL    HW118623   3.253   1.753   1.683 -0.6537  0.7321  1.2987
 2388SOL    HW218624   3.383   1.746   1.766  0.8140 -1.3778  0.7213
 2389SOL     OW18625   0.640   0.228   2.874  0.6469  0.2092  0.3227
 2389SOL    HW118626   0.638   0.143   2.831  0.5013  0.6309 -0.5032
 2389SOL    HW218627   0.635   0.199   2.965 -1.3971  0.1096  0.1738
 2390SOL     OW18628   4.114   0.197   3.669 -0.2359 -0.7523  0.2047
 2390SOL    HW118629   4.189   0.251   3.643  1.6424 -3.0736  0.7693
 2390SOL    HW218630   4.149   0.108   3.669  1.5607 -0.0464 -1.0313
 2391SOL     OW18631   2.454   4.580   4.832 -0.4818 -0.0413  0.0524
 2391SOL    HW118632   2.452   4.485   4.845 -1.0505 -0.0211  0.1413
 2391SOL    HW218633   2.383   4.610   4.889 -0.3523 -3.0381  1.8021
 2392SOL     OW18634   1.474   1.992  12.475 -0.1063  0.0466 -0.1711
 2392SOL    HW118635   1.442   1.928  12.412 -2.2422  0.6960  0.2390
 2392SOL    HW218636   1.387   2.005  12.514  0.3841  0.5516  0.7464
 2393SOL     OW18637   1.671   4.713   1.316  0.1525  0.4122  0.0419
 2393SOL    HW118638   1.704   4.664   1.240 -2.7394 -0.9123 -0.3533
 2393SOL    HW218639   1.742   0.056   1.324 -1.1803  1.8912 -0.1045
 2394SOL     OW18640   3.871   4.476   5.772 -0.1782 -0.0979  0.2270
 2394SOL    HW118641   3.931   4.433   5.710 -2.2249 -0.2776 -1.6216
 2394SOL    HW218642   3.837   4.552   5.724 -0.5698 -1.8242 -2.2467
 2395SOL     OW18643   1.172   3.196  16.122 -0.2804  0.2170  0.0269
 2395SOL    HW118644   1.259   3.160  16.107 -0.6794 -0.7654  0.0318
 2395SOL    HW218645   1.175   3.210  16.217  1.4937 -0.6681  0.1029
 2396SOL     OW18646   1.195   3.284  11.214 -0.3574  0.2583  0.4701
 2396SOL    HW118647   1.171   3.313  11.126  2.5907 -0.0653 -0.4619
 2396SOL    HW218648   1.106   3.272  11.248 -0.3298  1.3936  0.9102
 2397SOL     OW18649   3.545   2.532   5.359 -1.1034 -0.3700 -0.1325
 2397SOL    HW118650   3.625   2.504   5.316 -1.4772 -1.8819  0.1802
 2397SOL    HW218651   3.474   2.515   5.296 -0.6122 -2.0619 -0.2159
 2398SOL     OW18652   4.066   3.638  13.333 -0.3869 -0.1619  0.5065
 2398SOL    HW118653   4.024   3.662  13.416  0.4514 -0.6136  1.0743
 2398SOL    HW218654   4.013   3.561  13.314  1.2548 -0.7812 -1.5180
 2399SOL     OW18655   3.353   2.309  13.432  0.1105  0.0280  0.1503
 2399SOL    HW118656   3.343   2.335  13.340  1.9505  0.8400  0.1815
 2399SOL    HW218657   3.293   2.236  13.447  0.3873 -0.1290  0.4990
 2400SOL     OW18658   3.583   3.550   7.170 -0.1322  0.1782  0.0583
 2400SOL    HW118659   3.551   3.626   7.218  1.7380  0.0819  1.4614
 2400SOL    HW218660   3.664   3.547   7.221 -3.4353 -0.1787  5.3125
 2401SOL     OW18661   1.572   3.001   8.630 -0.1487  0.5847  0.0332
 2401SOL    HW118662   1.622   3.063   8.683  0.4141 -1.7237  2.2012
 2401SOL    HW218663   1.624   2.921   8.636 -1.6850 -0.3849  0.2944
 2402SOL     OW18664   1.029   0.248  13.193  0.0711  1.0030 -0.6626
 2402SOL    HW118665   1.089   0.191  13.240  0.7845  2.2481 -0.0724
 2402SOL    HW218666   1.026   0.307  13.268  0.2433  1.6818 -1.1847
 2403SOL     OW18667   0.511   1.412  12.601 -0.4482  0.0466 -0.0027
 2403SOL    HW118668   0.457   1.429  12.524 -1.5300  1.1843  0.9987
 2403SOL    HW218669   0.445   1.363  12.651 -1.3577 -0.6763 -1.9222
 2404SOL     OW18670   3.244   3.322  10.955  0.0028 -0.0416 -0.2105
 2404SOL    HW118671   3.288   3.306  11.038  2.1896 -0.3117 -1.4300
 2404SOL    HW218672   3.180   3.251  10.957  0.2091 -0.1818  1.2045
 2405SOL     OW18673   3.946   3.584   7.801 -0.0612  0.1593  0.0674
 2405SOL    HW118674   3.944   3.680   7.801  1.5655  0.1886 -0.4027
 2405SOL    HW218675   3.862   3.573   7.845 -0.6569  1.7082 -0.6758
 2406SOL     OW18676   1.949   3.302   5.119  0.3703 -0.4387 -0.5883
 2406SOL    HW118677   1.873   3.319   5.173 -0.3624 -1.0991 -1.4105
 2406SOL    HW218678   1.927   3.345   5.036  0.3175 -0.4372 -0.5732
 2407SOL     OW18679   0.169   2.099   6.464 -0.0671 -0.1050 -0.4012
 2407SOL    HW118680   0.183   2.188   6.499  1.5740 -1.5857  2.7012
 2407SOL    HW218681   0.075   2.109   6.448  0.0204  1.1709 -0.1728
 2408SOL     OW18682   3.597   0.693   4.045  0.4316  0.0370 -0.1542
 2408SOL    HW118683   3.611   0.619   4.104 -0.5831  0.3432  0.4668
 2408SOL    HW218684   3.658   0.677   3.973 -1.2660 -2.0391 -1.1417
 2409SOL     OW18685   1.458   1.511   5.764 -0.7796  0.1839  0.1986
 2409SOL    HW118686   1.507   1.593   5.766 -1.1570  0.4257 -0.3352
 2409SOL    HW218687   1.486   1.468   5.844  1.9472  0.0806 -0.8253
 2410SOL     OW18688   4.177   3.981   8.818  0.2998 -0.2839 -0.4562
 2410SOL    HW118689   4.153   3.951   8.906 -1.5303 -1.5805 -1.3882
 2410SOL    HW218690   4.127   4.062   8.822  1.3696  0.3401  0.0851
 2411SOL     OW18691   2.417   3.206   4.058 -0.7174  0.9348  0.0768
 2411SOL    HW118692   2.400   3.171   4.146 -0.5981 -0.6658 -0.5459
 2411SOL    HW218693   2.362   3.283   4.039  1.2412  2.4472  0.5056
 2412SOL     OW18694   4.502   1.526   5.751  0.1819 -0.3801 -0.3440
 2412SOL    HW118695   4.595   1.534   5.773 -0.4169  0.4557  1.8027
 2412SOL    HW218696   4.506   1.498   5.659  1.1399 -1.1300 -0.0767
 2413SOL     OW18697   3.979   3.085   8.594  0.1893  0.0257  0.0886
 2413SOL    HW118698   4.008   3.119   8.678  1.1668 -2.5062  0.8050
 2413SOL    HW218699   4.062   3.076   8.546 -0.8362  1.0851 -1.8613
 2414SOL     OW18700   3.868   4.634   6.362 -0.6853 -0.5188  0.4059
 2414SOL    HW118701   3.824   4.584   6.294  4.0652 -3.9214 -0.1335
 2414SOL    HW218702   3.896   4.710   6.311 -1.3306 -1.9514 -2.0667
 2415SOL     OW18703   0.417   1.063   2.949  0.5513  0.3078 -0.2098
 2415SOL    HW118704   0.412   1.127   2.878 -0.2772  1.7862  1.1810
 2415SOL    HW218705   0.431   1.125   3.021 -0.8543  0.7509 -0.3329
 2416SOL     OW18706   2.350   4.611   4.119  0.4978 -0.1882 -0.1960
 2416SOL    HW118707   2.409   4.547   4.079 -0.0179 -0.5745 -0.3482
 2416SOL    HW218708   2.261   4.590   4.089  0.2833  1.7742 -0.9367
 2417SOL     OW18709   3.883   2.388   3.366 -0.4000 -0.5419 -0.2214
 2417SOL    HW118710   3.834   2.419   3.290  2.1910  1.2681 -1.1327
 2417SOL    HW218711   3.858   2.440   3.443 -0.8438  1.1640 -1.5259
 2418SOL     OW18712   1.132   3.219  15.345 -0.0925 -0.3095 -0.4190
 2418SOL    HW118713   1.073   3.144  15.352  0.7242 -1.0028 -1.0870
 2418SOL    HW218714   1.070   3.292  15.334  0.0491 -0.0734  0.4055
 2419SOL     OW18715   1.986   3.663  15.148 -0.1921 -0.0372  0.0709
 2419SOL    HW118716   2.018   3.707  15.070 -3.3120  1.7215 -0.2375
 2419SOL    HW218717   1.914   3.720  15.176  1.0834  0.8850  1.4736
 2420SOL     OW18718   3.000   3.878  13.356 -0.1408 -0.3580  0.1254
 2420SOL    HW118719   2.941   3.953  13.356  0.5526  0.1844 -0.1200
 2420SOL    HW218720   2.938   3.820  13.399  2.0275 -2.5969  0.2467
 2421SOL     OW18721   2.918   3.612   2.553  0.3638  0.3968  0.1835
 2421SOL    HW118722   2.970   3.680   2.509 -0.5931  0.4106 -0.9177
 2421SOL    HW218723   2.846   3.608   2.491  1.9519  2.9766 -1.8564
 2422SOL     OW18724   0.911   4.230   5.879  0.1932  0.1415  1.0111
 2422SOL    HW118725   0.904   4.251   5.972  0.0324  0.0601  1.0154
 2422SOL    HW218726   1.002   4.201   5.869  0.9189  2.4161  0.7570
 2423SOL     OW18727   1.945   1.831   2.207  0.1885  0.7392  0.0425
 2423SOL    HW118728   1.924   1.746   2.167  1.0336  1.4356 -1.8993
 2423SOL    HW218729   1.876   1.831   2.273  0.5815 -1.6768  0.4673
 2424SOL     OW18730   0.655   3.326  16.042  0.1696 -0.1216  0.0112
 2424SOL    HW118731   0.610   3.242  16.038 -0.2357  0.0745  0.3519
 2424SOL    HW218732   0.746   3.299  16.053  0.4316  0.5073 -0.5937
 2425SOL     OW18733   2.517   0.169   0.072  0.0697 -0.1090  0.1248
 2425SOL    HW118734   2.588   0.204   0.125 -0.7428  0.5762  0.7447
 2425SOL    HW218735   2.457   0.153   0.145  0.5238  0.6274  0.6564
 2426SOL     OW18736   4.627   2.142   6.734  0.6129  0.1555  0.0564
 2426SOL    HW118737   4.717   2.163   6.760  0.9069 -1.6362  0.4727
 2426SOL    HW218738   4.614   2.193   6.654 -1.0631  2.1788  1.6055
 2427SOL     OW18739   4.627   2.039  16.986  0.3095  0.1014 -0.6263
 2427SOL    HW118740   4.574   1.959  16.988 -2.2350  1.7892 -0.7465
 2427SOL    HW218741   4.658   2.040  17.076  0.6510 -0.0081 -0.7414
 2428SOL     OW18742   0.803   2.329   9.681  0.4190 -0.1572  0.3232
 2428SOL    HW118743   0.890   2.301   9.709  0.1137 -0.1841  1.2373
 2428SOL    HW218744   0.780   2.252   9.629  0.9967 -1.1646  1.5405
 2429SOL     OW18745   2.580   4.683  11.002  0.1981  0.1872  0.0375
 2429SOL    HW118746   2.641   4.682  10.928  0.7919  1.8950  0.5042
 2429SOL    HW218747   2.493   4.660  10.970  0.0959  0.5285  0.0743
 2430SOL     OW18748   1.803   3.917   3.369  0.3133  0.2663  0.4196
 2430SOL    HW118749   1.847   3.834   3.388 -0.3699 -0.1533  0.1416
 2430SOL    HW218750   1.714   3.882   3.372  0.5717 -0.4655 -0.4452
 2431SOL     OW18751   4.708   4.268  13.200  0.4546 -0.2977 -0.5963
 2431SOL    HW118752   4.669   4.355  13.210  1.2286 -0.2240  1.8749
 2431SOL    HW218753   0.077   4.296  13.212  0.1275  0.4830  0.0400
 2432SOL     OW18754   1.267   3.041  12.794  0.2020 -0.8105  0.1521
 2432SOL    HW118755   1.307   3.126  12.811 -1.1370 -0.2948  0.7351
 2432SOL    HW218756   1.205   3.034  12.867 -1.7736  1.9420 -1.2478
 2433SOL     OW18757   2.166   4.548   3.120  0.0454 -1.3610  0.2605
 2433SOL    HW118758   2.222   4.570   3.046  0.0227 -1.1551  0.3053
 2433SOL    HW218759   2.232   4.537   3.188 -2.3741  1.8417  3.1147
 2434SOL     OW18760   4.528   0.833   9.184 -0.1490  0.2758 -0.4699
 2434SOL    HW118761   4.554   0.830   9.093 -0.6029  0.5290 -0.6122
 2434SOL    HW218762   4.432   0.826   9.182 -0.4101  3.1285  0.6891
 2435SOL     OW18763   1.362   2.935   2.809  0.0592  0.1072  0.4740
 2435SOL    HW118764   1.399   2.851   2.784 -1.0678 -0.2632  0.0354
 2435SOL    HW218765   1.336   2.978   2.727  0.4000 -0.4497  0.0804
 2436SOL     OW18766   1.586   4.574  12.383 -0.1422  0.3761  0.6889
 2436SOL    HW118767   1.545   4.581  12.297 -0.3161  1.6517  0.8742
 2436SOL    HW218768   1.614   4.664  12.395 -1.8668  0.9699  0.2653
 2437SOL     OW18769   2.002   2.740  10.444  0.6452 -0.1661  0.0336
 2437SOL    HW118770   2.024   2.827  10.476  4.3581 -1.6420  1.4490
 2437SOL    HW218771   1.910   2.734  10.471  0.9685  0.4612  1.2600
 2438SOL     OW18772   3.330   2.732   5.416  0.1565 -0.1171 -0.2756
 2438SOL    HW118773   3.382   2.684   5.350  0.0824 -0.3979 -0.1317
 2438SOL    HW218774   3.376   2.815   5.405 -2.2324  0.7018 -4.0425
 2439SOL     OW18775   0.594   0.381   4.127 -0.2394  0.3256  0.3722
 2439SOL    HW118776   0.531   0.424   4.185 -0.9995 -1.4539  0.8512
 2439SOL    HW218777   0.545   0.299   4.119  1.0097 -0.0469 -3.6561
 2440SOL     OW18778   2.690   1.401   7.367  0.6381 -0.1914 -0.5308
 2440SOL    HW118779   2.747   1.465   7.325 -0.1759 -1.3647 -3.3710
 2440SOL    HW218780   2.651   1.357   7.292 -1.2167  1.1843 -0.3520
 2441SOL     OW18781   4.168   3.653   3.518 -0.1078  0.3881 -0.1682
 2441SOL    HW118782   4.206   3.580   3.469  0.7426  0.6274  0.1263
 2441SOL    HW218783   4.178   3.629   3.610  0.7406  0.7680 -0.1587
 2442SOL     OW18784   3.650   1.180   7.815 -0.2616 -0.1356  0.4204
 2442SOL    HW118785   3.604   1.244   7.760 -0.6465 -0.1000  0.7838
 2442SOL    HW218786   3.595   1.175   7.893  0.9760 -0.0715  1.2907
 2443SOL     OW18787   2.142   3.352   4.049  0.3159 -0.0759  0.6482
 2443SOL    HW118788   2.124   3.283   4.113 -0.6222  0.5349  1.0535
 2443SOL    HW218789   2.060   3.401   4.056 -0.0877 -0.7971  0.9440
 2444SOL     OW18790   4.520   1.359  12.779 -0.2811  0.6234  0.2414
 2444SOL    HW118791   4.529   1.264  12.773 -0.9915  0.4199  2.4959
 2444SOL    HW218792   4.526   1.382  12.686 -0.5123 -1.2820 -0.2387
 2445SOL     OW18793   3.488   0.791   2.453  0.3177  0.3265 -0.6361
 2445SOL    HW118794   3.421   0.738   2.410 -0.0654  0.4014 -0.1337
 2445SOL    HW218795   3.540   0.721   2.493 -1.4136 -0.8782 -0.4627
 2446SOL     OW18796   1.936   0.088   7.231 -0.1143 -0.9011 -0.5920
 2446SOL    HW118797   2.023   0.048   7.236 -0.1651 -0.7477  1.3606
 2446SOL    HW218798   1.939   0.109   7.137  1.2220  0.1955 -0.3006
 2447SOL     OW18799   2.077   4.208   6.005 -0.8905  0.2907 -0.3320
 2447SOL    HW118800   2.014   4.279   6.019  2.3073  2.8739  1.0162
 2447SOL    HW218801   2.075   4.211   5.909  0.6794 -0.5847 -0.3827
 2448SOL     OW18802   2.737   0.113   6.339 -0.3744 -0.3496  0.4114
 2448SOL    HW118803   2.670   0.087   6.276 -1.0483  0.3103  0.8583
 2448SOL    HW218804   2.814   0.106   6.282 -1.9284 -0.0441 -1.7503
 2449SOL     OW18805   1.565   0.753   2.777  0.5417 -0.5342  0.6392
 2449SOL    HW118806   1.649   0.789   2.806  1.1667 -1.6885  0.2680
 2449SOL    HW218807   1.526   0.718   2.858  2.1284 -0.0226  1.6332
 2450SOL     OW18808   4.181   4.591  16.256  0.4940  0.0791  0.4793
 2450SOL    HW118809   4.262   4.541  16.260 -0.1852 -0.9620  1.1954
 2450SOL    HW218810   4.151   4.555  16.172 -0.7006 -1.8428  1.7422
 2451SOL     OW18811   3.344   0.252   6.431 -0.2384  0.4044  0.0236
 2451SOL    HW118812   3.283   0.205   6.488 -1.3532  0.4306 -1.1470
 2451SOL    HW218813   3.430   0.227   6.464  0.6954  0.9310 -2.0468
 2452SOL     OW18814   2.170   1.312   0.444  0.0531 -0.2468  0.4676
 2452SOL    HW118815   2.236   1.360   0.494  0.2919 -0.8333  0.7132
 2452SOL    HW218816   2.095   1.368   0.460  0.0598 -0.4756  1.3194
 2453SOL     OW18817   2.476   4.341  17.566 -0.1983 -0.2848 -0.9242
 2453SOL    HW118818   2.479   4.377  17.478 -0.3683 -0.8143 -1.1502
 2453SOL    HW218819   2.382   4.340  17.585 -0.1999  0.1832 -0.9161
 2454SOL     OW18820   3.791   4.035   2.683  0.0901  0.5210  0.5027
 2454SOL    HW118821   3.845   4.034   2.604  0.8008 -0.1722  1.0035
 2454SOL    HW218822   3.776   4.129   2.695  0.6850  0.4023  2.2085
 2455SOL     OW18823   4.521   4.253   7.611  0.4803  0.0472  0.4977
 2455SOL    HW118824   4.579   4.310   7.559  0.4463 -0.1638  0.2257
 2455SOL    HW218825   4.436   4.276   7.572  0.7420  0.6033  0.2508
 2456SOL     OW18826   3.518   3.388   8.714 -0.0281  0.5561  0.0192
 2456SOL    HW118827   3.576   3.318   8.743 -0.8265 -0.1944 -0.2068
 2456SOL    HW218828   3.523   3.442   8.793  1.6349 -1.7028  1.4502
 2457SOL     OW18829   2.199   0.334   6.338 -0.0100  0.0950 -0.2445
 2457SOL    HW118830   2.173   0.405   6.280 -0.4575  0.3612  0.2842
 2457SOL    HW218831   2.191   0.377   6.423  0.4414 -0.4463  0.0733
 2458SOL     OW18832   0.936   0.538   8.020 -0.0838  0.2078 -0.4532
 2458SOL    HW118833   0.935   0.443   8.027  1.0381  0.2180 -0.0820
 2458SOL    HW218834   1.028   0.563   8.004  1.0322 -3.7107 -0.0403
 2459SOL     OW18835   0.516   2.539   4.239 -0.2903 -0.2511  0.0384
 2459SOL    HW118836   0.538   2.607   4.176  0.0304 -1.9910 -1.7401
 2459SOL    HW218837   0.554   2.571   4.321  0.9771  0.4241 -0.8202
 2460SOL     OW18838   2.802   2.544   4.590  0.5071 -0.4413 -0.3015
 2460SOL    HW118839   2.863   2.543   4.516  1.0823 -0.4074  0.1770
 2460SOL    HW218840   2.784   2.450   4.594  2.8686 -1.0267 -3.0432
 2461SOL     OW18841   2.250   1.173   8.271  0.3180 -0.4314 -0.2839
 2461SOL    HW118842   2.316   1.172   8.341 -0.4251  0.0708  0.4284
 2461SOL    HW218843   2.301   1.217   8.202 -0.8610 -0.1929 -0.9889
 2462SOL     OW18844   4.018   4.124   3.439 -0.2541  0.3089  0.5055
 2462SOL    HW118845   4.112   4.119   3.425  0.0123  0.9489  2.0743
 2462SOL    HW218846   4.003   4.216   3.464  1.1834  0.7358 -0.2431
 2463SOL     OW18847   3.380   1.555   3.336  0.2434  0.3007  0.2786
 2463SOL    HW118848   3.394   1.515   3.421 -5.1007  2.4608  2.1545
 2463SOL    HW218849   3.417   1.488   3.278  0.3169 -0.7392  1.5380
 2464SOL     OW18850   2.648   1.052   3.899 -0.3204 -0.5843  1.0161
 2464SOL    HW118851   2.650   1.047   3.803  1.1197 -1.1404  1.0721
 2464SOL    HW218852   2.556   1.075   3.908 -0.8783 -1.8186 -1.4246
 2465SOL     OW18853   1.220   4.709  13.060  0.8463  0.3468 -0.1968
 2465SOL    HW118854   1.270   4.700  13.141  2.2162  0.6884 -0.9991
 2465SOL    HW218855   1.231   0.082  13.050  2.4556  0.1741 -0.0340
 2466SOL     OW18856   2.659   1.650  15.159 -0.2256  0.0942  0.0601
 2466SOL    HW118857   2.595   1.581  15.146 -0.4855  0.1829  0.9182
 2466SOL    HW218858   2.671   1.655  15.253  1.3998 -2.2359 -0.0147
 2467SOL     OW18859   1.506   4.513   5.537  0.3291  0.1325 -0.1262
 2467SOL    HW118860   1.423   4.544   5.502  0.7061  1.0682 -0.1986
 2467SOL    HW218861   1.473   4.492   5.625  1.5521 -0.2585  0.2386
 2468SOL     OW18862   1.268   3.019   0.677  0.3249  0.0335  0.0038
 2468SOL    HW118863   1.363   3.005   0.684  0.7061  2.6877  0.0244
 2468SOL    HW218864   1.255   3.111   0.697 -0.8557  0.1753 -1.4245
 2469SOL     OW18865   3.173   1.170   6.403 -0.4403  0.2679  0.6220
 2469SOL    HW118866   3.181   1.104   6.333  0.1251  0.3699  0.5884
 2469SOL    HW218867   3.110   1.224   6.355  0.7748  2.4123  1.4539
 2470SOL     OW18868   0.511   1.958  12.583 -0.2719  0.3310  0.2619
 2470SOL    HW118869   0.513   1.912  12.667 -0.1965  0.3616  0.2770
 2470SOL    HW218870   0.567   1.899  12.534  0.5688  2.4808 -1.3328
 2471SOL     OW18871   1.113   3.371   3.897 -0.7814  0.2209 -0.1152
 2471SOL    HW118872   1.116   3.276   3.910  1.1623  0.4292  0.9428
 2471SOL    HW218873   1.196   3.389   3.942 -1.0587 -0.9845  0.8694
 2472SOL     OW18874   2.103   0.112   2.857  0.4659  0.3700 -0.7713
 2472SOL    HW118875   2.019   0.117   2.904  1.4646  2.0597  0.8545
 2472SOL    HW218876   2.106   0.017   2.846 -0.8846  0.2925 -0.4939
 2473SOL     OW18877   1.826   1.849   3.693  0.4420  0.5186  0.5108
 2473SOL    HW118878   1.753   1.796   3.725  0.3194 -0.8964 -2.1288
 2473SOL    HW218879   1.899   1.792   3.718  1.3812  0.5411 -2.1111
 2474SOL     OW18880   3.828   3.232   8.391 -0.5675 -1.1833  0.0371
 2474SOL    HW118881   3.894   3.176   8.432  1.6822  0.8557 -0.7928
 2474SOL    HW218882   3.839   3.317   8.434 -1.8593  0.2527 -2.4674
 2475SOL     OW18883   3.360   1.926   7.413 -0.1003 -0.8395 -0.5234
 2475SOL    HW118884   3.432   1.881   7.369 -0.7517 -0.2736 -2.1762
 2475SOL    HW218885   3.389   2.016   7.399  2.1350 -1.3302  1.1026
 2476SOL     OW18886   1.589   1.235   3.614 -0.1956  0.0813 -0.0955
 2476SOL    HW118887   1.648   1.310   3.604  2.0673 -1.7578 -0.5422
 2476SOL    HW218888   1.636   1.172   3.667 -0.6288  0.6300  0.9335
 2477SOL     OW18889   1.585   1.844   1.003  0.2499 -0.0752 -0.4127
 2477SOL    HW118890   1.582   1.847   1.099 -1.2933  2.7813 -0.5642
 2477SOL    HW218891   1.498   1.852   0.964  1.2430 -1.9050 -2.9867
 2478SOL     OW18892   3.189   1.456   7.060  0.6712 -0.1128 -0.6477
 2478SOL    HW118893   3.253   1.526   7.075 -0.9644  1.5251 -1.3510
 2478SOL    HW218894   3.161   1.428   7.148 -0.9468  0.1106 -1.1004
 2479SOL     OW18895   3.136   2.587   8.579 -0.2529 -0.2711  0.0620
 2479SOL    HW118896   3.121   2.572   8.486 -0.0196 -1.2512  0.1850
 2479SOL    HW218897   3.165   2.678   8.577  0.1638 -0.4049  0.1013
 2480SOL     OW18898   4.684   0.657  10.996  0.4576 -0.2620  0.3331
 2480SOL    HW118899   0.023   0.647  11.069  0.3729  0.0290  0.4388
 2480SOL    HW218900   0.007   0.605  10.928  0.3714 -2.5577  2.0345
 2481SOL     OW18901   4.158   0.864   7.168 -0.0769 -0.3643  0.1164
 2481SOL    HW118902   4.164   0.883   7.262  2.2485  0.0662 -0.1130
 2481SOL    HW218903   4.067   0.877   7.144 -0.6983 -0.8713  2.2226
 2482SOL     OW18904   2.803   0.052  15.056  0.0523 -0.2012  0.0332
 2482SOL    HW118905   2.872   0.039  15.121  0.1517 -0.5195 -0.1332
 2482SOL    HW218906   2.856   0.086  14.985 -0.8327  3.7634  1.2643
 2483SOL     OW18907   0.945   0.512  14.101  0.6138  0.4265 -0.1405
 2483SOL    HW118908   0.886   0.448  14.061  1.9527  0.5253 -2.2857
 2483SOL    HW218909   0.934   0.495  14.194 -1.1134  2.2558 -0.0087
 2484SOL     OW18910   3.126   4.625  13.033 -0.1463  0.2203 -0.1623
 2484SOL    HW118911   3.200   4.568  13.056 -0.7045 -0.0456  1.0012
 2484SOL    HW218912   3.145   4.650  12.943 -0.2083  2.0197  0.3285
 2485SOL     OW18913   2.857   1.001  12.332  0.0054 -0.3367 -0.0124
 2485SOL    HW118914   2.929   1.063  12.339  0.5581 -1.3657  3.5543
 2485SOL    HW218915   2.905   0.921  12.310 -1.0146 -0.6161 -1.2072
 2486SOL     OW18916   0.712   2.992   1.618 -0.5995  0.0104 -0.4935
 2486SOL    HW118917   0.737   2.902   1.597  0.9496  0.6512 -1.4188
 2486SOL    HW218918   0.697   2.985   1.712  1.4270  1.8527 -0.0243
 2487SOL     OW18919   1.778   3.934   5.045  0.4224 -0.6095 -0.2508
 2487SOL    HW118920   1.756   4.006   4.986  3.1785  2.0669  2.0884
 2487SOL    HW218921   1.742   3.970   5.125  0.7657  0.8788 -0.7655
 2488SOL     OW18922   0.637   2.435   3.346 -0.3493 -0.1133 -0.0422
 2488SOL    HW118923   0.731   2.440   3.330  0.0689  0.1020  2.5011
 2488SOL    HW218924   0.625   2.369   3.415 -0.1398  0.5917  0.6582
 2489SOL     OW18925   2.347   2.190  17.553  0.3406  0.6496 -0.1111
 2489SOL    HW118926   2.258   2.158  17.566  1.5532 -2.6138  0.3061
 2489SOL    HW218927   2.327   2.264  17.496 -1.8738 -0.2643 -0.4997
 2490SOL     OW18928   1.187   3.859   5.780 -0.2765  0.4883 -0.0373
 2490SOL    HW118929   1.143   3.851   5.695 -0.1117 -1.0702  0.0309
 2490SOL    HW218930   1.135   3.802   5.836 -2.6945  3.0090  0.3014
 2491SOL     OW18931   0.075   3.631   3.970 -0.2571 -0.0493 -0.2063
 2491SOL    HW118932   0.143   3.643   4.037  0.3449  1.8681 -1.1587
 2491SOL    HW218933   0.134   3.644   3.896  0.1322 -3.2388 -0.4498
 2492SOL     OW18934   0.837   4.245   2.536  0.1514 -0.7294 -0.4341
 2492SOL    HW118935   0.885   4.252   2.618 -0.9240 -0.6824  0.1921
 2492SOL    HW218936   0.873   4.167   2.494 -3.5596 -1.7707 -1.6818
 2493SOL     OW18937   3.214   0.140   6.140 -0.0074 -0.3028 -0.2096
 2493SOL    HW118938   3.160   0.197   6.195  1.9901  1.2164  0.1776
 2493SOL    HW218939   3.206   0.183   6.054  1.3230 -0.7415 -0.5628
 2494SOL     OW18940   0.547   1.314  14.905 -0.0289  0.2573 -0.0576
 2494SOL    HW118941   0.564   1.222  14.927 -2.0874 -0.1438 -0.1778
 2494SOL    HW218942   0.521   1.304  14.813 -1.0753 -2.0927  0.4970
 2495SOL     OW18943   3.217   4.396   7.388  0.2275  0.7127  0.2197
 2495SOL    HW118944   3.293   4.353   7.427  0.3276  0.9717  0.3136
 2495SOL    HW218945   3.154   4.325   7.388  0.4024  0.5452  2.3239
 2496SOL     OW18946   4.148   3.818   4.511 -0.3460 -0.2459  0.0945
 2496SOL    HW118947   4.208   3.789   4.579 -0.0406 -1.3252 -0.6274
 2496SOL    HW218948   4.071   3.762   4.519  0.3137 -1.0982  0.5310
 2497SOL     OW18949   0.541   3.405   0.959 -0.5741  0.0477 -0.3673
 2497SOL    HW118950   0.491   3.479   0.993 -1.1277  0.0338 -1.1717
 2497SOL    HW218951   0.521   3.395   0.866 -0.4778 -2.0316 -0.1611
 2498SOL     OW18952   0.647   2.655   3.959  0.7006  0.7352  0.0750
 2498SOL    HW118953   0.731   2.674   4.001  0.4703  1.1847  0.3366
 2498SOL    HW218954   0.670   2.640   3.867 -1.3231 -1.2740 -0.0911
 2499SOL     OW18955   0.877   3.005   4.085  0.3686 -0.3439 -0.0543
 2499SOL    HW118956   0.807   3.067   4.067  0.3253 -0.1984  0.6090
 2499SOL    HW218957   0.947   3.066   4.105  1.0155 -0.4909 -1.8565
 2500SOL     OW18958   4.668   3.934   6.290  0.3575  0.4454 -0.3019
 2500SOL    HW118959   0.004   3.887   6.351 -0.8684 -2.5476 -1.4786
 2500SOL    HW218960   4.586   3.906   6.332  1.0356 -1.8614 -0.5346
 2501SOL     OW18961   3.790   4.001   6.822 -0.2246 -0.0942 -0.4797
 2501SOL    HW118962   3.794   3.930   6.758  0.7814 -1.5960  1.2352
 2501SOL    HW218963   3.856   3.972   6.885  0.8382  2.0178 -0.6247
 2502SOL     OW18964   3.414   1.233   2.843 -0.2148  0.0221 -0.3945
 2502SOL    HW118965   3.395   1.230   2.749  0.5922 -0.3817 -0.5428
 2502SOL    HW218966   3.497   1.185   2.849 -1.1535 -1.4929  0.3128
 2503SOL     OW18967   3.209   1.927   2.049 -0.1878  0.1633  0.1985
 2503SOL    HW118968   3.254   2.009   2.070 -0.5113  0.1000  1.1234
 2503SOL    HW218969   3.231   1.923   1.956  1.5821  4.0434  0.4382
 2504SOL     OW18970   1.634   1.766  14.600 -0.4754  0.5656  0.4590
 2504SOL    HW118971   1.606   1.854  14.623  0.7273  0.5291  2.0293
 2504SOL    HW218972   1.552   1.723  14.575  0.2521 -0.0940 -0.7935
 2505SOL     OW18973   0.554   4.449  15.882  0.3208 -0.0606  0.2609
 2505SOL    HW118974   0.469   4.473  15.919 -0.5899 -0.8457 -1.3214
 2505SOL    HW218975   0.613   4.425  15.953 -0.3173  2.0287  1.4692
 2506SOL     OW18976   2.893   4.360   8.766  0.1971  0.0352 -0.6163
 2506SOL    HW118977   2.965   4.422   8.774  1.3576 -1.2819 -0.9765
 2506SOL    HW218978   2.864   4.383   8.677 -0.5360 -1.2929 -0.7333
 2507SOL     OW18979   0.445   2.995   2.056 -0.5313 -0.2104 -0.3672
 2507SOL    HW118980   0.443   3.090   2.044 -0.7839 -0.3742 -1.6675
 2507SOL    HW218981   0.473   2.960   1.971  0.4624 -1.5335  0.5000
 2508SOL     OW18982   1.543   0.270   6.677  0.8788 -0.0030  0.1666
 2508SOL    HW118983   1.452   0.285   6.702 -0.1552 -3.2242 -1.6153
 2508SOL    HW218984   1.577   0.358   6.662 -0.0828  0.3812  0.2321
 2509SOL     OW18985   1.480   2.014   6.468  0.1425 -0.3831  0.3413
 2509SOL    HW118986   1.442   2.101   6.473 -0.5823 -0.6248 -0.9266
 2509SOL    HW218987   1.567   2.032   6.433 -0.6932  1.7008 -0.6514
 2510SOL     OW18988   0.993   1.945  12.285 -0.3822  0.2062  0.1454
 2510SOL    HW118989   1.011   2.002  12.360 -0.9430  0.4236  0.1168
 2510SOL    HW218990   0.963   1.864  12.327  0.5034 -0.6068 -0.8004
 2511SOL     OW18991   2.789   0.652   7.568 -0.2485  0.3742 -0.1162
 2511SOL    HW118992   2.831   0.707   7.502  1.3317  1.9501  2.2057
 2511SOL    HW218993   2.832   0.691   7.644  0.5731  0.0478 -0.4187
 2512SOL     OW18994   3.083   0.586   5.303  0.5663 -0.1459 -0.2753
 2512SOL    HW118995   3.136   0.524   5.354  0.3526  0.6109  0.8797
 2512SOL    HW218996   3.136   0.593   5.224  1.3353  1.2501  0.3809
 2513SOL     OW18997   4.344   1.490   7.323 -0.0657  0.5521  0.1869
 2513SOL    HW118998   4.303   1.566   7.366 -1.0058  0.6165 -0.8205
 2513SOL    HW218999   4.364   1.532   7.239  0.5885 -1.1226 -0.4872
 2514SOL     OW19000   0.370   2.186   1.086  0.0682  0.2890 -0.2367
 2514SOL    HW119001   0.307   2.143   1.143 -0.7866  1.5057 -0.2676
 2514SOL    HW219002   0.337   2.160   1.000  1.8242  0.1205 -0.8504
 2515SOL     OW19003   0.988   2.953  11.607 -0.0969  0.3524 -0.1051
 2515SOL    HW119004   0.942   3.017  11.553 -2.5330 -0.9590  0.4128
 2515SOL    HW219005   0.947   2.872  11.576  0.9122 -0.7689  1.5000
 2516SOL     OW19006   3.142   4.095   3.892 -0.3393 -0.0370 -0.4996
 2516SOL    HW119007   3.115   4.112   3.982 -0.3763 -0.2369 -0.4738
 2516SOL    HW219008   3.140   4.184   3.856 -1.0919  0.5902  1.1144
 2517SOL     OW19009   0.062   0.126  12.248  0.4336 -0.0735 -0.1103
 2517SOL    HW119010   4.706   0.159  12.202 -0.0558 -0.1634  0.6426
 2517SOL    HW219011   0.129   0.143  12.182 -0.2488 -1.6114 -1.1861
 2518SOL     OW19012   2.343   3.401   7.729  0.3985  0.7451  0.8311
 2518SOL    HW119013   2.261   3.353   7.719 -0.6682  2.5858  0.7302
 2518SOL    HW219014   2.389   3.384   7.646 -1.2799  1.7656 -0.3122
 2519SOL     OW19015   3.007   2.387  10.263  0.3201 -0.2156 -0.0722
 2519SOL    HW119016   3.101   2.376  10.251  0.6431 -1.1197  3.4981
 2519SOL    HW219017   3.001   2.383  10.358  1.5479 -5.4542 -0.2277
 2520SOL     OW19018   2.000   2.736   8.977 -0.3027  0.7552  0.0194
 2520SOL    HW119019   1.908   2.733   9.004 -0.1760  1.6637  0.5514
 2520SOL    HW219020   2.007   2.819   8.930  2.8700  1.3819  1.5723
 2521SOL     OW19021   0.357   2.397   6.846 -0.4244 -0.1366  0.6523
 2521SOL    HW119022   0.358   2.420   6.939 -2.1953  1.1593  0.3448
 2521SOL    HW219023   0.327   2.483   6.815 -1.4706 -1.3318 -1.6628
 2522SOL     OW19024   0.017   0.794   3.861  0.4738 -0.5684  0.2156
 2522SOL    HW119025   0.110   0.791   3.884 -0.0256  1.0786  2.4201
 2522SOL    HW219026   4.699   0.759   3.942 -0.3588 -2.4059 -0.9821
 2523SOL     OW19027   1.602   2.037   2.490  0.3116  0.1985  1.2630
 2523SOL    HW119028   1.696   2.037   2.471 -0.0451 -1.1983 -0.5503
 2523SOL    HW219029   1.582   2.110   2.432  0.5244 -1.6870 -1.2024
 2524SOL     OW19030   2.097   4.203   4.563 -0.0372 -0.1578  0.0280
 2524SOL    HW119031   2.184   4.243   4.562 -1.3362  2.4488 -4.4479
 2524SOL    HW219032   2.101   4.122   4.513  0.8242 -0.4432  0.5489
 2525SOL     OW19033   2.183   2.249   4.108 -0.4760  0.5462 -0.4809
 2525SOL    HW119034   2.116   2.207   4.054  0.9667 -2.5993  0.1382
 2525SOL    HW219035   2.252   2.182   4.100 -0.6667  0.3589 -0.5690
 2526SOL     OW19036   4.206   3.806   2.156  0.3167  0.9653 -0.2902
 2526SOL    HW119037   4.143   3.806   2.228  0.2850 -1.7421 -0.3167
 2526SOL    HW219038   4.205   3.718   2.116  0.0167  1.1213 -0.6290
 2527SOL     OW19039   3.895   2.311   4.329  0.2611 -0.2175  0.3978
 2527SOL    HW119040   3.882   2.274   4.242  1.6276 -1.1826  0.6119
 2527SOL    HW219041   3.803   2.331   4.349  0.2344 -0.3002  0.3551
 2528SOL     OW19042   3.462   2.205   6.719 -0.3213  0.4124  0.0221
 2528SOL    HW119043   3.487   2.294   6.743  0.3044  0.3130 -0.2606
 2528SOL    HW219044   3.410   2.220   6.641  0.3339 -1.6162 -0.8095
 2529SOL     OW19045   0.436   1.568   3.855 -0.3122  0.1515  0.4173
 2529SOL    HW119046   0.346   1.596   3.839 -0.6529 -0.1561  1.7664
 2529SOL    HW219047   0.416   1.475   3.865  0.0280  0.1016  0.6484
 2530SOL     OW19048   4.606   0.187   3.185  0.3187  0.1806 -0.2043
 2530SOL    HW119049   4.657   0.267   3.199  1.2210 -0.3239 -0.6402
 2530SOL    HW219050   4.521   0.225   3.161  0.7575  1.0948 -0.3056
 2531SOL     OW19051   4.568   3.416  15.553  0.2948 -0.1195 -0.2978
 2531SOL    HW119052   4.494   3.444  15.608  1.1717  0.8117  0.4270
 2531SOL    HW219053   4.640   3.451  15.605 -0.0763 -0.5801  0.5223
 2532SOL     OW19054   3.145   0.885   4.957  0.0430 -0.6284 -0.3452
 2532SOL    HW119055   3.133   0.866   5.050 -0.1437 -0.7764 -0.3983
 2532SOL    HW219056   3.076   0.840   4.907 -0.1665  0.5869 -1.1316
 2533SOL     OW19057   4.133   4.653  13.612  0.2545 -0.4623 -0.0073
 2533SOL    HW119058   4.081   0.010  13.631  0.9507  0.2642 -1.0850
 2533SOL    HW219059   4.208   4.664  13.670  1.4939  1.1171 -1.8603
 2534SOL     OW19060   4.551   4.134   2.017  0.0178 -0.1503  0.0075
 2534SOL    HW119061   4.529   4.182   1.937  1.2755 -0.6922 -0.6651
 2534SOL    HW219062   4.466   4.104   2.049 -0.5218 -1.0915 -2.3473
 2535SOL     OW19063   3.311   2.775  14.552  0.1967 -0.3686  0.3640
 2535SOL    HW119064   3.263   2.696  14.529  2.5615 -0.5533 -3.8387
 2535SOL    HW219065   3.241   2.832  14.586 -1.6493 -1.4040 -1.7090
 2536SOL     OW19066   4.651   0.070   1.164 -0.2783  0.0189 -0.0148
 2536SOL    HW119067   4.665   0.149   1.216 -1.3751  0.6553 -0.6904
 2536SOL    HW219068   4.683   0.003   1.225  0.6594  0.8036  0.3662
 2537SOL     OW19069   2.722   1.598  15.449  0.6601 -0.1536  0.7215
 2537SOL    HW119070   2.678   1.546  15.515  0.3787  0.5933  1.1158
 2537SOL    HW219071   2.806   1.592  15.494  0.8654  0.0517  0.3744
 2538SOL     OW19072   4.628   4.508   8.926 -0.2132 -0.2693  0.2256
 2538SOL    HW119073   4.629   4.600   8.952  2.3849  0.1235 -1.2446
 2538SOL    HW219074   4.604   4.502   8.834  0.1335 -0.9427  0.1765
 2539SOL     OW19075   0.798   4.193   4.608  0.5340  0.0082  0.3393
 2539SOL    HW119076   0.851   4.124   4.649  0.6547 -0.6889 -0.9790
 2539SOL    HW219077   0.792   4.247   4.686 -0.6633  1.2810 -0.6276
 2540SOL     OW19078   1.319   1.506   6.489  0.4283  0.1300  0.0139
 2540SOL    HW119079   1.255   1.543   6.428 -0.1324  0.0251  0.5335
 2540SOL    HW219080   1.271   1.433   6.529  0.7919  0.5506  1.2093
 2541SOL     OW19081   1.048   4.339   3.252 -0.0280  0.2277  0.1798
 2541SOL    HW119082   1.136   4.305   3.271 -0.2142 -0.3225  0.0600
 2541SOL    HW219083   1.009   4.325   3.338  1.7659 -1.9374  0.6715
 2542SOL     OW19084   3.887   3.766   1.626  0.5616  0.2138  0.2677
 2542SOL    HW119085   3.874   3.844   1.572 -1.8681 -0.1988  0.2748
 2542SOL    HW219086   3.907   3.700   1.558  0.5041  0.5191 -0.0448
 2543SOL     OW19087   0.110   3.355   1.091 -0.2945 -0.3334  0.1494
 2543SOL    HW119088   0.154   3.300   1.027 -1.1911 -1.1766  0.2609
 2543SOL    HW219089   0.140   3.313   1.171 -0.7354 -0.9952 -0.0331
 2544SOL     OW19090   4.575   2.492  15.609 -0.0642  0.1946  0.0285
 2544SOL    HW119091   4.610   2.452  15.688  1.2228  1.7722  0.2806
 2544SOL    HW219092   4.623   2.449  15.538  0.2155 -1.6132  1.3174
 2545SOL     OW19093   1.334   0.824   5.717  0.7385  0.5158  0.1563
 2545SOL    HW119094   1.249   0.806   5.757  1.1178 -1.5182  0.0647
 2545SOL    HW219095   1.307   0.909   5.682 -0.7757  0.1137  0.3567
 2546SOL     OW19096   2.735   3.816   5.769 -0.3570 -0.3468 -0.0304
 2546SOL    HW119097   2.657   3.872   5.759 -0.8740 -0.6485  2.5353
 2546SOL    HW219098   2.728   3.799   5.862  2.1405  0.4240  0.3054
 2547SOL     OW19099   2.259   2.364   4.347 -0.2683  0.3731  0.7402
 2547SOL    HW119100   2.183   2.422   4.346  0.7376  1.6844 -3.3415
 2547SOL    HW219101   2.251   2.316   4.264 -2.5302  1.8779  0.0813
 2548SOL     OW19102   3.143   0.998  14.027  0.2497  0.3678 -0.1186
 2548SOL    HW119103   3.071   1.043  13.983  0.9029  1.0840 -0.4575
 2548SOL    HW219104   3.150   1.064  14.096  0.9769 -0.0076  0.1735
 2549SOL     OW19105   2.758   2.265  17.142  0.4159 -0.3557 -0.3053
 2549SOL    HW119106   2.826   2.326  17.116 -0.9660  1.3113 -0.0088
 2549SOL    HW219107   2.774   2.208  17.066 -2.0042 -5.0598  2.6929
 2550SOL     OW19108   1.642   2.051  11.757  0.0093  0.2415  0.2400
 2550SOL    HW119109   1.608   2.110  11.824  0.9206 -0.0855  0.9857
 2550SOL    HW219110   1.620   2.107  11.682  0.6687  1.9254  1.3172
 2551SOL     OW19111   0.015   3.698  13.643  0.4190  0.3449 -0.2367
 2551SOL    HW119112   4.678   3.774  13.635 -0.8786 -0.2852  3.0345
 2551SOL    HW219113   0.030   3.685  13.549  1.0377 -2.2431  0.2114
 2552SOL     OW19114   2.165   0.147   5.508  1.2161 -0.3180  0.0097
 2552SOL    HW119115   2.153   0.058   5.540  3.1808 -0.5686  0.0492
 2552SOL    HW219116   2.259   0.161   5.498  1.0125  0.9980 -0.0818
 2553SOL     OW19117   0.232   2.126   6.204  0.2222 -0.7554 -0.0476
 2553SOL    HW119118   0.154   2.180   6.189 -0.8872 -1.7596  2.1347
 2553SOL    HW219119   0.215   2.102   6.295 -0.4243  1.4254  0.4026
 2554SOL     OW19120   1.997   2.559   8.389 -0.1230 -0.0321  0.0054
 2554SOL    HW119121   2.027   2.639   8.433 -1.8593  1.2129 -1.1279
 2554SOL    HW219122   1.936   2.607   8.334 -2.7810 -2.3345  0.9044
 2555SOL     OW19123   1.874   1.371  11.468  0.2347  0.3710  0.0774
 2555SOL    HW119124   1.867   1.382  11.563  0.2702  2.8086 -0.2125
 2555SOL    HW219125   1.946   1.308  11.467  0.4161  0.5839 -0.0540
 2556SOL     OW19126   4.389   2.122   8.899 -0.1096  0.0475 -0.3429
 2556SOL    HW119127   4.401   2.029   8.914  1.0945  0.5169  1.5241
 2556SOL    HW219128   4.477   2.142   8.866  0.7057  1.1977  2.6040
 2557SOL     OW19129   1.780   3.640   1.988  0.3100  0.1717  0.1558
 2557SOL    HW119130   1.742   3.727   1.996  0.2739  0.0132  1.7902
 2557SOL    HW219131   1.700   3.593   1.964  0.1631 -0.0091  1.0136
 2558SOL     OW19132   2.787   2.625  13.497  0.7788  0.3004 -0.7222
 2558SOL    HW119133   2.740   2.543  13.502  0.3631  0.6135  0.3122
 2558SOL    HW219134   2.749   2.665  13.575 -1.0047 -2.7992 -0.0410
 2559SOL     OW19135   2.489   1.227  14.245  0.0858 -0.2694 -0.0889
 2559SOL    HW119136   2.459   1.312  14.277  1.4189  0.1113  0.1422
 2559SOL    HW219137   2.419   1.192  14.190  0.1507  1.2346 -1.1462
 2560SOL     OW19138   4.467   3.681   1.995 -0.1654 -0.3813  0.0939
 2560SOL    HW119139   4.503   3.617   1.934 -1.2969  0.8417 -1.8614
 2560SOL    HW219140   4.435   3.747   1.934 -0.6717 -1.1060 -0.4190
 2561SOL     OW19141   1.309   3.415  10.252 -0.2036 -0.5631  0.0704
 2561SOL    HW119142   1.336   3.327  10.226 -1.2561 -0.5986 -0.9517
 2561SOL    HW219143   1.389   3.460  10.226 -1.7342  2.5315  0.7681
 2562SOL     OW19144   2.665   0.052   8.369  0.1638  0.3002 -0.0922
 2562SOL    HW119145   2.606   0.040   8.444  2.1322 -0.1184  1.3840
 2562SOL    HW219146   2.603   0.044   8.297  0.8850  0.9258 -0.7799
 2563SOL     OW19147   2.778   1.839   7.469  0.2288  0.2690 -0.4356
 2563SOL    HW119148   2.873   1.850   7.476  0.2709  0.0737 -0.7077
 2563SOL    HW219149   2.774   1.802   7.381  1.2727  1.0801 -0.8241
 2564SOL     OW19150   4.604   0.265   1.349 -0.2492  0.1273  0.1685
 2564SOL    HW119151   4.665   0.258   1.422  1.4446  0.6116 -1.1893
 2564SOL    HW219152   4.526   0.227   1.389 -1.6198  1.8808 -0.8291
 2565SOL     OW19153   4.416   2.216  16.252 -0.5261  0.3924  0.1000
 2565SOL    HW119154   4.389   2.230  16.342 -3.6717  1.6977 -1.0348
 2565SOL    HW219155   4.433   2.307  16.228 -3.1505  1.4165  2.1842
 2566SOL     OW19156   2.062   3.611   6.010  0.3347  0.0014 -0.2700
 2566SOL    HW119157   2.065   3.532   5.957 -2.9910 -0.6877  0.5516
 2566SOL    HW219158   2.001   3.668   5.963  1.4160  0.1736 -1.4374
 2567SOL     OW19159   3.230   2.868   7.746  0.6433 -0.3238  0.2074
 2567SOL    HW119160   3.289   2.848   7.819 -1.4400  1.4665  2.3830
 2567SOL    HW219161   3.291   2.931   7.709  2.5595 -4.0395 -2.9558
 2568SOL     OW19162   2.253   0.494   4.999  0.3524  0.0386 -0.2600
 2568SOL    HW119163   2.321   0.494   4.931  0.2451  3.3584 -0.3473
 2568SOL    HW219164   2.168   0.485   4.957 -0.3909 -0.3845  1.3500
 2569SOL     OW19165   4.238   1.708   0.250 -0.2849 -0.0753 -0.1580
 2569SOL    HW119166   4.214   1.788   0.203  3.9357 -1.1310 -4.1186
 2569SOL    HW219167   4.334   1.706   0.253 -0.2473  1.4576 -0.3746
 2570SOL     OW19168   4.270   0.294   3.924 -0.3743 -0.4578  0.6844
 2570SOL    HW119169   4.255   0.245   3.843  0.6212  0.7681 -0.2492
 2570SOL    HW219170   4.302   0.382   3.905  0.9237 -0.8205  1.1998
 2571SOL     OW19171   1.449   2.082   2.737 -0.3520 -0.6076 -0.2204
 2571SOL    HW119172   1.408   1.998   2.757 -3.3323  0.5413 -1.4867
 2571SOL    HW219173   1.497   2.056   2.658  0.5471  2.0936 -0.5625
 2572SOL     OW19174   2.225   2.368  12.648 -0.6636 -0.6792 -0.5071
 2572SOL    HW119175   2.304   2.396  12.695  0.4871 -2.7818 -1.2111
 2572SOL    HW219176   2.157   2.385  12.714 -1.7890 -0.1597 -1.8123
 2573SOL     OW19177   3.829   4.651   3.221  0.2013  0.5928  0.4918
 2573SOL    HW119178   3.895   4.651   3.290 -1.3595 -0.5015  1.9942
 2573SOL    HW219179   3.836   4.559   3.195  0.0600  0.6707  0.1781
 2574SOL     OW19180   3.054   1.846   7.368  0.1250 -0.1469  0.1044
 2574SOL    HW119181   3.149   1.854   7.358 -0.2900  0.4808 -3.3773
 2574SOL    HW219182   3.022   1.921   7.319  1.2975  0.7954  0.7931
 2575SOL     OW19183   1.369   2.413   3.957 -0.1572  0.5614 -0.3510
 2575SOL    HW119184   1.295   2.472   3.973  0.0058  0.1717  1.8384
 2575SOL    HW219185   1.361   2.363   4.038  2.2427  0.1650 -0.3522
 2576SOL     OW19186   2.513   3.387   4.284  0.2097 -0.3696  0.2311
 2576SOL    HW119187   2.573   3.342   4.343  0.2491 -0.6220 -0.0023
 2576SOL    HW219188   2.540   3.341   4.205  1.3837  0.4501  0.1465
 2577SOL     OW19189   3.219   3.794  10.013 -0.2048 -0.5395 -0.4225
 2577SOL    HW119190   3.285   3.858  10.041 -2.5871  1.7807 -0.0883
 2577SOL    HW219191   3.227   3.715  10.066 -3.7369  0.3824  1.4637
 2578SOL     OW19192   1.844   3.830   3.863  0.6444  0.1985 -0.2649
 2578SOL    HW119193   1.843   3.904   3.923 -0.5194  0.1929 -0.2803
 2578SOL    HW219194   1.931   3.826   3.822  1.2850  1.7667  0.9613
 2579SOL     OW19195   2.122   1.818   0.694 -0.0447 -0.4874 -0.2937
 2579SOL    HW119196   2.185   1.795   0.626  0.0269  1.3702 -0.8563
 2579SOL    HW219197   2.146   1.751   0.759 -0.9878  0.2152  0.7764
 2580SOL     OW19198   0.634   1.388   7.546  0.1416 -0.1354  0.5305
 2580SOL    HW119199   0.669   1.304   7.575  3.0226  1.4212  1.5264
 2580SOL    HW219200   0.683   1.446   7.604  1.9456 -1.9321  0.7823
 2581SOL     OW19201   0.188   0.539   2.649 -0.2510  0.7554  0.5736
 2581SOL    HW119202   0.167   0.570   2.561  0.9955 -1.7048 -0.5694
 2581SOL    HW219203   0.210   0.617   2.700 -1.1684  0.6326  1.1617
 2582SOL     OW19204   0.837   0.502  10.499 -0.2756  0.2429  0.0120
 2582SOL    HW119205   0.824   0.437  10.430  1.2597  1.9669 -1.8668
 2582SOL    HW219206   0.842   0.446  10.577 -0.9280  2.8753  1.9467
 2583SOL     OW19207   0.180   1.954   0.672 -0.1697  0.1085  0.1238
 2583SOL    HW119208   0.214   1.891   0.735  0.5712  0.2786 -0.1057
 2583SOL    HW219209   0.210   1.921   0.588  1.0761  1.4368  0.0487
 2584SOL     OW19210   3.468   0.072   5.870 -0.7445  0.1018 -0.0621
 2584SOL    HW119211   3.520   0.025   5.936 -1.6024 -3.6438 -2.0869
 2584SOL    HW219212   3.488   0.020   5.792 -0.3109  0.1571  0.0127
 2585SOL     OW19213   1.373   1.862   9.542 -0.7791 -0.2701  0.1854
 2585SOL    HW119214   1.323   1.942   9.555 -1.6119 -0.7961  0.2287
 2585SOL    HW219215   1.433   1.861   9.617 -0.1861 -0.6116 -0.2926
 2586SOL     OW19216   1.960   0.229  16.033 -0.3709 -0.0874 -0.0305
 2586SOL    HW119217   2.027   0.286  15.995  0.2705  0.5457  2.0867
 2586SOL    HW219218   2.015   0.153  16.054 -1.2498 -0.7084  0.0450
 2587SOL     OW19219   4.045   0.636   6.280  0.1146  0.4152  0.3342
 2587SOL    HW119220   4.063   0.572   6.349  0.4234 -0.4577 -0.5464
 2587SOL    HW219221   3.994   0.581   6.221  2.5404 -1.7540  0.1966
 2588SOL     OW19222   1.445   2.229   9.427  0.2586 -0.0720  0.0801
 2588SOL    HW119223   1.353   2.202   9.432 -0.6741  3.2265  0.7403
 2588SOL    HW219224   1.475   2.230   9.518  1.0155 -0.6236 -0.1571
 2589SOL     OW19225   1.741   3.213   4.245  0.0464  0.1008  0.0632
 2589SOL    HW119226   1.760   3.246   4.157 -1.2113 -0.1176 -0.2988
 2589SOL    HW219227   1.804   3.144   4.262 -1.7294 -1.5883 -0.2362
 2590SOL     OW19228   1.617   1.483  11.462 -0.3840 -0.3298 -0.1837
 2590SOL    HW119229   1.704   1.446  11.449 -0.8804 -1.2795 -0.8025
 2590SOL    HW219230   1.571   1.400  11.456 -0.5629 -0.0628 -2.8273
 2591SOL     OW19231   0.662   3.291   9.440  0.3839 -0.0295  0.2864
 2591SOL    HW119232   0.710   3.209   9.447 -1.1004 -0.8616  0.6477
 2591SOL    HW219233   0.575   3.260   9.417  0.7012 -1.4765  1.0649
 2592SOL     OW19234   0.121   2.578  14.013  0.0969 -0.3619  0.2981
 2592SOL    HW119235   0.192   2.519  13.986 -1.6924 -2.4259  0.1000
 2592SOL    HW219236   0.152   2.661  13.977  1.1792 -0.3382  1.2794
 2593SOL     OW19237   3.830   3.901   4.367  0.7076  0.0098  0.0574
 2593SOL    HW119238   3.853   3.888   4.275  1.7765 -2.1721  0.6401
 2593SOL    HW219239   3.811   3.994   4.355 -1.6492 -0.3050  1.2650
 2594SOL     OW19240   0.499   1.879  11.195 -0.6885 -0.1411 -0.0712
 2594SOL    HW119241   0.500   1.974  11.181 -0.6904  0.0596  1.3563
 2594SOL    HW219242   0.575   1.867  11.251 -1.2993 -3.8563 -0.0391
 2595SOL     OW19243   0.202   0.229   7.307  0.2433 -0.3668  0.7494
 2595SOL    HW119244   0.198   0.307   7.362  0.0444  0.0556  0.1300
 2595SOL    HW219245   0.235   0.163   7.369  1.9304  2.1331  2.4865
 2596SOL     OW19246   1.525   3.717  13.748 -0.4205 -0.6443 -0.1509
 2596SOL    HW119247   1.465   3.644  13.766 -0.8803 -0.0467  0.7278
 2596SOL    HW219248   1.472   3.795  13.765 -3.3428 -2.6016 -0.1750
 2597SOL     OW19249   3.167   3.935   7.190  0.2371 -0.4645  0.0045
 2597SOL    HW119250   3.251   3.927   7.145  0.0419  1.2320 -0.6300
 2597SOL    HW219251   3.187   3.890   7.272 -1.2281  2.0822  1.7663
 2598SOL     OW19252   0.688   4.648  10.613 -0.5568 -0.6782  0.6911
 2598SOL    HW119253   0.752   4.588  10.575 -2.5410 -2.0356 -0.4794
 2598SOL    HW219254   0.624   4.656  10.543  0.1316 -2.2371 -0.1122
 2599SOL     OW19255   1.780   2.128   5.509 -0.3179 -0.4715 -0.5230
 2599SOL    HW119256   1.797   2.101   5.600  0.1858  1.1878 -0.1270
 2599SOL    HW219257   1.746   2.214   5.534 -0.4906  0.3784 -3.7629
 2600SOL     OW19258   1.551   3.236   3.971  0.2996 -0.1689  0.4517
 2600SOL    HW119259   1.517   3.254   3.884 -2.3805 -0.6158  1.3792
 2600SOL    HW219260   1.527   3.144   3.982  1.3228 -0.3852  0.8326
 2601SOL     OW19261   1.415   4.173   1.570 -0.0317 -0.0277 -0.3227
 2601SOL    HW119262   1.327   4.210   1.573 -1.5737 -3.6568 -1.5381
 2601SOL    HW219263   1.455   4.214   1.493 -1.9235 -1.1804 -1.8929
 2602SOL     OW19264   0.452   3.804  13.092 -0.6503  0.1831  0.0431
 2602SOL    HW119265   0.428   3.883  13.141 -0.1830 -0.1467  0.8011
 2602SOL    HW219266   0.378   3.800  13.032 -0.5892  3.6607 -0.2923
 2603SOL     OW19267   3.343   3.053   3.120  0.0340 -0.0451  0.0154
 2603SOL    HW119268   3.337   2.961   3.145 -1.5529 -0.0149 -0.2128
 2603SOL    HW219269   3.340   3.090   3.208 -0.5179  2.5406 -1.0816
 2604SOL     OW19270   3.831   1.236  13.546  0.2125  0.6745 -0.4387
 2604SOL    HW119271   3.918   1.269  13.523  0.0452  1.8019  0.5198
 2604SOL    HW219272   3.797   1.294  13.615  0.8254 -0.0685  0.4819
 2605SOL     OW19273   2.408   3.005   0.228  0.3542  0.0076 -0.4915
 2605SOL    HW119274   2.329   2.972   0.271  2.0789 -3.9277 -0.3674
 2605SOL    HW219275   2.479   2.957   0.271  0.2605 -0.2037 -0.5748
 2606SOL     OW19276   3.962   2.091  13.225 -0.2477  0.0771  0.2779
 2606SOL    HW119277   3.968   2.027  13.296 -1.1017 -0.2331  0.0762
 2606SOL    HW219278   3.938   2.037  13.149  0.9078 -0.8014  0.5249
 2607SOL     OW19279   1.882   4.493   7.216 -0.1558  0.3880 -0.1523
 2607SOL    HW119280   1.810   4.538   7.259 -0.4886  1.9748 -2.3527
 2607SOL    HW219281   1.959   4.550   7.216 -1.4815  2.1790 -1.0016
 2608SOL     OW19282   1.386   0.240  16.923 -0.2656 -0.1470  0.4673
 2608SOL    HW119283   1.371   0.335  16.929 -0.3839  0.0058 -1.9790
 2608SOL    HW219284   1.336   0.208  16.848  0.1673  0.8580 -0.2646
 2609SOL     OW19285   1.448   0.777   5.976  0.9312  0.2034  0.4758
 2609SOL    HW119286   1.512   0.723   5.928 -1.1218 -1.3421 -0.5293
 2609SOL    HW219287   1.397   0.809   5.901  0.4691  0.2170  0.7971
 2610SOL     OW19288   2.348   1.526  12.503  0.2751 -0.0980 -0.3043
 2610SOL    HW119289   2.407   1.507  12.430 -0.5975 -1.4069 -0.6671
 2610SOL    HW219290   2.286   1.584  12.459 -1.6849 -2.2358 -0.3378
 2611SOL     OW19291   1.503   0.616   4.759 -0.5714  0.3708 -0.0283
 2611SOL    HW119292   1.419   0.569   4.754  0.2509 -0.9008 -1.8407
 2611SOL    HW219293   1.472   0.687   4.704 -0.6468  0.1030 -0.3342
 2612SOL     OW19294   0.452   2.474   8.869  0.1362  0.3050 -0.1903
 2612SOL    HW119295   0.485   2.454   8.781  1.2965 -1.6585  0.6972
 2612SOL    HW219296   0.479   2.394   8.913  0.5934  1.6090  1.8909
 2613SOL     OW19297   1.877   0.503   2.094  0.3515 -0.1564  0.0503
 2613SOL    HW119298   1.841   0.531   2.179  3.4065  2.3173  0.5396
 2613SOL    HW219299   1.854   0.410   2.089  1.8559 -0.6182  1.5163
 2614SOL     OW19300   4.163   3.336   8.627  0.0630 -0.3294  0.1837
 2614SOL    HW119301   4.168   3.356   8.721  2.4982  0.4028 -0.1077
 2614SOL    HW219302   4.250   3.363   8.597 -1.2997  1.6299 -2.0170
 2615SOL     OW19303   3.495   0.524   2.788  0.1073  0.3811  0.2502
 2615SOL    HW119304   3.541   0.446   2.818 -0.9426 -0.2785  0.1294
 2615SOL    HW219305   3.426   0.496   2.727 -0.5595  0.9251  0.7512
 2616SOL     OW19306   2.577   1.872  17.162 -0.0366 -0.3455  0.1889
 2616SOL    HW119307   2.590   1.792  17.213 -1.0237 -0.5050  0.2037
 2616SOL    HW219308   2.645   1.863  17.096  0.2767  0.7662  0.3629
 2617SOL     OW19309   3.159   2.874   8.743  0.4048  0.4253 -0.1256
 2617SOL    HW119310   3.234   2.857   8.799  0.8763 -1.8859 -1.4371
 2617SOL    HW219311   3.083   2.826   8.778 -0.2520 -0.7665 -3.1935
 2618SOL     OW19312   0.543   4.278  13.432  0.6779  0.2462 -0.1542
 2618SOL    HW119313   0.582   4.192  13.450 -1.0340 -0.8623 -1.8105
 2618SOL    HW219314   0.453   4.264  13.460  1.7065 -0.8795  2.5951
 2619SOL     OW19315   3.834   4.254  12.452  0.5640  0.2117 -0.0788
 2619SOL    HW119316   3.757   4.284  12.403  0.9534  0.0039 -0.8168
 2619SOL    HW219317   3.841   4.165  12.419 -2.7836  0.3463 -1.1960
 2620SOL     OW19318   2.278   3.051   8.255  0.4355  0.0726  0.1064
 2620SOL    HW119319   2.255   2.964   8.286  0.2842 -0.4044 -1.3406
 2620SOL    HW219320   2.367   3.034   8.222  0.6182  1.9828 -0.4177
 2621SOL     OW19321   0.863   1.486   9.991  0.0227  1.0347  0.1444
 2621SOL    HW119322   0.841   1.559   9.934 -1.9543  2.1492  2.3443
 2621SOL    HW219323   0.884   1.414   9.932 -1.0807  1.7455 -1.0875
 2622SOL     OW19324   0.702   1.597   2.225 -0.0927  0.1135  0.6834
 2622SOL    HW119325   0.643   1.597   2.150  2.2259  0.4676 -1.1113
 2622SOL    HW219326   0.760   1.668   2.199  0.1559 -0.2371  0.2937
 2623SOL     OW19327   1.688   0.468   4.938 -0.3274 -0.1552  0.3518
 2623SOL    HW119328   1.600   0.485   4.904 -0.1019 -0.1102 -0.2237
 2623SOL    HW219329   1.687   0.543   4.998 -0.2760 -0.7615  1.1036
 2624SOL     OW19330   2.967   3.423   3.583  0.4335 -0.4501 -0.0303
 2624SOL    HW119331   2.890   3.446   3.531  0.4766  0.5913  0.3871
 2624SOL    HW219332   3.010   3.507   3.599 -1.0510 -0.0631  1.9552
 2625SOL     OW19333   4.026   2.318  16.484 -0.4029  0.1079 -0.9659
 2625SOL    HW119334   3.999   2.237  16.441  1.1128 -0.1017 -1.5240
 2625SOL    HW219335   4.117   2.300  16.506 -0.7164 -1.6810 -1.0986
 2626SOL     OW19336   4.403   0.446   5.120  0.8375  0.2801 -0.1563
 2626SOL    HW119337   4.340   0.514   5.097  1.6845  0.6515 -1.3587
 2626SOL    HW219338   4.428   0.460   5.211 -0.1514 -2.5697  0.5530
 2627SOL     OW19339   3.167   3.885   2.818  0.4843 -0.2546  0.9654
 2627SOL    HW119340   3.254   3.921   2.838  1.1094 -0.4039 -1.4921
 2627SOL    HW219341   3.146   3.918   2.731 -4.2985 -1.1121  1.8413
 2628SOL     OW19342   3.898   2.266   9.770 -0.0624  0.4751  0.0133
 2628SOL    HW119343   3.966   2.198   9.778  0.6166  0.7783 -3.2042
 2628SOL    HW219344   3.938   2.333   9.715  2.4528  0.1967  1.4848
 2629SOL     OW19345   1.069   3.571   9.282 -0.1383  0.3887 -0.3467
 2629SOL    HW119346   1.126   3.495   9.295 -1.7948 -0.7508  0.3325
 2629SOL    HW219347   0.993   3.532   9.239 -1.2488 -0.3286  2.2550
 2630SOL     OW19348   2.846   4.392   4.409 -1.1660 -0.4111  0.0675
 2630SOL    HW119349   2.790   4.425   4.339 -1.3060 -0.0236  0.3612
 2630SOL    HW219350   2.929   4.440   4.406 -0.6746 -0.9680  4.3602
 2631SOL     OW19351   1.044   3.488   4.402  0.0838 -0.8586 -0.2794
 2631SOL    HW119352   1.021   3.553   4.467 -2.5087 -1.7100 -0.3502
 2631SOL    HW219353   1.102   3.534   4.341 -1.1250 -0.8506 -1.4214
 2632SOL     OW19354   4.056   4.255  16.097 -0.6818  0.4088  0.2044
 2632SOL    HW119355   4.101   4.198  16.160 -1.8030  1.4626  1.9875
 2632SOL    HW219356   3.966   4.246  16.127 -0.7539  2.5405  0.6170
 2633SOL     OW19357   3.422   0.619   6.655  0.6487 -0.1442  0.2830
 2633SOL    HW119358   3.512   0.589   6.659  1.1173  1.3193  0.9381
 2633SOL    HW219359   3.381   0.582   6.578 -0.8229  0.4920  0.7567
 2634SOL     OW19360   1.075   3.215   2.176  0.6007  0.4824 -0.1691
 2634SOL    HW119361   1.167   3.238   2.188  0.4526  0.1881  1.4098
 2634SOL    HW219362   1.091   3.163   2.097  0.9491 -1.7247  1.3474
 2635SOL     OW19363   4.653   1.731   7.908  0.3440  0.6581 -0.2355
 2635SOL    HW119364   4.568   1.723   7.865 -0.4351 -1.8530  1.7855
 2635SOL    HW219365   4.640   1.815   7.952  0.1323  0.7328 -0.4404
 2636SOL     OW19366   3.812   3.273   8.033 -0.3547  0.1014  0.4122
 2636SOL    HW119367   3.842   3.185   8.055 -2.2344 -0.2745  1.4529
 2636SOL    HW219368   3.834   3.326   8.109  1.2844 -0.2020  0.1525
 2637SOL     OW19369   3.802   2.542   1.278 -0.3188 -0.2587 -0.2134
 2637SOL    HW119370   3.842   2.565   1.362  0.1375  2.1609 -1.0915
 2637SOL    HW219371   3.883   2.545   1.227 -0.3126 -0.8063 -0.2400
 2638SOL     OW19372   3.321   0.892   4.255  0.6611  1.1283  0.1736
 2638SOL    HW119373   3.342   0.809   4.297  0.9958  1.3543  0.4550
 2638SOL    HW219374   3.280   0.942   4.326 -1.1171 -1.4186  0.9218
 2639SOL     OW19375   0.537   4.154   6.285  0.6770  0.1109  0.1789
 2639SOL    HW119376   0.476   4.211   6.238  0.1388  1.5827  2.6574
 2639SOL    HW219377   0.510   4.154   6.377  0.7619 -3.1037  0.1931
 2640SOL     OW19378   1.940   0.430  12.672 -0.5616 -0.5550  0.8282
 2640SOL    HW119379   1.958   0.394  12.585 -1.2536  0.5925  0.2098
 2640SOL    HW219380   1.959   0.523  12.665  0.2581 -0.9770 -2.6332
 2641SOL     OW19381   1.966   3.622  11.045  0.2942  0.1147 -0.8161
 2641SOL    HW119382   2.011   3.673  11.113 -1.9484  2.8148 -1.3487
 2641SOL    HW219383   1.939   3.690  10.984  2.0178  0.9086 -0.7071
 2642SOL     OW19384   3.326   2.744   3.555  0.0717  0.1298 -0.2753
 2642SOL    HW119385   3.402   2.704   3.597 -1.5834 -2.2019  0.4459
 2642SOL    HW219386   3.254   2.713   3.609  1.8427  1.0167  2.5718
 2643SOL     OW19387   0.675   2.680   0.371 -0.1454  0.1183  0.2622
 2643SOL    HW119388   0.769   2.666   0.362  0.0527  0.9416  1.0118
 2643SOL    HW219389   0.639   2.591   0.376  1.0389 -0.3953 -0.4891
 2644SOL     OW19390   3.666   0.854   8.333 -0.1092 -0.5688  0.0890
 2644SOL    HW119391   3.682   0.760   8.325  1.5153 -0.4594  2.1444
 2644SOL    HW219392   3.615   0.872   8.254  0.0078 -0.1614  0.1090
 2645SOL     OW19393   1.221   0.145  13.378 -0.1603 -0.8981 -0.3699
 2645SOL    HW119394   1.245   0.108  13.463 -0.1493  1.6965  0.7495
 2645SOL    HW219395   1.299   0.113  13.332 -1.5126 -3.0806 -1.1941
 2646SOL     OW19396   1.393   3.296   8.977  0.4753  0.1044  0.4037
 2646SOL    HW119397   1.408   3.260   8.890  2.8725  1.4826  0.2451
 2646SOL    HW219398   1.307   3.334   8.959  0.7058  1.1920  1.5439
 2647SOL     OW19399   0.552   0.566   7.366 -0.3451 -0.0417 -0.4445
 2647SOL    HW119400   0.641   0.531   7.369 -0.0741  0.8018  1.2106
 2647SOL    HW219401   0.565   0.660   7.377  2.9221 -0.5731  0.1907
 2648SOL     OW19402   3.086   0.096   7.648  0.2073 -0.1317  0.2816
 2648SOL    HW119403   3.012   0.086   7.708  1.3037  1.7786  1.9487
 2648SOL    HW219404   3.066   0.029   7.583 -0.0209  0.8629 -0.6648
 2649SOL     OW19405   1.108   3.237   2.886  0.1026  0.4585  0.0989
 2649SOL    HW119406   1.126   3.149   2.921 -0.1830  1.3375  2.4366
 2649SOL    HW219407   1.194   3.279   2.894 -0.0463  0.8061 -0.1380
 2650SOL     OW19408   2.492   3.306   7.092 -0.4979  0.6930  0.1245
 2650SOL    HW119409   2.480   3.290   6.998  1.0306  1.1403 -0.1445
 2650SOL    HW219410   2.417   3.267   7.137  0.8536 -1.4910  0.4918
 2651SOL     OW19411   3.751   2.058   8.815  0.2273  0.0114 -0.3076
 2651SOL    HW119412   3.662   2.037   8.788  0.6879  0.8441 -2.5076
 2651SOL    HW219413   3.770   2.129   8.753  0.0487 -0.7737 -1.2691
 2652SOL     OW19414   1.434   0.430   8.226 -0.0336  0.0089 -0.3706
 2652SOL    HW119415   1.446   0.428   8.321 -0.1334  1.1607 -0.3347
 2652SOL    HW219416   1.338   0.433   8.221 -0.2433 -1.1145  2.9665
 2653SOL     OW19417   1.006   4.687   7.368  0.1405  0.4438 -0.4381
 2653SOL    HW119418   1.028   4.628   7.295  1.5711 -0.9402  1.0941
 2653SOL    HW219419   0.911   4.686   7.367  0.1478  0.3646 -1.0254
 2654SOL     OW19420   2.071   1.963   6.936  0.4241  0.7917 -0.0385
 2654SOL    HW119421   2.151   2.010   6.957  0.2996  0.6287  0.8157
 2654SOL    HW219422   2.021   2.038   6.905  0.3465  1.3259  1.3939
 2655SOL     OW19423   3.496   0.752  17.180  0.4394 -0.8460  0.3086
 2655SOL    HW119424   3.588   0.760  17.206  0.3248 -0.8181  0.7019
 2655SOL    HW219425   3.493   0.658  17.168  0.8702 -0.7094 -0.8827
 2656SOL     OW19426   3.419   2.578   8.189 -0.0057 -0.4609  0.3450
 2656SOL    HW119427   3.509   2.567   8.158 -0.5374 -1.1214 -0.9241
 2656SOL    HW219428   3.427   2.649   8.254  1.3787 -0.5429  0.2711
 2657SOL     OW19429   0.445   0.682   2.043 -0.1395 -0.2729 -0.3398
 2657SOL    HW119430   0.428   0.675   2.137  0.0161 -1.5265 -0.3967
 2657SOL    HW219431   0.525   0.631   2.032 -0.3293 -0.3664 -1.2531
 2658SOL     OW19432   3.024   3.452  15.003 -0.7735 -0.3506 -0.4770
 2658SOL    HW119433   3.079   3.382  14.968 -1.0044 -0.2298 -1.0704
 2658SOL    HW219434   2.944   3.452  14.950 -0.5955  1.4388 -0.7338
 2659SOL     OW19435   1.588   0.350  12.111  0.7022 -0.0946 -0.2316
 2659SOL    HW119436   1.648   0.422  12.129 -3.0195  2.4414  2.1143
 2659SOL    HW219437   1.648   0.276  12.114 -0.0882 -0.7567 -0.7397
 2660SOL     OW19438   1.503   2.497   3.572  0.0454  0.2369 -0.0843
 2660SOL    HW119439   1.411   2.501   3.598 -0.5980  0.3083 -2.3889
 2660SOL    HW219440   1.517   2.575   3.519  0.0995  0.4010  0.1739
 2661SOL     OW19441   3.947   1.571   2.633 -0.4769 -0.3326  0.0093
 2661SOL    HW119442   4.031   1.526   2.643  2.2799  4.5204 -0.9217
 2661SOL    HW219443   3.969   1.645   2.576 -1.5678 -1.3373 -1.7086
 2662SOL     OW19444   3.698   1.583   6.770  0.1910  0.2055 -0.2613
 2662SOL    HW119445   3.640   1.588   6.694  0.4673 -2.3106 -0.6151
 2662SOL    HW219446   3.744   1.666   6.761  2.0644 -0.9009 -0.8195
 2663SOL     OW19447   4.301   4.483  12.140  0.4977 -0.2927 -0.2240
 2663SOL    HW119448   4.270   4.524  12.221 -0.9451 -2.4823  0.3449
 2663SOL    HW219449   4.392   4.462  12.159  0.6492 -0.6678 -1.3801
 2664SOL     OW19450   1.976   3.135   4.651 -0.0614 -0.0750  0.3920
 2664SOL    HW119451   1.894   3.092   4.628  0.2512  0.4904 -1.8172
 2664SOL    HW219452   1.975   3.220   4.607  1.3228 -0.1754  0.1659
 2665SOL     OW19453   0.682   2.531  13.878 -0.1866 -0.5652 -0.3302
 2665SOL    HW119454   0.636   2.603  13.921 -1.2193  0.0426 -2.4665
 2665SOL    HW219455   0.676   2.561  13.787 -0.5789  0.7793  0.1464
 2666SOL     OW19456   4.158   0.784   6.086  0.4182  0.1572  0.0551
 2666SOL    HW119457   4.080   0.770   6.139  1.6818 -2.4486  1.2220
 2666SOL    HW219458   4.208   0.702   6.089 -0.4749 -0.4579 -2.0039
 2667SOL     OW19459   3.168   1.238   2.997 -0.3378  0.4743 -0.1403
 2667SOL    HW119460   3.246   1.253   2.943 -1.7819  1.7914 -1.8799
 2667SOL    HW219461   3.212   1.231   3.081  1.3865  1.6491 -0.9371
 2668SOL     OW19462   3.008   3.030   6.695  0.1309 -0.0995  0.1603
 2668SOL    HW119463   3.089   2.984   6.718 -1.0220 -2.6687 -0.9545
 2668SOL    HW219464   2.973   3.052   6.781  0.6725  2.1175 -0.1702
 2669SOL     OW19465   2.268   3.603   3.537  0.0513 -0.7327  0.2574
 2669SOL    HW119466   2.236   3.549   3.609 -1.1658  2.4578  2.1223
 2669SOL    HW219467   2.272   3.538   3.467 -1.0492  0.8706 -1.2972
 2670SOL     OW19468   2.519   0.817  15.179 -0.0413  0.0331 -0.4322
 2670SOL    HW119469   2.485   0.742  15.228  1.0266  2.5545  4.1629
 2670SOL    HW219470   2.522   0.771  15.095 -1.2807 -1.9698  0.6192
 2671SOL     OW19471   3.528   0.172  16.851 -0.6097 -0.0258  0.2239
 2671SOL    HW119472   3.576   0.093  16.830 -1.8080 -0.5510 -0.5045
 2671SOL    HW219473   3.455   0.153  16.792  2.1220 -0.1291 -3.0974
 2672SOL     OW19474   3.578   3.332   4.247 -0.8467 -0.5912  0.0760
 2672SOL    HW119475   3.625   3.266   4.297 -0.5726  0.0981  0.7326
 2672SOL    HW219476   3.592   3.408   4.304  1.3160  0.5303 -1.9374
 2673SOL     OW19477   0.677   1.326   8.545  0.2435 -0.5583 -0.1175
 2673SOL    HW119478   0.720   1.350   8.463  0.6330 -1.3551 -0.1441
 2673SOL    HW219479   0.732   1.255   8.579 -0.7642 -1.4711 -0.4026
 2674SOL     OW19480   4.034   3.498  12.560 -0.8883  0.3587 -0.0635
 2674SOL    HW119481   4.058   3.517  12.470 -0.1969 -0.7341 -0.1061
 2674SOL    HW219482   3.973   3.571  12.575 -1.4976  0.2414 -2.0835
 2675SOL     OW19483   3.830   3.051  14.784  0.7957 -0.0831 -0.3281
 2675SOL    HW119484   3.753   3.106  14.791  0.0986 -1.3021  1.6433
 2675SOL    HW219485   3.854   3.083  14.697 -1.0932  2.4105  0.0806
 2676SOL     OW19486   1.087   4.277   7.883  0.9557  0.0956 -0.5713
 2676SOL    HW119487   1.068   4.346   7.947 -0.3125 -2.6749  2.0773
 2676SOL    HW219488   1.178   4.296   7.861  1.0439 -0.3829 -0.6127
 2677SOL     OW19489   2.952   1.155  11.604 -0.4614 -0.4787  0.0832
 2677SOL    HW119490   2.948   1.130  11.512 -1.6659  0.3035 -0.0703
 2677SOL    HW219491   3.011   1.230  11.594 -2.6805  1.0459 -1.5654
 2678SOL     OW19492   2.607   1.261   5.113 -0.2486 -0.3081 -0.5828
 2678SOL    HW119493   2.686   1.290   5.068 -1.7927  0.5832 -2.7238
 2678SOL    HW219494   2.634   1.287   5.201  1.6542 -0.5931 -1.0949
 2679SOL     OW19495   4.367   0.108  13.198 -0.8766 -0.2176  0.5699
 2679SOL    HW119496   4.440   0.063  13.155  0.0928  1.5776  0.3451
 2679SOL    HW219497   4.290   0.065  13.162 -1.1651  0.6169  0.1773
 2680SOL     OW19498   3.037   3.609   4.822 -0.6169 -0.3482  0.5003
 2680SOL    HW119499   3.006   3.539   4.880  1.3558 -0.5423  1.3029
 2680SOL    HW219500   3.120   3.628   4.866  0.3365 -1.3800 -0.8593
 2681SOL     OW19501   1.551   0.160  11.241  0.0058  0.2890  0.0380
 2681SOL    HW119502   1.605   0.092  11.201 -0.1735  1.0059 -1.4527
 2681SOL    HW219503   1.515   0.203  11.163 -0.3880  1.0126  0.6121
 2682SOL     OW19504   2.370   4.284   4.115  0.9975  0.3884 -0.5110
 2682SOL    HW119505   2.454   4.329   4.122  0.9582  0.6231 -1.6429
 2682SOL    HW219506   2.333   4.330   4.040  2.5332 -1.2321 -2.2627
 2683SOL     OW19507   3.093   3.364   4.269 -0.2242  0.6129 -0.1446
 2683SOL    HW119508   3.166   3.313   4.231 -0.4746 -1.6472  2.4077
 2683SOL    HW219509   3.025   3.351   4.203  1.0183  0.1348 -1.3595
 2684SOL     OW19510   2.041   0.552   6.269  0.2405  0.0689  0.2945
 2684SOL    HW119511   1.959   0.504   6.255  0.5985  0.2666 -2.3490
 2684SOL    HW219512   2.004   0.626   6.318 -1.1545  0.7500 -1.7950
 2685SOL     OW19513   3.979   2.012   8.941  0.2696 -0.2669 -0.0166
 2685SOL    HW119514   4.036   2.064   8.884  1.9592 -0.7149  1.3048
 2685SOL    HW219515   3.897   2.021   8.892 -0.6616 -1.4083  1.3499
 2686SOL     OW19516   0.783   0.675   5.145 -0.1468  0.4129  0.5445
 2686SOL    HW119517   0.833   0.748   5.181  1.2342  0.7326 -2.0470
 2686SOL    HW219518   0.820   0.660   5.058 -0.2742  1.0926  0.3760
 2687SOL     OW19519   1.928   0.084   6.457  0.0702  0.2434  0.0997
 2687SOL    HW119520   1.876   0.062   6.534 -0.5744  0.8270 -0.1613
 2687SOL    HW219521   1.989   0.150   6.490 -0.7389  0.7977  0.4907
 2688SOL     OW19522   0.881   0.512   7.101 -0.0893 -0.0712  0.1263
 2688SOL    HW119523   0.798   0.558   7.091 -0.6320 -0.9203  0.7685
 2688SOL    HW219524   0.899   0.532   7.193  0.9826  0.5854 -0.2278
 2689SOL     OW19525   3.770   0.111  11.866  0.0349 -0.0836  1.0340
 2689SOL    HW119526   3.711   0.149  11.931 -2.9606 -0.7172 -1.3012
 2689SOL    HW219527   3.846   0.166  11.880 -0.6692  1.4507 -1.2322
 2690SOL     OW19528   3.015   2.047  10.526 -0.0945  0.6643  0.0420
 2690SOL    HW119529   3.015   2.062  10.620 -1.5018 -0.1546  0.1623
 2690SOL    HW219530   3.004   1.952  10.522  1.5936  0.5466 -1.7708
 2691SOL     OW19531   3.067   3.193  12.228 -0.2276  0.0993  0.3601
 2691SOL    HW119532   3.014   3.114  12.222 -0.2353  0.2411 -1.4771
 2691SOL    HW219533   3.005   3.255  12.266 -1.5060 -0.7183 -0.3543
 2692SOL     OW19534   0.746   0.546   2.230 -0.2194  0.1425 -0.0882
 2692SOL    HW119535   0.755   0.488   2.306  2.5735  0.0172 -0.5182
 2692SOL    HW219536   0.760   0.630   2.274  0.3855  0.5684 -1.0819
 2693SOL     OW19537   3.576   3.248   8.390 -0.1724 -0.2800 -0.4233
 2693SOL    HW119538   3.667   3.220   8.378 -0.4507 -1.9661  1.3082
 2693SOL    HW219539   3.571   3.272   8.483  0.5700 -1.6741 -0.0212
 2694SOL     OW19540   3.985   0.042   2.980 -0.2402 -0.8010 -0.1455
 2694SOL    HW119541   3.919   4.708   3.022  0.1922 -0.6404  0.7323
 2694SOL    HW219542   3.956   0.044   2.889 -1.0101  0.9066  0.1402
 2695SOL     OW19543   1.828   1.641  10.566  0.3665 -0.0565 -0.3815
 2695SOL    HW119544   1.869   1.614  10.648  1.0635  2.4525  0.0668
 2695SOL    HW219545   1.859   1.727  10.541 -1.3634  0.6192 -0.2381
 2696SOL     OW19546   0.199   3.663   2.865  0.2298  0.3990 -0.1757
 2696SOL    HW119547   0.135   3.715   2.815 -3.5425 -0.5204  3.7598
 2696SOL    HW219548   0.271   3.653   2.802  1.0782  0.8406  0.7179
 2697SOL     OW19549   3.369   3.413   1.540 -0.2245 -0.5701 -0.3462
 2697SOL    HW119550   3.346   3.379   1.626  1.1388 -0.6281 -0.0120
 2697SOL    HW219551   3.306   3.485   1.530  0.9400  0.5577  0.5093
 2698SOL     OW19552   3.856   0.036   3.730 -0.2983 -0.3517  0.0511
 2698SOL    HW119553   3.828   0.047   3.821 -2.0571  2.2443 -0.7959
 2698SOL    HW219554   3.929   0.096   3.718  1.2395 -1.3875  4.2981
 2699SOL     OW19555   3.057   1.339   0.628  0.0374 -0.4682  0.5172
 2699SOL    HW119556   2.973   1.376   0.601 -1.1420 -1.4951  2.7165
 2699SOL    HW219557   3.115   1.404   0.589 -1.1643 -1.0246 -2.1997
 2700SOL     OW19558   2.340   2.138   5.663 -0.4486 -0.2374  0.1610
 2700SOL    HW119559   2.280   2.064   5.677 -0.4646 -0.5488 -1.4921
 2700SOL    HW219560   2.277   2.210   5.661  0.2385  0.3503 -0.1687
 2701SOL     OW19561   2.922   3.050   9.673 -0.0315 -0.4603 -0.4106
 2701SOL    HW119562   2.952   3.018   9.588  0.9603  0.8008 -0.5397
 2701SOL    HW219563   2.835   3.069   9.639  0.5655  0.3450 -1.4930
 2702SOL     OW19564   1.758   1.687  17.096 -0.7663  0.1601 -0.2463
 2702SOL    HW119565   1.851   1.687  17.121 -1.0471  0.3047  0.7646
 2702SOL    HW219566   1.778   1.666  17.004  0.1619  2.0075 -0.4752
 2703SOL     OW19567   3.375   3.266   4.503  0.1716  0.5541 -0.3544
 2703SOL    HW119568   3.365   3.360   4.490  1.5091  0.5769 -1.1539
 2703SOL    HW219569   3.351   3.225   4.420  1.7179  1.8367 -1.4161
 2704SOL     OW19570   0.909   0.560   4.950  0.5139 -0.0152 -0.5965
 2704SOL    HW119571   0.953   0.569   4.865 -2.4219 -1.0678 -2.2519
 2704SOL    HW219572   0.931   0.469   4.970 -0.2837 -0.3298 -1.1292
 2705SOL     OW19573   2.347   1.514   4.388  0.2468 -0.0877  0.4250
 2705SOL    HW119574   2.276   1.450   4.386 -0.0231  0.2715 -1.0382
 2705SOL    HW219575   2.416   1.449   4.403  1.1670  0.8407  0.2342
 2706SOL     OW19576   1.654   2.842   4.864 -0.7274 -0.0712  0.0564
 2706SOL    HW119577   1.684   2.922   4.907  1.4119 -0.2680 -1.0793
 2706SOL    HW219578   1.642   2.871   4.773  0.6914 -0.9773 -0.4056
 2707SOL     OW19579   0.595   4.447   4.931  0.6728  0.6495 -0.2210
 2707SOL    HW119580   0.559   4.524   4.887  0.6382  0.0884 -1.1691
 2707SOL    HW219581   0.528   4.382   4.909  1.1460 -1.3044  4.0616
 2708SOL     OW19582   0.277   2.216  16.319 -0.0422 -0.1076  0.4292
 2708SOL    HW119583   0.265   2.293  16.375 -0.4807  0.0404  0.1281
 2708SOL    HW219584   0.360   2.228  16.274 -1.5861 -0.2663 -2.4359
 2709SOL     OW19585   4.139   3.878   9.420 -0.0509 -0.0811 -0.1023
 2709SOL    HW119586   4.224   3.872   9.377 -0.8893  1.8430 -2.0238
 2709SOL    HW219587   4.122   3.784   9.423  1.3507 -0.3963 -1.8056
 2710SOL     OW19588   2.778   4.004   8.061 -0.1091  0.2717 -0.0826
 2710SOL    HW119589   2.802   4.042   8.145  2.1655 -0.3492 -0.4709
 2710SOL    HW219590   2.834   3.927   8.054  1.6312  1.6488 -1.3441
 2711SOL     OW19591   0.968   1.852   2.763  0.6084  0.2025  0.3862
 2711SOL    HW119592   0.974   1.843   2.668 -2.1384 -0.0105  0.2374
 2711SOL    HW219593   1.004   1.938   2.783  1.3482  0.1817 -0.8386
 2712SOL     OW19594   3.312   2.271   5.891  0.1697  0.0234  0.6074
 2712SOL    HW119595   3.375   2.257   5.820  1.0829 -2.2263  1.8707
 2712SOL    HW219596   3.261   2.190   5.889  0.4602 -0.1341 -0.3914
 2713SOL     OW19597   0.056   2.373  16.040  0.5131 -0.0602  0.2340
 2713SOL    HW119598   0.129   2.414  16.086 -0.4409  1.6164  0.2576
 2713SOL    HW219599   0.023   2.319  16.111 -0.3854  0.2177  0.0284
 2714SOL     OW19600   0.385   4.316   5.355 -0.3338 -0.0145  0.2609
 2714SOL    HW119601   0.384   4.405   5.389  0.2380  0.8625 -2.0238
 2714SOL    HW219602   0.365   4.339   5.264 -0.9219  0.7246  0.5769
 2715SOL     OW19603   1.792   1.302  10.538  0.0618 -0.2835  0.3458
 2715SOL    HW119604   1.770   1.290  10.630 -1.5335  2.4855  0.3193
 2715SOL    HW219605   1.745   1.229  10.499  0.3450  0.3856 -1.2383
 2716SOL     OW19606   3.257   1.813  17.328 -0.5380  0.1617  0.1877
 2716SOL    HW119607   3.167   1.805  17.295 -0.6008  2.2917 -0.1882
 2716SOL    HW219608   3.247   1.778  17.417 -0.7448  0.4367  0.2718
 2717SOL     OW19609   3.962   0.049   2.706  0.4288  0.3938  0.0056
 2717SOL    HW119610   4.001   4.708   2.645 -1.0480  0.1034 -0.6404
 2717SOL    HW219611   3.896   0.093   2.653  1.5559  3.2290  0.9202
 2718SOL     OW19612   2.142   2.713  16.747 -0.2102 -0.5488 -0.3017
 2718SOL    HW119613   2.078   2.723  16.677 -0.1344  0.3441 -0.2447
 2718SOL    HW219614   2.224   2.705  16.698  1.0720 -1.0214  1.9120
 2719SOL     OW19615   2.341   3.991   3.058 -0.0315 -0.4874  0.1013
 2719SOL    HW119616   2.421   4.034   3.087  0.5022 -1.3969 -0.0412
 2719SOL    HW219617   2.294   3.977   3.141  0.5909 -0.4358  0.4655
 2720SOL     OW19618   4.046   0.306   0.919 -0.0408 -0.0263  0.3637
 2720SOL    HW119619   4.075   0.216   0.901  0.9962  0.7591 -1.9442
 2720SOL    HW219620   4.129   0.354   0.924 -0.1306 -0.0442  1.9597
 2721SOL     OW19621   0.607   3.357   8.645  0.0628  0.4968 -0.1941
 2721SOL    HW119622   0.592   3.291   8.713  1.5422 -0.6861 -1.0154
 2721SOL    HW219623   0.603   3.438   8.696 -0.3374  1.4380 -1.7219
 2722SOL     OW19624   4.571   3.504   1.081  0.0921  0.3277 -0.0070
 2722SOL    HW119625   4.653   3.465   1.108  0.9770  0.8589 -1.9098
 2722SOL    HW219626   4.525   3.431   1.039  0.1246 -0.1342  0.7696
 2723SOL     OW19627   3.999   2.143   4.908 -0.2068  0.3085  0.1675
 2723SOL    HW119628   4.012   2.208   4.839  1.9550  0.2970  0.5789
 2723SOL    HW219629   4.062   2.168   4.975  0.5228  0.6168 -0.6494
 2724SOL     OW19630   0.531   2.036  14.465 -1.0633  0.0496 -0.2871
 2724SOL    HW119631   0.435   2.033  14.464 -1.0403 -0.4813 -0.5722
 2724SOL    HW219632   0.561   1.947  14.453  1.6844  0.9598 -0.1138
 2725SOL     OW19633   1.760   0.816   7.324 -0.0212 -0.5095  0.2909
 2725SOL    HW119634   1.715   0.876   7.265  0.4543 -0.5520 -0.1152
 2725SOL    HW219635   1.721   0.852   7.404 -2.6508  0.9753 -1.6641
 2726SOL     OW19636   4.253   2.889   8.731  0.4284  0.1566 -0.4238
 2726SOL    HW119637   4.248   2.971   8.681  0.5734  1.1953  1.2603
 2726SOL    HW219638   4.325   2.915   8.789  1.9578 -1.0741 -1.7574
 2727SOL     OW19639   0.255   3.072   8.337 -0.0213  0.1945 -0.4992
 2727SOL    HW119640   0.265   3.125   8.416  1.2022  2.0087 -1.8789
 2727SOL    HW219641   0.343   3.075   8.300  1.4689 -0.3820  2.9989
 2728SOL     OW19642   4.405   1.596   8.381  0.0666 -0.2947  0.4227
 2728SOL    HW119643   4.450   1.512   8.387 -1.4041 -1.1308 -0.4220
 2728SOL    HW219644   4.359   1.604   8.464 -1.8544 -0.9066 -0.5859
 2729SOL     OW19645   2.024   4.100   9.654  0.4219  0.3690  0.1916
 2729SOL    HW119646   2.044   4.012   9.687 -0.3843  0.4934  0.9827
 2729SOL    HW219647   1.945   4.125   9.701  0.1674 -0.3745  0.1718
 2730SOL     OW19648   2.450   3.920   5.768  0.4103  0.2571 -0.1750
 2730SOL    HW119649   2.358   3.903   5.786  0.5287 -2.8696 -2.5612
 2730SOL    HW219650   2.456   4.015   5.779  1.1251  0.0943  0.7874
 2731SOL     OW19651   0.054   3.817   7.144 -0.1128  0.1005 -0.3852
 2731SOL    HW119652   0.068   3.784   7.233  2.1648 -4.1713 -2.3022
 2731SOL    HW219653   0.079   3.909   7.152 -0.0716  0.0275  0.3384
 2732SOL     OW19654   2.951   1.316   1.872 -0.1912 -0.4919  0.2960
 2732SOL    HW119655   2.974   1.230   1.908 -0.0655 -0.6549 -0.1736
 2732SOL    HW219656   3.036   1.359   1.863 -0.5554  0.0096 -0.6892
 2733SOL     OW19657   3.269   4.492   6.070  0.2578  0.3572  0.0561
 2733SOL    HW119658   3.177   4.515   6.083  1.2049  2.8901  2.4894
 2733SOL    HW219659   3.290   4.540   5.990  0.0029  0.4326  0.0352
 2734SOL     OW19660   3.396   3.435   5.013 -0.2674  0.2561 -0.0422
 2734SOL    HW119661   3.333   3.364   5.001 -1.0135  0.8104  0.6394
 2734SOL    HW219662   3.435   3.408   5.096  0.6078 -0.4371 -0.6791
 2735SOL     OW19663   4.163   4.422   4.173  0.0232  0.2790 -0.0760
 2735SOL    HW119664   4.098   4.472   4.222  0.1404 -0.7705  1.1773
 2735SOL    HW219665   4.237   4.415   4.234 -0.5208  1.4669  0.7173
 2736SOL     OW19666   4.306   3.547   5.668 -0.1567  0.2048 -0.0814
 2736SOL    HW119667   4.241   3.598   5.619 -0.0945  1.1304  0.8126
 2736SOL    HW219668   4.352   3.497   5.601  0.6753  0.9351 -0.0484
 2737SOL     OW19669   0.528   3.366   3.701  0.4283 -0.1801 -0.7511
 2737SOL    HW119670   0.534   3.284   3.651 -0.2587 -0.5287 -0.2565
 2737SOL    HW219671   0.506   3.433   3.637  4.7108 -0.3017 -2.3883
 2738SOL     OW19672   1.969   0.577   6.986 -0.3429 -0.2972 -0.0680
 2738SOL    HW119673   1.952   0.568   7.079  0.2278  0.5385  0.1117
 2738SOL    HW219674   1.952   0.670   6.975 -0.0205 -0.2354 -0.0371
 2739SOL     OW19675   4.118   0.520   8.737 -0.4213  0.5248 -0.8427
 2739SOL    HW119676   4.205   0.479   8.733  0.1327  1.5683  0.4834
 2739SOL    HW219677   4.137   0.608   8.770 -0.7810  0.0999  0.4827
 2740SOL     OW19678   1.607   3.442  12.361  0.5740  0.1665 -1.2083
 2740SOL    HW119679   1.676   3.382  12.335  1.7011  2.6432 -3.9725
 2740SOL    HW219680   1.653   3.506  12.416 -0.0658  1.2676 -1.9387
 2741SOL     OW19681   2.682   1.253   0.302  0.2926 -0.3201  0.0677
 2741SOL    HW119682   2.611   1.192   0.322 -0.4653  1.2051  1.9984
 2741SOL    HW219683   2.672   1.306   0.381  2.2477  1.0174 -0.6111
 2742SOL     OW19684   0.633   3.367   4.350 -0.3289 -0.2171 -0.1083
 2742SOL    HW119685   0.552   3.335   4.388  0.1708 -0.3953  0.8149
 2742SOL    HW219686   0.695   3.358   4.422  1.0079  1.0917 -1.1016
 2743SOL     OW19687   1.806   4.495   3.197  0.2116  0.0781  0.2289
 2743SOL    HW119688   1.833   4.586   3.212 -0.1231  0.1500  0.3862
 2743SOL    HW219689   1.871   4.474   3.130  0.6689  1.7270  0.1316
 2744SOL     OW19690   0.010   4.385   5.419 -0.2607 -0.4789 -0.2782
 2744SOL    HW119691   0.039   4.426   5.338 -0.4988 -1.6989 -0.9923
 2744SOL    HW219692   0.014   4.295   5.386 -0.7042 -1.1620  1.5442
 2745SOL     OW19693   4.615   0.661  16.879 -0.3761 -0.1132 -0.2588
 2745SOL    HW119694   4.551   0.731  16.867  1.1663  0.8357 -2.9019
 2745SOL    HW219695   4.625   0.649  16.973  1.5413 -1.6041 -0.6415
 2746SOL     OW19696   4.695   1.160   1.492  0.6001 -0.0487  0.1029
 2746SOL    HW119697   0.042   1.157   1.558 -0.1412  1.4251  0.9310
 2746SOL    HW219698   4.620   1.153   1.552 -1.2029 -2.6665 -2.4210
 2747SOL     OW19699   4.290   2.650  14.108  0.5426  0.4398 -0.1649
 2747SOL    HW119700   4.316   2.707  14.036 -0.7089  1.5482  0.2529
 2747SOL    HW219701   4.371   2.606  14.133  1.0830  0.2079 -2.2999
 2748SOL     OW19702   4.394   4.709  16.419 -0.3708  0.1137  0.6371
 2748SOL    HW119703   4.384   4.634  16.360  1.9793 -0.9241  1.5527
 2748SOL    HW219704   4.395   4.659  16.500  0.5274 -0.1953  0.4371
 2749SOL     OW19705   2.631   4.042   7.843 -0.6270  0.1108  0.3550
 2749SOL    HW119706   2.680   4.011   7.918  1.2542 -1.4067 -1.5093
 2749SOL    HW219707   2.618   3.965   7.786 -3.8275 -0.0797  1.3080
 2750SOL     OW19708   2.983   1.203   8.483 -0.0869  0.2783  0.0232
 2750SOL    HW119709   3.019   1.151   8.555 -1.0489  0.3044  0.5167
 2750SOL    HW219710   3.066   1.204   8.436 -0.0253  0.5142  0.1353
 2751SOL     OW19711   4.397   1.240  13.172  0.1159  0.4873 -0.0140
 2751SOL    HW119712   4.318   1.268  13.126 -0.2834 -1.9110 -0.7858
 2751SOL    HW219713   4.365   1.243  13.263 -3.6570 -0.5030 -1.3276
 2752SOL     OW19714   3.718   3.838   3.355  0.0355 -0.1455 -0.3218
 2752SOL    HW119715   3.664   3.915   3.371  0.1628  0.5120 -3.1197
 2752SOL    HW219716   3.808   3.870   3.346 -0.6188  1.4085 -1.3579
 2753SOL     OW19717   3.573   3.780   7.347 -0.3604 -0.5468  0.3721
 2753SOL    HW119718   3.512   3.825   7.405 -0.4049 -1.6797  1.2041
 2753SOL    HW219719   3.661   3.791   7.384 -0.7004  0.3646  0.8934
 2754SOL     OW19720   3.202   2.932   4.032 -0.5842  0.2602  0.0958
 2754SOL    HW119721   3.253   2.938   3.951 -2.0548  0.0131 -0.8370
 2754SOL    HW219722   3.169   3.022   4.036 -0.4667  0.3151 -0.2397
 2755SOL     OW19723   0.244   0.098   8.938 -0.0290 -0.7415  0.1640
 2755SOL    HW119724   0.258   0.190   8.915  1.3604 -0.3152  2.6994
 2755SOL    HW219725   0.326   0.072   8.980  0.6524  0.5388 -0.3704
 2756SOL     OW19726   3.366   2.123   2.835  0.0250 -0.8560 -0.3442
 2756SOL    HW119727   3.433   2.169   2.885 -0.4917 -3.1780  2.4429
 2756SOL    HW219728   3.421   2.117   2.756  0.0666  0.9172 -0.4463
 2757SOL     OW19729   2.646   1.650   7.970 -0.7176 -0.1432 -0.7048
 2757SOL    HW119730   2.702   1.574   7.959 -0.4352 -0.1334  0.6932
 2757SOL    HW219731   2.570   1.636   7.913 -0.0248 -1.2076 -1.3457
 2758SOL     OW19732   3.436   1.829  13.020  0.2735 -0.0653 -0.1409
 2758SOL    HW119733   3.485   1.869  13.091  0.0929  0.0573 -0.0850
 2758SOL    HW219734   3.483   1.862  12.944  1.5332 -1.2109  0.1372
 2759SOL     OW19735   4.117   0.045   7.319 -0.0241 -0.1261  0.1482
 2759SOL    HW119736   4.200   4.719   7.330  0.9012  1.4044 -0.2987
 2759SOL    HW219737   4.075   4.701   7.263  0.5835 -1.1219  0.8453
 2760SOL     OW19738   2.006   3.328   2.885 -0.7297 -0.5676  0.5771
 2760SOL    HW119739   1.992   3.258   2.949 -2.0369 -0.1392  0.7676
 2760SOL    HW219740   2.028   3.281   2.805  1.8612  3.4919 -1.1127
 2761SOL     OW19741   0.868   1.899  12.016  0.0441 -0.1124 -0.4618
 2761SOL    HW119742   0.821   1.980  12.036 -1.5167 -1.2105  0.2965
 2761SOL    HW219743   0.924   1.901  12.093 -1.1384  2.7424  0.3276
 2762SOL     OW19744   2.508   3.815   9.491 -0.3058 -0.4114  0.0029
 2762SOL    HW119745   2.533   3.725   9.507 -0.7115 -0.3702  0.8965
 2762SOL    HW219746   2.573   3.842   9.427 -1.9492 -0.7915 -1.8403
 2763SOL     OW19747   1.327   3.010  16.834  0.0238  0.0977 -0.3363
 2763SOL    HW119748   1.396   3.076  16.844 -0.1917  0.2694  0.0035
 2763SOL    HW219749   1.264   3.077  16.860  0.1525  0.0263  0.1510
 2764SOL     OW19750   3.101   3.717   4.587 -0.7487  0.0984 -0.2898
 2764SOL    HW119751   3.155   3.778   4.638  0.8735 -1.9076  0.3790
 2764SOL    HW219752   3.066   3.665   4.659  0.4083 -0.9632 -0.4909
 2765SOL     OW19753   4.169   0.234   6.860  0.0680  0.0713 -0.6196
 2765SOL    HW119754   4.179   0.327   6.842 -2.2353  1.1912  3.9097
 2765SOL    HW219755   4.193   0.234   6.952  1.3300 -0.1986 -0.9465
 2766SOL     OW19756   1.711   2.174  10.144  0.4702  0.3091  0.3366
 2766SOL    HW119757   1.784   2.156  10.084  0.3252  1.4499 -0.1829
 2766SOL    HW219758   1.639   2.137  10.093  0.8400  0.9887 -0.6766
 2767SOL     OW19759   2.139   1.863   6.479 -0.2675  0.3748  0.1269
 2767SOL    HW119760   2.067   1.904   6.528  1.2183  0.6681  2.0427
 2767SOL    HW219761   2.210   1.877   6.542  1.6615 -1.5282 -1.6403
 2768SOL     OW19762   0.151   1.724   9.536  0.1129  0.5010  0.0818
 2768SOL    HW119763   0.169   1.662   9.465 -0.3910 -0.4602  0.7893
 2768SOL    HW219764   0.056   1.733   9.538  0.3454  2.5571  1.3866
 2769SOL     OW19765   1.146   3.006   8.187 -0.0955 -0.4359 -0.2716
 2769SOL    HW119766   1.202   2.931   8.165 -1.7796 -1.5245 -0.8171
 2769SOL    HW219767   1.196   3.046   8.258 -3.0412 -1.6987  2.4863
 2770SOL     OW19768   1.568   1.836   8.403  0.0131  0.2799 -0.1865
 2770SOL    HW119769   1.568   1.789   8.486  1.1845  1.9640  0.7614
 2770SOL    HW219770   1.495   1.792   8.359  0.7269  1.0517 -2.1714
 2771SOL     OW19771   4.460   3.082   5.572 -0.7502 -0.2591  0.1346
 2771SOL    HW119772   4.401   3.007   5.572 -0.6312 -0.3553 -0.8763
 2771SOL    HW219773   4.431   3.139   5.643 -1.5200 -1.4944  0.8082
 2772SOL     OW19774   4.658   3.036  13.465  0.1207  0.5231 -0.5795
 2772SOL    HW119775   4.667   3.126  13.496  0.4856  0.8558 -1.6402
 2772SOL    HW219776   4.638   3.002  13.552 -0.8416  0.2213 -0.9168
 2773SOL     OW19777   2.796   1.749  17.525  0.4568 -0.5824 -0.0826
 2773SOL    HW119778   2.718   1.763  17.578  0.9493 -2.2897  1.1008
 2773SOL    HW219779   2.865   1.775  17.586 -1.0056  0.6143  1.0505
 2774SOL     OW19780   3.829   3.196   7.677 -0.6454 -0.6118 -0.2005
 2774SOL    HW119781   3.756   3.204   7.737 -0.9699  1.1811 -0.8117
 2774SOL    HW219782   3.831   3.107   7.643  1.0215 -0.6181 -0.1148
 2775SOL     OW19783   2.411   3.079   3.688  0.4052 -0.0728 -0.9260
 2775SOL    HW119784   2.418   2.999   3.637  1.1677  0.6433 -1.9407
 2775SOL    HW219785   2.335   3.049   3.739  1.7794 -1.6468  0.1887
 2776SOL     OW19786   3.068   0.152   9.299  0.2344  0.1028  0.4276
 2776SOL    HW119787   3.131   0.084   9.323  0.7911  1.2368  2.1709
 2776SOL    HW219788   2.988   0.112   9.332  0.0745  2.0454  2.3868
 2777SOL     OW19789   3.914   3.229   1.652 -0.0130 -0.0073 -0.1067
 2777SOL    HW119790   3.904   3.271   1.737 -0.6875 -1.0428  0.3263
 2777SOL    HW219791   3.864   3.148   1.663 -1.9676  1.0214 -1.5030
 2778SOL     OW19792   4.534   0.212   5.217  0.0039  0.3247  0.0184
 2778SOL    HW119793   4.533   0.291   5.163  1.7092 -0.1062 -0.6354
 2778SOL    HW219794   4.539   0.138   5.157  0.8529 -0.0657  0.5781
 2779SOL     OW19795   2.508   4.168   0.193 -0.3314 -0.0188 -0.1606
 2779SOL    HW119796   2.513   4.261   0.172  0.7030 -0.0978 -0.2563
 2779SOL    HW219797   2.578   4.133   0.138 -2.4975 -1.9579 -1.6808
 2780SOL     OW19798   1.846   2.807   3.268  0.1757 -0.5337  0.0001
 2780SOL    HW119799   1.787   2.818   3.194 -2.3444 -0.2326  2.0183
 2780SOL    HW219800   1.820   2.717   3.285  0.1328 -0.3743  0.8099
 2781SOL     OW19801   2.702   0.881   6.707 -0.4965  0.1787 -0.4615
 2781SOL    HW119802   2.614   0.919   6.708 -1.3223 -1.7219 -0.5649
 2781SOL    HW219803   2.715   0.895   6.613 -1.2718  2.5625 -0.2192
 2782SOL     OW19804   2.309   2.808   1.826  0.1253 -0.0007  0.0542
 2782SOL    HW119805   2.389   2.771   1.789  0.4692 -0.1574  0.9404
 2782SOL    HW219806   2.270   2.862   1.757  1.8873 -0.1448 -1.0407
 2783SOL     OW19807   3.241   2.124   4.498  0.6197  0.0234  0.1485
 2783SOL    HW119808   3.159   2.076   4.488  1.2849 -1.1311  0.2252
 2783SOL    HW219809   3.205   2.203   4.539 -0.2777  1.0467 -2.5960
 2784SOL     OW19810   0.829   2.895   6.208 -0.5465  0.2728  0.3562
 2784SOL    HW119811   0.736   2.877   6.193 -0.2681 -2.0810  1.5171
 2784SOL    HW219812   0.826   2.935   6.295 -0.3205  0.1924  0.3994
 2785SOL     OW19813   1.236   2.387   5.976 -0.4085  0.5995  0.0779
 2785SOL    HW119814   1.327   2.373   5.950  0.0250  2.0991  0.8116
 2785SOL    HW219815   1.200   2.310   5.931 -0.4131 -0.5487  2.0113
 2786SOL     OW19816   3.043   4.272   5.100  0.4614  0.0393  0.6930
 2786SOL    HW119817   2.977   4.220   5.145 -0.3216  0.3320 -0.1204
 2786SOL    HW219818   2.989   4.302   5.028  1.4549 -0.5843 -0.3147
 2787SOL     OW19819   4.432   0.854  11.329  0.4805  0.1921  0.0712
 2787SOL    HW119820   4.460   0.940  11.360  0.7114 -0.0840  0.6243
 2787SOL    HW219821   4.377   0.834  11.404 -2.1106  4.0219 -0.8007
 2788SOL     OW19822   2.384   0.179   5.786 -0.1306  0.6040 -0.2145
 2788SOL    HW119823   2.317   0.129   5.833  1.2259 -1.0057 -0.0142
 2788SOL    HW219824   2.418   0.238   5.853  0.9412 -2.8580  2.3066
 2789SOL     OW19825   0.278   0.825   3.089 -0.2407 -0.4847  0.2457
 2789SOL    HW119826   0.315   0.893   3.033 -0.5331 -0.3907  0.1666
 2789SOL    HW219827   0.283   0.869   3.173 -0.2518  0.0762 -0.0491
 2790SOL     OW19828   3.332   1.182   5.303  0.0615  0.1462 -0.4642
 2790SOL    HW119829   3.389   1.158   5.230  1.3479 -1.8890  1.2178
 2790SOL    HW219830   3.279   1.103   5.316 -2.0306  1.6142 -0.0727
 2791SOL     OW19831   3.288   3.488   1.956  0.0778 -0.5089 -0.3034
 2791SOL    HW119832   3.355   3.556   1.954  2.1085 -2.4539  0.6900
 2791SOL    HW219833   3.328   3.431   1.890 -0.3397 -0.5350 -0.5284
 2792SOL     OW19834   3.376   4.356   2.032 -0.2887  0.0222  0.2369
 2792SOL    HW119835   3.376   4.285   2.096  0.8057  0.5625  0.8397
 2792SOL    HW219836   3.372   4.439   2.080 -0.5792 -0.0382  0.3179
 2793SOL     OW19837   0.895   0.530   2.824  0.8673 -0.0544  0.2728
 2793SOL    HW119838   0.976   0.545   2.776  1.7214 -1.3163  1.3266
 2793SOL    HW219839   0.868   0.461   2.764  1.6682  1.2826 -1.6449
 2794SOL     OW19840   0.104   3.360  16.742 -0.0603  0.1235  0.0977
 2794SOL    HW119841   0.170   3.374  16.809 -3.3605 -1.8041  3.7463
 2794SOL    HW219842   0.075   3.451  16.740 -0.5491 -0.0377 -0.2710
 2795SOL     OW19843   1.711   3.508   1.074 -0.0838 -0.9344 -0.3217
 2795SOL    HW119844   1.726   3.420   1.109 -0.2506 -0.7069  0.3165
 2795SOL    HW219845   1.771   3.558   1.129 -1.4843  1.2617 -0.8085
 2796SOL     OW19846   1.734   0.747   1.697  0.1351 -0.1133  0.0781
 2796SOL    HW119847   1.655   0.744   1.643 -0.4265 -1.3015  0.9706
 2796SOL    HW219848   1.752   0.653   1.699  1.0698  0.0708  0.7643
 2797SOL     OW19849   3.746   0.600   8.405  0.0137  0.0972 -0.3914
 2797SOL    HW119850   3.708   0.630   8.488 -2.1007 -0.2393 -1.2456
 2797SOL    HW219851   3.783   0.520   8.442 -1.4824 -1.9837 -3.4393
 2798SOL     OW19852   0.835   1.697   9.137  0.0837  0.0956  0.5043
 2798SOL    HW119853   0.762   1.636   9.134 -0.3991  0.6538  0.9257
 2798SOL    HW219854   0.799   1.760   9.075 -1.1981  0.3855  1.5355
 2799SOL     OW19855   4.227   2.866   3.765 -0.3726  0.2178 -0.0551
 2799SOL    HW119856   4.250   2.792   3.821  1.6150  1.3292  0.6015
 2799SOL    HW219857   4.141   2.884   3.802  0.2892  1.3452  0.9598
 2800SOL     OW19858   1.031   0.120  10.876 -0.4443 -0.2494 -0.1657
 2800SOL    HW119859   1.031   0.202  10.925  1.7358  0.0745 -0.6984
 2800SOL    HW219860   1.004   0.060  10.946  1.5105  0.6195  1.3168
 2801SOL     OW19861   0.089   4.666   5.550  0.1200 -0.2719 -0.8110
 2801SOL    HW119862   0.075   4.585   5.501  0.0924 -2.1121  2.2654
 2801SOL    HW219863   0.037   0.006   5.497 -1.5704  0.3232  1.5450
 2802SOL     OW19864   4.304   1.727   6.664  0.5956 -0.7270 -0.3895
 2802SOL    HW119865   4.243   1.762   6.727  0.7888  2.2238 -1.8672
 2802SOL    HW219866   4.387   1.774   6.674 -0.4546  0.9253  0.4341
 2803SOL     OW19867   0.628   1.570  14.243  0.2744 -0.2749 -0.3548
 2803SOL    HW119868   0.689   1.643  14.259 -0.6357  0.7135 -1.3727
 2803SOL    HW219869   0.659   1.541  14.157  1.3636 -0.6758  0.1684
 2804SOL     OW19870   2.142   0.440   1.498 -0.2384  0.3201 -0.2346
 2804SOL    HW119871   2.062   0.462   1.451 -1.0769 -0.1249  0.9502
 2804SOL    HW219872   2.168   0.360   1.453  1.0913  0.5510  0.1240
 2805SOL     OW19873   1.956   2.070   5.013 -0.0516  0.8554  0.0955
 2805SOL    HW119874   2.025   2.077   4.947  0.1085 -0.7428  0.0942
 2805SOL    HW219875   1.881   2.116   4.976 -1.5034 -0.4538  1.4046
 2806SOL     OW19876   3.370   0.397   4.229 -0.1109 -0.0163  0.0259
 2806SOL    HW119877   3.371   0.370   4.321 -0.9953  0.2909  0.1278
 2806SOL    HW219878   3.435   0.466   4.243 -1.7298  1.1226  1.9089
 2807SOL     OW19879   3.734   2.069   8.497 -0.1260 -0.0862 -0.8581
 2807SOL    HW119880   3.731   1.974   8.510  0.9997  0.0958  0.7832
 2807SOL    HW219881   3.674   2.082   8.424 -0.4840  0.4213 -0.4719
 2808SOL     OW19882   0.904   1.123   8.684 -0.6575 -0.8842 -0.4216
 2808SOL    HW119883   0.988   1.077   8.689 -0.5581 -0.4708  1.6302
 2808SOL    HW219884   0.936   1.208   8.656 -0.4371 -0.2981  1.6119
 2809SOL     OW19885   2.201   3.372   1.740  0.2142 -0.1630  0.5749
 2809SOL    HW119886   2.236   3.329   1.661  1.0077 -1.4593  1.6425
 2809SOL    HW219887   2.113   3.387   1.704  0.4497 -1.0374 -0.3896
 2810SOL     OW19888   3.990   0.804   5.606 -0.4317  0.1065 -0.1408
 2810SOL    HW119889   4.046   0.839   5.675 -0.8929  0.1600  0.2036
 2810SOL    HW219890   3.913   0.860   5.608 -0.5532  0.0074 -1.7602
 2811SOL     OW19891   4.089   4.422   3.225  0.0184 -0.3391  0.4992
 2811SOL    HW119892   4.045   4.405   3.308 -1.3283 -0.1135 -0.1561
 2811SOL    HW219893   4.181   4.417   3.249  0.1122 -0.2045  0.1700
 2812SOL     OW19894   0.218   2.873  17.293 -0.2433  0.1904 -0.2478
 2812SOL    HW119895   0.187   2.819  17.366 -3.0311 -0.1160 -1.6729
 2812SOL    HW219896   0.297   2.821  17.281 -1.7824 -2.2398 -0.0217
 2813SOL     OW19897   0.720   4.201   4.317  0.3981  0.0253  0.0316
 2813SOL    HW119898   0.803   4.168   4.282 -0.0750 -0.4791 -0.6090
 2813SOL    HW219899   0.742   4.200   4.410 -1.7207  1.5841  0.5590
 2814SOL     OW19900   0.209   2.708  17.510 -0.5371  0.5936 -0.5960
 2814SOL    HW119901   0.194   2.671  17.597 -2.7220  1.4412 -0.6283
 2814SOL    HW219902   0.266   2.641  17.470 -0.5528  0.4740 -0.4189
 2815SOL     OW19903   1.325   2.779   4.905  0.0089 -0.1434 -0.4818
 2815SOL    HW119904   1.286   2.761   4.991 -1.6440  2.5589 -0.6673
 2815SOL    HW219905   1.404   2.725   4.906 -0.8060 -1.3212  0.4561
 2816SOL     OW19906   1.789   3.632  11.680 -0.1419  0.0759 -0.2623
 2816SOL    HW119907   1.772   3.654  11.588 -0.5113  0.1861 -0.1690
 2816SOL    HW219908   1.755   3.543  11.688  0.3110  0.0194  0.9963
 2817SOL     OW19909   0.544   1.786  16.722 -0.6154 -0.1854 -0.1713
 2817SOL    HW119910   0.464   1.829  16.693 -1.0752 -0.0753  1.2403
 2817SOL    HW219911   0.587   1.861  16.762 -0.1576  1.0619 -3.0253
 2818SOL     OW19912   3.425   0.490   8.800  0.1393 -0.0782  0.1839
 2818SOL    HW119913   3.517   0.516   8.796  0.2812 -0.4641  0.9235
 2818SOL    HW219914   3.412   0.520   8.890 -0.3567  1.9421 -0.5650
 2819SOL     OW19915   0.399   3.479   5.971  0.4480  0.0107  0.2303
 2819SOL    HW119916   0.309   3.495   5.999  1.1774  0.5475  2.3212
 2819SOL    HW219917   0.386   3.423   5.895  2.0419 -0.4531  0.3015
 2820SOL     OW19918   3.802   2.586  17.639 -0.7617  0.0093 -0.1642
 2820SOL    HW119919   3.888   2.587  17.598 -0.8873 -3.3283 -0.4639
 2820SOL    HW219920   3.836   2.562   0.039 -0.4918  1.1486  0.0567
 2821SOL     OW19921   3.230   2.360   3.956  0.3027 -0.0362 -0.1416
 2821SOL    HW119922   3.177   2.386   4.031 -0.6399 -1.6783 -0.2483
 2821SOL    HW219923   3.278   2.287   3.998  0.8815  1.6145  2.0892
 2822SOL     OW19924   1.848   4.686   7.512 -0.8780  0.0011 -0.0481
 2822SOL    HW119925   1.783   4.680   7.443 -1.7787  0.6369  0.7529
 2822SOL    HW219926   1.889   0.051   7.505  0.7398 -0.8244 -1.0218
 2823SOL     OW19927   2.292   2.820   3.577  0.0999  0.0642  0.6911
 2823SOL    HW119928   2.287   2.724   3.573  0.9264  0.0218  0.7715
 2823SOL    HW219929   2.222   2.854   3.521 -0.1088  1.5869  1.8723
 2824SOL     OW19930   3.871   0.941  13.680  0.6165 -0.2938  0.0548
 2824SOL    HW119931   3.797   0.999  13.695  0.7686 -0.6409  2.1583
 2824SOL    HW219932   3.930   0.985  13.742 -2.6605  3.6439  0.4006
 2825SOL     OW19933   1.468   1.710  11.256  0.1405  0.8224 -0.2716
 2825SOL    HW119934   1.477   1.618  11.281  1.7841  0.3336 -2.6307
 2825SOL    HW219935   1.538   1.745  11.311 -0.1206  0.6790  0.1530
 2826SOL     OW19936   1.050   1.126   7.521 -0.6935 -0.2049 -0.1014
 2826SOL    HW119937   1.006   1.070   7.585 -1.1942  1.2599  0.8439
 2826SOL    HW219938   1.095   1.189   7.576  0.1554 -2.4017  1.7218
 2827SOL     OW19939   0.053   4.487  10.362 -0.0979 -0.3904  0.0934
 2827SOL    HW119940   0.025   4.422  10.298  0.7229  0.1821 -0.8427
 2827SOL    HW219941   0.016   4.558  10.310  0.9322 -0.9392 -1.3863
 2828SOL     OW19942   4.646   2.186  17.280  0.0061  0.1753 -0.4287
 2828SOL    HW119943   4.712   2.242  17.241  0.5712 -1.2765 -1.5434
 2828SOL    HW219944   4.707   2.143  17.340  0.1190 -1.0508 -1.4358
 2829SOL     OW19945   1.560   0.503  17.231 -0.1964 -0.1656 -0.0001
 2829SOL    HW119946   1.604   0.446  17.293  0.2640 -1.2079 -1.2740
 2829SOL    HW219947   1.598   0.475  17.148  0.7654  3.3106 -0.7613
 2830SOL     OW19948   0.264   2.713   0.757  0.2588  0.3885  0.3584
 2830SOL    HW119949   0.234   2.803   0.742 -2.3204 -1.0149 -2.9585
 2830SOL    HW219950   0.256   2.704   0.852 -1.4705  1.1246  0.2920
 2831SOL     OW19951   3.917   0.575  13.042  0.6433  0.0484  0.1082
 2831SOL    HW119952   3.966   0.549  12.964  2.3714  2.0365  0.5537
 2831SOL    HW219953   3.970   0.643  13.083  0.3263  0.4204 -0.1036
 2832SOL     OW19954   0.282   3.860   1.819  0.0540 -0.4909  0.1076
 2832SOL    HW119955   0.332   3.779   1.807  1.2170  0.3431 -0.7491
 2832SOL    HW219956   0.191   3.833   1.809 -0.5874  0.8404  2.5488
 2833SOL     OW19957   2.268   1.545  15.460  0.0692 -0.2311  0.3223
 2833SOL    HW119958   2.311   1.625  15.490  0.4127  0.2250 -1.4060
 2833SOL    HW219959   2.200   1.587  15.407 -0.0452 -1.9114 -0.8541
 2834SOL     OW19960   1.200   1.029   1.678 -0.2194 -0.1098 -0.1230
 2834SOL    HW119961   1.221   1.085   1.753 -0.0247 -0.6477  0.2194
 2834SOL    HW219962   1.121   1.080   1.659  0.6100  1.3479  0.2559
 2835SOL     OW19963   1.693   3.418   7.941  0.1778 -0.5561 -0.4796
 2835SOL    HW119964   1.784   3.391   7.945  0.0141 -0.9967  0.3957
 2835SOL    HW219965   1.690   3.492   8.003 -1.6239 -0.9050 -0.1398
 2836SOL     OW19966   4.491   0.553   8.934  0.0220  0.3613  0.0649
 2836SOL    HW119967   4.573   0.504   8.936 -0.4459 -0.4272 -0.2414
 2836SOL    HW219968   4.436   0.508   8.870  0.6494 -0.1172 -0.1435
 2837SOL     OW19969   1.584   0.561   2.002  0.3493 -0.0876  0.0036
 2837SOL    HW119970   1.651   0.572   2.069 -3.0462  3.4742  2.8351
 2837SOL    HW219971   1.565   0.651   1.976  0.3323 -0.6246 -1.8409
 2838SOL     OW19972   1.045   3.918  16.517  0.0815 -0.2183 -0.4018
 2838SOL    HW119973   1.020   3.854  16.451  0.7489 -3.2814  2.3634
 2838SOL    HW219974   1.120   3.871  16.553  0.4416  0.4868 -0.2158
 2839SOL     OW19975   3.244   0.716   4.742 -0.1099  0.8982  0.1797
 2839SOL    HW119976   3.152   0.706   4.768 -0.1271 -2.1886 -1.0545
 2839SOL    HW219977   3.278   0.730   4.830 -0.8601 -0.2068  0.6429
 2840SOL     OW19978   3.874   2.490   4.971  0.4707  0.1142 -0.4638
 2840SOL    HW119979   3.843   2.552   4.905  1.0583 -1.0071 -1.8054
 2840SOL    HW219980   3.970   2.485   4.966  0.4802 -0.9442  1.0082
 2841SOL     OW19981   1.443   0.868   3.565  0.3064 -0.7553  0.2415
 2841SOL    HW119982   1.480   0.781   3.584  1.2823 -0.3595  0.1363
 2841SOL    HW219983   1.524   0.919   3.556 -0.6151  0.3975 -1.4633
 2842SOL     OW19984   0.857   2.869   1.932  0.5639 -0.0054 -0.0130
 2842SOL    HW119985   0.930   2.923   1.961  0.0380 -0.1623  1.5999
 2842SOL    HW219986   0.899   2.832   1.854 -1.0178 -1.7203 -0.0628
 2843SOL     OW19987   1.664   1.814   6.662  0.3536  0.0515 -0.3256
 2843SOL    HW119988   1.654   1.907   6.682 -0.9170 -0.1025 -0.2847
 2843SOL    HW219989   1.575   1.782   6.651 -0.0879  0.7913  1.0825
 2844SOL     OW19990   4.102   1.427   5.789  0.2377  0.5870 -0.2873
 2844SOL    HW119991   4.081   1.421   5.696 -0.7289  0.8934 -0.0934
 2844SOL    HW219992   4.025   1.474   5.822  0.5328  0.9585 -0.1399
 2845SOL     OW19993   3.400   3.217   2.147 -0.4742 -0.3160 -0.0189
 2845SOL    HW119994   3.441   3.280   2.207 -0.7059 -0.8622  0.7172
 2845SOL    HW219995   3.315   3.198   2.186 -1.1847  0.1391 -1.3752
 2846SOL     OW19996   2.787   1.454   3.937 -0.2415 -0.1695 -0.4933
 2846SOL    HW119997   2.831   1.375   3.905  2.3135  0.5127  1.3659
 2846SOL    HW219998   2.723   1.415   3.997 -0.9613 -1.0916 -1.8580
 2847SOL     OW19999   2.436   2.917  16.403 -0.5495 -0.2594 -0.0289
 2847SOL    HW120000   2.377   2.991  16.417 -1.3049 -0.3192 -2.9020
 2847SOL    HW220001   2.405   2.895  16.315  0.5589 -1.1688 -0.1943
 2848SOL     OW20002   1.791   1.117   3.309 -0.1379 -0.0130 -0.5484
 2848SOL    HW120003   1.791   1.211   3.290 -0.3983 -0.0965 -0.9574
 2848SOL    HW220004   1.866   1.095   3.254  0.2100 -1.6899  0.5949
 2849SOL     OW20005   4.082   1.749   3.294  0.4607 -0.2832  0.0706
 2849SOL    HW120006   4.023   1.681   3.327  1.8205 -1.7206 -0.4799
 2849SOL    HW220007   4.126   1.783   3.372  2.5656  1.0708 -1.7084
 2850SOL     OW20008   4.664   2.757   1.934 -0.1300 -0.0442  0.2894
 2850SOL    HW120009   4.606   2.800   1.871  1.5880  1.9178  0.0641
 2850SOL    HW220010   4.685   2.835   1.985  1.3355  1.4045 -2.4877
 2851SOL     OW20011   4.462   1.714  14.569 -0.2244 -0.1157 -0.4992
 2851SOL    HW120012   4.421   1.669  14.495 -1.2202 -2.1088  1.2496
 2851SOL    HW220013   4.486   1.798  14.531 -1.3187  0.2774 -0.3045
 2852SOL     OW20014   4.170   4.697   9.219 -0.4776  0.2602 -0.6041
 2852SOL    HW120015   4.187   4.696   9.313 -0.5388  2.8153 -0.5764
 2852SOL    HW220016   4.197   0.067   9.208  1.5328  0.0595  2.5673
 2853SOL     OW20017   4.430   0.891  11.038  0.7702  0.1593  0.5068
 2853SOL    HW120018   4.444   0.868  11.130  0.4494 -0.5652  0.3721
 2853SOL    HW220019   4.458   0.983  11.039  1.1081  0.0514  0.6553
 2854SOL     OW20020   2.852   1.334   0.959  0.3045 -0.2905  0.0066
 2854SOL    HW120021   2.924   1.273   0.941 -0.3766 -0.6780 -1.3960
 2854SOL    HW220022   2.830   1.297   1.044 -1.7158  0.5086 -0.1894
 2855SOL     OW20023   4.243   2.833   5.352  0.2089 -1.0185  0.1929
 2855SOL    HW120024   4.165   2.777   5.347  0.0422 -0.6800 -0.9388
 2855SOL    HW220025   4.260   2.846   5.258  2.2219 -2.3363  0.3563
 2856SOL     OW20026   3.068   4.558  14.095  0.2843  0.3233 -0.0773
 2856SOL    HW120027   3.102   4.643  14.068  0.4337 -0.1807 -1.4373
 2856SOL    HW220028   2.997   4.557  14.032  1.3756  0.5831 -1.3008
 2857SOL     OW20029   1.188   4.107   2.847 -0.6599  0.5867  0.0982
 2857SOL    HW120030   1.196   4.190   2.800  1.0839 -0.7444 -2.0036
 2857SOL    HW220031   1.266   4.106   2.902  0.7923 -2.3070 -1.9893
 2858SOL     OW20032   1.559   1.489  14.426  0.5696  0.8016  0.6703
 2858SOL    HW120033   1.488   1.542  14.391 -0.3699 -1.5028 -0.9397
 2858SOL    HW220034   1.521   1.456  14.507 -0.8270 -2.1787 -1.2252
 2859SOL     OW20035   3.237   1.571   6.534 -0.3482  0.2672  0.7514
 2859SOL    HW120036   3.288   1.594   6.612 -3.1297 -0.5380  2.7906
 2859SOL    HW220037   3.199   1.659   6.531  0.5144  0.6366  0.5959
 2860SOL     OW20038   1.019   4.533   4.602 -0.1791 -0.2413 -0.1002
 2860SOL    HW120039   0.952   4.532   4.670 -1.9803  1.0678 -1.8675
 2860SOL    HW220040   1.057   4.446   4.610 -1.5656 -0.7883  0.3978
 2861SOL     OW20041   4.269   0.881   8.505 -0.1436 -0.1271  0.3339
 2861SOL    HW120042   4.210   0.806   8.494  0.0984 -0.1789 -0.6111
 2861SOL    HW220043   4.263   0.913   8.415  0.4117  1.7396  0.9565
 2862SOL     OW20044   1.134   4.066  15.532  0.5154  0.0798  0.7287
 2862SOL    HW120045   1.226   4.086  15.513  0.4587 -0.5201 -0.1931
 2862SOL    HW220046   1.142   3.973  15.509  0.9142 -0.1960  1.9775
 2863SOL     OW20047   3.889   1.612   4.111  0.1912 -0.4341 -0.0092
 2863SOL    HW120048   3.892   1.607   4.206 -1.2308  0.8745  0.1125
 2863SOL    HW220049   3.855   1.524   4.099  0.0637 -0.4251  0.2951
 2864SOL     OW20050   0.045   4.489   5.162  0.0093  0.2347 -1.0654
 2864SOL    HW120051   4.673   4.498   5.183  0.4015  1.2982  0.2421
 2864SOL    HW220052   0.053   4.559   5.098 -2.2212 -0.7071 -2.4083
 2865SOL     OW20053   1.500   0.169   3.372  0.1799 -0.0493 -0.1430
 2865SOL    HW120054   1.504   0.133   3.460 -0.7660 -0.2107 -0.1677
 2865SOL    HW220055   1.584   0.215   3.377 -0.0333  0.3793 -0.4996
 2866SOL     OW20056   4.184   3.229   6.953 -0.0329  0.2651 -0.4718
 2866SOL    HW120057   4.202   3.269   7.038  1.2438  0.6978 -0.9390
 2866SOL    HW220058   4.090   3.247   6.958 -0.3239 -1.3786 -0.1380
 2867SOL     OW20059   0.395   0.459   6.248  0.0473  0.1264  0.1499
 2867SOL    HW120060   0.382   0.553   6.240  1.9379  0.3614 -0.2626
 2867SOL    HW220061   0.379   0.452   6.342  0.7981 -1.0153  0.1995
 2868SOL     OW20062   2.279   4.496  15.110 -0.1755  0.3137 -0.6241
 2868SOL    HW120063   2.330   4.419  15.087  0.9379  0.2550  1.9929
 2868SOL    HW220064   2.222   4.493  15.034  1.4642 -0.4421 -1.8176
 2869SOL     OW20065   1.397   3.333   2.615 -0.0703  0.3063 -0.2579
 2869SOL    HW120066   1.377   3.244   2.585 -1.2019  0.1348  0.9944
 2869SOL    HW220067   1.469   3.353   2.556 -1.1408 -0.9187 -1.9641
 2870SOL     OW20068   3.301   0.933   7.081 -0.9909  0.2582 -0.0033
 2870SOL    HW120069   3.355   0.864   7.043 -0.2539  1.1672 -0.6200
 2870SOL    HW220070   3.303   0.989   7.003 -1.5387  0.4256  0.1003
 2871SOL     OW20071   2.708   3.448  15.251 -0.2240 -0.3203  0.2139
 2871SOL    HW120072   2.627   3.456  15.200 -0.6965 -0.6414  0.9107
 2871SOL    HW220073   2.778   3.492  15.203 -0.4314  0.0781  0.2732
 2872SOL     OW20074   2.830   1.622   2.499 -0.3470  0.3338 -0.0310
 2872SOL    HW120075   2.878   1.667   2.569  0.5055 -2.9017  1.4671
 2872SOL    HW220076   2.885   1.639   2.423 -0.9057 -2.8599 -1.1505
 2873SOL     OW20077   1.877   4.410   2.745 -0.0861  0.1880  0.4844
 2873SOL    HW120078   1.916   4.353   2.811 -0.3845 -0.8107 -0.2030
 2873SOL    HW220079   1.814   4.460   2.796 -0.3128  1.0839 -0.6711
 2874SOL     OW20080   4.045   4.293  16.436  0.0664 -0.1097  0.0620
 2874SOL    HW120081   4.125   4.298  16.488  0.8103 -1.4366 -0.9321
 2874SOL    HW220082   4.006   4.380  16.442  1.4631  0.4588  0.9518
 2875SOL     OW20083   2.370   2.460   3.503 -0.2662  0.0297  0.1610
 2875SOL    HW120084   2.332   2.455   3.591  1.0430  1.9746  0.8426
 2875SOL    HW220085   2.297   2.499   3.455 -1.4743 -1.9929  0.3565
 2876SOL     OW20086   0.467   4.520   5.559 -0.4824  0.4386 -0.3033
 2876SOL    HW120087   0.456   4.597   5.503 -0.9344  0.7169  0.1656
 2876SOL    HW220088   0.553   4.533   5.597  0.0992  0.6370 -1.6632
 2877SOL     OW20089   4.171   3.556   2.056 -0.2280 -0.1467 -0.0816
 2877SOL    HW120090   4.111   3.577   1.984  0.9266 -1.0050 -1.2762
 2877SOL    HW220091   4.216   3.479   2.022 -0.3029 -0.4293  0.4712
 2878SOL     OW20092   3.525   3.839  11.857 -0.0856  0.0658 -0.3159
 2878SOL    HW120093   3.617   3.826  11.836  0.5296  0.8553  1.8951
 2878SOL    HW220094   3.520   3.925  11.899  0.4404  0.6465 -1.4408
 2879SOL     OW20095   1.338   2.373   6.724 -0.2527  0.0714  0.0417
 2879SOL    HW120096   1.387   2.445   6.763  0.2200 -0.0678 -0.3040
 2879SOL    HW220097   1.252   2.416   6.728  0.9075  2.1224  3.2901
 2880SOL     OW20098   4.404   3.823  14.311 -0.0428 -0.1097  0.4851
 2880SOL    HW120099   4.481   3.881  14.305 -0.9637  1.0248 -0.3909
 2880SOL    HW220100   4.371   3.867  14.389 -1.4996  1.1239 -0.8134
 2881SOL     OW20101   3.278   4.641   3.798  0.3368  0.2382 -0.1907
 2881SOL    HW120102   3.195   4.686   3.781 -0.3706 -0.2106  2.0637
 2881SOL    HW220103   3.347   4.692   3.758  0.2792 -0.7559 -1.5543
 2882SOL     OW20104   2.205   1.973  14.291 -0.1755 -0.1157  1.1690
 2882SOL    HW120105   2.263   1.938  14.223 -0.7161  0.4732  0.4067
 2882SOL    HW220106   2.269   1.993  14.360  0.1860 -1.4270  1.2096
 2883SOL     OW20107   1.885   1.457  10.260  0.6535 -0.1895  0.1113
 2883SOL    HW120108   1.950   1.516  10.299  0.0828 -1.6561  3.3266
 2883SOL    HW220109   1.807   1.511  10.274  1.7808  1.1305  1.3028
 2884SOL     OW20110   3.052   1.938  15.121 -0.4179 -0.0872  0.0582
 2884SOL    HW120111   2.984   2.001  15.145  1.7522  1.9754  0.7621
 2884SOL    HW220112   3.005   1.870  15.071  0.1207  0.8601 -1.7402
 2885SOL     OW20113   3.867   2.444   0.922 -0.1151 -0.0131  0.7982
 2885SOL    HW120114   3.947   2.484   0.888 -0.4774 -0.3545 -0.4868
 2885SOL    HW220115   3.884   2.355   0.891 -2.2884  0.2106 -1.0954
 2886SOL     OW20116   3.437   1.316   9.412  0.2142 -0.2626  0.2363
 2886SOL    HW120117   3.453   1.314   9.317  1.1312  1.3014  0.3450
 2886SOL    HW220118   3.445   1.406   9.445 -1.0943 -0.0125 -0.1226
 2887SOL     OW20119   3.726   3.226   3.698 -0.3209 -0.1512  0.0256
 2887SOL    HW120120   3.708   3.201   3.788 -0.7337 -0.3184 -0.1032
 2887SOL    HW220121   3.683   3.162   3.641  1.6529 -1.5903  0.1505
 2888SOL     OW20122   1.692   0.448   5.400  0.2483 -0.2390  0.5881
 2888SOL    HW120123   1.759   0.456   5.332  0.9088  1.1359  1.3796
 2888SOL    HW220124   1.665   0.539   5.394 -0.1200 -0.3545  0.5422
 2889SOL     OW20125   4.509   4.168   8.763 -0.1061 -0.4457  0.1107
 2889SOL    HW120126   4.541   4.167   8.853  0.9463 -0.3977 -0.2705
 2889SOL    HW220127   4.587   4.187   8.712 -0.8798 -0.3305 -1.0134
 2890SOL     OW20128   1.932   3.360   7.613  0.2425  0.0182 -0.3301
 2890SOL    HW120129   1.970   3.339   7.527 -1.0249  0.1808 -0.9274
 2890SOL    HW220130   1.954   3.453   7.618 -0.7166  0.2463 -0.4994
 2891SOL     OW20131   0.729   3.200  15.129 -0.0717 -0.8690  0.2365
 2891SOL    HW120132   0.655   3.189  15.190 -0.6041  2.4690  0.1664
 2891SOL    HW220133   0.763   3.284  15.160 -1.3859  0.8363 -2.9814
 2892SOL     OW20134   1.884   2.133  11.447  0.4326  0.0551 -0.2573
 2892SOL    HW120135   1.924   2.064  11.394 -2.2452 -1.6821 -0.0305
 2892SOL    HW220136   1.793   2.121  11.418  0.8069  0.7745 -1.6667
 2893SOL     OW20137   4.204   4.459  15.358 -0.0403 -0.0351 -0.0626
 2893SOL    HW120138   4.252   4.434  15.279 -0.0279 -1.3086  0.3343
 2893SOL    HW220139   4.137   4.390  15.363 -1.0698  1.0422  0.9976
 2894SOL     OW20140   3.645   2.971  14.014  0.0553  0.1050  0.3848
 2894SOL    HW120141   3.732   2.944  13.985  0.4178  3.0309 -1.2755
 2894SOL    HW220142   3.648   2.963  14.109 -0.7466  2.2061  0.5842
 2895SOL     OW20143   3.256   3.122   8.283 -0.1812 -0.0549  0.5140
 2895SOL    HW120144   3.325   3.065   8.318  1.2258  0.4485 -1.4771
 2895SOL    HW220145   3.309   3.196   8.254  0.4446 -0.4044  0.7674
 2896SOL     OW20146   3.384   1.333   6.457 -0.0449 -0.1631 -0.0265
 2896SOL    HW120147   3.322   1.403   6.477  0.5907  0.7450 -1.2405
 2896SOL    HW220148   3.320   1.264   6.437  2.4795 -3.1534  2.1901
 2897SOL     OW20149   1.166   3.659   7.967 -0.4681 -0.8049 -0.7202
 2897SOL    HW120150   1.090   3.613   8.002  0.6896 -1.4576  0.9285
 2897SOL    HW220151   1.236   3.607   8.005  0.3598  0.0774 -1.0355
 2898SOL     OW20152   0.796   3.512   2.824 -0.1063  0.1563  0.5599
 2898SOL    HW120153   0.880   3.527   2.868 -0.0788 -0.2765  0.6539
 2898SOL    HW220154   0.816   3.448   2.756 -0.5004 -1.1622  1.6914
 2899SOL     OW20155   3.199   0.153   4.546 -0.3401  0.2627  0.1898
 2899SOL    HW120156   3.281   0.201   4.539  0.4114 -1.0189  0.3079
 2899SOL    HW220157   3.151   0.148   4.463  0.5296 -0.0632 -0.2926
 2900SOL     OW20158   3.318   0.051   4.190 -0.2256 -0.1568  0.5947
 2900SOL    HW120159   3.301   0.139   4.222  2.4771 -0.2729  2.3460
 2900SOL    HW220160   3.229   0.016   4.187  0.1126 -0.9330 -0.3229
 2901SOL     OW20161   0.136   3.064   7.998  0.3887 -0.5584  0.1634
 2901SOL    HW120162   0.227   3.071   7.969 -0.0068 -2.3257 -1.5429
 2901SOL    HW220163   0.081   3.078   7.920  0.2272 -3.3349 -0.2082
 2902SOL     OW20164   2.579   3.504   1.552 -0.0447 -0.1704  0.0017
 2902SOL    HW120165   2.593   3.589   1.594 -3.2727  0.8876 -1.0575
 2902SOL    HW220166   2.652   3.465   1.600 -0.7091 -0.2587  0.9437
 2903SOL     OW20167   2.139   3.180   4.869 -0.4131  0.0548  0.5338
 2903SOL    HW120168   2.079   3.166   4.796  1.7097  1.1681 -1.4487
 2903SOL    HW220169   2.081   3.170   4.944  0.7997 -1.5564  1.2615
 2904SOL     OW20170   3.323   0.434  16.185  0.3028 -0.4597  0.4298
 2904SOL    HW120171   3.403   0.393  16.152  0.1538 -0.1689 -0.3024
 2904SOL    HW220172   3.337   0.443  16.279  2.6535  1.4050 -0.1008
 2905SOL     OW20173   1.062   4.016   8.415  0.4143  0.0947  0.3964
 2905SOL    HW120174   0.972   4.019   8.383  1.1736  0.1094 -1.7233
 2905SOL    HW220175   1.054   3.956   8.489 -2.7774 -1.1546 -0.9616
 2906SOL     OW20176   1.865   2.252  17.676  0.1713 -0.9045 -0.1137
 2906SOL    HW120177   1.843   2.172   0.038  0.4652 -1.4269 -0.8340
 2906SOL    HW220178   1.939   2.217  17.627  0.1519 -0.3624 -0.5220
 2907SOL     OW20179   2.226   2.435   5.636 -0.7014  0.0906  0.1329
 2907SOL    HW120180   2.241   2.498   5.566 -0.9887 -0.6386 -0.5796
 2907SOL    HW220181   2.278   2.477   5.704  0.8187 -1.5139 -0.0447
 2908SOL     OW20182   3.731   2.655   1.715 -0.3208 -0.2172 -0.3494
 2908SOL    HW120183   3.772   2.734   1.751 -0.3297 -0.1271 -0.5346
 2908SOL    HW220184   3.791   2.637   1.642 -0.9855 -1.5998 -0.5444
 2909SOL     OW20185   0.024   4.696   2.330 -0.7330 -0.0816 -0.1659
 2909SOL    HW120186   4.708   4.635   2.266 -0.4286 -1.1266  0.6753
 2909SOL    HW220187   4.687   0.050   2.311 -0.1194  0.2210 -0.8458
 2910SOL     OW20188   0.918   2.234   4.213 -0.2820 -0.0185 -0.1645
 2910SOL    HW120189   0.931   2.328   4.226 -0.2674  0.1403 -1.3956
 2910SOL    HW220190   0.834   2.219   4.255  0.0438 -1.4174 -0.0112
 2911SOL     OW20191   0.668   1.821   8.950  0.1615  0.7833 -0.0193
 2911SOL    HW120192   0.575   1.795   8.946  0.5451 -0.8662  1.4153
 2911SOL    HW220193   0.693   1.793   8.862  0.6526 -0.1260  0.4045
 2912SOL     OW20194   1.164   1.634  15.683 -0.4914  0.2237  0.4844
 2912SOL    HW120195   1.254   1.666  15.677 -0.1561 -0.5355  1.4450
 2912SOL    HW220196   1.122   1.678  15.609 -0.1131  2.2984  1.5009
 2913SOL     OW20197   4.620   1.137   7.299  0.2383 -0.6151  0.1641
 2913SOL    HW120198   4.629   1.209   7.361 -0.0968 -0.4669  0.0393
 2913SOL    HW220199   4.653   1.176   7.218  0.4008 -0.8990  0.0920
 2914SOL     OW20200   1.206   1.614   4.714  0.3967  0.1472  0.5442
 2914SOL    HW120201   1.128   1.652   4.672 -0.5009 -1.9553  0.3081
 2914SOL    HW220202   1.154   1.582   4.788 -0.4804 -2.2704 -1.0893
 2915SOL     OW20203   2.429   2.414   5.323  0.3473 -0.2689 -0.0659
 2915SOL    HW120204   2.488   2.361   5.376  1.8229 -0.0370 -1.4712
 2915SOL    HW220205   2.370   2.440   5.393  2.5858 -1.9560  2.4153
 2916SOL     OW20206   0.417   2.241   5.847  0.7939  0.2407  0.3752
 2916SOL    HW120207   0.354   2.177   5.880 -1.2259  1.7900 -0.4680
 2916SOL    HW220208   0.497   2.215   5.892 -0.8678 -3.8814  0.9515
 2917SOL     OW20209   1.612   1.091   7.760  0.3892 -0.5026  0.4557
 2917SOL    HW120210   1.648   1.019   7.707 -0.7687 -1.8179  1.4521
 2917SOL    HW220211   1.636   1.060   7.847 -0.2021  0.2853  0.9017
 2918SOL     OW20212   3.536   3.012  12.449 -0.0692 -0.1681 -0.4074
 2918SOL    HW120213   3.440   3.013  12.440 -0.0595 -0.5824 -0.5978
 2918SOL    HW220214   3.548   3.032  12.542  1.2715  0.5646 -0.7426
 2919SOL     OW20215   1.073   0.264   4.177  0.5700  0.9519 -0.6088
 2919SOL    HW120216   1.013   0.246   4.104  1.8046 -0.2250 -1.3390
 2919SOL    HW220217   1.018   0.329   4.220 -1.5268 -1.5458  0.4685
 2920SOL     OW20218   3.622   1.919  13.199  0.2545  0.4139 -0.2615
 2920SOL    HW120219   3.605   2.011  13.219 -0.2247 -0.2556  2.4705
 2920SOL    HW220220   3.642   1.879  13.284  2.0541  0.8439 -0.4773
 2921SOL     OW20221   1.755   0.120  11.990 -0.2092  0.0271 -0.0748
 2921SOL    HW120222   1.814   0.192  12.009 -1.4209  1.6169 -2.3020
 2921SOL    HW220223   1.759   0.125  11.894 -0.1575  2.3691  0.0500
 2922SOL     OW20224   3.235   1.284  14.059 -0.2991 -0.0048 -0.4122
 2922SOL    HW120225   3.322   1.317  14.081 -0.0467 -1.5890  0.8614
 2922SOL    HW220226   3.193   1.361  14.020 -5.2744 -2.5224 -0.0767
 2923SOL     OW20227   3.239   1.469   5.246  0.1126 -0.2947  0.2507
 2923SOL    HW120228   3.215   1.426   5.164  1.7689 -0.3424 -0.1925
 2923SOL    HW220229   3.326   1.497   5.219  0.0784  0.3677  0.8233
 2924SOL     OW20230   2.329   4.596   2.905 -0.2161  0.1838 -0.4425
 2924SOL    HW120231   2.271   4.567   2.835 -2.3053  2.7183  0.2490
 2924SOL    HW220232   2.388   4.652   2.854 -2.2683  0.0456 -2.9817
 2925SOL     OW20233   3.150   2.568   7.689 -0.3789 -0.7012  0.0026
 2925SOL    HW120234   3.195   2.651   7.701  0.6286 -1.2195 -0.2226
 2925SOL    HW220235   3.181   2.527   7.770  0.4283  1.7887  0.9619
 2926SOL     OW20236   2.540   1.014   5.008  0.5461 -0.7663  0.0605
 2926SOL    HW120237   2.572   0.944   5.066  3.3818  1.0711  0.7540
 2926SOL    HW220238   2.566   1.093   5.056 -0.6725 -0.0544 -0.4553
 2927SOL     OW20239   1.649   3.521   8.500  0.1656  0.5270  0.2733
 2927SOL    HW120240   1.740   3.503   8.475  0.2899  1.3728  0.0853
 2927SOL    HW220241   1.647   3.615   8.481  1.6684  0.5394  0.1252
 2928SOL     OW20242   1.914   1.931   6.602 -0.4868  0.1509 -0.2664
 2928SOL    HW120243   1.863   1.851   6.610  2.0281 -1.2482  1.6812
 2928SOL    HW220244   1.875   1.981   6.673  0.3759  0.2347  0.1514
 2929SOL     OW20245   0.767   2.363   8.383  0.1561  0.0279  0.3842
 2929SOL    HW120246   0.839   2.350   8.320  0.1207 -2.0675  0.7660
 2929SOL    HW220247   0.792   2.313   8.461 -1.5200 -0.0606  0.8549
 2930SOL     OW20248   1.224   0.451   7.799 -0.2392 -0.0227  0.6621
 2930SOL    HW120249   1.267   0.489   7.723 -0.0966  1.4694  1.4847
 2930SOL    HW220250   1.221   0.523   7.863 -0.4474 -0.0755  0.7126
 2931SOL     OW20251   3.069   4.323   0.114  0.7349  0.2400  0.1434
 2931SOL    HW120252   3.076   4.391   0.047 -0.8507  1.7307  1.4804
 2931SOL    HW220253   2.976   4.324   0.135  0.3582 -2.4623 -1.5455
 2932SOL     OW20254   3.530   4.485  17.154 -0.2365  0.7496 -0.7369
 2932SOL    HW120255   3.624   4.495  17.142  0.0524  0.3392  1.2247
 2932SOL    HW220256   3.532   4.434  17.235 -2.4993  2.6236  0.5017
 2933SOL     OW20257   0.611   0.455   2.688 -0.5060  0.2750  0.0114
 2933SOL    HW120258   0.606   0.456   2.784 -2.1832 -0.6330 -0.0708
 2933SOL    HW220259   0.614   0.549   2.668  0.4226  0.9321  3.3137
 2934SOL     OW20260   4.010   3.150  12.895  0.6776  0.0391  0.0234
 2934SOL    HW120261   3.946   3.133  12.826  0.7716  1.8757 -0.5331
 2934SOL    HW220262   4.039   3.064  12.923 -0.1400 -0.0729  0.5209
 2935SOL     OW20263   2.378   1.404   7.156 -0.1790 -0.0719  0.2586
 2935SOL    HW120264   2.439   1.342   7.117  1.5108  1.2910  0.7442
 2935SOL    HW220265   2.369   1.363   7.242  2.2257  0.7179  0.8776
 2936SOL     OW20266   2.338   0.059   7.935  0.9760  0.6283 -0.5530
 2936SOL    HW120267   2.381   0.138   7.903  0.6563 -0.4428 -3.6577
 2936SOL    HW220268   2.299   0.038   7.850 -0.2220  3.2381 -0.6534
 2937SOL     OW20269   3.677   2.092  16.291 -0.0872 -0.2315  0.4117
 2937SOL    HW120270   3.593   2.062  16.327  0.4538 -1.9064  0.2496
 2937SOL    HW220271   3.637   2.146  16.222  1.6320 -0.7798 -1.0061
 2938SOL     OW20272   4.684   1.122  17.231 -0.4631  0.6517  0.0902
 2938SOL    HW120273   4.607   1.068  17.212  0.0719  0.0711 -0.4465
 2938SOL    HW220274   0.015   1.110  17.152  3.2657  2.3437  2.3008
 2939SOL     OW20275   1.361   1.768   6.386  0.5201  0.2350 -0.0201
 2939SOL    HW120276   1.343   1.761   6.480  1.5795  0.9064  0.2339
 2939SOL    HW220277   1.418   1.844   6.394  0.4785  0.2099  0.5075
 2940SOL     OW20278   1.929   2.879  13.676  0.4126  0.2904 -0.1506
 2940SOL    HW120279   1.911   2.785  13.682  0.6876  0.0614 -3.1451
 2940SOL    HW220280   1.922   2.891  13.582 -0.7252 -0.7978 -0.2115
 2941SOL     OW20281   3.295   2.339   6.922 -0.6479 -0.1054  0.1178
 2941SOL    HW120282   3.248   2.306   6.845 -1.7568 -1.0551  1.2142
 2941SOL    HW220283   3.298   2.432   6.900 -3.1884  0.2994  1.5252
 2942SOL     OW20284   3.529   2.158  13.647 -0.4358  0.0030  0.2136
 2942SOL    HW120285   3.492   2.243  13.624  2.3252  1.5313  1.3751
 2942SOL    HW220286   3.447   2.109  13.651  0.0993 -0.9367 -0.3581
 2943SOL     OW20287   0.144   4.442   5.981 -0.3837 -0.6883 -0.3163
 2943SOL    HW120288   0.143   4.503   5.907 -1.9671 -2.2424 -1.5887
 2943SOL    HW220289   0.132   4.352   5.950  1.9040 -1.0649 -0.0997
 2944SOL     OW20290   3.646   4.574  11.835  0.3170 -0.3349  0.6446
 2944SOL    HW120291   3.568   4.613  11.797  0.5226 -0.2279  0.3338
 2944SOL    HW220292   3.702   4.652  11.840  0.1007 -0.1615  0.3582
 2945SOL     OW20293   3.481   4.533   9.311 -0.3397  0.3485 -0.2550
 2945SOL    HW120294   3.470   4.449   9.356  0.9408 -0.4166 -1.3592
 2945SOL    HW220295   3.390   4.562   9.307 -0.9826 -1.3976  1.5666
 2946SOL     OW20296   3.385   4.298  10.555 -0.2038  0.5982 -0.3628
 2946SOL    HW120297   3.445   4.240  10.509  0.9642  1.6106 -0.1320
 2946SOL    HW220298   3.423   4.384  10.536  0.4371  0.5459  0.6960
 2947SOL     OW20299   0.663   1.548  10.686 -0.4529 -0.6886  0.4240
 2947SOL    HW120300   0.576   1.574  10.657  0.0175  0.0294 -0.3455
 2947SOL    HW220301   0.700   1.496  10.615 -1.3511 -3.5914  2.0650
 2948SOL     OW20302   4.402   0.474   5.888 -0.7813 -0.0210 -0.3519
 2948SOL    HW120303   4.323   0.440   5.847  0.0070 -2.3174  0.0154
 2948SOL    HW220304   4.372   0.487   5.978 -0.4779  0.1047 -0.2666
 2949SOL     OW20305   3.668   0.308   6.146 -0.1418 -0.2654  0.0443
 2949SOL    HW120306   3.665   0.248   6.221  1.4774  1.8473  1.7897
 2949SOL    HW220307   3.748   0.281   6.100 -0.1877 -0.2637 -0.0354
 2950SOL     OW20308   0.606   2.496  12.727 -0.0413 -0.2420  0.4568
 2950SOL    HW120309   0.605   2.568  12.791  1.1586 -2.6602  3.1637
 2950SOL    HW220310   0.583   2.412  12.766 -0.4794 -0.4978 -0.3721
 2951SOL     OW20311   1.536   2.395   4.505  0.1603 -0.1886  0.2534
 2951SOL    HW120312   1.454   2.401   4.555 -0.1853  0.9763 -0.4391
 2951SOL    HW220313   1.586   2.330   4.553  1.7384 -0.8365 -2.2713
 2952SOL     OW20314   4.516   0.516   5.366 -0.3372 -0.4415 -0.0964
 2952SOL    HW120315   4.580   0.445   5.366  0.1275 -0.0221 -0.8037
 2952SOL    HW220316   4.544   0.588   5.424 -1.9738 -0.5142  0.7896
 2953SOL     OW20317   1.939   2.522   7.783 -0.3700 -0.8849 -0.3680
 2953SOL    HW120318   1.995   2.547   7.710 -0.5368  1.2759  0.2376
 2953SOL    HW220319   2.004   2.477   7.836 -0.1662 -0.3462 -0.1536
 2954SOL     OW20320   3.694   4.178   6.078 -0.2996  0.5305 -0.6642
 2954SOL    HW120321   3.738   4.176   5.993  0.0847 -2.2035 -0.4074
 2954SOL    HW220322   3.702   4.083   6.086  0.3662  0.4165 -2.5011
 2955SOL     OW20323   0.943   2.572   9.726  0.2897 -0.6478  0.5941
 2955SOL    HW120324   0.910   2.605   9.810 -1.1374  0.3586 -0.3463
 2955SOL    HW220325   0.901   2.486   9.719  1.1163 -0.9085 -1.2228
 2956SOL     OW20326   3.133   2.023   6.324  0.9026 -0.1553 -0.0934
 2956SOL    HW120327   3.046   2.029   6.284 -0.1894 -0.0383  2.3254
 2956SOL    HW220328   3.160   2.113   6.306 -0.1433  0.2163  0.1971
 2957SOL     OW20329   3.955   3.582  11.604 -0.1350  0.3995 -0.3345
 2957SOL    HW120330   3.968   3.665  11.650 -0.8707  0.4897 -0.2831
 2957SOL    HW220331   3.929   3.602  11.514 -0.0852  1.4183 -0.1291
 2958SOL     OW20332   0.934   2.689   1.730 -0.3199 -0.0168  0.3004
 2958SOL    HW120333   0.874   2.670   1.658 -0.8796  1.7007  0.3056
 2958SOL    HW220334   1.004   2.733   1.682 -1.0289 -0.1686 -0.8743
 2959SOL     OW20335   1.182   4.528   2.131  0.1476 -0.2989 -0.1055
 2959SOL    HW120336   1.188   4.608   2.183  0.8327 -0.4012 -0.0282
 2959SOL    HW220337   1.269   4.515   2.093 -1.5783 -2.3418 -3.3109
 2960SOL     OW20338   1.925   3.238   7.216  0.0360 -0.0093 -0.0211
 2960SOL    HW120339   1.921   3.319   7.268  1.2120  0.9016 -1.3380
 2960SOL    HW220340   1.864   3.260   7.146 -1.8516  0.5349  1.8245
 2961SOL     OW20341   2.545   1.172  17.141 -0.1007 -0.4012 -0.3747
 2961SOL    HW120342   2.491   1.162  17.220 -1.7134  2.2366 -1.1442
 2961SOL    HW220343   2.496   1.130  17.070  0.5449  0.0342 -1.0706
 2962SOL     OW20344   1.395   0.440   3.784  0.4366 -0.1901  0.6077
 2962SOL    HW120345   1.381   0.522   3.832 -1.7488  0.4321 -1.0786
 2962SOL    HW220346   1.306   0.425   3.753  0.8734 -3.1764  0.8577
 2963SOL     OW20347   3.423   3.186   6.831  0.1848  0.4122 -0.3190
 2963SOL    HW120348   3.404   3.115   6.894  0.6407  1.8663  1.4574
 2963SOL    HW220349   3.514   3.172   6.808  0.9494  2.4827  1.4990
 2964SOL     OW20350   1.624   4.671   4.722 -0.1422  0.8958  0.0470
 2964SOL    HW120351   1.580   4.633   4.798 -1.3263  2.1762  0.0056
 2964SOL    HW220352   1.703   4.710   4.759  1.9383 -3.4835  0.2955
 2965SOL     OW20353   4.529   0.113   3.620  0.8110 -0.0613  0.0215
 2965SOL    HW120354   4.518   0.019   3.630 -0.7227  0.1809  0.5378
 2965SOL    HW220355   4.472   0.141   3.548  1.9462 -0.5838 -1.0836
 2966SOL     OW20356   1.293   3.802   1.996  1.1267 -0.3951  0.5033
 2966SOL    HW120357   1.322   3.743   1.926 -1.7488 -0.4069 -0.6866
 2966SOL    HW220358   1.219   3.751   2.030  0.6089  0.5830  0.8344
 2967SOL     OW20359   3.300   3.616  12.370  0.2835 -0.2045 -0.4524
 2967SOL    HW120360   3.356   3.634  12.445 -0.4640 -1.1002  0.3261
 2967SOL    HW220361   3.259   3.536  12.404 -0.2693 -0.4149 -1.6097
 2968SOL     OW20362   0.504   1.156   6.085 -0.1030  0.0010  0.1066
 2968SOL    HW120363   0.595   1.187   6.081 -0.4477  1.0506  0.2865
 2968SOL    HW220364   0.510   1.110   6.169 -1.4820  0.4487  0.4543
 2969SOL     OW20365   2.714   4.596  11.888 -0.1997  0.1344 -0.0248
 2969SOL    HW120366   2.782   4.558  11.943 -1.8409 -0.5474  1.5150
 2969SOL    HW220367   2.645   4.530  11.895  0.6173 -0.8561 -1.3462
 2970SOL     OW20368   1.315   2.268   2.113  0.0751  0.3530 -0.4107
 2970SOL    HW120369   1.304   2.356   2.149  0.4261  0.4552 -0.5607
 2970SOL    HW220370   1.308   2.292   2.020 -0.9207 -1.5896 -0.8476
 2971SOL     OW20371   1.223   0.824   3.395  0.4672  0.0331  0.1414
 2971SOL    HW120372   1.294   0.803   3.334 -1.4095 -0.9587 -1.7078
 2971SOL    HW220373   1.275   0.829   3.476  0.6279  2.7753 -0.1476
 2972SOL     OW20374   1.460   0.126   5.750  0.4036 -0.3889 -0.1970
 2972SOL    HW120375   1.534   0.083   5.708  0.8661 -1.3380  1.6021
 2972SOL    HW220376   1.418   0.162   5.672 -0.0189  1.2424  0.7717
 2973SOL     OW20377   3.067   2.267   2.614  0.1067 -0.0030  0.3636
 2973SOL    HW120378   3.112   2.347   2.640 -0.6776  0.9141 -1.1218
 2973SOL    HW220379   3.134   2.238   2.553  1.7714 -0.0993  2.2388
 2974SOL     OW20380   3.299   3.068  11.392 -0.2375 -0.2871  0.2760
 2974SOL    HW120381   3.226   3.010  11.371  1.2421 -2.1222  0.1141
 2974SOL    HW220382   3.313   3.043  11.483 -0.7042 -1.1475  0.1154
 2975SOL     OW20383   0.509   0.379   2.134 -0.5971  0.1190 -0.3163
 2975SOL    HW120384   0.598   0.416   2.131 -0.7832  0.3723 -2.5478
 2975SOL    HW220385   0.493   0.373   2.228 -2.3943  1.6211 -0.5317
 2976SOL     OW20386   4.672   3.330   5.690 -0.3954 -0.0624 -0.0855
 2976SOL    HW120387   0.010   3.401   5.715  1.5538 -2.0592  0.8904
 2976SOL    HW220388   0.003   3.251   5.677  2.4384  1.9348 -0.9214
 2977SOL     OW20389   3.740   2.821   8.276 -0.6134 -0.2242  0.0665
 2977SOL    HW120390   3.798   2.879   8.227 -0.2777  1.2954  2.2738
 2977SOL    HW220391   3.806   2.780   8.332 -0.9190 -0.3350  0.3426
 2978SOL     OW20392   0.193   0.088   3.983 -0.1077  0.0681  0.7368
 2978SOL    HW120393   0.259   0.034   3.940 -0.7893 -0.3766  0.2304
 2978SOL    HW220394   0.115   0.052   3.939 -1.1646  1.1905  1.6946
 2979SOL     OW20395   2.045   3.132   8.116 -0.3214  0.5811 -0.2807
 2979SOL    HW120396   2.001   3.047   8.124 -0.5607  0.4803 -2.5104
 2979SOL    HW220397   2.126   3.106   8.162 -0.8361 -0.4917  0.0316
 2980SOL     OW20398   4.398   1.333  11.323 -0.7712  0.2318 -0.0671
 2980SOL    HW120399   4.420   1.264  11.386  0.0164 -0.0886 -0.6926
 2980SOL    HW220400   4.451   1.305  11.249 -2.5453 -1.1300 -0.8139
 2981SOL     OW20401   2.942   4.357  15.979  0.3163 -0.0422  0.1127
 2981SOL    HW120402   2.973   4.389  16.064 -1.0430  1.2337  0.1346
 2981SOL    HW220403   3.020   4.373  15.926 -0.0166 -1.3513 -0.7608
 2982SOL     OW20404   0.258   2.569   9.032 -0.1345  0.4998 -0.3926
 2982SOL    HW120405   0.316   2.523   8.971 -0.2702 -0.5168  0.2466
 2982SOL    HW220406   0.287   2.543   9.119  0.7102  0.1918 -0.7653
 2983SOL     OW20407   0.228   3.907   3.609  0.0929 -0.3901  0.2386
 2983SOL    HW120408   0.183   3.991   3.602 -2.4007 -1.7070  0.6032
 2983SOL    HW220409   0.251   3.896   3.516  0.7915  0.8013  0.2746
 2984SOL     OW20410   3.919   0.838   2.315  0.9134 -0.2620  0.6927
 2984SOL    HW120411   3.939   0.850   2.222 -1.3596 -0.4967  0.1743
 2984SOL    HW220412   3.923   0.743   2.319  0.9984 -0.3100 -0.7749
 2985SOL     OW20413   2.285   3.365   3.396  0.3137  0.8302 -0.0546
 2985SOL    HW120414   2.234   3.300   3.445  1.5996 -0.4422 -0.4091
 2985SOL    HW220415   2.301   3.317   3.315  0.2898  0.6639  0.0378
 2986SOL     OW20416   3.586   4.629  16.837 -0.1014  0.0772  0.1109
 2986SOL    HW120417   3.660   4.608  16.780  0.0052  0.4068  0.1289
 2986SOL    HW220418   3.554   4.539  16.845  1.9037 -0.5982  0.5518
 2987SOL     OW20419   3.677   4.640   0.114  0.4210 -0.2427  0.5365
 2987SOL    HW120420   3.620   4.697   0.063  1.4186  0.0308 -0.2594
 2987SOL    HW220421   3.614   4.570   0.128 -0.0823  0.2611  0.7861
 2988SOL     OW20422   4.177   1.087  17.008 -0.1321  0.2207  0.2651
 2988SOL    HW120423   4.160   1.130  17.091  1.0593  0.8989  0.1652
 2988SOL    HW220424   4.115   1.014  17.005  0.4340 -0.2801  0.6295
 2989SOL     OW20425   0.938   3.412   5.432  0.0857 -0.1303 -0.3574
 2989SOL    HW120426   0.997   3.484   5.454  1.0285 -0.5217 -1.5913
 2989SOL    HW220427   0.972   3.381   5.348  3.0403  0.2330  0.6995
 2990SOL     OW20428   4.586   4.035  13.351 -0.2478  0.1073 -0.3701
 2990SOL    HW120429   4.630   4.075  13.277 -1.6146 -0.4375 -1.4949
 2990SOL    HW220430   4.491   4.036  13.337  0.0116  1.1264 -2.0327
 2991SOL     OW20431   1.350   1.710   8.302  0.2214  0.6935  0.1265
 2991SOL    HW120432   1.359   1.624   8.262  0.8736  0.6777  0.2986
 2991SOL    HW220433   1.280   1.676   8.357 -0.4294  1.2716 -0.3371
 2992SOL     OW20434   0.289   0.848   8.855 -0.2890  0.9044 -0.4274
 2992SOL    HW120435   0.376   0.817   8.880  0.0746  0.8475 -1.7831
 2992SOL    HW220436   0.255   0.887   8.936 -1.0179  3.3933 -1.9174
 2993SOL     OW20437   2.867   2.966   7.602  0.0498  1.0166  0.2040
 2993SOL    HW120438   2.953   2.984   7.565  0.3711 -3.3782 -1.2096
 2993SOL    HW220439   2.817   3.004   7.530  1.3004 -0.2838 -1.3362
 2994SOL     OW20440   3.313   2.063  13.790  0.5037 -0.2587 -0.2494
 2994SOL    HW120441   3.306   2.101  13.877  0.5242  0.5574 -0.6035
 2994SOL    HW220442   3.249   1.992  13.795 -0.3843  0.6378  1.0402
 2995SOL     OW20443   4.451   2.951   4.919  0.1339 -0.3674  0.0135
 2995SOL    HW120444   4.394   3.010   4.870 -0.8372  1.3736  3.2615
 2995SOL    HW220445   4.526   2.958   4.860  1.6520  1.4181  2.1531
 2996SOL     OW20446   3.943   4.050   0.787  0.3734 -0.1879 -0.2104
 2996SOL    HW120447   4.018   4.067   0.845 -0.4167  0.1811  0.6967
 2996SOL    HW220448   3.938   3.954   0.795  0.5375 -0.2002 -0.2427
 2997SOL     OW20449   3.244   1.481   0.893 -0.3825  0.4298 -0.0643
 2997SOL    HW120450   3.310   1.539   0.931 -0.9336  1.6064 -0.9097
 2997SOL    HW220451   3.168   1.538   0.904 -1.2571 -0.6240 -0.6045
 2998SOL     OW20452   4.379   1.663  11.386 -0.2065  0.1761 -0.2199
 2998SOL    HW120453   4.449   1.602  11.361  0.5491  0.8113  0.3478
 2998SOL    HW220454   4.383   1.663  11.481  0.9213  2.6591 -0.2640
 2999SOL     OW20455   0.712   3.601   6.715  0.0785 -0.2136 -0.6009
 2999SOL    HW120456   0.658   3.613   6.637 -2.1431 -1.3748  0.7615
 2999SOL    HW220457   0.656   3.577   6.789  0.7159 -0.7461 -0.2856
 3000SOL     OW20458   3.469   1.515   5.788 -0.4789 -0.4935  0.0471
 3000SOL    HW120459   3.401   1.551   5.731  0.5430  0.7201 -0.4112
 3000SOL    HW220460   3.445   1.545   5.875 -0.8065 -1.0776  0.1631
 3001SOL     OW20461   2.524   3.758   4.896  0.4315  0.8417 -0.6280
 3001SOL    HW120462   2.486   3.698   4.961 -1.2516  2.0005 -0.5460
 3001SOL    HW220463   2.611   3.720   4.880  1.5375  2.2508  2.0770
 3002SOL     OW20464   0.743   0.969   3.204 -0.2287 -0.4207  0.1777
 3002SOL    HW120465   0.722   0.937   3.117 -0.0228  0.5368 -0.2212
 3002SOL    HW220466   0.738   1.064   3.192  0.5225 -0.3244  0.5840
 3003SOL     OW20467   1.853   1.554   1.301 -0.1858 -0.2662 -0.0905
 3003SOL    HW120468   1.767   1.518   1.276 -0.2061  0.0211 -0.4372
 3003SOL    HW220469   1.893   1.541   1.215  0.1475 -0.5885  0.1104
 3004SOL     OW20470   1.673   3.257   7.714  0.1485  0.0061  0.0018
 3004SOL    HW120471   1.677   3.314   7.791 -0.2303  0.1930 -0.1170
 3004SOL    HW220472   1.754   3.284   7.670  1.3597  0.2022  2.3394
 3005SOL     OW20473   3.087   0.460  14.817  0.1430  0.5886 -0.2866
 3005SOL    HW120474   3.138   0.478  14.896  1.6495  0.8051 -1.3183
 3005SOL    HW220475   3.103   0.366  14.821  1.8871  1.0346  3.6870
 3006SOL     OW20476   2.038   2.089  14.609  0.0463 -0.1029  0.3604
 3006SOL    HW120477   2.070   2.001  14.587  2.8318  0.0823  3.7462
 3006SOL    HW220478   1.984   2.116  14.534 -0.4497  0.3828  0.8971
 3007SOL     OW20479   0.404   1.978   6.648  0.0604 -0.2912  0.2663
 3007SOL    HW120480   0.360   1.913   6.703 -2.0265  0.1099 -0.8997
 3007SOL    HW220481   0.332   2.026   6.607  0.2754 -0.8995 -0.8362
 3008SOL     OW20482   3.195   0.853  15.965  0.5741 -0.7688  0.0688
 3008SOL    HW120483   3.198   0.791  15.892  2.6405  1.4455 -1.7502
 3008SOL    HW220484   3.285   0.885  15.957  0.1912  0.0582 -0.8671
 3009SOL     OW20485   3.495   0.165   3.999 -0.1939  0.0686  0.2640
 3009SOL    HW120486   3.499   0.111   3.920 -0.4968  1.9482 -1.0499
 3009SOL    HW220487   3.434   0.112   4.050  1.2681 -0.1016  1.8371
 3010SOL     OW20488   2.364   0.398  14.999  0.0815  0.4906 -0.4666
 3010SOL    HW120489   2.270   0.403  14.979 -0.1559 -1.6584  0.0449
 3010SOL    HW220490   2.371   0.393  15.094  1.2005 -0.7736 -0.6177
 3011SOL     OW20491   2.807   1.767   3.502  0.7504  0.0629 -0.3597
 3011SOL    HW120492   2.842   1.832   3.564  0.3268  1.7327 -1.8931
 3011SOL    HW220493   2.779   1.819   3.427  0.3305  0.2837 -0.0560
 3012SOL     OW20494   4.441   4.291   9.073  0.0455  0.0641  0.1151
 3012SOL    HW120495   4.521   4.240   9.065 -0.3786 -0.8222  1.5546
 3012SOL    HW220496   4.464   4.370   9.023 -1.5040 -0.2062 -1.0164
 3013SOL     OW20497   3.423   0.674   3.017 -0.2429  0.5285  0.0292
 3013SOL    HW120498   3.423   0.604   2.951 -1.5603 -2.1636  2.8541
 3013SOL    HW220499   3.453   0.741   2.956 -0.6211  0.8934  0.2450
 3014SOL     OW20500   3.898   2.845   7.542 -0.0281  0.6821 -0.6318
 3014SOL    HW120501   3.838   2.847   7.468  1.6462  1.1091 -1.9790
 3014SOL    HW220502   3.953   2.916   7.510 -0.3356  0.9578 -0.5526
 3015SOL     OW20503   3.398   1.725   4.733  0.1565  0.1296 -0.3303
 3015SOL    HW120504   3.425   1.811   4.704  2.5068 -0.4108  0.2830
 3015SOL    HW220505   3.311   1.737   4.772 -0.0166  1.6723 -1.2130
 3016SOL     OW20506   2.985   2.801   6.412 -0.9515 -0.0124  0.0218
 3016SOL    HW120507   3.059   2.758   6.454 -0.9043  0.6388  0.5936
 3016SOL    HW220508   2.970   2.735   6.344  0.7110 -0.2194 -0.1280
 3017SOL     OW20509   4.162   3.857   2.734  0.3340 -0.0683 -0.1098
 3017SOL    HW120510   4.196   3.943   2.711  0.9462  0.0734  1.3956
 3017SOL    HW220511   4.148   3.863   2.828 -0.1764  0.5651 -0.2320
 3018SOL     OW20512   2.669   0.297  15.876  0.5831 -0.0478 -0.0497
 3018SOL    HW120513   2.715   0.371  15.915 -0.1612  1.1040 -1.3341
 3018SOL    HW220514   2.609   0.273  15.947 -0.5280 -1.7653 -1.5497
 3019SOL     OW20515   2.173   1.664   7.289  0.0024  0.2892 -0.1059
 3019SOL    HW120516   2.091   1.666   7.338 -1.1600 -0.6094 -2.0277
 3019SOL    HW220517   2.153   1.587   7.236 -0.3400  0.8808 -0.8316
 3020SOL     OW20518   3.689   0.009   2.677 -0.4251  0.3860  0.0909
 3020SOL    HW120519   3.627   4.668   2.714 -1.7108  1.2524 -0.6034
 3020SOL    HW220520   3.680   0.083   2.737  0.7807 -0.5151  1.3579
 3021SOL     OW20521   1.965   2.286   2.242  0.3499  0.1336 -0.0667
 3021SOL    HW120522   2.041   2.312   2.294  0.8086  0.5690 -0.9588
 3021SOL    HW220523   2.013   2.242   2.172 -0.0747 -2.2351  1.1447
 3022SOL     OW20524   3.016   3.329  14.641  0.1067 -1.1546 -0.0174
 3022SOL    HW120525   2.994   3.383  14.565 -0.2633 -0.2433  0.7519
 3022SOL    HW220526   2.956   3.346  14.713  0.0873  3.0381 -1.0034
 3023SOL     OW20527   0.347   4.591  11.005 -0.1832 -0.5199 -0.3303
 3023SOL    HW120528   0.355   4.686  10.994 -2.0116 -0.2149  0.9274
 3023SOL    HW220529   0.408   4.564  10.936 -0.6771 -1.4685 -0.3973
 3024SOL     OW20530   2.107   1.862  11.929 -0.8766  0.0076 -0.0060
 3024SOL    HW120531   2.056   1.943  11.936 -0.1096  0.2875  2.4139
 3024SOL    HW220532   2.121   1.840  12.021  0.7914  1.5080  0.0943
 3025SOL     OW20533   2.811   2.665   3.468 -0.3039 -0.2182  0.3734
 3025SOL    HW120534   2.895   2.691   3.430 -0.2755 -1.6714 -0.5521
 3025SOL    HW220535   2.767   2.618   3.398  0.0727  1.0768 -0.7385
 3026SOL     OW20536   3.357   0.424   2.414  0.2653  0.5263 -0.2919
 3026SOL    HW120537   3.329   0.449   2.502  0.8785  0.8590 -0.1898
 3026SOL    HW220538   3.343   0.504   2.363  0.1874  1.6036  1.4069
 3027SOL     OW20539   4.008   4.679  11.023  0.0788 -0.5955 -0.5230
 3027SOL    HW120540   4.031   4.612  11.087  0.0691  1.9401  2.1559
 3027SOL    HW220541   4.091   4.714  10.992  0.1935  1.2563  1.8634
 3028SOL     OW20542   1.701   3.922   2.022  0.7581 -0.1248 -0.4718
 3028SOL    HW120543   1.790   3.955   2.034  0.2908  0.5047  1.2914
 3028SOL    HW220544   1.680   3.899   2.113 -1.0890  0.6771 -0.6833
 3029SOL     OW20545   1.849   1.410  17.406  0.0574  0.3566  0.0148
 3029SOL    HW120546   1.771   1.373  17.365 -0.8221  0.9434  1.1400
 3029SOL    HW220547   1.818   1.500  17.416  2.1215  0.9709  0.9626
 3030SOL     OW20548   4.604   2.327   7.486 -0.3134 -0.1691  0.1954
 3030SOL    HW120549   4.529   2.379   7.515 -1.0714 -2.1017  1.7317
 3030SOL    HW220550   4.567   2.290   7.406 -1.7910  0.4824  0.5728
 3031SOL     OW20551   1.150   2.123  17.183  0.6445 -0.2727  0.4772
 3031SOL    HW120552   1.214   2.191  17.163 -0.6524  1.2187  1.4178
 3031SOL    HW220553   1.189   2.081  17.259  2.6061  1.2448  0.3090
 3032SOL     OW20554   2.014   4.492  11.378 -0.0398 -0.0475  0.2216
 3032SOL    HW120555   1.964   4.566  11.343  1.0534  0.8630  0.5730
 3032SOL    HW220556   2.042   4.447  11.298  0.3941  0.1983  0.2343
 3033SOL     OW20557   0.675   3.837   3.579 -0.7042  0.1736 -0.6638
 3033SOL    HW120558   0.654   3.930   3.580  1.0277  0.5804 -2.3225
 3033SOL    HW220559   0.643   3.819   3.490 -0.5801  2.5988 -1.2022
 3034SOL     OW20560   2.045   1.581  10.917  0.0348 -0.2423  0.1477
 3034SOL    HW120561   2.007   1.499  10.948 -0.3748  1.1679  3.4039
 3034SOL    HW220562   1.976   1.641  10.946  2.0732  1.4619  1.4830
 3035SOL     OW20563   1.707   2.254   8.205  0.2144 -0.4570 -0.6124
 3035SOL    HW120564   1.765   2.208   8.145  0.3282  1.0862 -1.6790
 3035SOL    HW220565   1.696   2.185   8.271 -0.6850  1.0661  0.8490
 3036SOL     OW20566   0.745   1.440   9.392  0.3454 -0.5838  0.0525
 3036SOL    HW120567   0.803   1.516   9.399 -0.3368 -0.0681  0.1057
 3036SOL    HW220568   0.682   1.456   9.322 -1.6106 -0.2524  1.8642
 3037SOL     OW20569   2.599   2.712   9.688  0.0647  0.4449  0.0187
 3037SOL    HW120570   2.508   2.733   9.708  0.0875  0.6966 -0.1432
 3037SOL    HW220571   2.644   2.719   9.773  0.2091 -2.3775  0.1552
 3038SOL     OW20572   0.035   2.454   9.309  0.1031  0.0062 -0.1783
 3038SOL    HW120573   0.022   2.470   9.403  0.4312 -2.5949  0.3267
 3038SOL    HW220574   4.694   2.518   9.273  0.4569 -0.5598 -1.7986
 3039SOL     OW20575   3.062   4.167   4.140  0.8406  0.6105 -0.1454
 3039SOL    HW120576   3.086   4.251   4.180  3.1102 -0.2797  0.4075
 3039SOL    HW220577   3.065   4.121   4.224  0.6341  1.1780  0.1714
 3040SOL     OW20578   3.556   2.951  12.982 -0.1963  0.3733 -0.5137
 3040SOL    HW120579   3.467   2.982  13.000 -0.7930 -1.8417  0.2962
 3040SOL    HW220580   3.620   3.000  13.034  0.5304 -0.1948 -0.8671
 3041SOL     OW20581   3.491   1.346  10.500 -0.0146  0.0079 -0.2995
 3041SOL    HW120582   3.398   1.360  10.516  0.0435  1.1301 -0.9461
 3041SOL    HW220583   3.516   1.408  10.432  0.7678  0.1576  0.1215
 3042SOL     OW20584   3.744   3.218   8.685  0.5983 -0.5352  0.1109
 3042SOL    HW120585   3.818   3.168   8.652  0.3422  0.3298 -1.7909
 3042SOL    HW220586   3.776   3.309   8.681  0.9584 -0.7421 -1.8408
 3043SOL     OW20587   3.481   2.046  11.299 -0.2611  0.2542 -0.1938
 3043SOL    HW120588   3.565   2.006  11.322  0.7287  1.3310 -1.9599
 3043SOL    HW220589   3.440   2.037  11.385 -0.5213 -0.7038 -0.4191
 3044SOL     OW20590   1.214   1.971  10.998  0.2277 -0.0480 -0.3565
 3044SOL    HW120591   1.129   2.013  11.010  0.0128  0.2712 -2.9305
 3044SOL    HW220592   1.256   1.996  11.080  0.2216 -0.7888 -0.1298
 3045SOL     OW20593   4.709   2.703   7.917  0.2227  0.2417 -0.3199
 3045SOL    HW120594   0.045   2.630   7.893 -0.6643 -1.0086  1.3950
 3045SOL    HW220595   0.051   2.763   7.957  0.9245 -0.0200 -1.0317
 3046SOL     OW20596   1.767   0.065  15.577 -0.0707 -0.0647  0.4815
 3046SOL    HW120597   1.857   0.043  15.555 -0.8677 -3.7828  0.9394
 3046SOL    HW220598   1.721   4.709  15.545 -0.0883  0.5469 -0.9900
 3047SOL     OW20599   0.876   1.559   3.755 -0.1940 -0.8524 -0.4931
 3047SOL    HW120600   0.969   1.552   3.733  0.8353 -0.6391  3.6957
 3047SOL    HW220601   0.835   1.587   3.673  1.0689  1.9534 -0.1628
 3048SOL     OW20602   1.812   2.026  16.942 -0.2908  0.3186  0.4456
 3048SOL    HW120603   1.834   2.001  17.032 -2.7210 -2.1872  0.3403
 3048SOL    HW220604   1.891   2.003  16.893  0.3166  0.8869  1.1585
 3049SOL     OW20605   4.567   0.940   2.365  0.3752 -0.2156 -0.5115
 3049SOL    HW120606   4.609   0.918   2.449 -0.3512  1.3812  0.2674
 3049SOL    HW220607   4.577   0.853   2.326 -0.1711 -1.7208  2.6423
 3050SOL     OW20608   3.176   0.559   4.400  0.6146 -0.6290  0.1978
 3050SOL    HW120609   3.127   0.637   4.425 -0.5821 -1.3536  0.1352
 3050SOL    HW220610   3.263   0.599   4.401  0.2612  0.2296 -3.9541
 3051SOL     OW20611   1.045   1.789   7.752 -0.4113 -0.4352  0.3623
 3051SOL    HW120612   1.069   1.736   7.828 -0.3717 -0.2565  0.4754
 3051SOL    HW220613   1.071   1.743   7.673  0.3699  0.7151 -0.0666
 3052SOL     OW20614   1.098   1.350   7.068  0.1423  0.3307  0.2955
 3052SOL    HW120615   1.151   1.370   6.990  3.8608 -2.2758  2.1576
 3052SOL    HW220616   1.116   1.256   7.073  0.2792  0.3288 -0.1631
 3053SOL     OW20617   4.245   2.249   6.700 -0.1325  0.0198 -0.1986
 3053SOL    HW120618   4.225   2.166   6.744 -3.4695  0.8730 -0.1096
 3053SOL    HW220619   4.159   2.266   6.662  0.2506 -1.6927 -1.8263
 3054SOL     OW20620   3.757   2.456   3.098  0.4328 -0.1532  0.9326
 3054SOL    HW120621   3.726   2.547   3.094  0.9851 -0.0297 -0.9194
 3054SOL    HW220622   3.839   2.467   3.049  0.5200 -0.8735  0.9200
 3055SOL     OW20623   3.874   3.962   8.507 -0.7496 -0.1763 -0.0971
 3055SOL    HW120624   3.889   3.876   8.547  3.3823  0.8504  0.5503
 3055SOL    HW220625   3.883   3.940   8.415 -0.2171  0.2613 -0.1459
 3056SOL     OW20626   1.761   0.510  10.134 -0.3621  0.5291  0.1707
 3056SOL    HW120627   1.841   0.465  10.106 -1.5061 -1.4761  0.1341
 3056SOL    HW220628   1.776   0.590  10.084 -0.8637  1.0291  0.8212
 3057SOL     OW20629   3.256   2.591  13.285 -0.2984 -0.4633  0.1570
 3057SOL    HW120630   3.209   2.555  13.209  0.3690  1.2175 -1.0489
 3057SOL    HW220631   3.182   2.642  13.319  1.0421  0.8855  1.0247
 3058SOL     OW20632   2.739   3.191   5.792 -0.0433 -0.2476  0.2906
 3058SOL    HW120633   2.767   3.112   5.838  2.9474  0.4312 -0.3613
 3058SOL    HW220634   2.766   3.170   5.703  0.3097  3.6229 -0.5095
 3059SOL     OW20635   2.179   2.647   2.019  0.1823  0.3117 -0.7796
 3059SOL    HW120636   2.252   2.695   1.980  0.5511  0.4858  0.1289
 3059SOL    HW220637   2.207   2.636   2.110  0.8987  2.3191 -0.7548
 3060SOL     OW20638   3.805   4.025  15.136  0.0312  0.2834 -0.4979
 3060SOL    HW120639   3.815   3.931  15.149  0.6658  0.5359  0.8126
 3060SOL    HW220640   3.858   4.058  15.208  0.3546 -2.3034  0.4333
 3061SOL     OW20641   3.758   4.634  14.047  0.2873  0.3781 -0.1321
 3061SOL    HW120642   3.720   4.699  14.107  0.1835  0.4054 -0.2285
 3061SOL    HW220643   3.822   4.587  14.101  0.1794  1.0387  0.5828
 3062SOL     OW20644   1.668   1.203   2.644  0.0517  0.1867  0.2526
 3062SOL    HW120645   1.737   1.198   2.710 -1.9293  4.0928  2.6255
 3062SOL    HW220646   1.694   1.284   2.599  1.8491 -0.8552 -0.5918
 3063SOL     OW20647   1.008   1.981   1.980 -0.2304  0.0057  0.3483
 3063SOL    HW120648   0.978   2.064   1.944  2.2487  0.3454 -0.9713
 3063SOL    HW220649   1.070   1.948   1.915 -1.7293  0.9162 -1.5388
 3064SOL     OW20650   0.989   4.020   4.711 -0.3385  0.5293  0.2447
 3064SOL    HW120651   1.084   4.029   4.712 -0.1895 -1.0117 -0.8801
 3064SOL    HW220652   0.975   3.987   4.800  0.1484  0.2809  0.2252
 3065SOL     OW20653   0.602   4.574   4.584  0.2029 -0.5487 -0.6604
 3065SOL    HW120654   0.646   4.634   4.523  0.9205 -1.1678 -0.7508
 3065SOL    HW220655   0.596   4.488   4.542 -0.6412 -1.3165  1.0306
 3066SOL     OW20656   2.735   0.066  14.258 -0.5814 -0.5434 -0.0760
 3066SOL    HW120657   2.831   0.059  14.255 -0.6271 -1.0799 -0.1560
 3066SOL    HW220658   2.708   4.696  14.269  0.2677 -1.0336 -2.1901
 3067SOL     OW20659   0.932   4.081   6.748  0.2456  0.2904 -0.0887
 3067SOL    HW120660   1.027   4.075   6.739  0.1048  0.3138 -1.5717
 3067SOL    HW220661   0.905   3.993   6.776  2.0094  0.1615  1.2411
 3068SOL     OW20662   1.554   2.436   7.273  0.5053  0.4317  0.3947
 3068SOL    HW120663   1.577   2.436   7.181  0.1561  0.9386  0.3030
 3068SOL    HW220664   1.478   2.378   7.274 -0.7560  2.0470 -1.9690
 3069SOL     OW20665   0.994   0.192  12.925 -0.2687  0.9598  0.5580
 3069SOL    HW120666   1.052   0.237  12.864 -0.5048 -0.1562 -0.4871
 3069SOL    HW220667   1.027   0.212  13.012  1.0552 -2.6542  0.8876
 3070SOL     OW20668   1.235   4.079  15.776 -0.1054  1.0254  0.9695
 3070SOL    HW120669   1.287   4.160  15.774 -1.8570  2.1235  0.0578
 3070SOL    HW220670   1.198   4.088  15.688 -0.0857 -1.7643  0.6742
 3071SOL     OW20671   4.127   0.264   2.780  0.3217 -0.1029  0.5980
 3071SOL    HW120672   4.097   0.177   2.753  1.9903 -1.2668  2.5249
 3071SOL    HW220673   4.221   0.251   2.795  0.3947 -0.0126  0.2102
 3072SOL     OW20674   0.412   0.140   1.987 -0.7377 -0.0443 -0.2490
 3072SOL    HW120675   0.411   0.223   2.034  0.8446 -0.9217  1.3155
 3072SOL    HW220676   0.401   0.076   2.057 -1.4508  0.5685  0.1973
 3073SOL     OW20677   2.065   3.212   4.285 -0.5381  0.6457 -0.2795
 3073SOL    HW120678   2.075   3.273   4.358 -0.2913  1.3473 -0.8926
 3073SOL    HW220679   2.019   3.143   4.332 -1.3063  1.8253  0.7057
 3074SOL     OW20680   0.563   0.112   4.990  0.7762 -0.2157  0.3674
 3074SOL    HW120681   0.654   0.091   4.972  0.8411  0.6771 -0.3490
 3074SOL    HW220682   0.524   0.026   4.977 -1.7064  0.3012  4.2597
 3075SOL     OW20683   0.248   3.567   5.435  0.6442 -0.2118  0.4492
 3075SOL    HW120684   0.171   3.549   5.490  1.3246  1.8113  2.0722
 3075SOL    HW220685   0.288   3.634   5.490  2.2882  0.2860 -1.3713
 3076SOL     OW20686   3.765   4.017   3.949 -0.4815  0.1495 -0.1652
 3076SOL    HW120687   3.794   3.988   3.862 -1.8472  0.1423 -0.6101
 3076SOL    HW220688   3.684   3.968   3.957 -0.7118  0.2216 -2.1669
 3077SOL     OW20689   0.362   3.897  10.850 -0.1075  0.5225  0.2934
 3077SOL    HW120690   0.455   3.881  10.837 -0.1236 -0.8761  1.8611
 3077SOL    HW220691   0.331   3.828  10.909  1.4264  0.5641  1.1520
 3078SOL     OW20692   2.372   3.631   8.798 -0.1237 -0.5007 -0.1011
 3078SOL    HW120693   2.431   3.565   8.763  1.1002  0.3082  0.4247
 3078SOL    HW220694   2.426   3.706   8.772 -1.2694  0.1031 -0.7160
 3079SOL     OW20695   2.249   4.458   0.851 -0.0106 -0.5554  0.1323
 3079SOL    HW120696   2.334   4.429   0.884  0.0488 -0.4825  0.0426
 3079SOL    HW220697   2.201   4.398   0.908  0.3203 -0.6148  0.3474
 3080SOL     OW20698   4.050   0.480   3.750 -0.3087  0.2699 -0.5561
 3080SOL    HW120699   4.074   0.415   3.683 -1.3850 -0.7154  0.0230
 3080SOL    HW220700   4.008   0.434   3.822 -0.4131  1.3354  0.0626
 3081SOL     OW20701   3.190   0.147  13.970 -0.2904 -0.3518  0.3964
 3081SOL    HW120702   3.244   0.078  13.931 -2.3558 -2.1993  0.7652
 3081SOL    HW220703   3.237   0.229  13.955 -1.9666  0.4034 -0.7737
 3082SOL     OW20704   0.358   1.524   6.735 -0.2484  0.5576 -0.0252
 3082SOL    HW120705   0.387   1.436   6.712  0.5103  0.5009  1.1105
 3082SOL    HW220706   0.440   1.546   6.780 -0.1050  0.7036 -0.3638
 3083SOL     OW20707   4.199   2.392   2.528 -0.0937  0.2295 -0.0613
 3083SOL    HW120708   4.275   2.374   2.583  0.1518 -0.7101 -0.7184
 3083SOL    HW220709   4.161   2.470   2.569 -0.9607 -0.9976  1.4517
 3084SOL     OW20710   1.013   2.692   8.994 -0.1794  0.2936  0.0705
 3084SOL    HW120711   0.930   2.645   9.003  0.1698 -0.2053  0.6381
 3084SOL    HW220712   0.981   2.780   8.974  0.3003  0.9156  2.0585
 3085SOL     OW20713   1.773   0.957   6.333 -0.0778  0.3326 -0.5458
 3085SOL    HW120714   1.787   0.866   6.307  0.7769  0.2721  0.1429
 3085SOL    HW220715   1.743   0.938   6.422 -0.4076 -2.9700 -1.3672
 3086SOL     OW20716   3.580   1.861   9.357  0.3547 -0.2509 -0.1271
 3086SOL    HW120717   3.543   1.844   9.270  0.2554 -1.0602  0.0725
 3086SOL    HW220718   3.536   1.941   9.386 -1.8121 -1.3420 -0.3928
 3087SOL     OW20719   1.576   2.174   9.165  0.2148 -0.2921 -0.0563
 3087SOL    HW120720   1.648   2.234   9.184 -0.5893  0.9732 -1.0435
 3087SOL    HW220721   1.526   2.170   9.246 -1.4393  0.0170 -1.0551
 3088SOL     OW20722   4.297   0.307  17.274  0.7595  0.2468 -0.0546
 3088SOL    HW120723   4.329   0.246  17.341 -2.9302 -0.1624  1.3505
 3088SOL    HW220724   4.260   0.377  17.328  0.3480 -0.9462  1.2191
 3089SOL     OW20725   2.291   2.900   9.066 -0.0361 -0.1842  0.3903
 3089SOL    HW120726   2.304   2.958   9.141 -1.1675  2.1897 -1.2493
 3089SOL    HW220727   2.245   2.834   9.118  0.0394  0.0943  0.8120
 3090SOL     OW20728   2.230   4.284   7.926  0.3751 -0.5379 -0.6243
 3090SOL    HW120729   2.186   4.285   8.011 -0.0777 -0.8768 -0.8556
 3090SOL    HW220730   2.248   4.191   7.930  1.9522 -0.1769  0.6874
 3091SOL     OW20731   1.876   4.313  10.456 -0.6824 -0.1713  0.1890
 3091SOL    HW120732   1.877   4.308  10.551  0.8948 -0.6440  0.1405
 3091SOL    HW220733   1.815   4.240  10.440 -2.2704  1.0401  0.6868
 3092SOL     OW20734   4.523   0.306  14.012 -0.5461  0.4257 -0.1153
 3092SOL    HW120735   4.545   0.215  13.994 -3.2782 -0.3483  0.3798
 3092SOL    HW220736   4.533   0.345  13.925 -1.7309  0.0039 -0.4381
 3093SOL     OW20737   0.802   1.417  14.914 -0.1596 -0.8182  0.1628
 3093SOL    HW120738   0.713   1.383  14.904 -0.6514  0.7365 -0.7232
 3093SOL    HW220739   0.840   1.385  14.832  1.3640 -3.3267  1.8231
 3094SOL     OW20740   3.697   2.087   6.837 -0.1973 -0.4115 -0.0680
 3094SOL    HW120741   3.621   2.118   6.788 -1.1574  1.1344  2.3833
 3094SOL    HW220742   3.677   2.110   6.928  0.2334 -3.8090  0.9221
 3095SOL     OW20743   4.062   3.785   9.836  0.0393  0.7227 -0.5323
 3095SOL    HW120744   4.061   3.863   9.781  2.3697 -0.3109 -2.0442
 3095SOL    HW220745   4.050   3.823   9.922  0.3327 -0.1858 -0.0891
 3096SOL     OW20746   2.666   4.543   5.010  0.0500  0.2816  0.0138
 3096SOL    HW120747   2.627   4.616   4.961  1.0016  1.6785  1.3530
 3096SOL    HW220748   2.637   4.465   4.964 -2.2958  1.6971 -0.9059
 3097SOL     OW20749   2.022   1.320   7.594 -0.1915  0.0919 -0.6757
 3097SOL    HW120750   1.963   1.391   7.568 -1.8490 -0.9574  0.3003
 3097SOL    HW220751   1.960   1.248   7.605 -0.9315  1.0114  1.1750
 3098SOL     OW20752   4.059   4.003  14.108  0.3906 -0.3003  0.1791
 3098SOL    HW120753   4.133   4.055  14.140 -0.6928  1.0071  0.5263
 3098SOL    HW220754   4.016   3.984  14.191  2.4752 -1.2381  1.0462
 3099SOL     OW20755   4.311   3.780  16.412 -0.0956  0.7878  0.1439
 3099SOL    HW120756   4.281   3.867  16.437 -1.8550  0.0073  0.7067
 3099SOL    HW220757   4.334   3.742  16.496  1.4791 -1.4120 -1.2723
 3100SOL     OW20758   3.718   3.233   2.101 -0.2555  0.5772  0.0119
 3100SOL    HW120759   3.753   3.317   2.070  3.5894 -1.3305 -0.8494
 3100SOL    HW220760   3.662   3.267   2.171  0.3000  0.4181  0.5299
 3101SOL     OW20761   1.263   0.879   7.159 -0.3001 -0.2968 -0.4494
 3101SOL    HW120762   1.273   0.784   7.155 -0.3852 -0.2984 -0.6165
 3101SOL    HW220763   1.229   0.899   7.072  0.0543  0.5513 -0.3941
 3102SOL     OW20764   2.040   3.879   2.931 -0.5559  0.6169  0.0489
 3102SOL    HW120765   2.007   3.897   3.019  0.6520 -0.5974  0.7714
 3102SOL    HW220766   2.055   3.784   2.940  1.2615  0.7628 -1.2838
 3103SOL     OW20767   4.155   3.088   8.209 -0.6293 -0.3296 -0.0956
 3103SOL    HW120768   4.139   3.182   8.219  3.1795  0.1105  1.7098
 3103SOL    HW220769   4.248   3.094   8.190 -0.5219 -1.0386  0.2054
 3104SOL     OW20770   2.121   2.948   5.847  0.9358  0.0588 -0.0456
 3104SOL    HW120771   2.129   2.978   5.937 -0.0445  1.5714 -0.4587
 3104SOL    HW220772   2.106   3.032   5.803  0.0971  0.0169  0.1667
 3105SOL     OW20773   3.493   2.478   2.435  0.3176 -0.2623 -0.3645
 3105SOL    HW120774   3.497   2.457   2.528 -0.4241 -1.0569 -0.5177
 3105SOL    HW220775   3.405   2.455   2.407  0.9480 -0.3731 -2.2378
 3106SOL     OW20776   2.372   0.368   9.696 -0.2788  0.3151 -0.0687
 3106SOL    HW120777   2.429   0.294   9.717 -1.1800 -0.8299 -1.6279
 3106SOL    HW220778   2.293   0.349   9.746 -1.0286  1.6482 -0.7382
 3107SOL     OW20779   3.051   4.510  16.219  0.3801 -0.5721 -0.0501
 3107SOL    HW120780   3.048   4.415  16.233 -0.1614 -0.4618  0.5644
 3107SOL    HW220781   3.050   4.538  16.310 -0.8938 -0.5731 -0.0522
 3108SOL     OW20782   2.993   1.346   6.221  0.2864 -0.0980 -0.2441
 3108SOL    HW120783   2.938   1.395   6.159  0.6036  0.3040 -0.2036
 3108SOL    HW220784   3.029   1.272   6.173 -1.7209 -0.9335 -0.4847
 3109SOL     OW20785   1.244   3.443   5.002  0.1025 -0.3635 -0.9634
 3109SOL    HW120786   1.174   3.494   4.961  1.8846  2.0833 -0.9364
 3109SOL    HW220787   1.247   3.483   5.089 -0.9633 -1.2436 -0.5302
 3110SOL     OW20788   3.161   0.267  10.237  0.0624 -0.5533 -0.2150
 3110SOL    HW120789   3.069   0.281  10.217 -0.1559  0.1615  1.3093
 3110SOL    HW220790   3.198   0.216  10.164  0.7004 -0.8408  0.3008
 3111SOL     OW20791   2.420   2.468  11.311 -0.2122  0.2933  0.2736
 3111SOL    HW120792   2.401   2.539  11.372  0.1394  0.4846  0.1644
 3111SOL    HW220793   2.422   2.399  11.378 -0.5479 -1.9773 -2.0331
 3112SOL     OW20794   2.253   3.948   9.006 -0.1436 -0.4708  0.1993
 3112SOL    HW120795   2.234   4.029   9.054 -0.7847 -1.2484  1.2641
 3112SOL    HW220796   2.337   3.977   8.971  0.4650 -1.6054  0.7279
 3113SOL     OW20797   2.293   2.214  14.613  0.4859 -0.0726 -0.2413
 3113SOL    HW120798   2.248   2.295  14.589 -0.6698 -0.4838  0.5542
 3113SOL    HW220799   2.218   2.165  14.645  1.1311 -0.7845  0.1915
 3114SOL     OW20800   2.592   0.840   3.498 -0.3463 -0.0583 -0.8169
 3114SOL    HW120801   2.591   0.753   3.538  0.2619  0.8748  1.2881
 3114SOL    HW220802   2.613   0.818   3.408  2.1960 -2.9326  0.4675
 3115SOL     OW20803   3.140   3.671   3.343 -0.6997  0.0373 -0.9911
 3115SOL    HW120804   3.160   3.609   3.273 -1.8552 -0.9346 -0.4611
 3115SOL    HW220805   3.056   3.698   3.307 -0.7972 -0.1285 -0.8882
 3116SOL     OW20806   3.458   3.483  10.895 -0.3182  0.0672 -0.0140
 3116SOL    HW120807   3.476   3.491  10.989  1.4259 -1.4909 -0.2213
 3116SOL    HW220808   3.374   3.437  10.895 -1.4529  2.0575  2.5377
 3117SOL     OW20809   1.280   1.163   1.895  0.0066 -0.5560  0.4839
 3117SOL    HW120810   1.354   1.213   1.929 -0.8782 -0.4936  2.2925
 3117SOL    HW220811   1.213   1.203   1.949 -0.8576 -0.4459 -0.6628
 3118SOL     OW20812   1.267   1.339   4.565  0.1148 -0.3595 -0.1188
 3118SOL    HW120813   1.252   1.433   4.579 -2.4591 -0.8391  0.3765
 3118SOL    HW220814   1.178   1.304   4.565  0.9158 -2.3984  0.1868
 3119SOL     OW20815   0.736   3.528   8.940 -0.5934 -0.2750 -0.4372
 3119SOL    HW120816   0.751   3.604   8.996 -1.0948  0.0935 -0.8093
 3119SOL    HW220817   0.650   3.550   8.906 -0.3598 -1.6035 -1.8827
 3120SOL     OW20818   0.396   1.792   9.216  0.0330 -0.1358  0.2060
 3120SOL    HW120819   0.343   1.717   9.242  0.2709 -1.0486 -1.8902
 3120SOL    HW220820   0.329   1.852   9.185 -0.2784 -0.7776 -0.3830
 3121SOL     OW20821   0.778   2.713   6.815 -0.3665 -0.1614  0.3423
 3121SOL    HW120822   0.756   2.793   6.863 -0.1941  0.2703 -0.2948
 3121SOL    HW220823   0.737   2.739   6.732 -3.5167 -2.8713  1.0513
 3122SOL     OW20824   0.873   3.571   6.218  0.1472  0.7239  0.3673
 3122SOL    HW120825   0.923   3.495   6.188 -1.5884 -0.3311  0.1010
 3122SOL    HW220826   0.796   3.563   6.162  1.1831 -0.7682 -0.8409
 3123SOL     OW20827   1.093   3.338   8.220  0.0940  0.1886  0.1277
 3123SOL    HW120828   1.082   3.245   8.198 -1.9449  0.1015  1.4950
 3123SOL    HW220829   1.155   3.359   8.150 -1.4930 -1.6323 -1.8355
 3124SOL     OW20830   2.980   4.351   9.485  0.4055  0.2033  0.0970
 3124SOL    HW120831   2.994   4.394   9.569 -1.8536 -3.4143  2.2774
 3124SOL    HW220832   2.896   4.388   9.459  0.2075  0.4026  1.0438
 3125SOL     OW20833   0.812   1.124   2.604 -0.8263  0.5803  0.8121
 3125SOL    HW120834   0.736   1.088   2.559 -1.0999 -0.5349  2.1482
 3125SOL    HW220835   0.833   1.049   2.661  0.3073  0.6143  0.4420
 3126SOL     OW20836   1.730   0.816   8.502  0.5526  0.3706 -0.1741
 3126SOL    HW120837   1.754   0.723   8.511 -1.0652 -0.2898 -2.7759
 3126SOL    HW220838   1.639   0.804   8.475  0.7696  1.3912 -1.3509
 3127SOL     OW20839   4.567   3.917   7.596  0.2892 -0.0993  0.0997
 3127SOL    HW120840   4.500   3.848   7.594  2.1028 -1.8072 -1.2032
 3127SOL    HW220841   4.585   3.919   7.690 -2.1851 -0.9448  0.5914
 3128SOL     OW20842   3.704   2.052   7.324 -0.7090  0.5228  0.4023
 3128SOL    HW120843   3.783   2.099   7.298 -0.4644 -0.7498 -1.1595
 3128SOL    HW220844   3.653   2.127   7.355 -1.7496  0.6183 -1.4856
 3129SOL     OW20845   2.033   0.745   5.162  0.2765  0.8747 -0.0491
 3129SOL    HW120846   1.950   0.764   5.205  0.8307 -2.1574  2.3414
 3129SOL    HW220847   2.055   0.832   5.127 -2.1686  0.9184 -1.4809
 3130SOL     OW20848   0.252   0.639   4.484  0.5038 -0.0288  0.2952
 3130SOL    HW120849   0.196   0.692   4.539  0.6450  0.7218 -0.2905
 3130SOL    HW220850   0.237   0.686   4.402  1.5084  0.5530  0.4393
 3131SOL     OW20851   3.702   1.408  10.667  0.5232 -0.4444 -0.1886
 3131SOL    HW120852   3.741   1.467  10.602  1.2852 -0.3808  0.3192
 3131SOL    HW220853   3.637   1.352  10.624  0.8817  0.3143 -1.7156
 3132SOL     OW20854   4.710   1.023   2.974  0.1441  0.3817  0.6690
 3132SOL    HW120855   4.640   1.088   2.971 -0.4519 -0.2355  1.1095
 3132SOL    HW220856   0.051   1.061   3.036 -1.4167  2.2279  1.1079
 3133SOL     OW20857   0.372   1.371   7.880  0.2352 -0.2510  0.1672
 3133SOL    HW120858   0.358   1.416   7.964  0.2682  0.5746 -0.2673
 3133SOL    HW220859   0.372   1.445   7.819 -0.7833  0.0010  0.4739
 3134SOL     OW20860   0.270   0.271   3.763  0.4432  0.0912 -0.2710
 3134SOL    HW120861   0.188   0.263   3.811  0.1976 -1.4935 -0.9585
 3134SOL    HW220862   0.321   0.195   3.790  0.3249  0.7309  1.7848
 3135SOL     OW20863   0.353   0.307   5.643  0.2215  0.3811  0.4615
 3135SOL    HW120864   0.403   0.312   5.562 -0.3969  2.2193  0.1920
 3135SOL    HW220865   0.339   0.212   5.639  0.6482  0.2629  1.7155
 3136SOL     OW20866   0.017   2.565   4.101 -0.2364 -0.2485  0.4785
 3136SOL    HW120867   0.107   2.598   4.105 -1.1247  2.1581  0.7577
 3136SOL    HW220868   0.023   2.494   4.037  0.3477 -1.4703  1.8975
 3137SOL     OW20869   2.287   3.393  10.668  0.2263  0.1666  0.2893
 3137SOL    HW120870   2.251   3.404  10.756  0.5948 -0.2938  0.4975
 3137SOL    HW220871   2.379   3.405  10.694  0.4179 -1.6166  0.4021
 3138SOL     OW20872   2.362   1.419  15.709  0.2516  0.5297 -0.6425
 3138SOL    HW120873   2.323   1.430  15.622 -1.6848 -1.7530 -0.0672
 3138SOL    HW220874   2.455   1.425  15.690  0.8387 -2.3543  1.2861
 3139SOL     OW20875   3.929   0.036  16.911 -0.2530  0.1489 -0.6228
 3139SOL    HW120876   3.999   0.055  16.849 -0.3795  1.6759 -0.3099
 3139SOL    HW220877   3.858   0.089  16.875 -0.6032  1.1578  1.5211
 3140SOL     OW20878   2.020   1.102   8.366  0.1678  0.3808 -0.1635
 3140SOL    HW120879   1.987   1.162   8.433 -1.6199 -0.4242 -0.3257
 3140SOL    HW220880   2.092   1.153   8.329 -1.5551  2.6371 -0.3922
 3141SOL     OW20881   0.354   2.036   8.837  0.6182  0.2201  0.2296
 3141SOL    HW120882   0.323   1.946   8.846 -0.8207  0.7061  0.1532
 3141SOL    HW220883   0.303   2.060   8.759  0.2843 -0.6234  0.1890
 3142SOL     OW20884   3.892   4.040   7.263 -0.4482 -0.2746  0.0630
 3142SOL    HW120885   3.888   4.134   7.249 -0.2227 -0.1276  0.9692
 3142SOL    HW220886   3.943   4.026   7.343 -1.2639  0.2118  0.6602
 3143SOL     OW20887   0.875   2.396   3.865 -0.2148  0.6179  0.2686
 3143SOL    HW120888   0.902   2.306   3.884 -0.4847  0.5896  0.5180
 3143SOL    HW220889   0.917   2.451   3.930 -1.7409  2.3650 -0.1995
 3144SOL     OW20890   3.581   1.549   7.883 -0.1846 -0.7962  0.8345
 3144SOL    HW120891   3.490   1.522   7.879 -0.8801  1.7591 -0.4092
 3144SOL    HW220892   3.605   1.523   7.794  0.4727 -0.8118  1.0098
 3145SOL     OW20893   1.386   3.179   6.342  0.4005  0.4631  0.1143
 3145SOL    HW120894   1.373   3.274   6.352  0.2822  0.5432 -0.8504
 3145SOL    HW220895   1.478   3.183   6.316  0.2149 -0.5270 -0.6723
 3146SOL     OW20896   3.558   4.416   0.812  0.6688  0.2622 -0.1037
 3146SOL    HW120897   3.574   4.360   0.888 -0.0874  0.1490 -0.0313
 3146SOL    HW220898   3.640   4.459   0.788  1.0622  0.1924  1.0998
 3147SOL     OW20899   4.008   2.111  15.961 -0.0334 -0.2296  0.6170
 3147SOL    HW120900   4.090   2.128  16.008 -0.9115 -1.5719  2.6325
 3147SOL    HW220901   4.036   2.116  15.870  1.5317 -1.3470  1.0356
 3148SOL     OW20902   4.406   0.931   4.527 -0.1856 -0.2904  0.1423
 3148SOL    HW120903   4.413   0.892   4.614  0.5856 -2.2887 -0.8228
 3148SOL    HW220904   4.314   0.909   4.510 -0.3561  0.7531 -0.3108
 3149SOL     OW20905   3.587   0.134   3.507 -0.8104  0.0674 -0.4102
 3149SOL    HW120906   3.531   0.060   3.485 -0.6423  0.3377 -1.7848
 3149SOL    HW220907   3.617   0.157   3.419 -1.5754  0.3738 -0.5868
 3150SOL     OW20908   3.898   2.840   2.466 -0.3870  0.2270  0.4229
 3150SOL    HW120909   3.853   2.793   2.395  0.2789 -1.0390  0.8481
 3150SOL    HW220910   3.832   2.858   2.533  1.2605 -0.8412  2.3005
 3151SOL     OW20911   4.683   1.263   4.032 -1.1398 -0.1293  0.2485
 3151SOL    HW120912   0.008   1.245   3.950 -1.3951  1.3185 -0.2094
 3151SOL    HW220913   4.627   1.336   4.009 -1.5865 -1.1251 -1.8092
 3152SOL     OW20914   0.654   3.112  12.329 -0.7324  0.5906  0.0536
 3152SOL    HW120915   0.575   3.139  12.376 -0.3221  2.3763 -0.2625
 3152SOL    HW220916   0.631   3.070  12.246 -1.6119  1.8082 -0.3195
 3153SOL     OW20917   4.315   2.196   6.424  0.8487 -0.0249  0.1949
 3153SOL    HW120918   4.303   2.279   6.377  0.2397  1.0528  2.2937
 3153SOL    HW220919   4.295   2.223   6.513 -0.0201 -0.7538  0.2243
 3154SOL     OW20920   3.459   1.898   6.564  0.7187 -0.1213 -0.7409
 3154SOL    HW120921   3.506   1.977   6.538  0.1660  0.2018 -0.7731
 3154SOL    HW220922   3.504   1.833   6.509  0.6984 -1.7211  1.1202
 3155SOL     OW20923   0.938   2.932  10.970 -0.0105  0.6004 -0.1908
 3155SOL    HW120924   1.003   2.911  11.037  1.4404  0.0782 -1.7873
 3155SOL    HW220925   0.860   2.894  11.012  0.0294  2.0048  1.1691
 3156SOL     OW20926   2.277   1.105   2.986  0.4297 -0.1677 -0.0271
 3156SOL    HW120927   2.335   1.136   2.917  0.7823  2.5261  1.4948
 3156SOL    HW220928   2.335   1.088   3.060  0.9513  4.0034  0.5383
 3157SOL     OW20929   4.345   1.977   0.495  0.3050  0.1594  0.0951
 3157SOL    HW120930   4.424   2.005   0.540 -0.9974  0.4490  2.1919
 3157SOL    HW220931   4.383   1.912   0.436 -2.9637 -0.9310 -0.8177
 3158SOL     OW20932   2.225   2.470   1.707 -0.0375  0.2316  0.0797
 3158SOL    HW120933   2.274   2.394   1.675  0.7257 -0.0703  1.9628
 3158SOL    HW220934   2.231   2.468   1.803  1.4373 -2.9073 -0.0837
 3159SOL     OW20935   0.483   2.732   8.917  0.2408  0.0560 -0.8435
 3159SOL    HW120936   0.426   2.784   8.860 -0.2038  0.9312  0.4008
 3159SOL    HW220937   0.454   2.643   8.898  2.8765 -0.1663 -3.6827
 3160SOL     OW20938   4.332   4.459   8.627  0.1229 -0.0594  0.1148
 3160SOL    HW120939   4.350   4.376   8.671 -0.7881 -0.6871 -0.6769
 3160SOL    HW220940   4.308   4.505   8.708  0.0907 -0.4555  0.3339
 3161SOL     OW20941   2.337   2.815  14.744  0.4323  0.4023 -0.4170
 3161SOL    HW120942   2.262   2.810  14.803 -0.7608 -0.0838 -1.9646
 3161SOL    HW220943   2.346   2.723  14.720 -2.9077  0.6825 -2.8593
 3162SOL     OW20944   4.004   2.191  17.442 -0.2248  0.1002  0.3848
 3162SOL    HW120945   4.069   2.142  17.392  0.2186  0.7597  0.3129
 3162SOL    HW220946   4.007   2.275  17.395 -1.9936  0.4617  0.8954
 3163SOL     OW20947   0.282   2.615   3.528  0.0700  0.5766 -1.0188
 3163SOL    HW120948   0.315   2.534   3.566  0.7311  1.3310 -0.0044
 3163SOL    HW220949   0.275   2.592   3.435  2.4464 -0.6915 -0.8884
 3164SOL     OW20950   1.378   2.591  12.251 -0.3868  0.3971 -0.2600
 3164SOL    HW120951   1.323   2.550  12.184  1.7506 -0.7243 -1.3500
 3164SOL    HW220952   1.361   2.683  12.233  1.6761  0.9723  0.6969
 3165SOL     OW20953   3.334   4.572   2.230 -0.5448 -0.0170  0.2378
 3165SOL    HW120954   3.403   4.610   2.284 -1.8096  0.3186  1.5775
 3165SOL    HW220955   3.317   4.655   2.186  2.9313  0.2167 -0.7173
 3166SOL     OW20956   3.204   1.460   1.821 -0.2376 -0.6842  0.5561
 3166SOL    HW120957   3.260   1.403   1.769 -0.5553  0.9732 -1.6503
 3166SOL    HW220958   3.236   1.543   1.786 -0.9296 -2.3902 -4.1366
 3167SOL     OW20959   2.950   0.432   4.603  0.4748  0.0773 -0.1229
 3167SOL    HW120960   2.929   0.339   4.604 -0.4275  0.2662 -1.3155
 3167SOL    HW220961   3.042   0.441   4.580  0.0879  1.2041 -1.2487
 3168SOL     OW20962   1.385   2.887   7.524 -0.3036 -0.1024 -0.7044
 3168SOL    HW120963   1.384   2.965   7.469 -1.5869  1.0519  0.9483
 3168SOL    HW220964   1.392   2.931   7.609  2.9369  0.6345 -1.3522
 3169SOL     OW20965   1.473   0.252   4.890  0.0665  0.3002  0.5076
 3169SOL    HW120966   1.525   0.264   4.969 -0.5331  0.1842  0.9141
 3169SOL    HW220967   1.389   0.289   4.913 -0.4858 -1.1327  0.7828
 3170SOL     OW20968   2.341   3.427   2.398  0.3977 -0.7130  0.1104
 3170SOL    HW120969   2.433   3.444   2.378  1.0953 -2.4528  1.8003
 3170SOL    HW220970   2.363   3.366   2.469  3.8184  0.4593  0.0946
 3171SOL     OW20971   4.235   0.583   4.877  0.1508 -0.0643  0.1853
 3171SOL    HW120972   4.226   0.667   4.833  1.6825  1.0789  2.0767
 3171SOL    HW220973   4.196   0.601   4.962 -1.5247 -2.3266 -0.0945
 3172SOL     OW20974   1.336   2.107   5.843 -0.1594  0.9602 -0.0802
 3172SOL    HW120975   1.302   2.018   5.852 -0.3746  1.1818  1.3992
 3172SOL    HW220976   1.431   2.098   5.836  0.0891  1.4502  2.6121
 3173SOL     OW20977   0.191   4.651   8.700 -0.0420  0.2039  0.2761
 3173SOL    HW120978   0.212   0.000   8.762 -0.6518  1.0191 -0.4569
 3173SOL    HW220979   0.128   4.690   8.639  0.1315 -2.1564 -1.4357
 3174SOL     OW20980   1.591   0.369   7.513 -0.0817 -0.1705 -0.0759
 3174SOL    HW120981   1.593   0.308   7.588  0.0759 -1.0283 -0.7768
 3174SOL    HW220982   1.607   0.303   7.445 -1.3995  0.4927 -1.0314
 3175SOL     OW20983   3.080   3.224   0.692  0.1329  0.2090  0.7349
 3175SOL    HW120984   3.143   3.182   0.750  1.2158 -0.6839 -1.0969
 3175SOL    HW220985   3.010   3.227   0.757  1.5284 -0.5763  2.2756
 3176SOL     OW20986   1.676   1.156   5.513  0.0295  0.2211 -0.2328
 3176SOL    HW120987   1.634   1.232   5.474 -1.6316  0.5932  2.2217
 3176SOL    HW220988   1.744   1.140   5.448 -0.4371 -1.0584 -0.4081
 3177SOL     OW20989   1.342   2.980  16.124 -0.2014 -0.4145 -0.0517
 3177SOL    HW120990   1.386   2.909  16.170 -0.5996 -0.0620  0.8669
 3177SOL    HW220991   1.248   2.971  16.140 -0.0678 -0.7037  0.5642
 3178SOL     OW20992   1.272   4.599   4.483  0.3577  0.0080 -0.4123
 3178SOL    HW120993   1.314   4.522   4.520  0.3525  0.8295  1.2618
 3178SOL    HW220994   1.183   4.597   4.518 -0.1094 -1.1192 -1.6925
 3179SOL     OW20995   0.438   1.303   3.880  0.1151  0.2135  0.1319
 3179SOL    HW120996   0.508   1.258   3.928 -0.2067 -0.6620 -0.2113
 3179SOL    HW220997   0.454   1.280   3.788 -0.2981 -2.2484  0.6659
 3180SOL     OW20998   3.175   2.568   8.309 -0.1181 -0.4466  0.0920
 3180SOL    HW120999   3.123   2.601   8.236  0.3833  1.1069  0.4452
 3180SOL    HW221000   3.262   2.559   8.270  0.2404 -1.8951  1.2043
 3181SOL     OW21001   0.376   3.673   2.263 -0.7334 -0.2822  0.2865
 3181SOL    HW121002   0.435   3.615   2.310 -0.0968 -1.3271 -1.7893
 3181SOL    HW221003   0.307   3.610   2.244 -0.2885  0.0020 -2.3164
 3182SOL     OW21004   4.625   3.212   8.602  0.0645 -0.1887  0.3477
 3182SOL    HW121005   4.562   3.241   8.536 -2.2454 -0.8381  2.3065
 3182SOL    HW221006   4.655   3.297   8.636  1.2381 -0.5134  0.1162
 3183SOL     OW21007   1.391   1.158  15.281 -0.2331 -0.2932 -0.2717
 3183SOL    HW121008   1.385   1.063  15.272  0.0710 -0.2360 -1.0617
 3183SOL    HW221009   1.471   1.175  15.233 -0.6352 -0.3633 -0.9696
 3184SOL     OW21010   3.076   3.338   2.680 -0.5580  0.2083 -0.7234
 3184SOL    HW121011   3.016   3.413   2.679  1.3920  1.7459 -1.0032
 3184SOL    HW221012   3.107   3.350   2.590  0.2269  1.1387 -0.3203
 3185SOL     OW21013   1.087   2.779   4.602 -0.6126 -0.3568 -0.1705
 3185SOL    HW121014   1.073   2.824   4.518 -0.5174  0.4204  0.2360
 3185SOL    HW221015   1.134   2.844   4.654  0.7292 -2.7439  1.6080
 3186SOL     OW21016   3.688   4.355   8.073  0.6151  0.3175  0.4625
 3186SOL    HW121017   3.628   4.425   8.050  0.2278 -0.3401 -0.5325
 3186SOL    HW221018   3.773   4.398   8.060  0.3806  0.7456  0.3483
 3187SOL     OW21019   1.887   1.862  11.342  0.2116  0.5127 -0.0196
 3187SOL    HW121020   1.938   1.788  11.310  0.0750  0.9576 -1.2420
 3187SOL    HW221021   1.803   1.822  11.363 -0.3944  1.9523  0.3407
 3188SOL     OW21022   0.464   3.518   1.309  0.0907  0.3112  0.5005
 3188SOL    HW121023   0.422   3.575   1.373 -0.9098 -0.2857  0.3796
 3188SOL    HW221024   0.430   3.552   1.227  0.3417  0.2742  0.3801
 3189SOL     OW21025   4.685   4.081  10.918 -0.7839  0.0177  0.3654
 3189SOL    HW121026   4.697   3.986  10.915  0.2298  0.0706  2.5608
 3189SOL    HW221027   0.013   4.101  10.839  0.2649 -0.1031  0.9808
 3190SOL     OW21028   0.463   1.903  12.863 -0.1824  0.0306  0.1263
 3190SOL    HW121029   0.520   1.842  12.910 -2.6127 -2.5454 -0.1988
 3190SOL    HW221030   0.494   1.978  12.914  0.2235 -0.0567  0.0083
 3191SOL     OW21031   2.147   1.249   6.786  0.2578 -0.2576  0.2769
 3191SOL    HW121032   2.105   1.319   6.736 -2.3457 -1.5840  0.5949
 3191SOL    HW221033   2.145   1.286   6.874  0.6826 -0.6061  0.4311
 3192SOL     OW21034   3.170   1.810  15.966  0.4876 -0.2681 -0.4960
 3192SOL    HW121035   3.254   1.847  15.995 -0.6106  1.0792  0.9921
 3192SOL    HW221036   3.128   1.784  16.048  1.9724 -0.7789  0.1060
 3193SOL     OW21037   3.704   3.316   3.387  0.0946  0.1200 -0.7673
 3193SOL    HW121038   3.687   3.238   3.440 -0.5576 -0.2819 -1.5782
 3193SOL    HW221039   3.616   3.329   3.354  0.2757  0.2980 -1.1829
 3194SOL     OW21040   2.944   4.562  17.236 -0.1167  0.7131  0.0937
 3194SOL    HW121041   2.863   4.552  17.287  0.1436  1.4941  0.6683
 3194SOL    HW221042   2.939   4.658  17.233  1.4330  0.7509 -1.6876
 3195SOL     OW21043   4.123   2.580   4.963 -0.1451  0.1680  0.2579
 3195SOL    HW121044   4.205   2.540   4.936  1.2948  2.0866  1.7377
 3195SOL    HW221045   4.161   2.639   5.028  2.2943 -0.0020 -1.0387
 3196SOL     OW21046   0.123   2.238   4.098 -0.5768 -0.0842 -0.3087
 3196SOL    HW121047   0.203   2.267   4.142  0.2419  0.4672 -2.1542
 3196SOL    HW221048   0.134   2.280   4.012  2.7646  0.3237  0.3058
 3197SOL     OW21049   4.682   3.721   6.478 -0.3549 -0.1811 -0.0075
 3197SOL    HW121050   4.676   3.723   6.574 -1.6973  1.4781 -0.1310
 3197SOL    HW221051   4.600   3.767   6.458  1.6223  2.5604 -1.8810
 3198SOL     OW21052   0.014   3.817   2.125 -0.8166  0.1148 -0.5313
 3198SOL    HW121053   0.087   3.879   2.114 -0.9052  0.5568  1.2949
 3198SOL    HW221054   4.661   3.870   2.096  0.1921  0.7212 -2.0298
 3199SOL     OW21055   1.213   1.986   4.995  0.5863  0.4619  0.5060
 3199SOL    HW121056   1.220   2.051   5.064  2.8433 -0.4833  1.1621
 3199SOL    HW221057   1.295   2.003   4.948  0.0451 -1.7284 -1.2951
 3200SOL     OW21058   3.835   4.121  10.396  0.4572 -0.0199  0.0022
 3200SOL    HW121059   3.880   4.140  10.478 -0.3113 -0.4129  0.5226
 3200SOL    HW221060   3.830   4.206  10.353  1.3177  1.0940  2.1000
 3201SOL     OW21061   1.936   1.520   2.594 -0.4734 -0.5009  1.1459
 3201SOL    HW121062   1.980   1.472   2.524  1.0609  1.0416  1.0626
 3201SOL    HW221063   1.906   1.601   2.552  0.7630  0.6973  2.6036
 3202SOL     OW21064   4.583   1.663   6.144 -0.0826  0.0884  0.0022
 3202SOL    HW121065   4.641   1.587   6.147  1.7136  1.5102  1.7705
 3202SOL    HW221066   4.523   1.664   6.218 -0.1857 -0.5889 -0.0735
 3203SOL     OW21067   1.519   3.446   4.645 -0.1475 -0.0658 -0.5847
 3203SOL    HW121068   1.498   3.407   4.560 -0.9734 -1.5245  0.2891
 3203SOL    HW221069   1.559   3.371   4.689  0.3606 -0.1407 -1.1769
 3204SOL     OW21070   0.383   2.368   3.598  0.4204 -0.7722  0.2027
 3204SOL    HW121071   0.398   2.339   3.688 -0.2818 -1.0002  0.2444
 3204SOL    HW221072   0.452   2.324   3.549  0.4451 -0.2300 -0.2523
 3205SOL     OW21073   4.037   2.369  11.824  0.1303  0.0572 -0.1670
 3205SOL    HW121074   3.990   2.361  11.908 -0.0954 -1.0664 -0.3929
 3205SOL    HW221075   4.004   2.293  11.776 -0.5130 -0.6653  1.3874
 3206SOL     OW21076   3.870   0.445   7.506  0.0827  0.0529 -0.8556
 3206SOL    HW121077   3.917   0.438   7.589  3.0324 -2.8272 -2.7680
 3206SOL    HW221078   3.842   0.354   7.501 -1.6070  0.5561 -0.5225
 3207SOL     OW21079   1.962   1.702   0.146  0.6319  0.0455 -0.2399
 3207SOL    HW121080   1.971   1.613   0.111 -0.4623 -0.2450  0.1957
 3207SOL    HW221081   1.922   1.683   0.231  2.3084 -0.1993  0.4815
 3208SOL     OW21082   1.505   2.154   3.532  0.8219 -0.0057 -0.3167
 3208SOL    HW121083   1.468   2.240   3.511  0.7613 -0.3006 -1.4498
 3208SOL    HW221084   1.598   2.170   3.515  1.0820 -1.0421  0.0928
 3209SOL     OW21085   3.208   2.764   2.410  0.6377 -0.2150  0.5228
 3209SOL    HW121086   3.239   2.742   2.498 -1.5558 -0.1205  1.3194
 3209SOL    HW221087   3.160   2.842   2.436  2.0186  1.0092 -0.6140
 3210SOL     OW21088   1.997   1.152   3.121  0.2660  0.1310 -0.1779
 3210SOL    HW121089   2.033   1.102   3.048  0.7297  0.6746 -0.3223
 3210SOL    HW221090   2.049   1.232   3.116  1.3463 -0.5581  0.1645
 3211SOL     OW21091   3.897   3.810   4.833 -0.0171 -0.4319  0.0191
 3211SOL    HW121092   3.905   3.733   4.889 -0.6505 -0.0702  0.5928
 3211SOL    HW221093   3.878   3.773   4.747  1.6748  0.6596 -0.8351
 3212SOL     OW21094   4.512   3.397   2.860  0.0921 -0.4932  0.1331
 3212SOL    HW121095   4.580   3.346   2.905 -0.0108  0.6536  1.5762
 3212SOL    HW221096   4.499   3.473   2.915 -2.5041 -2.3651  2.0904
 3213SOL     OW21097   4.119   1.570   6.909  0.2328 -0.1624  0.1478
 3213SOL    HW121098   4.157   1.657   6.899  0.6566 -0.0079  3.1733
 3213SOL    HW221099   4.061   1.580   6.984  0.6977 -1.2637  0.6546
 3214SOL     OW21100   2.893   0.447   7.127 -0.1315  0.1844 -0.2071
 3214SOL    HW121101   2.888   0.470   7.034 -0.3155 -1.3999 -0.5826
 3214SOL    HW221102   2.828   0.507   7.164  0.9026  0.6659  0.8231
 3215SOL     OW21103   2.092   1.834   9.822  0.5187 -0.1908 -0.0502
 3215SOL    HW121104   2.024   1.784   9.867  1.0654  1.1757  2.2638
 3215SOL    HW221105   2.129   1.886   9.893 -0.9451 -0.7413  1.1284
 3216SOL     OW21106   0.298   2.558  15.318 -0.0263  0.8549 -0.0188
 3216SOL    HW121107   0.282   2.652  15.333 -0.8167  0.5703  0.9716
 3216SOL    HW221108   0.289   2.533  15.410 -0.3375  0.1749 -0.2383
 3217SOL     OW21109   3.575   1.997  12.806 -0.1479  0.0725  0.1769
 3217SOL    HW121110   3.546   2.019  12.717  1.2379  3.0486  0.4532
 3217SOL    HW221111   3.659   2.043  12.802 -0.6274  0.9049 -0.5638
 3218SOL     OW21112   0.956   2.949  11.873 -0.0862 -0.2660 -0.1030
 3218SOL    HW121113   0.978   2.957  11.781  0.8784  0.9286  0.2266
 3218SOL    HW221114   1.023   2.885  11.900 -0.7769 -1.5184 -1.3405
 3219SOL     OW21115   1.070   0.302   7.152 -0.1493  0.2264 -1.2181
 3219SOL    HW121116   1.089   0.258   7.070 -0.5787  1.3513 -1.9186
 3219SOL    HW221117   0.989   0.348   7.128 -0.8335 -0.3186  0.0159
 3220SOL     OW21118   2.243   1.998  17.300  0.1565 -0.4173 -0.3096
 3220SOL    HW121119   2.248   1.949  17.382 -0.9648  2.2093  1.3314
 3220SOL    HW221120   2.308   2.066  17.320 -2.5529  1.6984  1.2592
 3221SOL     OW21121   4.526   2.060   1.589  0.2362 -0.4463  0.1134
 3221SOL    HW121122   4.582   1.982   1.598  1.5455  0.9543  3.9715
 3221SOL    HW221123   4.502   2.076   1.680  1.1278 -0.1929  0.3070
 3222SOL     OW21124   2.896   4.114  10.175  0.1508 -0.1098 -0.0258
 3222SOL    HW121125   2.921   4.158  10.256 -1.7824 -0.9011  1.0119
 3222SOL    HW221126   2.971   4.147  10.126  1.6557 -0.9884  1.6722
 3223SOL     OW21127   2.454   3.585   5.094 -0.1934 -0.2648  0.5985
 3223SOL    HW121128   2.397   3.517   5.058  1.6266 -0.5154 -1.7661
 3223SOL    HW221129   2.535   3.536   5.106  0.2541  0.1137 -0.9546
 3224SOL     OW21130   1.750   1.588   4.682  0.2383 -0.0983 -0.0834
 3224SOL    HW121131   1.798   1.654   4.732 -0.3478 -0.5922  1.1447
 3224SOL    HW221132   1.667   1.635   4.671 -0.4380 -1.6318 -1.4955
 3225SOL     OW21133   2.243   3.737   8.578  0.0305 -0.2204 -0.3999
 3225SOL    HW121134   2.266   3.830   8.588 -0.2437 -0.1000 -0.9099
 3225SOL    HW221135   2.273   3.707   8.664 -0.6358  1.1374  0.3071
 3226SOL     OW21136   4.395   3.949   8.227  0.8200 -0.2702 -0.6684
 3226SOL    HW121137   4.435   4.019   8.175  0.8324 -0.8289 -1.4104
 3226SOL    HW221138   4.332   3.915   8.163  0.8930 -0.1996 -0.7764
 3227SOL     OW21139   1.307   0.194   0.078 -0.2032  0.0689 -0.3948
 3227SOL    HW121140   1.239   0.189   0.145 -0.7633 -1.9325 -1.1033
 3227SOL    HW221141   1.337   0.283   0.095 -0.5168  0.0696  0.1404
 3228SOL     OW21142   1.813   4.217   8.087 -0.4962  0.1350 -0.2689
 3228SOL    HW121143   1.848   4.251   8.169  1.2182 -3.5126  0.4754
 3228SOL    HW221144   1.719   4.201   8.100 -0.6345  0.3578 -0.9891
 3229SOL     OW21145   2.002   4.093  11.097 -0.4961  0.1171 -0.1608
 3229SOL    HW121146   1.914   4.122  11.074 -1.2739 -1.8359  0.3902
 3229SOL    HW221147   2.043   4.155  11.036  0.7932 -1.1901 -0.6181
 3230SOL     OW21148   2.898   2.775   5.012 -0.0000 -0.5754 -0.7009
 3230SOL    HW121149   2.944   2.692   4.999  0.9419 -0.0336 -0.8678
 3230SOL    HW221150   2.828   2.742   5.069  0.9027 -2.0914 -0.4713
 3231SOL     OW21151   4.066   2.660   2.603  0.4702  0.1972  0.4767
 3231SOL    HW121152   4.046   2.736   2.547  1.0392  0.1598  0.2266
 3231SOL    HW221153   4.099   2.706   2.680 -1.4024  0.1295  1.3236
 3232SOL     OW21154   4.343   2.670   6.699  0.2055  0.0410 -0.2602
 3232SOL    HW121155   4.399   2.717   6.761 -1.2658 -0.7774  1.6767
 3232SOL    HW221156   4.274   2.735   6.707 -0.2337 -0.3254 -1.1451
 3233SOL     OW21157   0.860   1.577   2.828  0.3299  0.0589  0.3283
 3233SOL    HW121158   0.938   1.630   2.808 -1.4994  2.1862 -1.1899
 3233SOL    HW221159   0.836   1.583   2.921 -0.8301 -0.1696  0.0439
 3234SOL     OW21160   3.760   1.994   7.724 -0.4033 -0.6491 -0.0159
 3234SOL    HW121161   3.743   1.985   7.818 -1.6343  2.1631  0.0095
 3234SOL    HW221162   3.829   2.060   7.723 -0.0690 -1.0028 -0.5044
 3235SOL     OW21163   3.554   4.671   3.186 -0.0451 -0.5428 -0.2817
 3235SOL    HW121164   3.648   4.690   3.189 -0.3599  0.5620  3.4242
 3235SOL    HW221165   3.536   4.645   3.277 -2.5895  1.0684 -0.3096
 3236SOL     OW21166   3.238   4.571  17.318  0.3934 -0.5221  0.5140
 3236SOL    HW121167   3.147   4.545  17.309  0.2909  0.2015 -0.5131
 3236SOL    HW221168   3.272   4.586  17.230  0.5213  0.1668  0.6821
 3237SOL     OW21169   3.227   0.719  15.731 -0.2371 -0.1900 -0.1987
 3237SOL    HW121170   3.227   0.641  15.787  1.5115  2.1656  3.0805
 3237SOL    HW221171   3.190   0.677  15.654  1.3424  1.1242 -1.6554
 3238SOL     OW21172   4.258   4.026   7.670 -0.4470  1.0811  0.5483
 3238SOL    HW121173   4.351   4.015   7.651 -0.6727 -0.7748  0.5319
 3238SOL    HW221174   4.250   4.030   7.765  1.6595  1.5634  0.7011
 3239SOL     OW21175   2.899   4.238   5.982 -0.1733  0.6256 -0.0117
 3239SOL    HW121176   2.905   4.303   6.051 -0.4038  0.7149 -0.0733
 3239SOL    HW221177   2.992   4.226   5.964 -0.4273 -0.0188 -0.9067
 3240SOL     OW21178   3.154   3.069   3.631  0.1366 -0.4978  0.0961
 3240SOL    HW121179   3.163   3.147   3.686  0.5842 -1.7118  1.7421
 3240SOL    HW221180   3.072   3.034   3.665  0.0932  0.5760  1.0846
 3241SOL     OW21181   2.271   4.034   7.986  0.2837 -0.1344 -0.2770
 3241SOL    HW121182   2.211   4.001   8.053 -1.2784  2.1987 -0.5283
 3241SOL    HW221183   2.349   4.057   8.038 -1.2028  0.2334  1.7995
 3242SOL     OW21184   1.260   2.362   4.799  0.0583  0.4637 -0.1280
 3242SOL    HW121185   1.168   2.349   4.824  0.0576 -0.8655 -0.7965
 3242SOL    HW221186   1.289   2.271   4.812 -0.1134  0.9064  3.2723
 3243SOL     OW21187   3.284   2.839  13.359 -0.3500 -0.2578  0.3873
 3243SOL    HW121188   3.190   2.825  13.366 -0.5571  0.9831  0.1009
 3243SOL    HW221189   3.290   2.924  13.403  1.5378 -0.8846  1.3739
 3244SOL     OW21190   0.505   3.489   3.082 -0.1014  0.1443 -0.1712
 3244SOL    HW121191   0.411   3.485   3.064 -0.6365 -0.4513  2.6888
 3244SOL    HW221192   0.540   3.425   3.020  2.0912 -0.1015  1.3284
 3245SOL     OW21193   2.945   2.556   6.204 -0.1207  0.2971 -0.0601
 3245SOL    HW121194   2.854   2.586   6.202 -0.3003 -0.3641 -1.5234
 3245SOL    HW221195   2.960   2.534   6.112  0.9597  3.5743 -0.6882
 3246SOL     OW21196   0.168   4.328   7.104  0.3258  0.1717 -0.0008
 3246SOL    HW121197   0.215   4.397   7.151 -1.4458  1.1327  0.3651
 3246SOL    HW221198   0.094   4.303   7.160  0.3703  0.0408 -0.0014
 3247SOL     OW21199   4.298   0.549  13.398  0.2006 -0.3755 -0.2595
 3247SOL    HW121200   4.322   0.483  13.332  0.4386 -0.6118  0.0626
 3247SOL    HW221201   4.244   0.490  13.450  2.1979  0.6720  2.9679
 3248SOL     OW21202   4.688   2.170   8.805  0.1446 -0.8561  0.1565
 3248SOL    HW121203   0.027   2.145   8.876  2.4331 -0.7042 -1.7574
 3248SOL    HW221204   0.001   2.252   8.770 -1.2948 -1.2134 -2.0243
 3249SOL     OW21205   2.582   1.096   8.153  0.0173 -0.6812  0.2480
 3249SOL    HW121206   2.590   1.101   8.248  1.4250  1.8212 -0.0053
 3249SOL    HW221207   2.496   1.134   8.134 -0.7594 -1.4178  2.2779
 3250SOL     OW21208   2.884   1.090  12.644  0.2050  0.3943  0.3281
 3250SOL    HW121209   2.929   1.098  12.560 -0.9851 -2.7336 -0.6053
 3250SOL    HW221210   2.943   1.024  12.681 -0.3684 -0.2075  0.1749
 3251SOL     OW21211   0.287   2.122  12.411  0.4455 -0.1934 -0.2631
 3251SOL    HW121212   0.365   2.069  12.428 -0.3894 -1.2807  0.1761
 3251SOL    HW221213   0.219   2.107  12.476  1.6085  1.6281  1.3544
 3252SOL     OW21214   0.881   0.144   3.988 -0.5211 -0.2559  0.1912
 3252SOL    HW121215   0.826   0.094   4.048 -0.5588  0.0588  0.4213
 3252SOL    HW221216   0.810   0.178   3.932 -0.3520 -0.8923 -0.3997
 3253SOL     OW21217   3.688   3.589   7.939  0.2470 -0.5950  0.7686
 3253SOL    HW121218   3.651   3.675   7.920  0.7995 -0.5218  0.0312
 3253SOL    HW221219   3.749   3.603   8.011  2.1536 -0.4844 -0.8750
 3254SOL     OW21220   4.190   3.360   1.437  0.1423  0.2492  0.5514
 3254SOL    HW121221   4.265   3.314   1.476  0.3732 -0.5586 -0.8591
 3254SOL    HW221222   4.227   3.445   1.416 -2.6949  1.4763  0.6381
 3255SOL     OW21223   2.044   0.752   7.247 -0.3917 -0.1707 -0.3315
 3255SOL    HW121224   1.952   0.769   7.267 -0.8161 -3.2378  0.3572
 3255SOL    HW221225   2.083   0.832   7.213  0.0160  0.4622  1.6122
 3256SOL     OW21226   0.266   4.090   8.789 -0.2112  0.3924  0.0260
 3256SOL    HW121227   0.261   4.089   8.885  0.9742  0.3330  0.0815
 3256SOL    HW221228   0.207   4.163   8.767 -0.3933  0.4493  0.6847
 3257SOL     OW21229   0.961   3.405  13.879  0.0991  0.1318 -0.2551
 3257SOL    HW121230   0.888   3.353  13.913  1.2198 -0.4950  1.2133
 3257SOL    HW221231   0.919   3.489  13.857  0.2056 -0.0515 -1.1590
 3258SOL     OW21232   3.441   3.477   5.637  0.0878  0.2956  0.0954
 3258SOL    HW121233   3.411   3.439   5.555  0.3475  0.2195  0.0348
 3258SOL    HW221234   3.425   3.397   5.688  0.5278 -0.6865 -1.2982
 3259SOL     OW21235   2.824   4.301   4.931  0.5744  0.4598 -0.9176
 3259SOL    HW121236   2.747   4.253   4.962  0.0658  1.6597 -0.2670
 3259SOL    HW221237   2.875   4.236   4.883  1.5891  0.0699  0.6985
 3260SOL     OW21238   3.766   3.020  16.518  0.8060 -0.0752 -0.5265
 3260SOL    HW121239   3.837   2.984  16.570  1.0832 -2.3861 -2.4846
 3260SOL    HW221240   3.822   3.078  16.467  0.2749  2.0248  1.3095
 3261SOL     OW21241   2.940   2.278  12.999 -0.5897  0.0265  0.0455
 3261SOL    HW121242   2.972   2.361  13.034  0.7040 -0.7593  0.7140
 3261SOL    HW221243   2.956   2.291  12.905  2.7621  0.8400  0.7168
 3262SOL     OW21244   2.225   1.253  16.866 -0.8251 -0.5497 -0.0853
 3262SOL    HW121245   2.173   1.290  16.795 -1.5063 -2.2744 -0.4854
 3262SOL    HW221246   2.203   1.313  16.938 -0.4893  0.6847 -1.0098
 3263SOL     OW21247   3.535   0.143  17.123  0.3832 -0.2449 -0.5841
 3263SOL    HW121248   3.546   0.167  17.031 -1.3710 -1.3901 -1.0891
 3263SOL    HW221249   3.467   0.076  17.112 -0.3358  0.1360  1.5855
 3264SOL     OW21250   2.258   1.947  13.407 -0.1835  0.6012  0.4342
 3264SOL    HW121251   2.197   1.876  13.389 -1.5500  1.4084  1.7549
 3264SOL    HW221252   2.336   1.896  13.388  0.7940  1.1074  3.0790
 3265SOL     OW21253   0.693   1.628  15.952 -0.4434  0.3886  0.0552
 3265SOL    HW121254   0.746   1.698  15.991 -0.8704  1.1352 -0.7067
 3265SOL    HW221255   0.752   1.562  15.914 -0.6949 -0.6338  1.4121
 3266SOL     OW21256   0.482   2.688  14.354 -0.5362  0.0284  0.7310
 3266SOL    HW121257   0.573   2.678  14.383  0.5254  2.8643 -1.6689
 3266SOL    HW221258   0.463   2.601  14.319 -0.4448  0.2520  0.1335
 3267SOL     OW21259   3.423   0.383   4.486 -0.0785  0.2251 -0.1975
 3267SOL    HW121260   3.492   0.337   4.536 -0.7816  1.4881  1.9323
 3267SOL    HW221261   3.366   0.411   4.558  0.6467 -3.8927  2.0344
 3268SOL     OW21262   4.081   3.334   0.964  0.1532 -0.1967 -0.6720
 3268SOL    HW121263   4.095   3.258   0.907 -1.6052 -0.8437 -0.2593
 3268SOL    HW221264   4.004   3.311   1.016  0.8443  1.3465  1.0410
 3269SOL     OW21265   1.915   3.142  13.726 -0.1165  0.3396 -0.0610
 3269SOL    HW121266   1.882   3.052  13.728 -0.2780  0.4124  0.3921
 3269SOL    HW221267   1.909   3.167  13.633 -0.7471 -2.7591 -0.8515
 3270SOL     OW21268   0.570   2.233   5.605  0.7756 -0.4863  0.1931
 3270SOL    HW121269   0.645   2.180   5.631  0.0648 -0.7866  1.6706
 3270SOL    HW221270   0.520   2.229   5.687  0.0047  2.5602 -0.1547
 3271SOL     OW21271   2.164   4.047   0.114  0.1894  0.1219  0.4772
 3271SOL    HW121272   2.221   3.981   0.074 -0.7862 -1.5628  1.8953
 3271SOL    HW221273   2.079   4.029   0.075  1.3286 -2.2155 -0.9612
 3272SOL     OW21274   4.536   3.787  11.718  0.2033 -0.0634  0.1811
 3272SOL    HW121275   4.525   3.742  11.802 -0.6339 -0.6332 -0.2336
 3272SOL    HW221276   4.564   3.716  11.660  0.1431  1.5942 -1.8940
 3273SOL     OW21277   3.689   2.409   1.869 -0.8332  0.1247 -0.6681
 3273SOL    HW121278   3.647   2.414   1.956  0.9081 -1.6280  0.2680
 3273SOL    HW221279   3.757   2.477   1.873  0.7859 -1.5083 -0.5971
 3274SOL     OW21280   0.664   0.557   2.959 -0.6151 -0.1513  0.2826
 3274SOL    HW121281   0.696   0.513   3.038 -0.3333 -0.0297  0.2338
 3274SOL    HW221282   0.737   0.539   2.900 -0.9653  0.4593 -0.3348
 3275SOL     OW21283   4.319   1.663  10.055 -0.4958 -0.3512  0.0418
 3275SOL    HW121284   4.362   1.599  10.112 -2.2721 -0.6822  0.9847
 3275SOL    HW221285   4.383   1.682   9.986 -1.7492 -0.8998 -1.2474
 3276SOL     OW21286   1.433   1.455   0.918  0.1591 -0.2201  0.4262
 3276SOL    HW121287   1.373   1.509   0.866  0.7586 -1.3528 -1.4384
 3276SOL    HW221288   1.381   1.376   0.934  0.2865 -0.6256 -1.1883
 3277SOL     OW21289   2.313   2.202   4.983  0.2434 -0.0117 -0.4071
 3277SOL    HW121290   2.244   2.171   4.925 -0.3568  1.8131 -0.6648
 3277SOL    HW221291   2.317   2.294   4.957 -2.5953  0.1111 -0.3730
 3278SOL     OW21292   2.469   3.459   5.882 -0.0512 -0.8110  0.4977
 3278SOL    HW121293   2.451   3.537   5.933  1.6464  0.8269 -1.4264
 3278SOL    HW221294   2.563   3.455   5.868 -0.4402 -0.7094 -2.1412
 3279SOL     OW21295   1.049   0.717   6.965  0.0697  0.2288  0.1973
 3279SOL    HW121296   1.014   0.640   7.009 -2.5067  0.8260 -0.8023
 3279SOL    HW221297   1.122   0.674   6.919  1.4679 -0.5163  3.1279
 3280SOL     OW21298   1.542   1.052   2.114  0.1591 -0.2414 -0.1981
 3280SOL    HW121299   1.538   1.143   2.083  0.1551  0.2891  1.3743
 3280SOL    HW221300   1.497   1.060   2.198 -0.4559 -0.2836 -0.5226
 3281SOL     OW21301   2.067   1.425   1.988  0.2102 -0.3066  0.5283
 3281SOL    HW121302   2.010   1.364   1.943  1.9863 -2.2744  0.9737
 3281SOL    HW221303   2.078   1.495   1.924  0.3777 -0.5853  0.2580
 3282SOL     OW21304   0.691   2.306   2.311  0.1442  0.4271  0.3648
 3282SOL    HW121305   0.754   2.343   2.250 -1.3178  1.0207 -0.7846
 3282SOL    HW221306   0.694   2.215   2.280  0.4154  0.6178 -0.1491
 3283SOL     OW21307   4.604   1.420   3.640 -0.6758 -0.0872 -0.0968
 3283SOL    HW121308   4.592   1.328   3.617 -0.2459 -0.2846  0.4632
 3283SOL    HW221309   4.675   1.444   3.581 -1.5685  3.8265  0.4450
 3284SOL     OW21310   3.137   0.010  13.516 -0.2475 -0.5241 -0.0387
 3284SOL    HW121311   3.189   4.675  13.459 -0.8510 -1.6813  0.5705
 3284SOL    HW221312   3.064   0.012  13.454 -0.9861 -1.3378  0.8178
 3285SOL     OW21313   0.468   4.698   5.918 -0.3779  0.1759  0.0127
 3285SOL    HW121314   0.501   0.062   5.891 -1.2730  0.3407 -0.5571
 3285SOL    HW221315   0.376   4.698   5.892 -0.2179  2.0308 -0.5174
 3286SOL     OW21316   1.016   4.519   5.985  0.0404 -0.3287 -0.1897
 3286SOL    HW121317   0.936   4.467   5.972  0.9195 -1.4775 -1.0080
 3286SOL    HW221318   0.972   4.590   6.031  2.3844  1.4307 -0.6746
 3287SOL     OW21319   3.681   4.274   5.044  1.0850 -0.1737  0.1815
 3287SOL    HW121320   3.627   4.263   5.123 -0.0354 -3.2452 -0.9915
 3287SOL    HW221321   3.670   4.191   4.997 -2.0757 -0.4646  1.4358
 3288SOL     OW21322   1.953   0.128   6.950 -0.4210 -0.0922  0.4834
 3288SOL    HW121323   1.903   0.207   6.928 -0.4690 -0.3570 -0.3343
 3288SOL    HW221324   1.975   0.111   6.859 -1.2540  1.3656  0.0124
 3289SOL     OW21325   3.272   4.632  13.810  0.0275  0.0551 -0.6000
 3289SOL    HW121326   3.255   4.542  13.835  0.7156  0.5299  1.6165
 3289SOL    HW221327   3.242   4.624  13.720 -0.5076  0.3701 -0.4509
 3290SOL     OW21328   2.532   2.383   5.064 -0.1026  0.7085  0.3675
 3290SOL    HW121329   2.526   2.289   5.046  0.3321  0.9785 -1.1723
 3290SOL    HW221330   2.478   2.399   5.142 -1.3245  2.2701 -0.8015
 3291SOL     OW21331   2.787   1.522   6.966  0.4149 -0.5054 -0.1792
 3291SOL    HW121332   2.848   1.492   6.899  0.1361 -0.2805 -0.5368
 3291SOL    HW221333   2.787   1.443   7.020 -0.2539 -1.7008 -1.9465
 3292SOL     OW21334   2.547   0.479  11.289 -0.0084  0.0874  0.3375
 3292SOL    HW121335   2.550   0.386  11.310  0.1269 -0.7273 -3.4400
 3292SOL    HW221336   2.622   0.481  11.231 -2.6578  3.2942 -3.0172
 3293SOL     OW21337   3.402   3.378   2.509 -0.2667 -0.0328  0.3253
 3293SOL    HW121338   3.401   3.422   2.594  0.2407 -0.3229  0.4860
 3293SOL    HW221339   3.488   3.335   2.507 -0.7518 -1.0536  1.4343
 3294SOL     OW21340   1.586   2.004  13.495 -0.2514  0.0382  0.1576
 3294SOL    HW121341   1.675   2.003  13.458  0.5554 -0.0082  2.1089
 3294SOL    HW221342   1.607   1.965  13.580  0.3386  1.0739  0.4938
 3295SOL     OW21343   4.417   4.317   8.357  0.6155 -0.0646  0.4911
 3295SOL    HW121344   4.405   4.298   8.264 -0.5740  0.6631  0.4939
 3295SOL    HW221345   4.436   4.410   8.351  1.6427 -0.2277  1.1481
 3296SOL     OW21346   2.429   1.044   5.780 -0.2953  0.1756  0.6808
 3296SOL    HW121347   2.392   0.990   5.850  1.8894  0.5157  2.1024
 3296SOL    HW221348   2.391   1.131   5.796 -0.4853  0.2086  0.0524
 3297SOL     OW21349   3.263   0.612   7.626  0.5951 -0.0857  0.4879
 3297SOL    HW121350   3.358   0.606   7.626  0.7399  2.4498  0.4093
 3297SOL    HW221351   3.233   0.535   7.674  0.2067  0.9076  1.8297
 3298SOL     OW21352   1.749   4.094   7.537 -0.2313 -0.2659  0.4836
 3298SOL    HW121353   1.807   4.065   7.607  1.6012  0.8833 -0.5786
 3298SOL    HW221354   1.679   4.029   7.543 -2.0442  1.5519 -0.7668
 3299SOL     OW21355   3.958   3.956  12.375  0.4124 -0.4665 -0.1252
 3299SOL    HW121356   3.938   3.871  12.414 -0.6736 -0.7437 -1.2845
 3299SOL    HW221357   3.915   3.944  12.290  2.0771 -0.2814 -0.9871
 3300SOL     OW21358   4.362   3.863   0.747 -0.2193  0.0959  0.3342
 3300SOL    HW121359   4.280   3.907   0.724 -1.2339 -2.4795 -1.0307
 3300SOL    HW221360   4.351   3.792   0.811  1.6940 -0.2474  0.2664
 3301SOL     OW21361   1.241   4.362   5.960  0.2393 -0.6115  0.0673
 3301SOL    HW121362   1.159   4.406   5.981  0.2910 -0.6600  0.3703
 3301SOL    HW221363   1.208   4.288   5.908 -2.6575  0.8087 -0.0871
 3302SOL     OW21364   3.331   3.786  12.773  0.1639 -0.0293 -0.3405
 3302SOL    HW121365   3.247   3.771  12.729 -0.2733 -0.3187  0.5987
 3302SOL    HW221366   3.392   3.740  12.715 -1.0976 -2.9497  0.6546
 3303SOL     OW21367   2.607   3.238   6.277  0.0408  0.4951  0.7886
 3303SOL    HW121368   2.701   3.245   6.295 -0.0154  0.4198  1.1099
 3303SOL    HW221369   2.599   3.288   6.196  1.1367  0.3602  0.5908
 3304SOL     OW21370   4.645   4.670   8.232 -0.9410  0.0080  0.2316
 3304SOL    HW121371   4.718   4.689   8.292 -0.9626 -1.6667  0.7760
 3304SOL    HW221372   4.689   4.596   8.190 -0.7893  0.8132 -1.0263
 3305SOL     OW21373   4.467   3.378   6.119 -0.5038  0.1693  0.5121
 3305SOL    HW121374   4.421   3.449   6.075  1.6958  0.6088 -1.0450
 3305SOL    HW221375   4.485   3.325   6.042  1.3884  1.5995 -0.0284
 3306SOL     OW21376   3.950   4.414   8.265  0.2383 -0.4081  0.1000
 3306SOL    HW121377   3.969   4.321   8.282 -0.2609 -0.2029  1.8462
 3306SOL    HW221378   4.015   4.461   8.316 -0.7896  1.0114  0.0930
 3307SOL     OW21379   0.231   2.700   5.284  0.0310 -0.2850  0.0735
 3307SOL    HW121380   0.284   2.621   5.295  0.5653  0.3355  1.8786
 3307SOL    HW221381   0.202   2.700   5.192  2.5956  0.4411 -0.7216
 3308SOL     OW21382   3.302   1.754   6.991 -0.4006 -0.0402  0.3423
 3308SOL    HW121383   3.233   1.817   7.015 -0.3756 -0.9099  2.6121
 3308SOL    HW221384   3.371   1.782   7.050  1.6623 -0.3755 -1.9069
 3309SOL     OW21385   4.659   1.705   2.014  0.1481  0.0704 -0.3572
 3309SOL    HW121386   4.624   1.625   1.975 -2.3116 -0.5722  3.1807
 3309SOL    HW221387   4.582   1.754   2.041 -1.2360 -1.9180 -0.7005
 3310SOL     OW21388   1.185   3.924   6.977 -0.9656  0.2034  0.1586
 3310SOL    HW121389   1.200   3.928   6.883  2.7555  0.6229  0.7823
 3310SOL    HW221390   1.169   3.830   6.976 -2.2829  0.4282  0.0854
 3311SOL     OW21391   2.003   0.058   3.672 -0.2139 -0.0620  0.4093
 3311SOL    HW121392   2.079   0.043   3.616  0.5053 -1.2360  1.7090
 3311SOL    HW221393   2.030   0.016   3.754  1.0684 -0.5330 -0.2592
 3312SOL     OW21394   0.376   0.205   7.741 -0.4253 -0.2801 -0.0763
 3312SOL    HW121395   0.399   0.260   7.666 -0.6700 -0.6461 -0.4186
 3312SOL    HW221396   0.298   0.247   7.776  0.3227  3.0011 -2.3413
 3313SOL     OW21397   0.945   4.083  12.046  0.4732  0.6151 -0.8161
 3313SOL    HW121398   0.897   4.122  11.974 -1.8607  2.1772  1.6190
 3313SOL    HW221399   0.947   4.154  12.109  1.2447 -0.7725  0.7476
 3314SOL     OW21400   1.102   1.068   5.896 -0.6811  0.8175 -0.1940
 3314SOL    HW121401   1.109   1.054   5.802  0.2480 -0.7789  0.0960
 3314SOL    HW221402   1.197   1.069   5.914 -0.9063 -2.3909  1.1131
 3315SOL     OW21403   2.674   0.361  10.770  0.3168 -0.6750  0.1388
 3315SOL    HW121404   2.736   0.330  10.704 -1.8981  0.1151 -2.3112
 3315SOL    HW221405   2.735   0.388  10.838 -0.3969  0.2284  0.4105
 3316SOL     OW21406   1.986   0.353  13.852  0.7776  0.3203 -0.1719
 3316SOL    HW121407   2.019   0.269  13.818 -1.3806  0.1618 -1.8839
 3316SOL    HW221408   1.902   0.325  13.886  1.2773 -1.3248 -0.2833
 3317SOL     OW21409   4.189   3.026   1.480  0.2631  0.0026 -0.4575
 3317SOL    HW121410   4.152   2.943   1.510  2.1800 -1.3780 -1.9400
 3317SOL    HW221411   4.259   3.027   1.545 -0.0524  0.4317 -0.1249
 3318SOL     OW21412   2.351   2.917   2.113 -0.2398  0.3622 -0.0481
 3318SOL    HW121413   2.325   2.914   2.021 -1.9670 -0.9497  0.4787
 3318SOL    HW221414   2.296   2.978   2.161 -0.2546  1.4320 -1.4265
 3319SOL     OW21415   4.471   0.490   4.652 -0.0667  0.1054  0.2282
 3319SOL    HW121416   4.486   0.510   4.745  0.1618 -2.7030  0.8266
 3319SOL    HW221417   4.386   0.445   4.659 -0.2330  0.2712 -0.8530
 3320SOL     OW21418   0.967   2.581   1.385  0.2106 -0.0128  0.4010
 3320SOL    HW121419   0.939   2.491   1.374  1.3749 -0.2298 -0.8494
 3320SOL    HW221420   1.040   2.593   1.324 -0.8338  0.7972 -0.6733
 3321SOL     OW21421   4.569   2.139  10.477 -0.5917 -0.2780  0.0211
 3321SOL    HW121422   4.663   2.153  10.488 -0.3803  0.7486 -3.0674
 3321SOL    HW221423   4.565   2.050  10.442 -2.5582 -0.8011  1.5691
 3322SOL     OW21424   2.351   1.689  10.483 -0.4598 -0.0446 -0.0247
 3322SOL    HW121425   2.342   1.777  10.520  1.1527  0.1809 -0.1967
 3322SOL    HW221426   2.405   1.711  10.407 -0.2091 -2.4875 -0.5536
 3323SOL     OW21427   4.221   2.562   0.261  0.5827  0.3179  0.2180
 3323SOL    HW121428   4.253   2.512   0.186 -0.1370  0.3150 -0.0859
 3323SOL    HW221429   4.302   2.599   0.295 -0.1249  0.0708  2.1702
 3324SOL     OW21430   2.240   2.465  17.674  0.3480  0.0339 -0.3575
 3324SOL    HW121431   2.274   2.435  17.589 -1.4329 -1.8165 -0.4494
 3324SOL    HW221432   2.315   2.455   0.045 -0.5675 -1.2206  0.6260
 3325SOL     OW21433   1.164   2.015   3.181 -0.3680 -0.3034 -0.4464
 3325SOL    HW121434   1.144   2.030   3.273  1.1730  3.7595 -0.7572
 3325SOL    HW221435   1.100   1.945   3.167 -1.8113  0.8392  0.4177
 3326SOL     OW21436   1.798   3.304   6.088  0.1416  0.3097 -0.0217
 3326SOL    HW121437   1.835   3.355   6.015  0.2426 -0.0415 -0.2131
 3326SOL    HW221438   1.844   3.221   6.082  0.2758  0.2046  2.7404
 3327SOL     OW21439   1.047   2.031  15.231  0.6655 -0.0105 -0.1718
 3327SOL    HW121440   0.962   2.059  15.262  0.7244 -1.4596  1.2622
 3327SOL    HW221441   1.032   2.034  15.136 -0.0551  0.4955 -0.0382
 3328SOL     OW21442   4.188   1.503  15.087 -0.0584 -0.5380 -0.2219
 3328SOL    HW121443   4.261   1.556  15.054  0.2262 -0.6294  0.2640
 3328SOL    HW221444   4.171   1.536  15.175  0.3584  0.5797 -0.5640
 3329SOL     OW21445   2.998   1.979   4.228 -0.0035 -0.1069  0.6678
 3329SOL    HW121446   2.933   1.921   4.268 -2.7477  0.8023 -2.4399
 3329SOL    HW221447   2.960   2.063   4.253 -0.1220  0.2752 -0.7708
 3330SOL     OW21448   3.289   3.740  12.116 -0.4849  0.0764 -0.4529
 3330SOL    HW121449   3.318   3.712  12.203 -0.1494 -1.0014 -0.9096
 3330SOL    HW221450   3.227   3.811  12.134  1.5074  1.2182  1.8202
 3331SOL     OW21451   0.526   4.556  12.971 -0.0745  0.1261 -0.3863
 3331SOL    HW121452   0.448   4.607  12.993 -1.7044 -2.2650 -0.7268
 3331SOL    HW221453   0.560   4.528  13.056  0.6702  0.3590 -0.5997
 3332SOL     OW21454   3.465   1.336   3.171  0.1994 -0.2945  0.2213
 3332SOL    HW121455   3.472   1.367   3.081  0.9728 -0.7871  0.1116
 3332SOL    HW221456   3.493   1.244   3.166 -1.2064 -0.5603 -2.9271
 3333SOL     OW21457   4.583   1.369   4.668 -0.1125 -0.2636 -0.3943
 3333SOL    HW121458   4.661   1.390   4.617  0.7020  0.6345  1.2119
 3333SOL    HW221459   4.541   1.309   4.606 -0.8758 -0.4630  0.3106
 3334SOL     OW21460   3.261   1.880   9.275 -0.0028  0.1323 -0.0567
 3334SOL    HW121461   3.181   1.832   9.252  1.2586 -1.5881 -0.7702
 3334SOL    HW221462   3.329   1.851   9.215  0.1554  2.2195 -0.8936
 3335SOL     OW21463   3.506   1.456   6.898 -0.0818  0.4835 -0.0624
 3335SOL    HW121464   3.466   1.533   6.859 -0.4961  0.1112 -0.3744
 3335SOL    HW221465   3.595   1.487   6.915 -0.4939  0.9734  1.1969
 3336SOL     OW21466   2.790   0.336  14.273 -0.6140 -0.2095  0.5298
 3336SOL    HW121467   2.847   0.316  14.199 -1.1169 -1.5933  0.5016
 3336SOL    HW221468   2.792   0.251  14.318 -1.3715 -1.4310 -1.7623
 3337SOL     OW21469   0.163   3.886   8.447  0.2186 -0.4817  0.4485
 3337SOL    HW121470   0.160   3.791   8.455  0.0747 -0.6578 -1.6131
 3337SOL    HW221471   0.092   3.903   8.386  0.5713  0.6321  0.3354
 3338SOL     OW21472   4.356   4.232   8.114 -0.5517 -0.1719  0.1670
 3338SOL    HW121473   4.273   4.200   8.080  0.2874 -0.9235 -1.1826
 3338SOL    HW221474   4.408   4.227   8.033  1.0263 -0.6373  1.2132
 3339SOL     OW21475   2.793   2.481   3.065 -0.6264  0.2397 -0.2573
 3339SOL    HW121476   2.875   2.529   3.062 -1.2893  1.3413 -0.7887
 3339SOL    HW221477   2.790   2.460   2.972 -1.2215 -1.4523  0.1398
 3340SOL     OW21478   2.443   3.037   9.641 -0.1431  0.0678  0.3675
 3340SOL    HW121479   2.390   3.026   9.720  0.1768  0.2058  0.5984
 3340SOL    HW221480   2.387   3.010   9.567 -0.6804 -1.0853  1.2036
 3341SOL     OW21481   1.274   4.283  14.752  0.2567 -0.0374 -0.0902
 3341SOL    HW121482   1.335   4.324  14.692  3.6664 -2.0656  1.9896
 3341SOL    HW221483   1.190   4.307  14.712 -1.1099 -1.6519  1.7553
 3342SOL     OW21484   4.093   2.138   3.926  0.1581 -0.1620 -0.3379
 3342SOL    HW121485   4.134   2.056   3.902  2.0442  0.5485  0.4382
 3342SOL    HW221486   4.163   2.203   3.920  1.2213 -1.2212  0.6639
 3343SOL     OW21487   0.659   0.423   6.143  0.2449 -0.2504 -0.5241
 3343SOL    HW121488   0.570   0.442   6.171  0.0372  0.0524 -1.3756
 3343SOL    HW221489   0.670   0.328   6.148  3.1879  0.1269  0.0370
 3344SOL     OW21490   0.191   0.551   8.196 -0.8236 -0.2126  0.0836
 3344SOL    HW121491   0.134   0.610   8.147  1.5235  0.7248 -1.5612
 3344SOL    HW221492   0.136   0.473   8.199  1.1910 -1.6210  0.5237
 3345SOL     OW21493   4.638   1.945  13.965  0.3199  0.1498  0.1665
 3345SOL    HW121494   4.639   2.019  14.027 -1.0754  0.9638 -0.7932
 3345SOL    HW221495   0.009   1.921  13.968 -0.1079 -1.7911 -2.2913
 3346SOL     OW21496   1.760   0.249   3.382  0.0842  0.0049 -0.6602
 3346SOL    HW121497   1.812   0.309   3.328  3.6149 -1.3494  1.2783
 3346SOL    HW221498   1.795   0.162   3.364  0.8044 -0.2512  2.0174
 3347SOL     OW21499   4.703   1.586   6.624 -0.4213 -0.2940  0.4531
 3347SOL    HW121500   0.060   1.603   6.572 -0.0065 -1.4765  0.6832
 3347SOL    HW221501   4.652   1.662   6.599  2.1775  1.2048 -0.2763
 3348SOL     OW21502   3.633   1.654   2.182 -0.4601  0.2476  0.2846
 3348SOL    HW121503   3.541   1.669   2.204 -0.2685  0.4396  0.9785
 3348SOL    HW221504   3.686   1.697   2.249  1.0888  1.2825 -1.6077
 3349SOL     OW21505   1.384   3.961   8.430  0.5837 -0.5189  0.1270
 3349SOL    HW121506   1.297   3.961   8.470  0.6633 -1.9798  0.2998
 3349SOL    HW221507   1.374   3.993   8.340 -0.3439 -1.0341  0.0511
 3350SOL     OW21508   2.510   2.690  17.667  0.1901 -0.4619  0.8324
 3350SOL    HW121509   2.421   2.720  17.652  0.2608  0.0184  1.3881
 3350SOL    HW221510   2.485   2.615   0.035  0.8460 -1.5895 -0.4194
 3351SOL     OW21511   0.409   1.038   7.779 -0.5901  0.1839 -0.2211
 3351SOL    HW121512   0.490   0.997   7.809 -0.4891  0.1670 -0.5146
 3351SOL    HW221513   0.415   1.026   7.684  2.0375  1.3657 -0.1979
 3352SOL     OW21514   4.592   1.389   7.426 -0.4274  0.1353  0.6498
 3352SOL    HW121515   4.505   1.419   7.401  0.3512  2.0704  0.2592
 3352SOL    HW221516   4.586   1.412   7.519  0.4653 -2.5753  1.3905
 3353SOL     OW21517   2.892   4.038  17.496 -0.8211 -0.3057 -0.3670
 3353SOL    HW121518   2.925   4.042  17.586 -2.2697  1.5483  0.0982
 3353SOL    HW221519   2.807   3.995  17.506 -1.4462  1.3691  1.6845
 3354SOL     OW21520   1.304   1.504   5.540 -0.1595  0.1781  0.0774
 3354SOL    HW121521   1.368   1.509   5.611 -1.1974 -1.5292  1.1370
 3354SOL    HW221522   1.319   1.582   5.487 -1.5775  0.4616  0.1030
 3355SOL     OW21523   1.845   2.361   5.918 -0.4140  0.2122  0.6072
 3355SOL    HW121524   1.811   2.437   5.870  0.5174  1.2260  1.5550
 3355SOL    HW221525   1.769   2.324   5.963 -0.7569  1.8946  1.4439
 3356SOL     OW21526   3.319   4.250   6.595 -0.1269  0.5130 -0.2423
 3356SOL    HW121527   3.275   4.205   6.523  3.4052 -1.8351 -0.9521
 3356SOL    HW221528   3.257   4.320   6.616 -0.0922  0.6775 -0.6864
 3357SOL     OW21529   4.149   0.781   8.809  0.1487 -0.3341 -0.0279
 3357SOL    HW121530   4.236   0.821   8.807 -0.2334  0.4552 -1.1537
 3357SOL    HW221531   4.095   0.855   8.779  0.3402 -1.3492 -2.9197
 3358SOL     OW21532   4.597   1.965   4.009  0.4644  1.3694  0.4899
 3358SOL    HW121533   4.587   1.879   4.049  3.5293  1.6823  1.9039
 3358SOL    HW221534   4.606   1.940   3.917 -0.4879 -0.0617  0.7927
 3359SOL     OW21535   0.103   2.492   7.791 -0.0913 -0.3830  0.7467
 3359SOL    HW121536   0.130   2.428   7.856 -0.4661 -0.9957  0.3021
 3359SOL    HW221537   0.096   2.432   7.717  0.7547  1.4276 -0.7918
 3360SOL     OW21538   1.139   2.081   4.172 -0.9810  0.3064  0.2602
 3360SOL    HW121539   1.126   2.077   4.077  1.4814  1.0272 -0.0847
 3360SOL    HW221540   1.055   2.115   4.204 -1.1389 -2.0481  2.3562
 3361SOL     OW21541   2.818   0.923   7.823 -0.5862  0.5223  0.5680
 3361SOL    HW121542   2.876   0.851   7.800  1.0127  1.6027  1.3056
 3361SOL    HW221543   2.883   0.988   7.847  0.2241  0.0180 -0.2254
 3362SOL     OW21544   3.195   0.788   2.743 -0.0318  0.2969  0.8688
 3362SOL    HW121545   3.213   0.828   2.828 -1.1845 -2.5405  2.4358
 3362SOL    HW221546   3.199   0.862   2.681  0.0331  0.7893  1.4663
 3363SOL     OW21547   0.973   2.491  11.658 -0.2879 -0.1562 -0.3145
 3363SOL    HW121548   0.950   2.398  11.651 -0.4831 -0.2018  0.8808
 3363SOL    HW221549   0.897   2.533  11.618 -0.2067 -0.9099 -1.2746
 3364SOL     OW21550   2.755   0.144  13.436 -0.5446  0.2586 -0.1581
 3364SOL    HW121551   2.710   0.061  13.451  0.5115 -0.0359  1.3166
 3364SOL    HW221552   2.806   0.140  13.517 -1.2787 -0.1958  0.2844
 3365SOL     OW21553   3.368   0.169   9.099 -0.5304 -0.5758  0.2947
 3365SOL    HW121554   3.320   0.202   9.023  1.1184  0.6771 -0.1947
 3365SOL    HW221555   3.446   0.225   9.097 -0.2811 -0.9294  0.1789
 3366SOL     OW21556   0.292   1.050   5.275  0.4191 -0.3715 -0.1849
 3366SOL    HW121557   0.237   0.975   5.297 -1.1723  1.0931  0.8254
 3366SOL    HW221558   0.233   1.124   5.261 -0.2053 -0.9698 -0.7406
 3367SOL     OW21559   4.355   0.399   7.753 -0.1586 -0.2105  0.4790
 3367SOL    HW121560   4.311   0.476   7.790 -2.5713 -1.8078  0.9251
 3367SOL    HW221561   4.325   0.406   7.662  2.4237  0.0920 -0.3420
 3368SOL     OW21562   1.264   0.234   9.041 -0.1607 -0.1956  0.6132
 3368SOL    HW121563   1.291   0.293   9.111  3.7776 -1.2183 -0.0528
 3368SOL    HW221564   1.215   0.171   9.094  1.3725 -0.4588  1.6959
 3369SOL     OW21565   0.722   3.634   3.186 -0.5290 -0.1033  0.1567
 3369SOL    HW121566   0.651   3.582   3.149  0.4127  0.7869 -2.9577
 3369SOL    HW221567   0.792   3.630   3.120 -0.8245  1.0023 -0.2311
 3370SOL     OW21568   2.309   2.407   3.767  0.1148  0.0549 -0.0003
 3370SOL    HW121569   2.275   2.490   3.798  1.1749 -0.3122  2.1271
 3370SOL    HW221570   2.404   2.401   3.775 -0.1586 -0.6249  2.6909
 3371SOL     OW21571   1.310   3.984   2.219  0.2454 -0.4086  0.0329
 3371SOL    HW121572   1.325   4.077   2.202  2.8038 -0.8891 -0.3662
 3371SOL    HW221573   1.302   3.940   2.134  2.2259 -0.1706 -0.2777
 3372SOL     OW21574   1.558   1.171   5.875  0.1892  0.3823  0.7860
 3372SOL    HW121575   1.487   1.147   5.815  0.6253  0.2358  0.3261
 3372SOL    HW221576   1.510   1.209   5.949 -0.7575 -2.0199  1.4113
 3373SOL     OW21577   3.433   1.577   6.035  0.2176 -0.1980 -0.1151
 3373SOL    HW121578   3.350   1.591   6.080  2.1697  0.9762  3.1176
 3373SOL    HW221579   3.493   1.541   6.100  1.6951  1.5448 -0.4986
 3374SOL     OW21580   2.007   2.839   7.650  0.0022  0.3258  0.8500
 3374SOL    HW121581   1.958   2.916   7.679  0.1830  0.2482  1.3612
 3374SOL    HW221582   1.933   2.793   7.611  1.3216 -1.4558  0.4704
 3375SOL     OW21583   1.614   0.493  12.743 -0.4346 -0.0691 -0.3248
 3375SOL    HW121584   1.584   0.517  12.830  2.1872  0.1490  0.5256
 3375SOL    HW221585   1.581   0.404  12.748 -0.2351 -0.0546  1.1044
 3376SOL     OW21586   2.318   1.700  15.112 -1.0416 -0.7139  0.1459
 3376SOL    HW121587   2.308   1.647  15.033  1.9989  2.0696 -2.1244
 3376SOL    HW221588   2.358   1.778  15.073 -0.9558 -0.5639  0.5368
 3377SOL     OW21589   1.145   1.641   4.452 -0.0998  0.0941 -0.1500
 3377SOL    HW121590   1.155   1.688   4.368 -1.5459  0.9937  0.1715
 3377SOL    HW221591   1.232   1.661   4.487 -0.2917  1.7863 -0.6323
 3378SOL     OW21592   2.761   3.616   7.057 -0.4950  0.0124 -0.3474
 3378SOL    HW121593   2.818   3.621   6.980  1.1775 -0.8356  0.8223
 3378SOL    HW221594   2.785   3.697   7.102 -3.3884 -0.8437  2.7767
 3379SOL     OW21595   4.645   2.072   2.965  0.4994  0.2249 -0.2939
 3379SOL    HW121596   4.716   2.023   3.004  0.6168  1.1835  0.6978
 3379SOL    HW221597   4.658   2.154   3.013  3.0542  0.5357 -1.5092
 3380SOL     OW21598   2.158   3.656   6.259 -0.1566 -0.0551  0.1621
 3380SOL    HW121599   2.216   3.727   6.232  0.4073 -0.7256 -0.3890
 3380SOL    HW221600   2.125   3.634   6.172  1.7289  0.4327 -0.6686
 3381SOL     OW21601   4.011   4.714   0.705 -0.0336 -0.1823 -0.4250
 3381SOL    HW121602   4.095   0.012   0.746 -2.2779  1.6097  3.3804
 3381SOL    HW221603   3.984   0.076   0.666  0.0261 -0.3207 -0.7652
 3382SOL     OW21604   2.123   3.795   4.976 -0.2672 -0.2622 -0.9572
 3382SOL    HW121605   2.068   3.867   4.945  0.2263  0.3473 -0.4269
 3382SOL    HW221606   2.047   3.739   4.991 -0.1300 -0.2339 -0.1475
 3383SOL     OW21607   3.677   1.128   5.540 -0.1574 -0.1808  0.3808
 3383SOL    HW121608   3.768   1.145   5.563 -0.8827  2.0234  1.5412
 3383SOL    HW221609   3.622   1.148   5.616 -0.4569  1.5816 -0.3057
 3384SOL     OW21610   4.378   4.248   5.460  0.4700 -0.4270 -0.1538
 3384SOL    HW121611   4.316   4.288   5.521  0.3122 -1.3601  0.2883
 3384SOL    HW221612   4.429   4.327   5.440 -0.5014  0.2280 -0.0445
 3385SOL     OW21613   3.302   3.664   4.921 -0.1629  0.1842  0.5011
 3385SOL    HW121614   3.338   3.581   4.952 -1.5333 -0.1011  1.2946
 3385SOL    HW221615   3.327   3.717   4.997  2.6283  0.6391 -0.7308
 3386SOL     OW21616   3.778   3.532   1.500 -0.0616  0.1849  0.0450
 3386SOL    HW121617   3.838   3.458   1.491  0.4121  0.3099  2.2226
 3386SOL    HW221618   3.730   3.511   1.580  0.3579 -0.0688  0.2291
 3387SOL     OW21619   4.311   4.571  14.791 -0.5830 -0.2538  0.2535
 3387SOL    HW121620   4.334   4.663  14.782 -0.8362 -0.1177  0.9621
 3387SOL    HW221621   4.356   4.557  14.875 -1.0090 -2.9579  0.0488
 3388SOL     OW21622   3.268   4.060   4.746 -0.2609  0.0548  0.1986
 3388SOL    HW121623   3.305   4.094   4.828 -2.2251  2.9850 -0.0990
 3388SOL    HW221624   3.340   4.040   4.687 -1.0838 -0.7997 -0.5159
 3389SOL     OW21625   3.476   1.841  13.885 -0.1227 -0.1117 -0.3606
 3389SOL    HW121626   3.390   1.866  13.850  1.0586  1.1213 -2.3404
 3389SOL    HW221627   3.459   1.830  13.979 -0.3417 -0.8785 -0.4864
 3390SOL     OW21628   0.571   3.960   6.679 -0.7977  0.0405  0.3988
 3390SOL    HW121629   0.523   3.903   6.619 -0.2376  0.4750 -0.4623
 3390SOL    HW221630   0.545   3.914   6.759  0.2538 -0.2245  0.5945
 3391SOL     OW21631   0.967   0.570   8.405  0.2457 -0.2180 -0.4095
 3391SOL    HW121632   0.942   0.576   8.313 -0.1892  0.3457 -0.2577
 3391SOL    HW221633   0.927   0.651   8.439  0.3065 -0.5198  0.3925
 3392SOL     OW21634   0.200   0.069   6.642  0.0116  0.8669  0.0910
 3392SOL    HW121635   0.144   0.000   6.680  0.3441  0.6557  0.1948
 3392SOL    HW221636   0.234   0.108   6.722 -0.7269  0.7780  0.4548
 3393SOL     OW21637   3.401   4.713   6.290  0.0031 -0.1227  0.0723
 3393SOL    HW121638   3.341   0.028   6.225  1.5131 -1.0657 -1.8535
 3393SOL    HW221639   3.339   4.677   6.353  0.8305  2.3387  2.2954
 3394SOL     OW21640   2.773   1.564   0.237 -0.5420  0.0966 -0.2290
 3394SOL    HW121641   2.747   1.516   0.316 -1.3119  0.4847 -0.2504
 3394SOL    HW221642   2.745   1.651   0.265 -2.1260 -0.3708 -0.3682
 3395SOL     OW21643   3.047   3.040   6.026 -0.0371 -0.0569 -0.3599
 3395SOL    HW121644   3.064   2.947   6.039 -0.2133 -0.0439 -0.0486
 3395SOL    HW221645   2.974   3.036   5.964 -0.0470  3.4198 -0.5964
 3396SOL     OW21646   2.596   4.555  10.354  0.4962 -0.4812  0.4458
 3396SOL    HW121647   2.507   4.544  10.320  0.0844 -1.4446  1.8198
 3396SOL    HW221648   2.626   4.644  10.337 -3.0522  0.1494 -2.4223
 3397SOL     OW21649   3.459   2.833   5.829  0.2558 -0.1421  0.4589
 3397SOL    HW121650   3.490   2.835   5.919  1.1283 -2.0740  0.2055
 3397SOL    HW221651   3.410   2.751   5.817  1.6665 -0.8331 -0.6404
 3398SOL     OW21652   4.401   3.329   6.830  0.2035 -0.1464  0.0992
 3398SOL    HW121653   4.393   3.376   6.747  3.1359 -2.0240 -1.2548
 3398SOL    HW221654   4.318   3.283   6.844 -0.0809  0.2901 -0.1129
 3399SOL     OW21655   2.980   0.126   4.758  0.1108 -0.9923  0.1279
 3399SOL    HW121656   2.912   0.090   4.701  0.4923  0.7518 -1.4161
 3399SOL    HW221657   3.050   0.145   4.695  0.6499  0.8326  1.2877
 3400SOL     OW21658   2.200   2.768  13.534  0.3269  0.0742 -0.0522
 3400SOL    HW121659   2.217   2.790  13.442 -2.9002 -1.4911 -1.0498
 3400SOL    HW221660   2.204   2.673  13.520  2.2152 -0.0161  1.1478
 3401SOL     OW21661   1.597   1.966   7.875 -0.0090  0.5024 -0.5248
 3401SOL    HW121662   1.540   1.927   7.809 -0.2165 -2.4674  1.4010
 3401SOL    HW221663   1.544   1.971   7.955 -0.8658 -1.0704 -0.9875
 3402SOL     OW21664   1.548   2.445   4.239 -0.0520 -0.2391 -0.3040
 3402SOL    HW121665   1.570   2.439   4.332 -2.0172 -1.3068  0.0957
 3402SOL    HW221666   1.487   2.371   4.231 -1.2612  0.8049 -0.7363
 3403SOL     OW21667   4.537   4.198   2.622  0.4364 -0.1057 -0.1646
 3403SOL    HW121668   4.566   4.275   2.572 -1.2821  1.3993  1.1506
 3403SOL    HW221669   4.541   4.134   2.551 -1.0769 -1.2073  0.7514
 3404SOL     OW21670   4.123   3.691   6.040  0.0200 -0.3751 -0.4834
 3404SOL    HW121671   4.135   3.770   5.987 -1.2306 -0.1832 -0.5025
 3404SOL    HW221672   4.062   3.650   5.978 -0.0046  2.5120 -2.3549
 3405SOL     OW21673   2.544   2.651   3.561 -0.3751  0.2471  0.2456
 3405SOL    HW121674   2.489   2.578   3.533 -1.2588  1.3188 -0.7724
 3405SOL    HW221675   2.583   2.667   3.475 -2.1048 -0.9674 -0.7618
 3406SOL     OW21676   0.796   4.652   8.906  0.1351 -0.6967 -0.1292
 3406SOL    HW121677   0.765   4.648   8.816  0.3535  1.0009 -0.2840
 3406SOL    HW221678   0.718   4.622   8.952  0.6699 -0.0720  1.1943
 3407SOL     OW21679   3.644   0.609   2.580 -0.7057 -0.3191  0.3407
 3407SOL    HW121680   3.672   0.529   2.536 -0.2053 -1.3733  2.5601
 3407SOL    HW221681   3.628   0.576   2.669 -3.6550  1.1491  0.3624
 3408SOL     OW21682   2.107   0.097   6.711 -0.0469  0.0754 -0.2146
 3408SOL    HW121683   2.117   0.005   6.688 -0.2670  0.0846 -0.3436
 3408SOL    HW221684   2.190   0.115   6.756  0.5132 -1.9693 -0.4122
 3409SOL     OW21685   3.732   4.184  15.878 -0.4333 -0.1367 -0.4213
 3409SOL    HW121686   3.761   4.174  15.968 -1.3512  0.2005 -0.0860
 3409SOL    HW221687   3.785   4.261  15.855 -0.2926  0.1640  0.8968
 3410SOL     OW21688   0.167   2.168   2.007 -0.2633 -0.2311  0.1450
 3410SOL    HW121689   0.220   2.183   1.929  0.3286  2.5436  1.0672
 3410SOL    HW221690   0.092   2.222   1.983 -0.8506 -0.3165  1.7493
 3411SOL     OW21691   4.289   4.521  15.871 -0.0645  0.5408 -0.0010
 3411SOL    HW121692   4.376   4.484  15.855  0.2919  0.2527  2.5166
 3411SOL    HW221693   4.316   4.582  15.940  0.0501  1.4532 -0.8656
 3412SOL     OW21694   4.334   1.213   6.703  0.3979  0.4266 -0.2130
 3412SOL    HW121695   4.316   1.276   6.773  0.4698 -0.0262  0.2087
 3412SOL    HW221696   4.408   1.257   6.661 -0.1679  1.4190 -0.1692
 3413SOL     OW21697   2.078   3.761   9.133  0.2277  0.2746 -0.3563
 3413SOL    HW121698   2.056   3.817   9.208  0.9178 -2.2875  1.7474
 3413SOL    HW221699   2.144   3.816   9.091  1.3860 -3.5119 -3.4255
 3414SOL     OW21700   2.373   2.489  14.965  0.0188 -0.0235  0.4474
 3414SOL    HW121701   2.437   2.514  15.032 -0.2079  1.4317  0.1069
 3414SOL    HW221702   2.433   2.468  14.893  0.1217  0.1888  0.4725
 3415SOL     OW21703   0.065   1.545   3.817  0.2760  0.0370 -0.3815
 3415SOL    HW121704   4.700   1.523   3.781  0.2114  0.5945 -0.5593
 3415SOL    HW221705   0.110   1.470   3.776  1.0654  0.1957  0.1890
 3416SOL     OW21706   1.902   2.098  14.381  0.6667  0.2887  0.0680
 3416SOL    HW121707   1.810   2.075  14.389  0.6019  1.1662  1.8791
 3416SOL    HW221708   1.891   2.177  14.328 -0.7634 -0.7886 -1.2279
 3417SOL     OW21709   2.885   3.713  15.040  0.0856  0.1466 -0.2135
 3417SOL    HW121710   2.791   3.712  15.022 -0.4257  1.7427  2.4528
 3417SOL    HW221711   2.905   3.655  14.967 -1.3676 -3.2358  2.0783
 3418SOL     OW21712   4.700   4.691  16.460 -0.2058  0.1232 -0.5010
 3418SOL    HW121713   4.673   4.609  16.419  0.0957 -1.0317  1.6332
 3418SOL    HW221714   4.619   0.020  16.451  0.0448  0.5569 -0.3345
 3419SOL     OW21715   0.915   3.082   8.269  0.2444 -0.0965  0.2837
 3419SOL    HW121716   0.890   3.008   8.323 -0.2568  0.8508  1.3553
 3419SOL    HW221717   1.002   3.053   8.244  0.4199  0.0985  0.6820
 3420SOL     OW21718   3.965   2.464   7.380  0.2697  0.8745  0.3008
 3420SOL    HW121719   4.016   2.427   7.307 -0.4371 -1.4232  0.9701
 3420SOL    HW221720   4.018   2.542   7.400 -0.3975  1.7497 -1.3675
 3421SOL     OW21721   3.353   1.217   8.753  0.0416 -0.4208  0.7627
 3421SOL    HW121722   3.330   1.310   8.765  3.3446  0.5199 -0.0233
 3421SOL    HW221723   3.269   1.188   8.717 -0.8174  2.0460  0.7359
 3422SOL     OW21724   2.699   3.489   5.581 -0.1021 -0.0185  0.4709
 3422SOL    HW121725   2.620   3.543   5.579  0.1785  0.3706 -0.2532
 3422SOL    HW221726   2.766   3.536   5.532 -0.8497  0.8725  0.2930
 3423SOL     OW21727   4.247   4.279   7.481  0.1899 -0.3169 -0.8244
 3423SOL    HW121728   4.209   4.195   7.455 -2.7987  0.1044  2.1453
 3423SOL    HW221729   4.221   4.289   7.573  2.9719  0.8628 -0.1474
 3424SOL     OW21730   1.870   1.280   0.967  0.5267 -1.0461  0.1564
 3424SOL    HW121731   1.792   1.253   0.918 -0.4072  2.7438 -0.4320
 3424SOL    HW221732   1.930   1.205   0.960  1.4255 -0.0562 -2.8313
 3425SOL     OW21733   2.139   2.726   0.928  0.1343  0.5053 -0.3958
 3425SOL    HW121734   2.088   2.807   0.933 -0.3997  0.1816 -0.5948
 3425SOL    HW221735   2.158   2.700   1.018  0.8475  1.0112 -0.3999
 3426SOL     OW21736   2.974   1.023   6.768  0.1384  0.1169  0.0845
 3426SOL    HW121737   2.931   1.040   6.684 -1.9252  1.5814  1.4266
 3426SOL    HW221738   3.063   1.020   6.735 -0.3468  1.4862 -1.3836
 3427SOL     OW21739   1.111   1.656  12.707  0.2622 -0.5451  0.2198
 3427SOL    HW121740   1.162   1.689  12.782  0.6109  2.4194 -1.3151
 3427SOL    HW221741   1.163   1.587  12.667 -0.4470 -0.3960 -0.9454
 3428SOL     OW21742   1.178   1.804   4.224  0.1508  0.1869  0.1432
 3428SOL    HW121743   1.087   1.806   4.193  0.5873  0.7163 -1.0699
 3428SOL    HW221744   1.189   1.899   4.226  0.7614  0.1469 -1.5908
 3429SOL     OW21745   2.266   2.986  15.020 -0.1578  0.0939 -0.1370
 3429SOL    HW121746   2.202   2.937  14.967  0.7176 -0.2428 -0.8768
 3429SOL    HW221747   2.213   3.034  15.083 -0.7645  0.9051 -1.2503
 3430SOL     OW21748   1.717   0.421   4.197  0.3779 -0.1671  0.4097
 3430SOL    HW121749   1.797   0.420   4.248 -0.6812 -1.8908  2.0600
 3430SOL    HW221750   1.655   0.459   4.260  0.7258 -0.4754  0.9400
 3431SOL     OW21751   2.200   3.393   5.106  0.2053 -0.2133  0.8649
 3431SOL    HW121752   2.115   3.349   5.107  0.7189 -1.2562 -1.9665
 3431SOL    HW221753   2.191   3.461   5.039  0.6961 -0.8529  0.1572
 3432SOL     OW21754   3.470   2.054   3.653  0.2430 -0.5991  0.2749
 3432SOL    HW121755   3.553   2.099   3.637  0.3287 -1.0256 -0.4582
 3432SOL    HW221756   3.509   1.967   3.655  1.8719  0.1580  1.1470
 3433SOL     OW21757   3.215   3.823   5.736  0.4427  0.0313  0.3822
 3433SOL    HW121758   3.268   3.745   5.756  0.2344  0.0001  0.8090
 3433SOL    HW221759   3.124   3.798   5.748  0.1127  0.1396 -1.8553
 3434SOL     OW21760   0.753   1.151   7.643  0.3991 -0.0887  0.0985
 3434SOL    HW121761   0.792   1.195   7.719 -0.6995 -0.3987  0.8418
 3434SOL    HW221762   0.721   1.074   7.689  0.8406 -0.3516 -0.0394
 3435SOL     OW21763   3.520   1.887   0.160 -0.0541  0.2913 -0.6018
 3435SOL    HW121764   3.549   1.804   0.198 -0.5321  0.4985  0.1947
 3435SOL    HW221765   3.581   1.950   0.198  0.0302 -0.6858  0.8920
 3436SOL     OW21766   3.206   1.187   8.170  0.5071 -0.4217 -0.4606
 3436SOL    HW121767   3.292   1.210   8.204  0.5228 -0.6561 -0.3380
 3436SOL    HW221768   3.162   1.272   8.170 -0.8271 -1.1108 -1.9367
 3437SOL     OW21769   3.886   2.768   3.770 -0.3256 -0.4375 -0.1902
 3437SOL    HW121770   3.901   2.811   3.854 -0.3981  1.2897 -1.0688
 3437SOL    HW221771   3.854   2.687   3.810 -1.3021 -0.2595 -0.6091
 3438SOL     OW21772   0.490   0.560   8.240  0.0513  0.2330 -0.0826
 3438SOL    HW121773   0.403   0.533   8.210  0.3385 -0.9353  0.1394
 3438SOL    HW221774   0.499   0.635   8.181  0.3267 -0.2601 -0.6572
 3439SOL     OW21775   2.830   1.943   3.272  0.0710 -0.3185 -0.4358
 3439SOL    HW121776   2.920   1.931   3.241  0.7657 -1.4302  2.0322
 3439SOL    HW221777   2.810   2.031   3.240  0.2897  0.4946  1.6959
 3440SOL     OW21778   2.223   3.827  12.009  0.2468 -0.4614  0.1682
 3440SOL    HW121779   2.167   3.753  12.034  0.9841 -0.9012  0.5283
 3440SOL    HW221780   2.309   3.784  12.008 -0.1631 -1.3145  1.3049
 3441SOL     OW21781   2.725   3.750   6.085 -0.1362 -0.5604 -0.4244
 3441SOL    HW121782   2.735   3.655   6.084  0.0278 -0.5397 -0.9164
 3441SOL    HW221783   2.807   3.782   6.122  0.3234 -1.5725 -0.5736
 3442SOL     OW21784   3.476   4.264   2.834  0.1630  0.1448  0.1292
 3442SOL    HW121785   3.489   4.333   2.899  1.3754  0.3543 -0.3315
 3442SOL    HW221786   3.407   4.306   2.783  0.0423 -0.4237 -0.1700
 3443SOL     OW21787   3.152   3.993   2.574 -0.2171  0.0350 -0.4196
 3443SOL    HW121788   3.208   4.007   2.497  0.5314  1.7838  0.4392
 3443SOL    HW221789   3.133   4.084   2.598  1.3546 -0.1845  1.6431
 3444SOL     OW21790   3.627   0.496   5.680 -0.1128  0.2519  0.1485
 3444SOL    HW121791   3.634   0.532   5.591 -0.0469  0.8973  0.4166
 3444SOL    HW221792   3.531   0.496   5.681 -0.1354  0.1973 -1.2157
 3445SOL     OW21793   1.371   4.676   7.134  0.2013 -0.0594 -0.1151
 3445SOL    HW121794   1.373   4.657   7.228  1.7941  0.4967 -0.0380
 3445SOL    HW221795   1.347   4.592   7.096 -3.0985  0.7738  0.1669
 3446SOL     OW21796   0.786   2.521   8.871  0.1000  0.1918 -0.5593
 3446SOL    HW121797   0.791   2.490   8.962 -0.6626  1.4540 -0.0897
 3446SOL    HW221798   0.745   2.446   8.827 -0.9295 -0.6352  1.8100
 3447SOL     OW21799   4.259   2.471  15.979 -0.4972  0.4693  0.0129
 3447SOL    HW121800   4.246   2.506  16.067 -1.0767 -1.5216  0.7245
 3447SOL    HW221801   4.354   2.473  15.966 -0.6090  0.3464 -0.8459
 3448SOL     OW21802   2.196   0.042   5.961 -0.2257 -0.0626 -0.2308
 3448SOL    HW121803   2.202   0.036   6.057  1.4460 -0.2381 -0.3447
 3448SOL    HW221804   2.217   4.673   5.937 -0.3931 -0.6112  1.7031
 3449SOL     OW21805   2.635   0.167  15.376 -0.3101  0.3814  0.4671
 3449SOL    HW121806   2.607   0.211  15.457  0.3482 -2.9481  2.5218
 3449SOL    HW221807   2.726   0.197  15.378 -0.1592 -0.0715  0.3619
 3450SOL     OW21808   3.751   0.112  16.262 -0.3568 -0.4668  0.1452
 3450SOL    HW121809   3.740   0.207  16.259  2.1938 -0.1775 -0.2819
 3450SOL    HW221810   3.827   0.087  16.210 -0.9869 -1.0283 -0.4997
 3451SOL     OW21811   1.345   0.943  12.872 -0.2313  0.1585  0.0196
 3451SOL    HW121812   1.254   0.919  12.883  0.0953  0.0719  2.3957
 3451SOL    HW221813   1.320   1.014  12.812  1.3128  0.6887 -0.0116
 3452SOL     OW21814   0.472   0.409  11.073 -0.1858  0.1577  0.1696
 3452SOL    HW121815   0.383   0.427  11.101 -0.3792 -0.2229 -0.2078
 3452SOL    HW221816   0.518   0.463  11.138 -0.8003  1.7286 -0.7061
 3453SOL     OW21817   0.538   1.003  14.927  0.0068 -0.2079  0.2665
 3453SOL    HW121818   0.461   1.017  14.982  1.4179 -0.1786  2.2105
 3453SOL    HW221819   0.495   1.011  14.841 -2.7485  2.4224  1.8791
 3454SOL     OW21820   1.733   3.559  13.197  0.5403 -0.4030 -0.4323
 3454SOL    HW121821   1.771   3.581  13.282  2.8148 -1.0125 -1.3034
 3454SOL    HW221822   1.742   3.464  13.185  2.7816 -0.2612  0.2005
 3455SOL     OW21823   2.511   1.500  12.731  0.4781 -0.0350 -0.5475
 3455SOL    HW121824   2.552   1.419  12.699 -2.2148 -1.3342 -0.7000
 3455SOL    HW221825   2.448   1.509  12.659 -2.1666 -0.4083  1.7291
 3456SOL     OW21826   2.625   4.706   5.518  0.1989  0.6202  0.0183
 3456SOL    HW121827   2.591   0.067   5.485 -2.3758 -1.6541 -2.9420
 3456SOL    HW221828   2.657   4.661   5.440 -3.6235 -1.6040 -0.2517
 3457SOL     OW21829   1.411   3.400  12.206 -0.0057 -0.6611  0.0923
 3457SOL    HW121830   1.483   3.426  12.262  0.1190  2.2132 -1.4095
 3457SOL    HW221831   1.351   3.352  12.264  1.0520 -1.3101  0.6447
 3458SOL     OW21832   3.210   4.221   4.502 -0.1475  0.1843  0.3597
 3458SOL    HW121833   3.155   4.147   4.477  2.4182 -1.1875 -1.1645
 3458SOL    HW221834   3.229   4.197   4.593  0.4739 -1.1819 -0.1280
 3459SOL     OW21835   2.019   2.246   5.692 -0.0180 -0.0474 -0.0251
 3459SOL    HW121836   1.967   2.263   5.771 -0.4544  0.1671 -0.3549
 3459SOL    HW221837   2.069   2.328   5.687  1.7977 -1.3322 -2.8251
 3460SOL     OW21838   2.563   4.423   0.145 -0.9133 -0.3422  0.0912
 3460SOL    HW121839   2.501   4.492   0.170 -2.6224 -2.1970  1.0399
 3460SOL    HW221840   2.555   4.411   0.051 -1.7155 -2.0085  0.3639
 3461SOL     OW21841   2.860   0.078  11.800 -0.6077  0.4431 -0.2211
 3461SOL    HW121842   2.951   0.092  11.826 -0.2436 -2.1537 -0.0696
 3461SOL    HW221843   2.820   0.021  11.867  1.5857 -0.9903 -0.1304
 3462SOL     OW21844   1.571   2.398   7.798  0.4249 -0.2000  0.4189
 3462SOL    HW121845   1.503   2.332   7.815 -0.6104  0.6501 -0.4491
 3462SOL    HW221846   1.648   2.348   7.773  0.5940  1.4060 -2.2858
 3463SOL     OW21847   1.800   2.053   4.385 -0.2249  0.5116 -0.0501
 3463SOL    HW121848   1.785   2.039   4.291  0.8949  1.5449 -0.3856
 3463SOL    HW221849   1.878   1.999   4.402  1.8408  2.5236 -3.0399
 3464SOL     OW21850   1.092   2.196   1.329 -0.4021  0.3362 -0.4446
 3464SOL    HW121851   1.121   2.180   1.419 -0.9708  0.2417 -0.2811
 3464SOL    HW221852   1.013   2.249   1.329 -1.3448 -1.0524  1.9037
 3465SOL     OW21853   4.622   2.074   1.250 -0.0694  0.7883 -0.0522
 3465SOL    HW121854   4.695   2.088   1.310 -0.2939 -1.4951  0.7811
 3465SOL    HW221855   4.661   2.091   1.165  0.7372  0.8059  0.3190
 3466SOL     OW21856   1.501   2.425  10.189 -0.5298 -0.1124  0.1871
 3466SOL    HW121857   1.490   2.512  10.227  0.6760  0.5847 -1.0297
 3466SOL    HW221858   1.592   2.428  10.159 -0.6070 -0.8262 -0.1285
 3467SOL     OW21859   0.258   3.643   7.042 -0.5624 -0.0840  0.5152
 3467SOL    HW121860   0.181   3.698   7.054  0.1487  0.9565  0.3644
 3467SOL    HW221861   0.227   3.571   7.098  0.7811 -1.1330 -0.0819
 3468SOL     OW21862   1.624   2.992   2.827 -0.4643 -0.0725 -0.0177
 3468SOL    HW121863   1.536   2.966   2.800 -0.3634  1.1870 -1.6212
 3468SOL    HW221864   1.682   2.982   2.751 -1.5188 -2.4319 -0.5177
 3469SOL     OW21865   3.486   3.817   3.610  0.2965  0.0308 -0.0005
 3469SOL    HW121866   3.467   3.763   3.686  1.8654  0.0844  0.4236
 3469SOL    HW221867   3.484   3.758   3.535 -3.3091  0.1417  0.0209
 3470SOL     OW21868   1.036   1.207  15.968  0.0705 -0.4651 -0.1652
 3470SOL    HW121869   1.037   1.137  15.904  2.7472  0.0840 -0.7458
 3470SOL    HW221870   1.126   1.239  15.966 -0.2517  0.3721 -1.0421
 3471SOL     OW21871   3.415   1.587   9.450  0.5473  0.2082 -0.0307
 3471SOL    HW121872   3.352   1.645   9.494 -0.4722 -2.2450  1.7383
 3471SOL    HW221873   3.495   1.611   9.498  1.2266 -0.7058 -0.7200
 3472SOL     OW21874   2.960   3.377   7.686  0.4320  0.3870 -0.3114
 3472SOL    HW121875   2.987   3.317   7.756  0.7916  3.1408  1.9029
 3472SOL    HW221876   2.958   3.317   7.612  0.4287  1.0859 -0.8766
 3473SOL     OW21877   3.023   4.550   3.588  0.1667 -0.0907  0.2516
 3473SOL    HW121878   3.026   4.645   3.591 -2.4190  0.0461 -2.0809
 3473SOL    HW221879   2.961   4.516   3.653 -0.0202  1.2237  0.7609
 3474SOL     OW21880   3.249   0.292   7.274  0.5250  0.0622  0.3694
 3474SOL    HW121881   3.329   0.343   7.263 -0.4862  1.1350 -1.8275
 3474SOL    HW221882   3.290   0.213   7.311  3.2318  1.7991  1.0765
 3475SOL     OW21883   1.610   0.930   4.373 -0.2121  0.1865  0.0140
 3475SOL    HW121884   1.550   0.910   4.445  0.1392  0.6687  0.4313
 3475SOL    HW221885   1.620   1.025   4.373 -0.4386  0.2154 -1.1029
 3476SOL     OW21886   2.961   3.231   7.458 -0.6259  0.0799 -0.1061
 3476SOL    HW121887   2.908   3.277   7.392 -2.1641 -2.4730 -0.6376
 3476SOL    HW221888   3.041   3.212   7.409 -0.9613 -0.0958 -0.5859
 3477SOL     OW21889   4.417   2.678   0.397  0.0818 -0.0395  0.4333
 3477SOL    HW121890   4.440   2.698   0.487  0.1830 -2.8453  1.0513
 3477SOL    HW221891   4.362   2.753   0.375 -1.4465 -1.6364 -1.2609
 3478SOL     OW21892   0.338   2.155   5.545 -0.3156 -0.4317  0.1323
 3478SOL    HW121893   0.344   2.104   5.626  1.0740 -0.8330 -0.2230
 3478SOL    HW221894   0.414   2.213   5.551  2.2105 -3.6978 -0.4033
 3479SOL     OW21895   2.433   1.706   2.955 -0.1491 -0.7077  0.3792
 3479SOL    HW121896   2.497   1.704   2.884 -0.9150  1.2461 -0.3546
 3479SOL    HW221897   2.474   1.651   3.022  0.1357 -2.6896 -1.4215
 3480SOL     OW21898   2.038   3.582   5.688  0.4793 -0.8721 -0.4709
 3480SOL    HW121899   1.983   3.644   5.736 -0.3119 -1.0126 -1.1945
 3480SOL    HW221900   2.021   3.609   5.598  0.0086 -1.0963 -0.4484
 3481SOL     OW21901   3.557   4.442  16.545  0.1495 -0.2512 -0.1504
 3481SOL    HW121902   3.516   4.375  16.490 -0.4194  0.3727 -0.4820
 3481SOL    HW221903   3.551   4.520  16.490 -1.3906  1.1485  2.0326
 3482SOL     OW21904   0.229   0.465  11.211 -0.9897 -0.1503  0.2072
 3482SOL    HW121905   0.214   0.511  11.294 -1.0517  0.7686 -0.3051
 3482SOL    HW221906   0.176   0.386  11.204 -0.9438 -0.2212  0.6740
 3483SOL     OW21907   3.312   0.129   6.695 -0.1061 -0.2551 -0.0675
 3483SOL    HW121908   3.262   0.185   6.755 -2.4480 -1.4096 -0.9515
 3483SOL    HW221909   3.253   0.055   6.681 -1.2561  0.1718  2.5036
 3484SOL     OW21910   3.112   1.478   7.960  1.1584  0.2513  0.2722
 3484SOL    HW121911   3.077   1.492   8.048  1.1334 -1.7827  0.5724
 3484SOL    HW221912   3.192   1.425   7.965  0.5700 -0.6217  0.4828
 3485SOL     OW21913   3.832   0.302  13.990  0.5042  0.6191 -0.2538
 3485SOL    HW121914   3.858   0.394  13.982 -3.6291  1.8780  0.4802
 3485SOL    HW221915   3.817   0.274  13.900 -0.9933 -2.7809  1.0617
 3486SOL     OW21916   2.090   2.908   5.417 -0.0743 -0.0357  0.6509
 3486SOL    HW121917   2.107   3.001   5.430 -1.1911  0.2679  0.0061
 3486SOL    HW221918   2.108   2.908   5.323 -0.8015 -0.3047  0.5110
 3487SOL     OW21919   3.906   0.509   5.377 -0.4220 -0.3800 -0.4671
 3487SOL    HW121920   3.818   0.544   5.366  0.7483  2.2818 -1.4575
 3487SOL    HW221921   3.889   0.415   5.386  1.7987 -0.7315  0.2087
 3488SOL     OW21922   2.927   4.504   3.121 -0.0227 -0.3266 -1.1808
 3488SOL    HW121923   2.892   4.450   3.192 -1.3599 -0.8425 -2.2353
 3488SOL    HW221924   2.861   4.488   3.055  0.6205 -0.1129 -1.8799
 3489SOL     OW21925   2.818   2.479  16.199 -0.5221 -0.2841  0.2596
 3489SOL    HW121926   2.846   2.559  16.155 -0.9597 -0.2951 -0.0453
 3489SOL    HW221927   2.812   2.501  16.292  0.4758  1.5604 -0.1195
 3490SOL     OW21928   4.658   0.345   5.991  0.3303 -0.0161  0.4257
 3490SOL    HW121929   4.605   0.406   5.940 -0.8225  0.7238  2.4833
 3490SOL    HW221930   4.666   0.396   6.072 -2.8075  1.4481 -0.1894
 3491SOL     OW21931   2.735   1.143  17.559  0.7824  0.3028  0.1489
 3491SOL    HW121932   2.653   1.101  17.585  0.4770  1.3012  0.8075
 3491SOL    HW221933   2.763   1.180  17.643 -1.3226  1.0223  0.5411
 3492SOL     OW21934   2.658   4.224   0.598  0.3228 -0.3189 -0.0794
 3492SOL    HW121935   2.710   4.159   0.550 -0.3583  1.5787 -3.4225
 3492SOL    HW221936   2.578   4.210   0.546 -2.0331  0.1299  3.3962
 3493SOL     OW21937   4.442   1.718  11.644 -0.2778 -0.1151 -0.0211
 3493SOL    HW121938   4.386   1.793  11.624 -0.2157 -0.6705 -2.3886
 3493SOL    HW221939   4.396   1.698  11.725 -0.9826  1.2663 -0.0893
 3494SOL     OW21940   3.440   4.700  11.746 -0.3252  0.7272  0.2804
 3494SOL    HW121941   3.461   0.058  11.696 -0.8208 -0.7435 -2.2386
 3494SOL    HW221942   3.345   4.712  11.756 -0.6567 -2.1360  0.4451
 3495SOL     OW21943   4.560   0.534   4.914 -0.0581 -0.8436 -0.8589
 3495SOL    HW121944   4.578   0.586   4.993  1.8943  1.0386 -2.5243
 3495SOL    HW221945   4.504   0.469   4.955 -0.9818 -1.9578 -3.9320
 3496SOL     OW21946   1.950   4.206   5.731  0.2209  0.1148 -0.0448
 3496SOL    HW121947   2.039   4.241   5.741  0.3397  0.3860 -1.9108
 3496SOL    HW221948   1.909   4.276   5.679 -1.9356 -1.1062  0.0156
 3497SOL     OW21949   1.093   0.949   0.973  0.3759 -0.5444 -0.2337
 3497SOL    HW121950   1.003   0.919   0.964  0.1608 -0.3672  1.2345
 3497SOL    HW221951   1.105   0.964   1.067 -0.2540  0.2043 -0.2691
 3498SOL     OW21952   4.409   2.304   2.034 -0.0203 -0.0218  0.0457
 3498SOL    HW121953   4.462   2.383   2.033  2.3438 -1.6069 -1.0682
 3498SOL    HW221954   4.360   2.315   2.115  1.1144 -1.4599  0.9137
 3499SOL     OW21955   3.426   3.511   4.065  0.6503 -0.4191 -0.1320
 3499SOL    HW121956   3.345   3.482   4.023 -0.2358  0.5851  0.8649
 3499SOL    HW221957   3.447   3.442   4.127  0.1257  0.1915  0.7294
 3500SOL     OW21958   4.311   3.469   2.307 -0.2221 -0.0843  0.1794
 3500SOL    HW121959   4.267   3.392   2.343  0.3779 -0.5885 -0.1728
 3500SOL    HW221960   4.274   3.488   2.221  0.8132 -1.5550 -0.5982
 3501SOL     OW21961   2.880   2.117   8.152  0.3768 -0.2136 -0.1312
 3501SOL    HW121962   2.814   2.059   8.113 -1.0749  1.4235 -0.0713
 3501SOL    HW221963   2.854   2.204   8.122 -0.1022  0.1950  1.5102
 3502SOL     OW21964   2.381   3.767   1.324 -0.0400  0.1336 -0.0233
 3502SOL    HW121965   2.446   3.822   1.368  0.8151  0.4015 -1.6234
 3502SOL    HW221966   2.431   3.704   1.272 -0.8515 -0.6663  0.1666
 3503SOL     OW21967   4.035   0.240   2.490  0.1305  0.0160  0.2408
 3503SOL    HW121968   4.078   0.156   2.499  0.2271  0.1706  1.2901
 3503SOL    HW221969   4.090   0.292   2.432 -1.6674 -1.1585 -2.5128
 3504SOL     OW21970   0.121   3.653   7.368  0.1523  0.0002  0.0159
 3504SOL    HW121971   0.108   3.565   7.332  1.0466  0.0512 -0.4485
 3504SOL    HW221972   0.062   3.643   7.442  0.0302 -1.8529 -0.3246
 3505SOL     OW21973   4.324   3.135   4.515 -0.1074  0.0570  0.0426
 3505SOL    HW121974   4.337   3.229   4.504  3.2396 -0.4726 -0.2519
 3505SOL    HW221975   4.393   3.097   4.461  1.6278  3.1377  0.1244
 3506SOL     OW21976   3.211   0.639  17.296 -0.5325  0.2309 -0.1529
 3506SOL    HW121977   3.288   0.609  17.248 -0.2845 -0.7322  0.8386
 3506SOL    HW221978   3.241   0.717  17.342  1.0252 -0.3869 -0.1257
 3507SOL     OW21979   0.280   3.505  13.370 -0.1833 -0.1047 -0.1901
 3507SOL    HW121980   0.243   3.583  13.413  1.2203 -0.0188  0.8707
 3507SOL    HW221981   0.349   3.551  13.322  0.8383 -0.6564  0.7321
 3508SOL     OW21982   4.549   3.787   4.013 -0.1080 -0.1027 -0.4650
 3508SOL    HW121983   4.580   3.840   4.087 -1.3558 -0.5642  0.4002
 3508SOL    HW221984   4.629   3.740   3.990 -0.7004 -1.1384 -0.4270
 3509SOL     OW21985   0.834   0.898   9.895 -0.4025 -0.5999 -0.1401
 3509SOL    HW121986   0.894   0.884   9.968 -0.8733 -0.1422  0.3360
 3509SOL    HW221987   0.894   0.922   9.824  0.6635 -0.7868  0.6997
 3510SOL     OW21988   2.695   4.091   3.123  0.2656  0.0876 -0.7104
 3510SOL    HW121989   2.789   4.086   3.109  0.3272  1.4310 -0.7997
 3510SOL    HW221990   2.671   3.999   3.124 -1.1316  0.4513 -0.0119
 3511SOL     OW21991   3.097   2.062   1.401  0.7103  0.1425 -0.3007
 3511SOL    HW121992   3.132   1.986   1.448  0.5862  0.3848  0.1820
 3511SOL    HW221993   3.039   2.021   1.337  0.5800 -1.0561  0.5800
 3512SOL     OW21994   2.345   1.054   3.885  0.3520  0.3111  0.4759
 3512SOL    HW121995   2.280   0.989   3.908 -0.1583  1.5719  2.5704
 3512SOL    HW221996   2.315   1.072   3.796  0.7724  1.2463  0.5190
 3513SOL     OW21997   3.711   4.411   0.487 -0.2530 -0.0674  0.5552
 3513SOL    HW121998   3.690   4.339   0.428 -1.3289 -0.1885  1.0859
 3513SOL    HW221999   3.633   4.466   0.476 -0.6138 -0.9868 -1.5415
 3514SOL     OW22000   3.549   3.279   1.372  0.5476  0.3911  0.1120
 3514SOL    HW122001   3.506   3.330   1.440 -0.9294 -4.4125  2.8048
 3514SOL    HW222002   3.517   3.194   1.402 -0.9440  0.6339 -0.8235
 3515SOL     OW22003   1.959   3.858   2.603  0.2376 -0.8379  0.6847
 3515SOL    HW122004   1.967   3.770   2.642 -0.1565 -1.9308 -1.6735
 3515SOL    HW222005   1.866   3.873   2.589  0.6541  0.8565 -0.2017
 3516SOL     OW22006   4.355   3.571   5.931 -0.1324  0.5817  0.3560
 3516SOL    HW122007   4.330   3.585   5.840 -2.2752  1.7842  1.1179
 3516SOL    HW222008   4.302   3.631   5.984 -1.6692 -1.0067  0.6342
 3517SOL     OW22009   2.625   4.005   2.409 -0.0099  0.3510  0.1980
 3517SOL    HW122010   2.588   3.961   2.486 -1.3461  1.0177 -0.0779
 3517SOL    HW222011   2.568   4.080   2.392  0.2871  0.0138 -2.2499
 3518SOL     OW22012   1.065   4.533   5.696 -0.3155  0.0159 -0.5333
 3518SOL    HW122013   1.067   4.501   5.786  1.2670  0.2665 -0.4873
 3518SOL    HW222014   1.066   4.626   5.722  0.3392 -0.1525  0.0300
 3519SOL     OW22015   0.276   4.573   6.362 -0.4155 -0.2947 -0.2873
 3519SOL    HW122016   0.186   4.559   6.332 -0.8540  1.0070  0.4098
 3519SOL    HW222017   0.266   4.543   6.452 -0.0575  1.9097  0.4876
 3520SOL     OW22018   1.209   0.124   7.445  0.1345  0.3157 -0.4986
 3520SOL    HW122019   1.139   0.068   7.413 -1.4350  1.4600  0.9166
 3520SOL    HW222020   1.156   0.156   7.518 -0.4030  0.6971 -1.0504
 3521SOL     OW22021   1.993   1.050   6.704  0.4724  0.0060  0.0949
 3521SOL    HW122022   1.958   1.106   6.635  0.8465  1.2560  0.9177
 3521SOL    HW222023   2.059   1.113   6.732 -1.5474  2.0072  0.3408
 3522SOL     OW22024   1.558   3.927   6.973 -1.1012 -0.4865 -0.1175
 3522SOL    HW122025   1.633   3.904   7.027 -1.4740  2.7783  1.7707
 3522SOL    HW222026   1.498   3.967   7.036  0.4550  2.3410 -0.4329
 3523SOL     OW22027   0.406   4.121   1.389  0.2199 -0.3520  0.4187
 3523SOL    HW122028   0.435   4.058   1.455 -0.6437 -0.1153  1.0387
 3523SOL    HW222029   0.346   4.069   1.335 -0.9930  2.1518 -0.6568
 3524SOL     OW22030   0.371   1.378   2.087  0.6496  0.8546  0.0560
 3524SOL    HW122031   0.440   1.381   2.021 -0.5993 -0.6468 -1.3266
 3524SOL    HW222032   0.395   1.297   2.132  0.6532  1.8473  1.8139
 3525SOL     OW22033   0.685   4.525   5.912  0.3545 -0.4040  0.2672
 3525SOL    HW122034   0.680   4.505   6.005  0.2190 -0.1983  0.3043
 3525SOL    HW222035   0.621   4.595   5.901 -2.0003 -2.4588  1.0685
 3526SOL     OW22036   0.491   3.139   8.786 -0.2167  0.8109  0.0673
 3526SOL    HW122037   0.444   3.132   8.869 -0.9011  0.2440 -0.3654
 3526SOL    HW222038   0.567   3.081   8.796 -1.3979 -0.4517  1.8241
 3527SOL     OW22039   4.447   3.052   8.128 -0.4138  0.0840 -0.0456
 3527SOL    HW122040   4.457   2.963   8.094  1.1444  0.2170  0.0644
 3527SOL    HW222041   4.500   3.100   8.065  1.3399 -0.5607  0.9532
 3528SOL     OW22042   2.701   3.074   7.879  0.1226 -0.0485 -0.1308
 3528SOL    HW122043   2.692   2.979   7.878  0.4460 -0.0757 -1.0749
 3528SOL    HW222044   2.656   3.095   7.797  1.2952  2.1066 -0.2522
 3529SOL     OW22045   2.699   2.874   6.356  0.2114 -0.5017  0.3268
 3529SOL    HW122046   2.783   2.850   6.397  0.3230 -0.0702  0.3496
 3529SOL    HW222047   2.638   2.861   6.429 -1.3387  0.6599 -0.7730
 3530SOL     OW22048   2.080   4.552   6.652  0.2014 -0.3145  0.1384
 3530SOL    HW122049   1.990   4.523   6.636 -0.3450  0.4708  1.7662
 3530SOL    HW222050   2.115   4.463   6.653  0.1222 -0.3392  0.8887
 3531SOL     OW22051   0.466   3.331   5.735 -0.1930 -0.1572  0.0602
 3531SOL    HW122052   0.457   3.239   5.758 -0.6490 -0.1014  0.0922
 3531SOL    HW222053   0.427   3.327   5.647 -1.4368  0.8355  0.5633
 3532SOL     OW22054   1.808   2.247   7.137 -0.0588  0.6141  1.4632
 3532SOL    HW122055   1.817   2.158   7.104 -0.7046  0.2420  2.2728
 3532SOL    HW222056   1.899   2.268   7.156  0.3653 -0.9472  1.0762
 3533SOL     OW22057   4.291   4.584   5.800  0.2807 -0.0988  0.0977
 3533SOL    HW122058   4.286   4.526   5.876  1.5305 -2.0012 -1.2788
 3533SOL    HW222059   4.341   4.654   5.842 -0.1887 -1.2405  2.5417
 3534SOL     OW22060   2.652   4.150  14.573  0.6534 -0.2655 -0.4214
 3534SOL    HW122061   2.739   4.134  14.610 -0.5520 -3.6875  0.8977
 3534SOL    HW222062   2.673   4.194  14.490 -1.7564 -0.2452 -1.0311
 3535SOL     OW22063   2.109   3.452  10.901 -0.4448  0.0283 -0.0409
 3535SOL    HW122064   2.086   3.518  10.966  0.4022  0.1011  0.1822
 3535SOL    HW222065   2.055   3.378  10.930  0.2854  0.2738  1.9300
 3536SOL     OW22066   3.775   2.640  14.737  0.3527  0.1008  0.5563
 3536SOL    HW122067   3.787   2.618  14.829  1.1474  1.9540  0.8884
 3536SOL    HW222068   3.856   2.690  14.736  0.1195  0.4916  1.9096
 3537SOL     OW22069   2.521   2.760   2.234 -0.3336 -0.5044  0.0631
 3537SOL    HW122070   2.583   2.817   2.279  0.1965 -0.8027 -0.2972
 3537SOL    HW222071   2.471   2.827   2.187 -1.3455 -2.5904 -1.8473
 3538SOL     OW22072   4.489   2.173   3.644 -0.2565  0.5442  0.0914
 3538SOL    HW122073   4.439   2.216   3.576 -0.2074  0.1477 -0.1968
 3538SOL    HW222074   4.414   2.163   3.702 -1.4695  2.0882 -1.2231
 3539SOL     OW22075   0.736   3.236   8.894 -0.4347 -0.1993 -0.2644
 3539SOL    HW122076   0.751   3.320   8.938  1.9884 -0.8084  0.0580
 3539SOL    HW222077   0.677   3.193   8.956 -1.5983  1.0924 -0.4817
 3540SOL     OW22078   0.800   0.214  14.304 -0.6004  0.2289 -0.4695
 3540SOL    HW122079   0.723   0.193  14.357 -1.3142  2.6106 -0.5669
 3540SOL    HW222080   0.852   0.135  14.315 -0.5577  0.5146  1.4567
 3541SOL     OW22081   1.772   4.715  14.036  0.1348 -0.1143  0.2089
 3541SOL    HW122082   1.831   0.051  14.086  1.5462 -0.1146 -1.4807
 3541SOL    HW222083   1.766   4.643  14.099 -1.3919 -0.1712  0.0043
 3542SOL     OW22084   1.728   2.033   6.407 -0.3118 -0.2962  0.3280
 3542SOL    HW122085   1.752   1.943   6.383  2.2033 -0.3696  3.0695
 3542SOL    HW222086   1.806   2.061   6.455  0.8667 -0.1836 -1.6697
 3543SOL     OW22087   1.131   4.494   8.089 -0.0371  0.2835 -0.3351
 3543SOL    HW122088   1.156   4.586   8.079 -0.9772  0.7012  1.1701
 3543SOL    HW222089   1.047   4.503   8.133  0.4412  3.4934 -0.1246
 3544SOL     OW22090   2.587   2.859  13.816  0.1141 -0.4363 -0.2995
 3544SOL    HW122091   2.607   2.919  13.744  4.3649 -0.7343  0.6567
 3544SOL    HW222092   2.659   2.798  13.803  1.9814  2.1368 -2.0627
 3545SOL     OW22093   2.059   3.796   7.013  0.0930  0.3515 -0.9351
 3545SOL    HW122094   2.132   3.854   6.989  2.4643 -2.2838 -0.1142
 3545SOL    HW222095   2.063   3.734   6.940  1.6871 -1.3274  0.5721
 3546SOL     OW22096   4.377   0.505   0.430 -0.8762  0.1688 -0.4242
 3546SOL    HW122097   4.406   0.413   0.430  0.0697  0.4693 -1.4512
 3546SOL    HW222098   4.456   0.557   0.419  0.6856 -2.4085 -1.3543
 3547SOL     OW22099   3.550   2.820   4.176  0.4030 -0.3153 -0.0496
 3547SOL    HW122100   3.549   2.885   4.246 -0.3302 -0.7537  0.3521
 3547SOL    HW222101   3.455   2.807   4.170  0.2170  0.5782  0.9149
 3548SOL     OW22102   3.648   0.474  11.127  0.8633  0.5126  0.2540
 3548SOL    HW122103   3.607   0.505  11.208 -1.4683 -0.2418 -0.6269
 3548SOL    HW222104   3.683   0.557  11.094 -1.0985  0.2884 -2.3817
 3549SOL     OW22105   4.600   0.344   8.079  0.3823 -0.2789 -0.4731
 3549SOL    HW122106   4.674   0.330   8.139  1.3466  1.7802 -1.1706
 3549SOL    HW222107   4.538   0.394   8.132  1.7246  0.1897  0.6695
 3550SOL     OW22108   0.891   1.136   1.173  0.3424 -0.5832 -0.8243
 3550SOL    HW122109   0.968   1.089   1.205  0.6681  0.7913  0.4080
 3550SOL    HW222110   0.908   1.221   1.214  1.0947 -1.4489  0.6591
 3551SOL     OW22111   4.338   1.960   3.804  0.0321 -0.0386  0.0891
 3551SOL    HW122112   4.305   1.872   3.788  1.1365 -0.3701 -0.3492
 3551SOL    HW222113   4.378   1.939   3.889 -1.3247  0.4213  0.8439
 3552SOL     OW22114   1.161   0.758   5.429  0.0269  0.4656  0.3744
 3552SOL    HW122115   1.186   0.666   5.428 -0.4866  0.3330 -0.5289
 3552SOL    HW222116   1.174   0.775   5.522  1.4537 -1.9800  0.6215
 3553SOL     OW22117   4.418   3.428   3.264 -0.5250  0.2380  1.0577
 3553SOL    HW122118   4.501   3.417   3.309  0.9771  0.1193 -1.7233
 3553SOL    HW222119   4.431   3.479   3.184  1.0666 -1.9105 -0.0634
 3554SOL     OW22120   3.820   2.363  14.696 -0.6084 -0.5993 -0.0411
 3554SOL    HW122121   3.795   2.455  14.699  0.2904 -0.3733  0.6143
 3554SOL    HW222122   3.906   2.369  14.737 -0.8177  0.0284  0.2952
 3555SOL     OW22123   0.059   1.456   5.281  0.1418 -0.4372 -0.0255
 3555SOL    HW122124   0.089   1.381   5.230  0.3222  1.6326 -2.9371
 3555SOL    HW222125   0.129   1.515   5.252  0.1187 -0.3742  0.0458
 3556SOL     OW22126   4.095   0.902   6.542  0.0416 -0.8915 -0.0936
 3556SOL    HW122127   4.033   0.861   6.481 -1.3287  0.6239  0.2999
 3556SOL    HW222128   4.068   0.877   6.630  0.6575  0.0005  0.3403
 3557SOL     OW22129   4.144   1.159   5.932  0.2180  0.3015 -0.4518
 3557SOL    HW122130   4.234   1.186   5.948  0.9443 -1.6051 -1.3870
 3557SOL    HW222131   4.114   1.227   5.871  0.4225  0.5636 -0.2606
 3558SOL     OW22132   2.917   4.652   5.004  0.1590 -0.2500  0.4086
 3558SOL    HW122133   2.944   4.665   4.914 -0.0996 -0.4601  0.3013
 3558SOL    HW222134   2.842   4.593   4.992  0.2391 -0.1793 -0.3959
 3559SOL     OW22135   0.416   2.789  10.557  0.0659 -0.5602 -0.0058
 3559SOL    HW122136   0.398   2.846  10.482 -0.7859  0.5320  1.0213
 3559SOL    HW222137   0.337   2.735  10.555  1.2167 -2.0833 -2.7515
 3560SOL     OW22138   2.122   3.079   6.097  0.4469  0.0369 -0.5136
 3560SOL    HW122139   2.027   3.072   6.110  0.5914 -0.0370  0.4960
 3560SOL    HW222140   2.141   3.138   6.169 -2.5723  0.8998 -0.3989
 3561SOL     OW22141   0.589   2.022   9.195  0.2811  0.2480 -0.3715
 3561SOL    HW122142   0.540   2.025   9.113  1.0338  0.7398 -0.8100
 3561SOL    HW222143   0.616   1.931   9.180 -1.0391  0.1709 -2.2750
 3562SOL     OW22144   3.117   4.371   3.867 -0.0227 -0.0409 -0.3507
 3562SOL    HW122145   3.145   4.442   3.810 -0.6542 -0.8796 -1.6889
 3562SOL    HW222146   3.133   4.412   3.952 -0.0917 -0.5786 -0.0738
 3563SOL     OW22147   0.810   3.914   8.431 -0.1049 -0.1744  0.0705
 3563SOL    HW122148   0.762   3.865   8.365 -0.1176 -0.0853  0.0138
 3563SOL    HW222149   0.759   3.995   8.436 -1.7484 -1.1840 -0.5280
 3564SOL     OW22150   1.520   4.170   0.330 -0.0068 -0.1167  0.1088
 3564SOL    HW122151   1.437   4.128   0.354  0.2746  0.1644  1.5864
 3564SOL    HW222152   1.483   4.246   0.284 -3.7530 -0.0897  3.1621
 3565SOL     OW22153   3.373   4.218  13.986  0.0674  0.2590  0.5501
 3565SOL    HW122154   3.339   4.140  13.943  0.4138  1.0323 -1.1372
 3565SOL    HW222155   3.463   4.200  14.014  0.8079  2.6411 -0.3099
 3566SOL     OW22156   0.102   3.081  16.754  0.4080 -0.5149 -0.6237
 3566SOL    HW122157   0.023   3.069  16.702  0.1646 -1.7378  0.0458
 3566SOL    HW222158   0.121   3.175  16.748  0.7882 -0.5424  0.1786
 3567SOL     OW22159   1.269   3.959   4.649  0.2237 -0.1765 -0.6692
 3567SOL    HW122160   1.281   3.891   4.716 -1.6244  1.9437  1.7904
 3567SOL    HW222161   1.334   4.025   4.672 -1.2522  1.2328 -0.5473
 3568SOL     OW22162   4.261   2.303   5.872  0.2350 -0.0359  0.3206
 3568SOL    HW122163   4.273   2.209   5.883 -1.2832 -0.4637 -1.7242
 3568SOL    HW222164   4.181   2.329   5.918  0.3671 -2.5113  1.9566
 3569SOL     OW22165   4.369   2.884  14.280  0.1124  0.1046  0.1169
 3569SOL    HW122166   4.442   2.835  14.320  0.5465 -0.8002 -1.7867
 3569SOL    HW222167   4.295   2.823  14.283 -1.0625  1.5712  0.8076
 3570SOL     OW22168   1.992   2.813   6.379 -0.0611  0.2689  0.1799
 3570SOL    HW122169   2.012   2.749   6.310 -0.4111  2.0339 -1.5662
 3570SOL    HW222170   2.067   2.870   6.366  1.1736 -0.6894  3.1070
 3571SOL     OW22171   0.855   1.809   3.884 -0.2887 -0.4870 -0.1003
 3571SOL    HW122172   0.768   1.820   3.846 -1.7258 -0.6817  3.2106
 3571SOL    HW222173   0.866   1.714   3.877  1.0561 -0.5047  2.3142
 3572SOL     OW22174   0.252   0.935   9.114  0.0779  0.6007  0.6448
 3572SOL    HW122175   0.272   0.969   9.201 -0.4958  0.0130  1.0055
 3572SOL    HW222176   0.202   1.012   9.090 -0.0351  1.0639  2.3629
 3573SOL     OW22177   2.239   0.412   4.346 -0.2452  0.1531  0.2926
 3573SOL    HW122178   2.251   0.342   4.281 -2.8280 -0.4428  0.4488
 3573SOL    HW222179   2.321   0.411   4.395 -0.2066 -2.1477  0.2019
 3574SOL     OW22180   2.951   4.152   3.402 -0.1964 -0.0466 -0.1915
 3574SOL    HW122181   2.886   4.087   3.375  1.3578 -1.5324 -0.3509
 3574SOL    HW222182   3.030   4.098   3.393  1.0389  1.6754  0.4735
 3575SOL     OW22183   4.664   0.549   7.501  0.0354  0.4696  0.7610
 3575SOL    HW122184   4.691   0.615   7.437 -2.4050 -0.3963 -1.1458
 3575SOL    HW222185   4.657   0.616   7.569  2.4609 -0.9331  2.3806
 3576SOL     OW22186   0.365   3.902  16.494  0.5054  0.1515 -0.2595
 3576SOL    HW122187   0.328   3.848  16.564  0.8789 -1.8455 -1.6224
 3576SOL    HW222188   0.391   3.843  16.424 -0.6266  0.6818 -1.1265
 3577SOL     OW22189   4.370   2.612   8.195  0.1623 -0.3075 -0.2138
 3577SOL    HW122190   4.340   2.521   8.193 -1.9106  0.3600 -0.2589
 3577SOL    HW222191   4.400   2.629   8.284 -0.6792 -1.1683  0.2306
 3578SOL     OW22192   0.748   1.245   3.131  0.4744 -0.3027 -0.3802
 3578SOL    HW122193   0.744   1.262   3.036  0.2459 -1.0303 -0.5014
 3578SOL    HW222194   0.840   1.267   3.145 -0.1020  0.9492  1.4158
 3579SOL     OW22195   1.715   2.390   2.264  0.2396 -0.2849  0.0099
 3579SOL    HW122196   1.763   2.396   2.347  2.7792  1.0567 -1.5509
 3579SOL    HW222197   1.775   2.335   2.212 -2.2020 -1.9994 -0.9574
 3580SOL     OW22198   3.992   4.598   4.353  0.9363  0.1567 -1.1399
 3580SOL    HW122199   3.903   4.577   4.379  1.9308  0.2261  2.3517
 3580SOL    HW222200   4.041   4.548   4.418 -1.4502  2.3736  2.4017
 3581SOL     OW22201   2.584   1.033  15.373  0.2195 -0.6926  0.3496
 3581SOL    HW122202   2.598   0.947  15.333 -2.1275 -0.9888  0.1765
 3581SOL    HW222203   2.652   1.082  15.327  1.5538 -3.2340 -0.4179
 3582SOL     OW22204   0.453   3.190  13.381  0.6132  0.7730  0.2024
 3582SOL    HW122205   0.480   3.170  13.291  0.5111 -1.4520  0.6676
 3582SOL    HW222206   0.443   3.102  13.417  1.7848  1.5817  2.4710
 3583SOL     OW22207   4.238   1.509   6.207  0.2282 -0.0824  0.3687
 3583SOL    HW122208   4.170   1.477   6.265 -0.9622  2.1824  0.2229
 3583SOL    HW222209   4.278   1.574   6.266  0.8276  0.3167 -0.4708
 3584SOL     OW22210   3.062   3.845   7.710 -0.3860  0.3164 -0.2127
 3584SOL    HW122211   3.014   3.836   7.792 -1.6327 -0.2120 -0.9945
 3584SOL    HW222212   3.037   3.756   7.683  0.7905 -1.2566  3.8037
 3585SOL     OW22213   1.320   2.384   1.575  0.1144 -0.1038 -0.0322
 3585SOL    HW122214   1.233   2.354   1.602  0.8173  1.3804  3.9245
 3585SOL    HW222215   1.375   2.340   1.640  1.4389  0.3560 -0.8265
 3586SOL     OW22216   4.624   0.655  11.419 -0.3483 -0.3995  0.3177
 3586SOL    HW122217   4.552   0.708  11.384 -0.2646  0.3282  1.2279
 3586SOL    HW222218   4.690   0.724  11.415 -0.7570 -0.0599 -0.4752
 3587SOL     OW22219   1.042   1.327   5.236 -0.4385  0.1475 -0.4013
 3587SOL    HW122220   1.084   1.354   5.154 -0.1682 -1.4313 -0.7789
 3587SOL    HW222221   0.994   1.248   5.214 -2.1611  1.2846 -0.7261
 3588SOL     OW22222   2.385   3.175  12.462 -0.1899 -0.4190  0.0561
 3588SOL    HW122223   2.416   3.138  12.545  0.4368 -0.1551 -0.0601
 3588SOL    HW222224   2.321   3.238  12.495  1.5721  0.9440  0.8959
 3589SOL     OW22225   4.480   4.471   5.232 -0.3267  0.0972 -0.2409
 3589SOL    HW122226   4.479   4.517   5.316  0.9231 -2.5429  1.2077
 3589SOL    HW222227   4.410   4.521   5.189  0.9303  2.9460  1.0385
 3590SOL     OW22228   0.509   1.482   5.984  0.3513 -0.0233 -0.6201
 3590SOL    HW122229   0.431   1.536   5.974  0.5169  0.6193  1.7069
 3590SOL    HW222230   0.494   1.419   5.913 -1.5203  0.2295 -0.4261
 3591SOL     OW22231   1.819   0.376  10.495 -0.9771 -0.0920  0.1181
 3591SOL    HW122232   1.856   0.293  10.465  2.6156  0.6801  2.3212
 3591SOL    HW222233   1.875   0.386  10.573 -0.1545  0.8373 -0.5907
 3592SOL     OW22234   3.129   3.639   7.973  0.5118  0.1009 -0.8583
 3592SOL    HW122235   3.090   3.615   8.058  1.1724 -1.5859 -1.0307
 3592SOL    HW222236   3.071   3.599   7.908  1.7299 -1.1251 -1.1730
 3593SOL     OW22237   1.358   1.629   4.097 -0.2384 -0.6822 -0.4611
 3593SOL    HW122238   1.375   1.557   4.159 -0.3943  0.5392  0.9993
 3593SOL    HW222239   1.298   1.685   4.146  0.9345  0.3297 -0.1981
 3594SOL     OW22240   1.020   1.025   6.726  0.2335 -0.4027 -0.1251
 3594SOL    HW122241   0.936   1.048   6.687  1.0834  0.0784 -1.6420
 3594SOL    HW222242   1.034   0.933   6.707 -1.5858 -1.0902  1.8636
 3595SOL     OW22243   4.596   2.327   0.691  0.4714 -0.0455 -0.6173
 3595SOL    HW122244   4.532   2.367   0.632 -0.5084 -0.5057  0.1245
 3595SOL    HW222245   4.537   2.296   0.760 -1.1564 -0.0368 -1.9778
 3596SOL     OW22246   0.985   1.834  11.205 -0.1254 -0.2239  0.2245
 3596SOL    HW122247   0.996   1.924  11.172  3.8883 -1.2841 -1.3270
 3596SOL    HW222248   1.054   1.787  11.158  0.5443  1.2688 -0.3015
 3597SOL     OW22249   1.181   2.044   7.820  0.6186 -0.5557  0.1394
 3597SOL    HW122250   1.093   2.068   7.851 -0.2484 -1.6660 -1.4568
 3597SOL    HW222251   1.173   1.963   7.769 -0.2994 -0.7325  0.5631
 3598SOL     OW22252   3.416   2.168  12.977  0.0897 -0.0240 -0.2025
 3598SOL    HW122253   3.456   2.096  12.928 -0.7995  0.3782 -1.5233
 3598SOL    HW222254   3.358   2.212  12.914 -1.1454 -1.8619 -0.3264
 3599SOL     OW22255   3.497   1.568  11.932 -0.4421 -0.1092  0.0155
 3599SOL    HW122256   3.465   1.532  12.015 -0.6409 -0.4681 -0.2151
 3599SOL    HW222257   3.586   1.534  11.928  0.2122  1.7505 -0.9921
 3600SOL     OW22258   3.134   2.563   5.752 -0.5875 -0.1045 -0.0671
 3600SOL    HW122259   3.193   2.586   5.823 -1.1951  0.5761  0.2238
 3600SOL    HW222260   3.176   2.484   5.718  1.5066  0.7804  0.4797
 3601SOL     OW22261   0.601   4.565  10.883  0.0745  0.1975  0.2323
 3601SOL    HW122262   0.666   4.625  10.919  1.8436 -1.1215 -0.7380
 3601SOL    HW222263   0.620   4.592  10.793  2.1475 -1.5966  0.1341
 3602SOL     OW22264   2.979   2.628   2.325  0.1178  0.0724  1.0457
 3602SOL    HW122265   2.918   2.701   2.315 -0.0011 -0.1366  0.1977
 3602SOL    HW222266   3.059   2.663   2.364  0.2697  0.5935  0.2575
 3603SOL     OW22267   3.025   4.192   6.251  0.3004  0.1141 -0.5020
 3603SOL    HW122268   3.039   4.283   6.226 -2.1401  0.5987 -0.0672
 3603SOL    HW222269   2.968   4.197   6.327  0.6503 -1.0511 -0.1632
 3604SOL     OW22270   3.703   2.812   1.460  0.3766  0.6188  0.1115
 3604SOL    HW122271   3.776   2.757   1.489 -1.1964 -0.9775  1.0676
 3604SOL    HW222272   3.694   2.797   1.366  1.6884  3.3205 -0.4364
 3605SOL     OW22273   2.510   2.673   4.963 -0.2748 -0.1299  0.1869
 3605SOL    HW122274   2.575   2.660   4.894 -0.5352 -2.5661  0.4077
 3605SOL    HW222275   2.499   2.581   4.988  1.4979 -0.6817 -1.0157
 3606SOL     OW22276   3.761   3.341   9.656 -0.2136  0.4422 -0.0369
 3606SOL    HW122277   3.826   3.295   9.603  0.0565 -0.7878  1.3443
 3606SOL    HW222278   3.817   3.408   9.695  1.2702 -1.4554  1.1363
 3607SOL     OW22279   1.318   0.626   6.191 -0.6207 -0.3159 -0.2051
 3607SOL    HW122280   1.272   0.558   6.142 -2.1329  0.8744 -0.4453
 3607SOL    HW222281   1.346   0.681   6.117  0.3701  2.1733  2.0182
 3608SOL     OW22282   3.582   4.643   5.653  0.7716  0.1779  0.6539
 3608SOL    HW122283   3.631   4.705   5.598  0.2099  0.3477  0.3335
 3608SOL    HW222284   3.617   4.566   5.609  1.9245  0.8020  0.4768
 3609SOL     OW22285   3.898   4.483   6.059  0.0643 -0.1450  0.2653
 3609SOL    HW122286   3.940   4.401   6.084  2.4956  1.6497  2.1997
 3609SOL    HW222287   3.893   4.472   5.964  0.7423  0.0194  0.2045
 3610SOL     OW22288   4.361   3.951  11.223 -0.4997 -0.1469 -0.1642
 3610SOL    HW122289   4.317   3.877  11.265  0.9844 -1.8090 -1.5364
 3610SOL    HW222290   4.336   4.016  11.289  0.1035 -1.5348  1.4388
 3611SOL     OW22291   3.507   3.360  11.139 -0.0161 -0.0028 -0.7630
 3611SOL    HW122292   3.463   3.275  11.137 -1.5682  0.8313 -1.9068
 3611SOL    HW222293   3.445   3.404  11.196  1.3542  0.5723  0.3013
 3612SOL     OW22294   4.060   1.909   4.288  0.1422  0.6191  0.5135
 3612SOL    HW122295   4.041   1.816   4.300  0.3285  0.8257  2.3113
 3612SOL    HW222296   3.996   1.929   4.219  0.2375  0.5750  0.4105
 3613SOL     OW22297   4.194   2.642   2.984 -0.1587  0.0154  0.4247
 3613SOL    HW122298   4.257   2.673   3.049  0.3351  0.0929 -0.0944
 3613SOL    HW222299   4.210   2.698   2.908 -0.0652  3.2774  2.8444
 3614SOL     OW22300   1.892   2.175  12.351 -0.0865  0.3145  0.3991
 3614SOL    HW122301   1.968   2.169  12.409 -1.3458  0.2778  2.0721
 3614SOL    HW222302   1.871   2.267  12.366  0.4534  0.3084  1.2317
 3615SOL     OW22303   2.655   0.069   6.587 -0.6477  0.0709 -0.7657
 3615SOL    HW122304   2.686   0.069   6.496 -0.2774 -0.9805 -0.6408
 3615SOL    HW222305   2.595   4.716   6.586 -2.3127  1.4235 -0.8400
 3616SOL     OW22306   4.479   1.887  15.208 -0.1915 -0.2233 -0.3655
 3616SOL    HW122307   4.421   1.880  15.284  2.0160 -2.4468  1.1135
 3616SOL    HW222308   4.466   1.798  15.174 -0.1459  0.6438 -2.6330
 3617SOL     OW22309   4.467   4.281  14.916 -0.3663 -0.3626  0.0737
 3617SOL    HW122310   4.513   4.329  14.985  0.6465  0.4110 -1.1430
 3617SOL    HW222311   4.539   4.250  14.860 -0.3545  0.7332 -0.5195
 3618SOL     OW22312   3.644   4.676   6.542 -0.2936 -0.3757 -0.0121
 3618SOL    HW122313   3.707   4.635   6.483  0.3161 -0.2826  0.5843
 3618SOL    HW222314   3.602   4.592   6.562  0.3888 -1.5414 -3.3917
 3619SOL     OW22315   2.630   0.665   7.138 -0.6644  0.5949  0.3872
 3619SOL    HW122316   2.558   0.696   7.084 -2.7954 -2.0462  1.6706
 3619SOL    HW222317   2.663   0.750   7.167 -0.4380  0.1498  1.4304
 3620SOL     OW22318   2.245   2.018   5.955 -0.1619 -0.1774 -0.3006
 3620SOL    HW122319   2.176   1.984   5.897 -2.9854  0.8802  2.4782
 3620SOL    HW222320   2.212   1.994   6.041  1.4519 -0.7590  0.1468
 3621SOL     OW22321   1.398   0.324   5.965  0.6338 -0.3860 -0.2180
 3621SOL    HW122322   1.409   0.318   6.059 -0.1749  0.6949 -0.0548
 3621SOL    HW222323   1.440   0.245   5.931 -0.6822 -0.2057 -2.3257
 3622SOL     OW22324   4.597   0.353   3.500  0.5579  0.2422 -0.4651
 3622SOL    HW122325   4.687   0.364   3.529  0.6489 -2.8523  0.4527
 3622SOL    HW222326   4.568   0.285   3.561  1.3398 -1.2386 -1.7343
 3623SOL     OW22327   3.366   0.948  17.585 -0.5966 -0.6986  0.3007
 3623SOL    HW122328   3.441   1.007  17.593 -0.1594 -1.0489 -1.0744
 3623SOL    HW222329   3.374   0.929  17.491  2.2399  1.6667  0.0785
 3624SOL     OW22330   0.795   2.145   5.732  0.0370 -0.5644 -0.2958
 3624SOL    HW122331   0.875   2.141   5.679  0.6376  3.5391  0.2776
 3624SOL    HW222332   0.841   2.107   5.807  0.4703  3.8483  1.6697
 3625SOL     OW22333   0.089   3.423   7.192  0.1187 -0.5083  0.4509
 3625SOL    HW122334   0.017   3.394   7.135 -1.0900 -0.7044  2.0700
 3625SOL    HW222335   0.073   3.361   7.264 -1.5457 -1.2455 -0.5393
 3626SOL     OW22336   3.034   4.232  10.433 -0.0406  0.4381  0.4129
 3626SOL    HW122337   3.092   4.266  10.500  0.9259  1.1623 -0.7772
 3626SOL    HW222338   3.101   4.217  10.366  0.4668 -0.4949  1.1387
 3627SOL     OW22339   1.831   3.942   7.097  0.0226  0.4918  0.1428
 3627SOL    HW122340   1.889   3.880   7.053 -0.2859  0.8305 -0.7285
 3627SOL    HW222341   1.892   4.011   7.120  1.2287  0.5141 -3.1252
 3628SOL     OW22342   3.906   1.956   8.037 -0.1189  0.7660 -0.1048
 3628SOL    HW122343   3.931   1.879   8.088  0.0843  0.8909 -0.0154
 3628SOL    HW222344   3.835   1.917   7.987 -1.5564  1.7703  1.1669
 3629SOL     OW22345   2.200   0.285  12.461  0.2431  0.4746  0.4326
 3629SOL    HW122346   2.258   0.316  12.391 -0.2630 -0.2068 -0.2978
 3629SOL    HW222347   2.123   0.331  12.424  0.7074 -0.6075 -1.9020
 3630SOL     OW22348   0.984   0.553   7.405 -0.4109 -0.0607  0.6618
 3630SOL    HW122349   0.909   0.498   7.428  0.1273 -1.2218 -0.3477
 3630SOL    HW222350   1.052   0.493   7.435  0.6512  0.9242  0.2488
 3631SOL     OW22351   1.506   2.431   8.979  0.0218  0.2650 -0.0882
 3631SOL    HW122352   1.594   2.405   9.006  0.2276 -0.7298 -1.7443
 3631SOL    HW222353   1.508   2.513   9.029 -1.0957 -1.4022  2.7052
 3632SOL     OW22354   1.341   1.122   6.054  0.3293 -0.3929 -0.0863
 3632SOL    HW122355   1.290   1.200   6.074  0.4057 -0.4578  0.3783
 3632SOL    HW222356   1.412   1.129   6.118  1.2925 -2.3753 -0.9459
 3633SOL     OW22357   3.716   3.787  14.589 -0.4920 -0.0002 -0.1250
 3633SOL    HW122358   3.739   3.875  14.560  0.0555 -0.6140 -1.5564
 3633SOL    HW222359   3.802   3.754  14.614  0.7308  2.6770 -0.8650
 3634SOL     OW22360   0.468   3.269   2.004  0.3582  0.0472 -0.7020
 3634SOL    HW122361   0.542   3.290   1.948 -0.3267  1.1487 -1.2064
 3634SOL    HW222362   0.488   3.303   2.091 -0.6009  0.7008 -0.7432
 3635SOL     OW22363   1.015   4.098   8.804 -0.0659 -0.0472  0.3831
 3635SOL    HW122364   1.018   4.124   8.712  1.3208  0.7971  0.6639
 3635SOL    HW222365   1.101   4.061   8.819  0.7725  1.1784 -1.3920
 3636SOL     OW22366   0.337   0.070   2.297 -0.0983  0.0245 -0.1394
 3636SOL    HW122367   0.259   0.035   2.340 -1.0502  1.2117 -0.8961
 3636SOL    HW222368   0.365   0.145   2.350  0.9288 -0.2272 -0.3172
 3637SOL     OW22369   1.450   3.128   2.007  0.2856  0.4502 -0.1003
 3637SOL    HW122370   1.377   3.167   1.959  0.2079  1.4704  0.8397
 3637SOL    HW222371   1.456   3.051   1.951 -1.3949  1.1697 -1.2859
 3638SOL     OW22372   3.877   3.247   7.240 -0.3795 -0.3040 -0.1014
 3638SOL    HW122373   3.934   3.281   7.309 -0.7363 -0.6685  0.3793
 3638SOL    HW222374   3.791   3.271   7.276  0.1592  1.9641 -0.3738
 3639SOL     OW22375   1.971   2.946   4.991  0.1593  0.5857 -0.4755
 3639SOL    HW122376   2.000   2.939   5.081 -2.9379 -1.1614  0.3723
 3639SOL    HW222377   1.903   3.012   5.005 -1.3417 -1.2159  0.5730
 3640SOL     OW22378   0.749   0.468   5.350  0.1339 -0.4867 -0.0449
 3640SOL    HW122379   0.755   0.532   5.278 -0.8322  1.5763  1.7178
 3640SOL    HW222380   0.714   0.524   5.419  0.1884  0.3801 -0.7170
 3641SOL     OW22381   4.261   1.724   2.046 -0.4745 -0.1538  0.5479
 3641SOL    HW122382   4.204   1.710   2.121 -0.2093 -0.3791  0.7130
 3641SOL    HW222383   4.221   1.652   1.996 -1.5513  1.2155 -0.5317
 3642SOL     OW22384   1.507   4.443   2.555 -0.0338  0.3676  0.5548
 3642SOL    HW122385   1.581   4.499   2.534  1.9382 -2.3196  0.3682
 3642SOL    HW222386   1.458   4.505   2.609 -0.5715 -0.8849  1.5175
 3643SOL     OW22387   3.929   2.613   2.231  0.1981 -0.1068  0.1261
 3643SOL    HW122388   3.886   2.581   2.310 -1.4523 -0.4166 -0.8987
 3643SOL    HW222389   4.002   2.659   2.273  0.8804 -0.7272 -0.3718
 3644SOL     OW22390   4.117   2.834   6.451 -0.3491  0.0892  0.0445
 3644SOL    HW122391   4.165   2.885   6.386 -0.7647  2.9623  1.9944
 3644SOL    HW222392   4.152   2.746   6.449 -0.3924  0.0859 -0.5818
 3645SOL     OW22393   0.475   1.529  15.682 -0.4611  0.1802 -0.5360
 3645SOL    HW122394   0.509   1.445  15.652  1.3412  0.8603 -0.3527
 3645SOL    HW222395   0.537   1.595  15.650  0.4378 -1.3344 -1.8968
 3646SOL     OW22396   0.291   0.831   3.931 -0.1449  0.2527  0.1430
 3646SOL    HW122397   0.332   0.855   4.014 -0.0298 -0.9912  0.4394
 3646SOL    HW222398   0.309   0.739   3.915  0.7910  0.6950 -1.3196
 3647SOL     OW22399   0.208   0.072   4.774  0.5625 -0.0090  0.5546
 3647SOL    HW122400   0.175   0.034   4.692 -0.4153 -1.0250  1.4208
 3647SOL    HW222401   0.270   0.135   4.737  0.9227 -2.5408 -3.1981
 3648SOL     OW22402   0.872   0.859   2.731  0.4289 -0.0453  0.0074
 3648SOL    HW122403   0.808   0.789   2.737  1.9358 -1.4408 -0.2389
 3648SOL    HW222404   0.934   0.831   2.799  1.3120  3.1762  0.5687
 3649SOL     OW22405   1.289   1.051   4.128 -0.0879 -0.4318 -0.3228
 3649SOL    HW122406   1.259   1.131   4.171  2.3750 -0.0138  0.6267
 3649SOL    HW222407   1.202   1.013   4.113  0.1364 -2.5342  3.6267
 3650SOL     OW22408   0.396   2.511   3.904 -0.3778 -0.1983  0.1581
 3650SOL    HW122409   0.473   2.544   3.858 -2.4138  1.7190 -1.8532
 3650SOL    HW222410   0.438   2.433   3.941  0.3679 -0.1885 -0.6606
 3651SOL     OW22411   2.624   3.811   3.142 -0.2654  0.2512 -0.6362
 3651SOL    HW122412   2.573   3.782   3.067  0.4552  1.6585 -1.6749
 3651SOL    HW222413   2.568   3.775   3.211 -0.0513  1.3735  0.1202
 3652SOL     OW22414   1.037   0.299   4.785  0.4314 -0.5567  0.3751
 3652SOL    HW122415   0.994   0.228   4.833 -3.0043  2.8709  2.2829
 3652SOL    HW222416   0.963   0.349   4.751  1.5862  0.5809 -0.4676
 3653SOL     OW22417   1.614   3.393  10.359  0.1922  0.0349  0.7089
 3653SOL    HW122418   1.692   3.347  10.329  0.0303  0.1372  0.1265
 3653SOL    HW222419   1.571   3.413  10.276  0.6215 -1.8960  0.0417
 3654SOL     OW22420   0.344   3.582   1.072  0.1070  0.2315 -0.1205
 3654SOL    HW122421   0.258   3.594   1.033 -0.0669 -0.7240 -0.0230
 3654SOL    HW222422   0.386   3.666   1.053 -0.9585  0.8883  0.4036
 3655SOL     OW22423   3.951   2.623  17.144 -0.4777 -0.4618  0.6246
 3655SOL    HW122424   3.880   2.578  17.190 -0.8089  0.4921  1.0448
 3655SOL    HW222425   3.955   2.710  17.182  1.6728 -0.7271  1.0036
 3656SOL     OW22426   3.081   4.547  17.613  0.2856  0.6556  0.0095
 3656SOL    HW122427   3.143   4.580  17.549 -0.7396 -1.7871 -2.2492
 3656SOL    HW222428   3.027   4.627  17.620  0.0303  0.4892 -0.0485
 3657SOL     OW22429   2.977   2.817   4.167  0.0789 -0.1212 -0.0513
 3657SOL    HW122430   2.891   2.843   4.134  0.8833 -0.1706 -2.1764
 3657SOL    HW222431   3.026   2.826   4.086  1.4348 -2.8733  0.4593
 3658SOL     OW22432   2.769   0.929   4.601  0.0322  0.7080  0.4889
 3658SOL    HW122433   2.683   0.915   4.641 -0.6739  1.8815 -0.6022
 3658SOL    HW222434   2.749   0.928   4.507 -1.4620 -2.6518  0.8540
 3659SOL     OW22435   2.580   1.610  17.058 -0.0317 -0.1384 -0.1680
 3659SOL    HW122436   2.642   1.673  17.020  0.6294 -0.5004  0.2946
 3659SOL    HW222437   2.608   1.613  17.149 -2.0594 -2.8784  0.5482
 3660SOL     OW22438   0.344   3.854   9.836  0.7084  0.0256 -0.1017
 3660SOL    HW122439   0.402   3.778   9.838  1.8340  0.8309 -1.6863
 3660SOL    HW222440   0.257   3.814   9.832  0.7651 -0.2964  2.2011
 3661SOL     OW22441   3.224   3.350   7.991 -0.3636  0.9445 -0.5428
 3661SOL    HW122442   3.169   3.426   8.010  0.1235  1.0689  0.4052
 3661SOL    HW222443   3.270   3.352   8.075 -0.2725  3.5267 -0.6254
 3662SOL     OW22444   2.830   0.931   8.127 -0.2164  0.2368  0.6849
 3662SOL    HW122445   2.747   0.974   8.149 -0.4151  0.1071  0.2092
 3662SOL    HW222446   2.790   0.858   8.080 -1.4815  1.9023 -0.8468
 3663SOL     OW22447   4.648   0.786   5.928 -0.2032 -0.3393  0.7705
 3663SOL    HW122448   4.638   0.706   5.980  1.5090  0.0775  1.7698
 3663SOL    HW222449   4.566   0.825   5.959 -1.4069 -2.7710  0.6781
 3664SOL     OW22450   2.040   3.801  10.052  1.1220  0.4151 -0.0903
 3664SOL    HW122451   2.011   3.813  10.143 -0.8055 -0.4454 -0.5833
 3664SOL    HW222452   1.964   3.770  10.002  1.6075  0.5480 -0.9000
 3665SOL     OW22453   0.729   1.248   6.675 -0.4166 -0.3778 -0.3072
 3665SOL    HW122454   0.779   1.329   6.690 -1.0748  0.1697 -1.0812
 3665SOL    HW222455   0.738   1.235   6.580  0.1750  1.5761 -0.5304
 3666SOL     OW22456   2.283   3.012   7.792 -0.4584  0.3611 -0.6407
 3666SOL    HW122457   2.358   3.057   7.754  1.7994 -1.9688  1.0827
 3666SOL    HW222458   2.234   3.087   7.827  0.1986  0.4113  0.1580
 3667SOL     OW22459   2.921   2.052  13.171 -0.0262  0.0397 -0.0192
 3667SOL    HW122460   3.009   2.015  13.158 -0.7705 -1.5534 -0.4849
 3667SOL    HW222461   2.919   2.120  13.104  1.2073  0.5460  0.4511
 3668SOL     OW22462   1.553   3.079   4.434  0.3016  0.5511 -0.3418
 3668SOL    HW122463   1.575   3.138   4.362 -1.2231  1.3264 -0.1589
 3668SOL    HW222464   1.459   3.061   4.424 -0.0044  0.6669  2.5014
 3669SOL     OW22465   2.410   3.173   4.855 -0.2186  0.0849  0.3730
 3669SOL    HW122466   2.321   3.148   4.831 -1.0186  0.9622  2.5345
 3669SOL    HW222467   2.397   3.159   4.948  2.2104 -0.6003  0.6044
 3670SOL     OW22468   1.172   4.454   9.044  0.8332  0.2789  0.1918
 3670SOL    HW122469   1.240   4.398   9.083 -1.0350 -1.6062  0.7289
 3670SOL    HW222470   1.145   4.418   8.959 -1.4335 -0.0120  1.0624
 3671SOL     OW22471   4.502   3.625  12.883 -0.2305  0.0270  0.0289
 3671SOL    HW122472   4.499   3.594  12.793  1.6919  0.6325 -0.2327
 3671SOL    HW222473   4.411   3.632  12.911 -0.1221  2.2723 -0.2254
 3672SOL     OW22474   0.626   4.484   9.054 -0.4522  0.1649  0.0819
 3672SOL    HW122475   0.649   4.424   8.984  1.7253 -0.3449  1.2371
 3672SOL    HW222476   0.700   4.477   9.115 -1.8458 -1.0513  1.6327
 3673SOL     OW22477   4.495   1.970  14.453 -0.3190  0.1922  0.0655
 3673SOL    HW122478   4.421   2.019  14.416 -1.4689  0.3395  2.5349
 3673SOL    HW222479   4.528   1.917  14.380 -0.4554 -0.2962  0.3595
 3674SOL     OW22480   2.332   2.059   8.071  0.1837 -0.2653 -0.4132
 3674SOL    HW122481   2.363   2.144   8.101 -1.3187  0.0138  0.3898
 3674SOL    HW222482   2.240   2.081   8.054  0.2004  0.9147  1.0172
 3675SOL     OW22483   0.147   1.212   5.125  0.1640  0.1624 -0.0123
 3675SOL    HW122484   0.221   1.176   5.076  0.2249 -1.5243  1.2863
 3675SOL    HW222485   0.095   1.223   5.046 -0.9754  0.1550  0.7292
 3676SOL     OW22486   3.275   0.625   2.243 -0.1778  0.1746  0.5618
 3676SOL    HW122487   3.207   0.691   2.236  1.5501  1.9532  0.5666
 3676SOL    HW222488   3.322   0.619   2.159 -0.5861 -1.0244  0.4191
 3677SOL     OW22489   0.564   1.020   2.473 -0.5385  0.0280  0.4765
 3677SOL    HW122490   0.482   0.989   2.434 -0.7807  2.1451 -0.7030
 3677SOL    HW222491   0.559   1.112   2.449  0.1872  0.2168  1.0541
 3678SOL     OW22492   4.415   0.309   2.801 -0.3354  0.3840  0.4391
 3678SOL    HW122493   4.441   0.325   2.891  1.4369  1.3811 -0.2547
 3678SOL    HW222494   4.414   0.397   2.763  0.4413  0.4735  0.6265
 3679SOL     OW22495   3.598   3.872   7.906 -0.2349 -0.2007  0.2035
 3679SOL    HW122496   3.554   3.950   7.872 -0.3449  0.2612  1.4070
 3679SOL    HW222497   3.578   3.891   7.997 -1.4570  1.0904 -0.3398
 3680SOL     OW22498   1.264   1.383  15.404  0.0243  0.2679 -0.5382
 3680SOL    HW122499   1.179   1.359  15.366 -0.7551  1.0902  0.6794
 3680SOL    HW222500   1.319   1.309  15.379 -1.5231 -0.9587 -0.3088
 3681SOL     OW22501   3.690   0.879  11.252  0.3118 -0.4848 -0.1336
 3681SOL    HW122502   3.757   0.813  11.266  3.0055  2.2091 -0.3537
 3681SOL    HW222503   3.613   0.830  11.222 -1.3095  1.4363  0.8690
 3682SOL     OW22504   1.574   0.439  13.090  0.0681  0.3280  0.6066
 3682SOL    HW122505   1.502   0.387  13.126  1.0024  0.4035  2.6093
 3682SOL    HW222506   1.557   0.528  13.122 -2.5119  0.6254 -1.6381
 3683SOL     OW22507   3.643   2.642  12.674  0.3234 -0.9130 -0.5741
 3683SOL    HW122508   3.661   2.652  12.768  1.7933 -1.1906 -0.8255
 3683SOL    HW222509   3.554   2.676  12.665  0.9460  0.9973  0.3323
 3684SOL     OW22510   4.042   0.893  14.595  0.1736  0.1447  0.3446
 3684SOL    HW122511   4.068   0.946  14.670 -1.4083 -0.5600  1.4148
 3684SOL    HW222512   4.127   0.853  14.576  0.3123  1.6724 -2.1102
 3685SOL     OW22513   0.443   2.011   3.694  0.3316 -0.2988  0.1200
 3685SOL    HW122514   0.370   2.057   3.653  1.1962 -0.5277 -1.6697
 3685SOL    HW222515   0.440   1.940   3.629 -1.6682  0.9441 -1.1199
 3686SOL     OW22516   1.719   0.862   7.644 -0.1260  0.1160  0.1651
 3686SOL    HW122517   1.788   0.834   7.704  0.5363  0.6768 -0.3450
 3686SOL    HW222518   1.651   0.797   7.664  0.5455 -1.2673 -2.1767
 3687SOL     OW22519   3.930   2.685   6.602  0.0476  0.2748  0.1540
 3687SOL    HW122520   3.854   2.742   6.610 -0.3051 -0.1393 -0.2297
 3687SOL    HW222521   4.004   2.744   6.617  1.0273 -0.7934 -0.4533
 3688SOL     OW22522   0.782   1.276   2.863 -0.2566 -0.2768  0.2818
 3688SOL    HW122523   0.790   1.368   2.840  2.4016  0.1835  3.1139
 3688SOL    HW222524   0.824   1.226   2.793  1.9472 -0.3886  1.6798
 3689SOL     OW22525   1.493   4.027   7.906  0.2724 -0.6680 -0.3105
 3689SOL    HW122526   1.408   3.994   7.876  0.0851 -0.7123  0.2670
 3689SOL    HW222527   1.505   4.119   7.883 -2.3694 -0.6788 -1.7711
 3690SOL     OW22528   2.424   1.268   7.790 -0.3219 -0.4222 -0.7525
 3690SOL    HW122529   2.517   1.246   7.787 -0.2408 -0.1912 -0.1165
 3690SOL    HW222530   2.388   1.189   7.750 -2.5404  0.4377 -0.4453
 3691SOL     OW22531   3.001   3.844   2.304  0.3114  0.3360 -0.4105
 3691SOL    HW122532   3.095   3.859   2.316  0.3132  0.1062 -0.1450
 3691SOL    HW222533   2.967   3.926   2.340  1.2657  0.9659 -0.9264
 3692SOL     OW22534   1.327   4.181   4.010  0.6338 -0.5728 -0.9300
 3692SOL    HW122535   1.361   4.242   3.944 -1.3427  1.0233 -0.4499
 3692SOL    HW222536   1.241   4.212   4.035  1.1107 -2.0263  2.5542
 3693SOL     OW22537   3.482   2.865   6.091 -0.1708 -0.2942  0.1602
 3693SOL    HW122538   3.388   2.882   6.103  0.4260  1.3868  2.3683
 3693SOL    HW222539   3.527   2.913   6.160 -2.0159  0.5041  0.8268
 3694SOL     OW22540   2.858   1.865   0.463  0.4461  0.1849  0.2171
 3694SOL    HW122541   2.881   1.805   0.533  0.9606  0.7072  0.4934
 3694SOL    HW222542   2.918   1.937   0.484  0.6160 -0.3046  1.3931
 3695SOL     OW22543   3.107   0.405   1.991  0.3191 -0.0970  0.2296
 3695SOL    HW122544   3.070   0.493   1.989 -0.7771 -0.5202  2.9444
 3695SOL    HW222545   3.199   0.434   1.990  0.2921 -0.0092  0.3807
 3696SOL     OW22546   1.137   2.754   8.412 -0.3553  0.9017  0.1256
 3696SOL    HW122547   1.200   2.805   8.463 -1.8787  0.1092  2.7904
 3696SOL    HW222548   1.183   2.677   8.379 -3.0173 -0.8151  0.4055
 3697SOL     OW22549   1.577   0.284   8.937 -0.1807  0.0500  0.1943
 3697SOL    HW122550   1.666   0.250   8.945  0.6949  1.8947 -1.9935
 3697SOL    HW222551   1.563   0.339   9.014 -0.5668  0.8813 -0.4791
 3698SOL     OW22552   4.456   0.922  14.725 -0.5562 -0.3597  0.1220
 3698SOL    HW122553   4.551   0.924  14.736 -0.4954 -1.0228 -0.3093
 3698SOL    HW222554   4.442   0.869  14.646 -0.5676  1.6402 -1.2161
 3699SOL     OW22555   1.123   1.917   9.975  0.2911 -0.0104 -0.2825
 3699SOL    HW122556   1.207   1.881   9.946  0.0445 -0.6507 -0.2037
 3699SOL    HW222557   1.071   1.891   9.900 -0.5975 -1.8198  0.9467
 3700SOL     OW22558   3.989   1.695  12.768 -0.1943  0.4936  0.3904
 3700SOL    HW122559   3.963   1.669  12.857  0.6420 -1.0694  0.1811
 3700SOL    HW222560   4.002   1.790  12.763 -0.2455  0.5857  1.9160
 3701SOL     OW22561   1.671   2.814   6.698 -0.6762 -0.3098 -0.3514
 3701SOL    HW122562   1.676   2.843   6.789  1.2002 -1.7809  0.0328
 3701SOL    HW222563   1.716   2.730   6.706  0.8347  0.4210 -1.2210
 3702SOL     OW22564   0.816   0.842  12.126 -0.1760  0.5484 -0.1950
 3702SOL    HW122565   0.815   0.937  12.135 -0.9327  0.5770 -0.6640
 3702SOL    HW222566   0.771   0.824  12.209 -1.4111  0.6423 -0.8547
 3703SOL     OW22567   3.733   1.570   5.051  0.3101  0.0711 -0.5301
 3703SOL    HW122568   3.772   1.650   5.015  0.3342  0.7250  0.9119
 3703SOL    HW222569   3.690   1.539   4.972 -2.3529  0.2160  0.8628
 3704SOL     OW22570   4.363   4.325   6.602  0.1650 -0.3133 -0.0050
 3704SOL    HW122571   4.282   4.372   6.618 -0.5424 -1.6689  0.4105
 3704SOL    HW222572   4.345   4.243   6.647 -0.7879 -0.7541 -1.1829
 3705SOL     OW22573   2.919   0.681   6.697 -0.7566 -0.1329 -0.3641
 3705SOL    HW122574   2.872   0.609   6.739  2.0619 -0.6711  1.8640
 3705SOL    HW222575   2.878   0.763   6.723  2.9089  1.5735  0.0326
 3706SOL     OW22576   1.991   2.612   9.774  0.3533  0.1947 -0.0619
 3706SOL    HW122577   2.054   2.650   9.835  0.6933  0.3958 -0.5395
 3706SOL    HW222578   1.981   2.527   9.817  1.8407  1.0433  1.9443
 3707SOL     OW22579   4.494   2.520   3.081 -0.8752 -0.3334 -0.4030
 3707SOL    HW122580   4.551   2.450   3.112 -1.7271 -0.3398  1.1432
 3707SOL    HW222581   4.403   2.490   3.072 -1.1887  0.4914  0.0681
 3708SOL     OW22582   1.157   0.002   9.148  0.2433 -0.3964  0.3029
 3708SOL    HW122583   1.175   4.638   9.110 -1.4037 -0.1207 -1.1444
 3708SOL    HW222584   1.185   4.707   9.238  0.5036  1.9327  0.6386
 3709SOL     OW22585   2.804   2.116  15.165 -0.4037 -0.0044  0.0705
 3709SOL    HW122586   2.801   2.088  15.257 -2.1998  0.8389  0.2674
 3709SOL    HW222587   2.792   2.210  15.178  1.5239  0.7271 -3.2683
 3710SOL     OW22588   3.283   3.433   6.364  0.2108  0.4802 -0.1090
 3710SOL    HW122589   3.318   3.445   6.276 -0.6267  0.3206 -0.4587
 3710SOL    HW222590   3.295   3.517   6.410 -0.7533 -0.2190  1.4149
 3711SOL     OW22591   1.724   1.570   4.400  0.1890 -0.1286 -0.1699
 3711SOL    HW122592   1.715   1.577   4.495 -0.1113 -2.5883 -0.0015
 3711SOL    HW222593   1.817   1.590   4.403  0.5436 -1.7634 -0.0596
 3712SOL     OW22594   4.715   2.039   8.248 -0.6257  0.6181 -0.1200
 3712SOL    HW122595   4.689   2.108   8.309 -3.2754  1.0883 -1.7799
 3712SOL    HW222596   0.069   2.072   8.199 -1.4162  2.2086 -0.2728
 3713SOL     OW22597   0.384   3.455   9.251  0.0407 -0.0086 -0.3235
 3713SOL    HW122598   0.290   3.448   9.237 -0.1938  0.4944  0.9840
 3713SOL    HW222599   0.423   3.376   9.287 -1.8723 -0.7923 -0.0278
 3714SOL     OW22600   1.273   3.270  11.471  0.4793 -0.4123  0.0446
 3714SOL    HW122601   1.263   3.184  11.512  0.9560 -1.1253 -1.3471
 3714SOL    HW222602   1.244   3.255  11.382  1.8337 -1.3931 -0.2375
 3715SOL     OW22603   4.349   3.994   5.538 -0.0555  0.2599 -0.4462
 3715SOL    HW122604   4.381   4.083   5.518  0.7098 -0.1806 -1.2100
 3715SOL    HW222605   4.424   3.939   5.515 -0.9105 -1.1357  0.1069
 3716SOL     OW22606   3.687   4.005   5.669 -0.2736  0.0681  0.0906
 3716SOL    HW122607   3.733   3.931   5.630 -0.6877 -0.7555  1.1545
 3716SOL    HW222608   3.744   4.046   5.734 -2.1977  1.5513  0.8455
 3717SOL     OW22609   0.473   2.530   5.288  0.3733 -0.0337  0.6233
 3717SOL    HW122610   0.542   2.590   5.258 -0.8601  1.6370  1.1171
 3717SOL    HW222611   0.512   2.490   5.366  3.3392 -0.3562 -1.0287
 3718SOL     OW22612   1.471   0.548  14.156  0.0137  0.4324  0.5049
 3718SOL    HW122613   1.392   0.588  14.190 -0.8553 -1.7202  1.0277
 3718SOL    HW222614   1.512   0.506  14.232  0.0288  0.3971  0.4770
 3719SOL     OW22615   2.325   4.058  14.363 -0.2130 -0.1611 -0.1566
 3719SOL    HW122616   2.233   4.039  14.382 -0.7049  3.2481  0.8499
 3719SOL    HW222617   2.345   4.108  14.442  2.8917 -1.2094 -0.2619
 3720SOL     OW22618   2.643   0.362   6.360 -0.0882 -0.2253  0.0950
 3720SOL    HW122619   2.650   0.267   6.349 -2.4707 -0.5724  1.5085
 3720SOL    HW222620   2.587   0.371   6.437 -0.4742  2.2451 -0.4701
 3721SOL     OW22621   1.690   3.659   6.392  0.0096  0.0251 -0.4244
 3721SOL    HW122622   1.701   3.592   6.325 -0.1813 -0.2901 -0.1350
 3721SOL    HW222623   1.596   3.659   6.408 -0.0677  1.1640 -0.8579
 3722SOL     OW22624   3.428   1.550   2.681  0.3317  0.4143 -1.1654
 3722SOL    HW122625   3.513   1.515   2.655 -0.0099 -0.4755 -1.0538
 3722SOL    HW222626   3.374   1.512   2.611  0.6695  0.2050 -1.3099
 3723SOL     OW22627   3.749   1.423  16.650  0.7444  0.2233 -0.1024
 3723SOL    HW122628   3.745   1.440  16.556  3.6205  0.5074 -0.1936
 3723SOL    HW222629   3.794   1.339  16.646 -0.3164 -0.3382 -0.0641
 3724SOL     OW22630   1.601   0.021   8.060 -0.0318 -0.5724 -0.0171
 3724SOL    HW122631   1.637   0.110   8.054 -0.0307 -0.4565  1.7525
 3724SOL    HW222632   1.680   4.688   8.058 -0.2336 -0.8598 -0.1170
 3725SOL     OW22633   3.613   3.762   9.401 -0.1701 -0.2313  0.2581
 3725SOL    HW122634   3.639   3.854   9.403 -0.3163 -0.1895  0.2209
 3725SOL    HW222635   3.522   3.768   9.431 -0.5911  1.2187 -1.3702
 3726SOL     OW22636   2.877   1.279  15.470 -0.0197 -0.7376  0.0426
 3726SOL    HW122637   2.879   1.214  15.540  1.2375 -2.2183 -1.3288
 3726SOL    HW222638   2.863   1.357  15.523 -1.4869 -0.2180 -1.1140
 3727SOL     OW22639   1.552   3.874  15.671  0.4711 -0.1864  0.9085
 3727SOL    HW122640   1.605   3.879  15.750  1.8845  0.6728 -0.1004
 3727SOL    HW222641   1.585   3.945  15.615 -2.3691  1.2987  1.0671
 3728SOL     OW22642   1.431   4.632  10.073 -0.7220 -0.2831  0.1894
 3728SOL    HW122643   1.352   4.618  10.125 -1.4853  0.9182 -0.6483
 3728SOL    HW222644   1.487   4.674  10.138 -0.7419  2.1767 -1.3749
 3729SOL     OW22645   2.641   2.556   3.281  0.3204  0.3052  0.1826
 3729SOL    HW122646   2.697   2.526   3.209 -0.0092  1.1385 -0.4128
 3729SOL    HW222647   2.571   2.600   3.233  0.9642  1.9718  0.7957
 3730SOL     OW22648   3.946   0.126   9.441  0.4309 -0.5397 -0.6398
 3730SOL    HW122649   3.940   0.058   9.375  0.2802 -0.4042 -0.7654
 3730SOL    HW222650   4.029   0.092   9.473 -0.5795 -0.9158  1.5960
 3731SOL     OW22651   4.195   3.231   3.501 -0.1194 -0.0048 -0.4790
 3731SOL    HW122652   4.168   3.140   3.509  0.7589 -0.0948  1.5769
 3731SOL    HW222653   4.204   3.244   3.407  0.3603 -0.9261 -0.5527
 3732SOL     OW22654   3.054   3.521  12.159 -0.4202 -0.0076  0.3704
 3732SOL    HW122655   3.061   3.511  12.254 -0.0713 -2.9190  0.0536
 3732SOL    HW222656   3.129   3.576  12.136  0.7453 -1.2688  1.1167
 3733SOL     OW22657   1.033   2.789   3.555 -0.4181  0.1856  0.3667
 3733SOL    HW122658   1.033   2.840   3.636  0.4360  1.1318 -0.2220
 3733SOL    HW222659   1.010   2.701   3.584 -0.4837  0.0711 -0.0307
 3734SOL     OW22660   4.103   2.880   1.808 -0.2431 -0.1483 -0.2206
 3734SOL    HW122661   4.041   2.822   1.852 -0.5398  0.0611 -0.3693
 3734SOL    HW222662   4.087   2.846   1.720  1.3694 -3.1364  0.6333
 3735SOL     OW22663   1.811   1.209  10.123  0.3851 -0.5111  0.4901
 3735SOL    HW122664   1.846   1.291  10.157 -0.3405 -0.3390  0.8151
 3735SOL    HW222665   1.757   1.183  10.198 -2.1247  0.6344 -0.9093
 3736SOL     OW22666   2.406   0.551   1.263 -0.3447 -0.0247  0.0140
 3736SOL    HW122667   2.401   0.646   1.275 -1.0829  0.4031 -3.8272
 3736SOL    HW222668   2.329   0.522   1.214 -0.5759 -0.6654  0.7504
 3737SOL     OW22669   2.053   2.547   2.725  0.0717 -0.2596 -0.1690
 3737SOL    HW122670   2.056   2.467   2.777  3.2430  0.6658  1.0258
 3737SOL    HW222671   2.069   2.523   2.633 -0.5992  0.9347 -0.6066
 3738SOL     OW22672   2.689   1.079  12.840 -0.2959  0.3298 -0.1004
 3738SOL    HW122673   2.615   1.128  12.801  1.0498  0.0515 -3.0196
 3738SOL    HW222674   2.746   1.088  12.764  0.2852 -2.1451  0.0466
 3739SOL     OW22675   1.152   2.823  10.793 -0.0166 -0.0407  0.0453
 3739SOL    HW122676   1.224   2.852  10.849  1.1566 -0.6618 -1.1257
 3739SOL    HW222677   1.078   2.852  10.846 -0.2342  1.9527 -1.3275
 3740SOL     OW22678   0.046   3.707  12.354 -0.1391  0.2825  0.0721
 3740SOL    HW122679   0.127   3.659  12.369  0.2862  1.1311  0.4746
 3740SOL    HW222680   0.064   3.798  12.376  0.7341 -0.5144  2.6875
 3741SOL     OW22681   0.603   2.607   3.699  0.0176  0.6285 -0.4142
 3741SOL    HW122682   0.584   2.537   3.637 -0.1843 -1.1516  1.6906
 3741SOL    HW222683   0.585   2.686   3.647  0.8781  0.2616 -1.2741
 3742SOL     OW22684   3.182   3.134   2.295 -0.2067 -0.0481 -0.2375
 3742SOL    HW122685   3.119   3.206   2.285 -0.7546 -0.4219  0.5482
 3742SOL    HW222686   3.115   3.065   2.299  0.5551 -0.7043  1.1189
 3743SOL     OW22687   2.665   1.025   7.164  0.2666  0.5076  0.2209
 3743SOL    HW122688   2.619   1.078   7.100 -3.0541 -1.4944  0.9208
 3743SOL    HW222689   2.730   0.982   7.108 -1.3280 -0.8533 -0.5635
 3744SOL     OW22690   4.702   0.736   2.657  0.1326  0.1571 -0.0552
 3744SOL    HW122691   0.007   0.808   2.600  1.0838  0.5252  0.8477
 3744SOL    HW222692   0.045   0.746   2.727  1.1148 -2.4362 -0.5693
 3745SOL     OW22693   3.189   2.664   3.782 -0.3831  0.4140  0.1216
 3745SOL    HW122694   3.235   2.675   3.865  0.6086  3.8485 -0.9217
 3745SOL    HW222695   3.100   2.694   3.801  0.2677  1.1531  1.9897
 3746SOL     OW22696   1.800   0.520   0.838  0.0752  0.3335 -0.2579
 3746SOL    HW122697   1.895   0.502   0.839 -0.3796 -2.0246  2.4050
 3746SOL    HW222698   1.763   0.433   0.855  0.3603  0.3329  0.3784
 3747SOL     OW22699   3.646   1.344   2.213  0.6294 -0.0281 -0.4538
 3747SOL    HW122700   3.735   1.348   2.176  0.2524 -2.5757 -1.6386
 3747SOL    HW222701   3.625   1.432   2.243  1.0520  0.0121 -0.2759
 3748SOL     OW22702   1.119   1.174  11.250  0.1107 -0.2978  0.1832
 3748SOL    HW122703   1.071   1.246  11.290  2.5180  0.6758  1.2859
 3748SOL    HW222704   1.076   1.100  11.293  0.8327 -1.5572 -1.2573
 3749SOL     OW22705   2.328   4.619   8.710 -0.3335  0.1170 -0.1397
 3749SOL    HW122706   2.240   4.589   8.685 -1.1603  1.3676  1.2281
 3749SOL    HW222707   2.309   4.687   8.774  1.8493 -2.3745  3.1180
 3750SOL     OW22708   2.783   1.403   7.918 -0.3682 -0.2925  0.2905
 3750SOL    HW122709   2.820   1.372   8.001 -1.1858  1.4885  1.3261
 3750SOL    HW222710   2.729   1.327   7.898 -0.0869 -0.4340  0.0757
 3751SOL     OW22711   0.558   4.315   2.535  0.4361  0.1101 -0.8852
 3751SOL    HW122712   0.652   4.306   2.550 -0.3972 -4.4671  1.3838
 3751SOL    HW222713   0.539   4.276   2.449  1.3779 -0.3680 -0.8722
 3752SOL     OW22714   0.743   1.696   6.002 -0.6161  0.2127 -0.2547
 3752SOL    HW122715   0.673   1.761   5.990  0.4671  1.5016  0.3679
 3752SOL    HW222716   0.713   1.621   5.951  1.3543  0.0304 -1.1338
 3753SOL     OW22717   2.504   0.311   2.074 -0.2807 -0.4296 -0.2412
 3753SOL    HW122718   2.472   0.394   2.038  0.8573 -0.0289 -0.3319
 3753SOL    HW222719   2.576   0.339   2.129 -0.9791  1.5165 -0.3117
 3754SOL     OW22720   0.953   2.250   1.882  0.3702 -0.6224 -0.2596
 3754SOL    HW122721   1.022   2.307   1.848  1.0859  0.3730  2.9064
 3754SOL    HW222722   0.880   2.266   1.822  1.3522 -0.8993 -1.5203
 3755SOL     OW22723   3.429   2.159   1.468  0.4431 -0.8835 -0.2716
 3755SOL    HW122724   3.450   2.143   1.560 -1.6490  1.4504  0.6104
 3755SOL    HW222725   3.510   2.137   1.423  1.2418 -0.1621  0.8373
 3756SOL     OW22726   1.312   0.198   2.016  0.2503 -0.0068 -1.0469
 3756SOL    HW122727   1.384   0.239   1.969  2.1509 -0.0254  1.8667
 3756SOL    HW222728   1.339   0.106   2.017 -1.0093 -0.3703 -0.3584
 3757SOL     OW22729   2.064   3.178   8.555  0.2776 -0.6258 -0.0162
 3757SOL    HW122730   1.995   3.112   8.558 -1.9808  1.7071 -0.8514
 3757SOL    HW222731   2.085   3.183   8.461  1.7479 -1.7618  0.2645
 3758SOL     OW22732   0.891   3.441   6.559 -0.5514 -0.1768  0.3583
 3758SOL    HW122733   0.824   3.470   6.621 -1.3390  0.6650 -0.8708
 3758SOL    HW222734   0.899   3.523   6.509 -0.0216 -1.8229 -2.2826
 3759SOL     OW22735   4.699   0.718   8.136 -0.2098  0.5506  0.3587
 3759SOL    HW122736   4.707   0.813   8.142  1.1727  0.6796 -3.3418
 3759SOL    HW222737   4.645   0.714   8.057  1.2370  0.5920 -0.6389
 3760SOL     OW22738   3.582   3.169   8.915  0.9201  0.4510  0.0459
 3760SOL    HW122739   3.646   3.128   8.858 -1.4993  1.3447 -3.2986
 3760SOL    HW222740   3.607   3.149   9.005  1.2856 -2.7707 -0.7934
 3761SOL     OW22741   4.666   3.277  13.205 -0.0123  0.4091  0.2992
 3761SOL    HW122742   4.624   3.301  13.288 -1.1113 -0.1085 -0.0974
 3761SOL    HW222743   4.629   3.349  13.154 -0.8180 -0.5688 -0.4853
 3762SOL     OW22744   3.320   0.814   9.629  0.2547 -0.2417 -0.2886
 3762SOL    HW122745   3.319   0.757   9.552  1.8029 -1.4346  0.5771
 3762SOL    HW222746   3.409   0.848   9.632 -0.2598  1.2001 -1.2796
 3763SOL     OW22747   1.770   2.385  17.433 -0.1201  0.7160 -0.3210
 3763SOL    HW122748   1.780   2.340  17.517  2.8662  1.0473 -0.5038
 3763SOL    HW222749   1.841   2.447  17.419  2.0500 -1.5842  0.6274
 3764SOL     OW22750   0.429   2.920  10.331 -0.0970  0.2658 -0.3578
 3764SOL    HW122751   0.388   3.006  10.320 -1.1512 -0.1958 -0.0210
 3764SOL    HW222752   0.513   2.947  10.292  0.0112  2.7609  1.6098
 3765SOL     OW22753   4.043   3.010   4.290  0.0059 -0.3314 -0.0161
 3765SOL    HW122754   4.048   3.088   4.234  0.9680  0.2838  0.9279
 3765SOL    HW222755   4.119   2.965   4.255 -0.2668 -1.8516  1.3618
 3766SOL     OW22756   1.445   2.892   6.366  0.2850 -0.2488  0.2294
 3766SOL    HW122757   1.438   2.969   6.309  6.2043  0.0254 -0.1137
 3766SOL    HW222758   1.371   2.903   6.425  1.2131  0.8932  1.2059
 3767SOL     OW22759   1.449   2.110  15.874  0.0807  0.2874 -0.4004
 3767SOL    HW122760   1.533   2.065  15.878  0.4765  1.0270 -0.4447
 3767SOL    HW222761   1.481   2.198  15.852  0.2238  0.9121  2.3114
 3768SOL     OW22762   0.769   0.016   3.573 -0.2448 -0.3138 -0.5092
 3768SOL    HW122763   0.829   4.673   3.535 -0.5173 -0.8585 -0.0300
 3768SOL    HW222764   0.729   0.058   3.498  0.4496 -0.1712 -0.7969
 3769SOL     OW22765   1.650   4.622   7.312  0.5060  0.3842  0.0799
 3769SOL    HW122766   1.581   4.652   7.372 -0.0743 -0.7647 -0.0097
 3769SOL    HW222767   1.623   4.668   7.233  2.2475 -0.9316 -1.2586
 3770SOL     OW22768   2.627   2.218   2.555  0.7847  0.0959 -0.4601
 3770SOL    HW122769   2.585   2.141   2.593  0.5427  0.8596  0.8304
 3770SOL    HW222770   2.715   2.208   2.591  1.3734  1.5793 -1.4626
 3771SOL     OW22771   4.717   4.560   6.608  0.1499 -0.2192 -0.1891
 3771SOL    HW122772   4.646   4.563   6.543  0.6178 -0.8566 -0.7210
 3771SOL    HW222773   4.676   4.519   6.684 -1.7105  0.4921 -0.7951
 3772SOL     OW22774   0.788   0.768  10.746  0.1783 -0.2397  0.3862
 3772SOL    HW122775   0.828   0.854  10.731  2.4116 -1.2817  0.2981
 3772SOL    HW222776   0.865   0.711  10.755 -0.0113 -0.3735  1.1541
 3773SOL     OW22777   3.697   0.283   7.976 -0.4146  0.6685 -0.2594
 3773SOL    HW122778   3.621   0.259   7.923  0.1133 -0.4910 -0.4854
 3773SOL    HW222779   3.726   0.202   8.017 -0.3084  1.0241  0.3649
 3774SOL     OW22780   1.958   3.081   3.044 -0.7001  0.0768  0.0342
 3774SOL    HW122781   2.009   3.004   3.021  1.3081  1.5106 -0.4038
 3774SOL    HW222782   1.957   3.079   3.140 -1.9542 -1.0286 -0.0195
 3775SOL     OW22783   2.685   4.469   0.711 -0.0219 -0.4337  0.5594
 3775SOL    HW122784   2.696   4.387   0.663 -0.5999 -0.1609 -0.0511
 3775SOL    HW222785   2.624   4.513   0.651  1.0784 -0.1998 -0.3870
 3776SOL     OW22786   0.950   1.878   5.427  0.2259  0.2915 -0.0822
 3776SOL    HW122787   0.925   1.858   5.517 -0.4295  1.0938 -0.0866
 3776SOL    HW222788   0.905   1.805   5.383 -1.1293  0.0868  1.6629
 3777SOL     OW22789   4.566   2.911   8.553  0.5902 -0.7680  0.5807
 3777SOL    HW122790   4.518   2.993   8.549 -1.3171 -2.1329 -4.4167
 3777SOL    HW222791   4.654   2.947   8.537  0.0527 -0.0022 -0.5817
 3778SOL     OW22792   2.533   0.362   1.408  0.6151 -0.1407  0.0369
 3778SOL    HW122793   2.487   0.432   1.362 -0.2781 -1.3735 -0.9341
 3778SOL    HW222794   2.494   0.376   1.494  1.5360  0.4671  0.3567
 3779SOL     OW22795   3.586   4.418   7.470  0.5046  0.3826 -0.2749
 3779SOL    HW122796   3.530   4.386   7.540  1.0763 -2.9186 -1.3328
 3779SOL    HW222797   3.669   4.422   7.517 -0.0762  2.7905  0.5239
 3780SOL     OW22798   3.954   3.696  14.696  0.9251 -0.5204 -0.0531
 3780SOL    HW122799   3.982   3.786  14.678  2.1325 -0.6894  0.9800
 3780SOL    HW222800   4.035   3.646  14.705  1.1248 -0.5882 -2.1093
 3781SOL     OW22801   3.544   3.305  14.593  0.1994  0.4505 -0.0849
 3781SOL    HW122802   3.637   3.289  14.606  0.1299  0.0548 -0.0623
 3781SOL    HW222803   3.531   3.297  14.498 -0.3504 -0.5392  0.0677
 3782SOL     OW22804   1.919   1.542   5.542  0.2655  1.3378 -0.1185
 3782SOL    HW122805   1.837   1.503   5.571  1.6477 -0.2383  1.6532
 3782SOL    HW222806   1.941   1.485   5.469  2.1094  0.2748  1.2663
 3783SOL     OW22807   0.748   0.121  10.020  0.6011 -0.4691 -0.2647
 3783SOL    HW122808   0.796   0.118   9.937  0.5517  0.3321 -0.3195
 3783SOL    HW222809   0.658   0.144   9.998  0.2497  0.5942  2.2646
 3784SOL     OW22810   0.082   1.671   2.258 -0.0157  0.3896 -0.3645
 3784SOL    HW122811   0.043   1.704   2.178 -1.2426  0.3622  0.2252
 3784SOL    HW222812   0.073   1.742   2.322 -0.6023 -0.6667  0.7308
 3785SOL     OW22813   3.958   1.595   3.677 -0.3362 -0.4445  0.1994
 3785SOL    HW122814   3.908   1.564   3.753  0.2764  0.0779  0.8165
 3785SOL    HW222815   4.038   1.543   3.685  0.1838  0.2291 -0.6774
 3786SOL     OW22816   2.452   1.885   7.492  0.6964 -0.2195  0.4841
 3786SOL    HW122817   2.424   1.846   7.575 -3.1976  0.1304 -0.6555
 3786SOL    HW222818   2.542   1.913   7.505  1.2403 -0.5460 -2.7147
 3787SOL     OW22819   0.672   2.647   5.158  0.1377 -0.3148  0.4321
 3787SOL    HW122820   0.746   2.605   5.201 -0.4295 -0.4949  1.2520
 3787SOL    HW222821   0.706   2.735   5.140 -1.7165  0.2094 -0.5073
 3788SOL     OW22822   2.599   4.699  13.948 -0.5161  0.1827 -0.0233
 3788SOL    HW122823   2.661   4.630  13.925  0.9780  1.7847 -0.8698
 3788SOL    HW222824   2.600   4.684  14.042 -0.2305 -0.0565 -0.0637
 3789SOL     OW22825   1.073   3.243  13.114 -0.2587  0.1684 -0.0285
 3789SOL    HW122826   1.085   3.308  13.045 -0.5626 -0.9295 -1.1063
 3789SOL    HW222827   1.063   3.172  13.051  0.4305  0.5057 -0.5193
 3790SOL     OW22828   3.109   4.515   8.767 -0.8864 -0.3535 -0.0566
 3790SOL    HW122829   3.127   4.569   8.690 -1.0006  1.6001  1.2822
 3790SOL    HW222830   3.141   4.571   8.837  0.2057 -2.0900  0.8127
 3791SOL     OW22831   0.219   4.068   7.621  0.2445 -0.6385 -0.1184
 3791SOL    HW122832   0.303   4.094   7.583  0.8274 -2.1316  0.1651
 3791SOL    HW222833   0.246   3.980   7.644 -1.7324 -0.9158  1.0978
 3792SOL     OW22834   4.460   4.565  10.005  0.3572 -0.5656 -0.0620
 3792SOL    HW122835   4.546   4.528   9.985  1.4868  1.5276  0.9364
 3792SOL    HW222836   4.487   4.654  10.026 -0.3611 -0.1430 -0.9424
 3793SOL     OW22837   3.897   3.404   2.562 -0.0701 -0.2605  0.0476
 3793SOL    HW122838   3.815   3.452   2.569  0.0831  0.0625 -0.3532
 3793SOL    HW222839   3.909   3.386   2.469  0.1555  0.5674 -0.0833
 3794SOL     OW22840   4.586   2.564   8.759 -0.3773 -0.5296  0.2954
 3794SOL    HW122841   4.571   2.531   8.848  3.9743 -1.2565  0.7404
 3794SOL    HW222842   4.493   2.579   8.743  0.0715 -0.8842 -2.6300
 3795SOL     OW22843   1.178   2.818   7.883 -0.2255  0.0692 -0.0257
 3795SOL    HW122844   1.115   2.747   7.895 -0.1855  0.3357  1.8523
 3795SOL    HW222845   1.222   2.809   7.968 -1.1884 -2.7083  0.1843
 3796SOL     OW22846   3.981   2.873  14.307 -0.0573  0.4221  0.1292
 3796SOL    HW122847   4.035   2.814  14.360  0.7282 -0.4623 -1.6731
 3796SOL    HW222848   3.964   2.812  14.236 -2.0175 -0.6746  1.5471
 3797SOL     OW22849   1.652   4.583  10.430  0.6909  0.0349  0.0993
 3797SOL    HW122850   1.709   4.648  10.471  0.3296  0.3777  0.0513
 3797SOL    HW222851   1.615   4.641  10.365  1.9003  2.1770  1.3206
 3798SOL     OW22852   3.158   2.115  13.560 -0.6038 -0.2650 -0.1974
 3798SOL    HW122853   3.064   2.126  13.572 -0.4341  1.4549 -0.4240
 3798SOL    HW222854   3.183   2.066  13.638  0.6391  0.2049 -0.3089
 3799SOL     OW22855   2.751   0.118  16.254 -0.0323 -0.0277 -0.4984
 3799SOL    HW122856   2.670   0.092  16.210  0.6852 -0.3559 -1.6160
 3799SOL    HW222857   2.740   0.211  16.270 -1.5959 -0.5002  1.1711
 3800SOL     OW22858   1.305   4.294   5.607  0.7482 -0.6686 -0.1293
 3800SOL    HW122859   1.358   4.359   5.653  0.3403 -0.2151 -0.2988
 3800SOL    HW222860   1.246   4.351   5.558 -1.9345 -1.3316  2.3465
 3801SOL     OW22861   0.787   1.775   9.561  0.9048  0.7384  0.7344
 3801SOL    HW122862   0.822   1.711   9.498  1.5590  2.4697 -0.6849
 3801SOL    HW222863   0.701   1.799   9.527 -0.4275 -1.7649  2.3697
 3802SOL     OW22864   4.682   0.150   5.823 -0.1134 -0.1630  0.1261
 3802SOL    HW122865   4.675   0.204   5.744  0.6517 -2.4746 -1.5265
 3802SOL    HW222866   4.665   0.216   5.891 -0.6710  1.2158 -1.3318
 3803SOL     OW22867   1.129   2.603   2.125  0.3274  0.0447  0.5000
 3803SOL    HW122868   1.034   2.614   2.132  0.1262 -1.0029 -0.6787
 3803SOL    HW222869   1.154   2.639   2.040 -1.3540  0.9885  0.3945
 3804SOL     OW22870   0.608   1.145  11.812 -0.6337 -0.2544  0.0162
 3804SOL    HW122871   0.591   1.239  11.809 -0.1020 -0.1291  0.7535
 3804SOL    HW222872   0.697   1.148  11.849 -0.0125  3.2480 -1.7342
 3805SOL     OW22873   2.324   0.849  14.618  0.1881  0.4683  0.1573
 3805SOL    HW122874   2.271   0.904  14.676 -0.7929 -1.4206  1.0612
 3805SOL    HW222875   2.385   0.914  14.584 -0.9893  0.0863 -2.6676
 3806SOL     OW22876   2.159   4.605   7.006  0.0140 -0.0416 -0.1830
 3806SOL    HW122877   2.253   4.610   6.988 -0.0127 -2.8597 -1.2013
 3806SOL    HW222878   2.148   4.691   7.047 -2.5644  1.8213 -4.7577
 3807SOL     OW22879   4.039   3.082   3.904 -0.6682 -0.3233 -0.0082
 3807SOL    HW122880   3.989   3.159   3.930  0.8016  1.3031 -1.9780
 3807SOL    HW222881   4.043   3.097   3.809 -0.7083 -0.4961 -0.0366
 3808SOL     OW22882   2.500   0.609   2.246 -0.1353  0.0768  0.4619
 3808SOL    HW122883   2.487   0.700   2.221 -1.6639 -0.2219  0.1701
 3808SOL    HW222884   2.411   0.591   2.277 -0.5551 -0.0440 -0.8375
 3809SOL     OW22885   3.521   2.159   7.065 -0.1927 -0.7832 -0.5649
 3809SOL    HW122886   3.455   2.189   7.003 -0.2720 -0.2572 -0.2275
 3809SOL    HW222887   3.526   2.213   7.145  2.7846 -0.6796 -0.8030
 3810SOL     OW22888   4.598   3.626  14.163 -0.3790  0.5462 -0.3219
 3810SOL    HW122889   4.617   3.564  14.093 -1.5987  0.0830 -0.2476
 3810SOL    HW222890   4.675   3.682  14.158 -0.5356  0.7015 -0.9823
 3811SOL     OW22891   1.332   1.340   2.213  0.2986 -0.1459  0.5614
 3811SOL    HW122892   1.281   1.263   2.188  0.5791 -0.6849  1.6569
 3811SOL    HW222893   1.396   1.342   2.142  1.1875 -5.2119  1.2040
 3812SOL     OW22894   3.258   3.399   6.894 -0.3132 -0.0580 -0.1675
 3812SOL    HW122895   3.324   3.355   6.842  0.6398  1.8530 -0.5750
 3812SOL    HW222896   3.275   3.493   6.883 -1.0516  0.3116  1.7904
 3813SOL     OW22897   2.696   0.239   9.310  0.0933 -0.1361  0.0534
 3813SOL    HW122898   2.752   0.196   9.374 -2.5896 -2.3890  0.8484
 3813SOL    HW222899   2.608   0.204   9.322  0.7636 -0.7024  3.2979
 3814SOL     OW22900   1.066   4.294   7.590  0.0941 -0.1824  0.3233
 3814SOL    HW122901   1.022   4.309   7.673  0.2005  0.5411  0.2489
 3814SOL    HW222902   1.066   4.198   7.587 -1.5725 -0.0994 -2.5980
 3815SOL     OW22903   3.402   2.125   8.509  0.0204 -0.3950  0.7253
 3815SOL    HW122904   3.408   2.162   8.421  0.6908 -0.3851  0.7729
 3815SOL    HW222905   3.307   2.118   8.513 -0.0467  0.1111 -0.0728
 3816SOL     OW22906   3.461   2.496   3.885 -0.0373 -0.0512  0.2323
 3816SOL    HW122907   3.511   2.415   3.897 -2.1086 -1.6114 -1.5593
 3816SOL    HW222908   3.370   2.466   3.883  0.1850 -0.9005  3.0751
 3817SOL     OW22909   4.217   4.321   2.805 -0.2549  0.3247  0.1739
 3817SOL    HW122910   4.259   4.325   2.891  2.0605  1.8027 -1.0333
 3817SOL    HW222911   4.182   4.410   2.803 -0.3718  0.2709 -0.1374
 3818SOL     OW22912   0.585   4.471  13.221  0.1154  0.5250 -0.0614
 3818SOL    HW122913   0.543   4.422  13.291  2.1061 -0.0139  0.7528
 3818SOL    HW222914   0.664   4.418  13.210  0.3275  0.7479  0.3940
 3819SOL     OW22915   1.926   2.983   4.349  0.2165 -0.0206 -0.3594
 3819SOL    HW122916   1.893   2.924   4.281 -0.3665 -0.1276  0.0176
 3819SOL    HW222917   1.929   2.920   4.421  0.7504 -0.7089 -0.9765
 3820SOL     OW22918   3.481   1.130   3.427  0.3317  0.1650  0.0532
 3820SOL    HW122919   3.482   1.115   3.332 -1.3991  0.5880 -0.0312
 3820SOL    HW222920   3.542   1.063   3.458  0.5755 -0.5616 -2.0229
 3821SOL     OW22921   1.495   4.235  12.508 -0.8401  0.2504 -0.5873
 3821SOL    HW122922   1.456   4.149  12.498  0.0161  0.1272 -2.7594
 3821SOL    HW222923   1.498   4.242  12.604  0.7751 -1.0452 -0.5642
 3822SOL     OW22924   0.325   1.059  15.081  0.3177  0.1413  0.0719
 3822SOL    HW122925   0.235   1.028  15.095 -0.2376  1.5736 -0.3322
 3822SOL    HW222926   0.333   1.062  15.177  2.0008 -0.0901 -0.0746
 3823SOL     OW22927   2.551   3.130   7.646  0.0608  0.8612 -0.5675
 3823SOL    HW122928   2.528   3.195   7.579  1.0147 -0.3837 -2.1157
 3823SOL    HW222929   2.519   3.049   7.605 -2.0816  1.3542  0.1191
 3824SOL     OW22930   0.252   2.909   0.507  0.0275 -0.5674  0.4316
 3824SOL    HW122931   0.245   2.814   0.494  0.3253 -1.0801  4.0690
 3824SOL    HW222932   0.197   2.919   0.584 -2.2974  3.0931 -1.6953
 3825SOL     OW22933   3.498   3.577  10.635  0.4541  0.1326 -0.3672
 3825SOL    HW122934   3.544   3.496  10.616 -0.6997 -0.5791 -0.1319
 3825SOL    HW222935   3.488   3.565  10.729  1.6329  0.4403 -0.2085
 3826SOL     OW22936   4.390   2.447   7.566 -0.4266 -0.0714  0.0219
 3826SOL    HW122937   4.394   2.502   7.645 -1.0927 -0.8361  0.5813
 3826SOL    HW222938   4.306   2.404   7.576  0.1181 -1.3857 -1.0920
 3827SOL     OW22939   2.169   4.068   5.518 -0.4230  0.1567  0.3550
 3827SOL    HW122940   2.237   4.002   5.508  1.2954  2.1802 -1.4438
 3827SOL    HW222941   2.147   4.080   5.610 -1.6460  1.0247 -0.0379
 3828SOL     OW22942   1.075   2.926   6.832 -0.1408 -0.0084  0.2425
 3828SOL    HW122943   1.086   2.939   6.738 -0.6974 -4.3013 -0.4288
 3828SOL    HW222944   1.157   2.965   6.864  0.8214 -0.9794 -1.0077
 3829SOL     OW22945   1.709   2.037   4.052 -0.3624 -0.0225  0.2714
 3829SOL    HW122946   1.645   2.109   4.054 -1.7555 -1.2730  1.1598
 3829SOL    HW222947   1.646   1.965   4.052  1.4831 -1.6217 -0.9848
 3830SOL     OW22948   0.589   3.576  13.666 -0.2682  0.3364 -0.1201
 3830SOL    HW122949   0.618   3.492  13.629 -2.8319 -0.7938  0.4307
 3830SOL    HW222950   0.593   3.629  13.586  0.0398  1.0828  0.3915
 3831SOL     OW22951   4.643   3.414  13.980  0.0982 -0.7308  0.1410
 3831SOL    HW122952   4.704   3.351  14.019 -1.7710 -1.6365  1.5839
 3831SOL    HW222953   4.708   3.472  13.940 -0.8744 -0.7450 -1.4712
 3832SOL     OW22954   2.200   0.679   6.836 -0.0460  0.1279  0.4920
 3832SOL    HW122955   2.117   0.716   6.864 -0.0856  0.1028  0.4056
 3832SOL    HW222956   2.172   0.617   6.768 -0.1567  2.7580 -1.8421
 3833SOL     OW22957   0.627   3.199   3.315 -0.2157 -0.2482  0.2837
 3833SOL    HW122958   0.642   3.125   3.375  0.0219  1.1025  1.8898
 3833SOL    HW222959   0.557   3.163   3.261 -0.8420  0.3588  0.6894
 3834SOL     OW22960   3.841   3.497  14.849 -0.0322  0.0946 -0.3176
 3834SOL    HW122961   3.775   3.557  14.884 -0.3766 -1.0042  0.8906
 3834SOL    HW222962   3.896   3.565  14.810  1.3856 -1.1434 -0.4951
 3835SOL     OW22963   4.602   2.713   2.908 -0.2225 -0.8025 -0.5559
 3835SOL    HW122964   4.558   2.662   2.977 -1.1563  1.4184  0.4875
 3835SOL    HW222965   4.611   2.802   2.943 -0.1811  0.4081 -3.7315
 3836SOL     OW22966   1.658   3.421   3.613  0.1132  0.4772  0.9375
 3836SOL    HW122967   1.641   3.426   3.519  2.2898  1.8939  0.6055
 3836SOL    HW222968   1.654   3.513   3.637 -1.6685  0.4942  0.5559
 3837SOL     OW22969   0.189   1.071   6.457  0.0866 -0.2938 -0.4345
 3837SOL    HW122970   0.137   1.009   6.509 -1.6087  1.2767 -0.2574
 3837SOL    HW222971   0.115   1.125   6.429  1.4188  1.5343 -0.4520
 3838SOL     OW22972   1.401   2.470  13.433 -0.5090  0.1802  0.2108
 3838SOL    HW122973   1.397   2.379  13.404 -3.5266  0.2104  0.6031
 3838SOL    HW222974   1.340   2.517  13.376  0.2024  2.6812  1.5089
 3839SOL     OW22975   1.182   3.901  11.291  0.3354  0.1675  0.0583
 3839SOL    HW122976   1.172   3.996  11.287 -1.2749  0.0262  0.4883
 3839SOL    HW222977   1.275   3.880  11.299 -0.0121 -1.2263  0.5282
 3840SOL     OW22978   1.869   3.004   6.104  0.1582  0.5543  0.3405
 3840SOL    HW122979   1.923   2.925   6.105 -0.8801 -0.1609 -0.5591
 3840SOL    HW222980   1.785   2.959   6.111 -0.9314  2.3993 -0.8615
 3841SOL     OW22981   3.704   0.247   5.782  0.4018 -0.0168 -0.3454
 3841SOL    HW122982   3.667   0.321   5.734  0.1475  0.5940  0.7979
 3841SOL    HW222983   3.649   0.236   5.860 -0.4335  1.2717 -0.7663
 3842SOL     OW22984   3.257   2.355   7.500  0.2489  0.2567  0.0998
 3842SOL    HW122985   3.223   2.444   7.507  1.6177  0.8407 -0.8057
 3842SOL    HW222986   3.244   2.313   7.585  0.7310 -1.6860 -0.7719
 3843SOL     OW22987   4.168   3.301  17.231 -0.0019  0.5421 -0.6042
 3843SOL    HW122988   4.236   3.246  17.268 -0.3466  0.8613  0.4971
 3843SOL    HW222989   4.227   3.371  17.205 -0.6833  0.3557 -2.7249
 3844SOL     OW22990   3.726   3.542   7.424 -0.2505  0.7213 -0.0651
 3844SOL    HW122991   3.656   3.575   7.480 -0.1158  1.3429 -0.2575
 3844SOL    HW222992   3.795   3.606   7.440 -0.9779  1.1702  1.2431
 3845SOL     OW22993   4.235   1.096   8.644 -0.8704 -0.2113 -0.4811
 3845SOL    HW122994   4.282   1.061   8.719 -1.7952 -0.7215 -0.1266
 3845SOL    HW222995   4.297   1.056   8.584  2.9110 -0.9050  3.9323
 3846SOL     OW22996   4.208   3.081   1.931 -0.2189 -0.2082 -0.3830
 3846SOL    HW122997   4.169   2.994   1.918 -0.4193 -0.3352  1.1439
 3846SOL    HW222998   4.165   3.123   1.857 -1.9461 -1.0357  0.1544
 3847SOL     OW22999   3.394   0.179   3.140 -0.0146 -0.4368  0.7803
 3847SOL    HW123000   3.384   0.150   3.050  0.7244  1.0547  0.2103
 3847SOL    HW223001   3.444   0.104   3.173  0.7142  0.7416  2.3807
 3848SOL     OW23002   4.118   4.227   5.831 -0.1740  0.0721  0.1624
 3848SOL    HW123003   4.159   4.255   5.750  1.5660 -0.1413  0.9733
 3848SOL    HW223004   4.144   4.298   5.891 -0.2857  2.1428 -2.2494
 3849SOL     OW23005   2.485   4.259   3.119 -0.7609  0.2225 -0.2226
 3849SOL    HW123006   2.451   4.267   3.029  0.6355  3.1815 -0.4901
 3849SOL    HW223007   2.566   4.209   3.110 -0.6028  0.4831 -0.2468
 3850SOL     OW23008   4.683   3.645   8.219  0.3751 -0.4121  0.1460
 3850SOL    HW123009   0.053   3.621   8.199  1.0028  0.9123  1.3607
 3850SOL    HW223010   4.690   3.631   8.314  0.4843 -1.3758 -0.0013
 3851SOL     OW23011   0.511   1.664  14.993  1.1772  0.3751  0.5682
 3851SOL    HW123012   0.423   1.701  14.985  1.2294  0.3842 -0.0266
 3851SOL    HW223013   0.525   1.627  14.905 -2.0255 -1.9122  1.0213
 3852SOL     OW23014   1.238   4.135   3.684  0.0559  0.5848  0.3335
 3852SOL    HW123015   1.179   4.189   3.737 -1.3836 -1.1877  0.5590
 3852SOL    HW223016   1.269   4.071   3.748  1.8760  1.7384  0.5987
 3853SOL     OW23017   2.273   1.477   3.009 -0.4217  0.0930 -0.3766
 3853SOL    HW123018   2.299   1.559   2.967 -0.4736  0.1408 -0.3151
 3853SOL    HW223019   2.201   1.458   2.948 -1.7774 -0.6706  1.4682
 3854SOL     OW23020   3.644   0.297   2.756  0.0102 -0.2349  0.1898
 3854SOL    HW123021   3.564   0.248   2.737 -0.2307  0.3247 -0.2457
 3854SOL    HW223022   3.672   0.315   2.666  0.2942 -0.1579  0.2929
 3855SOL     OW23023   2.003   4.660   1.515 -0.0860 -0.6451 -0.3601
 3855SOL    HW123024   2.059   4.639   1.440 -1.8079 -2.1238 -1.2426
 3855SOL    HW223025   1.998   4.570   1.548 -2.7689 -0.2241  0.3968
 3856SOL     OW23026   2.218   3.308  17.225 -0.0577 -0.1424  0.0037
 3856SOL    HW123027   2.193   3.224  17.264 -0.3812 -0.7355 -1.4793
 3856SOL    HW223028   2.249   3.354  17.303 -1.0503  2.3346 -1.0794
 3857SOL     OW23029   0.758   4.554   2.942 -1.2671  0.7153  0.3250
 3857SOL    HW123030   0.738   4.628   2.886 -0.6809 -0.4703 -1.4406
 3857SOL    HW223031   0.678   4.500   2.942 -0.7388 -0.0597 -0.6750
 3858SOL     OW23032   3.351   2.787  17.441 -0.2022 -0.2066  0.2371
 3858SOL    HW123033   3.313   2.704  17.470 -3.2812  0.8222 -0.7856
 3858SOL    HW223034   3.396   2.825  17.517 -0.9996  1.3101 -0.0470
 3859SOL     OW23035   1.707   0.618   2.277 -0.2653 -0.2047 -0.0804
 3859SOL    HW123036   1.641   0.557   2.311  1.0182 -2.2572 -1.2766
 3859SOL    HW223037   1.706   0.691   2.339 -0.4744  2.7229 -3.5271
 3860SOL     OW23038   2.724   0.164   2.918 -0.4387  0.5285  0.1127
 3860SOL    HW123039   2.746   0.217   2.841 -2.9743  0.8519 -0.3962
 3860SOL    HW223040   2.796   0.102   2.913 -0.7797  0.0115  1.9666
 3861SOL     OW23041   1.704   1.879  10.429 -0.3094  0.1526 -0.2653
 3861SOL    HW123042   1.794   1.902  10.406 -0.4410  1.3079  0.3927
 3861SOL    HW223043   1.696   1.928  10.511 -0.3137 -3.0808  1.6543
 3862SOL     OW23044   1.616   1.398   7.185  0.2298 -0.3962 -0.2180
 3862SOL    HW123045   1.572   1.422   7.103  0.1763  0.7607  0.1495
 3862SOL    HW223046   1.704   1.437   7.181  0.0513  0.0101 -0.1559
 3863SOL     OW23047   3.041   0.934   4.408  1.1400 -0.2967 -0.2749
 3863SOL    HW123048   2.977   0.880   4.455  2.8079 -0.4435  1.7878
 3863SOL    HW223049   2.990   0.953   4.329  0.6506  2.2685  0.6673
 3864SOL     OW23050   3.238   1.635  13.040  0.5230  0.5653 -0.2229
 3864SOL    HW123051   3.292   1.613  13.115  2.1533  0.4066 -1.4396
 3864SOL    HW223052   3.295   1.689  12.985  0.9740  1.4487  1.1045
 3865SOL     OW23053   0.165   1.849   9.786 -0.7664  0.1062 -0.0639
 3865SOL    HW123054   0.226   1.788   9.826 -1.5763 -0.7477 -0.1351
 3865SOL    HW223055   0.143   1.812   9.701  1.0193  0.3155 -0.6128
 3866SOL     OW23056   2.024   1.305   1.185 -0.0925  0.2136  0.3672
 3866SOL    HW123057   1.961   1.311   1.256 -0.1507  0.6009  0.2775
 3866SOL    HW223058   1.974   1.303   1.103  0.5142 -2.7169  0.0447
 3867SOL     OW23059   0.656   2.917   8.799  0.3057 -0.4873  0.2989
 3867SOL    HW123060   0.602   2.850   8.839 -0.2977  0.6880  1.4517
 3867SOL    HW223061   0.732   2.914   8.857  0.2492  2.1279  0.5286
 3868SOL     OW23062   2.143   2.793   9.267  0.0492 -0.5187  0.2296
 3868SOL    HW123063   2.173   2.855   9.333  0.5981  0.2208 -0.6995
 3868SOL    HW223064   2.175   2.710   9.303  1.3809  0.3522  1.0590
 3869SOL     OW23065   3.177   2.368   7.896 -0.2387 -0.4487  0.2629
 3869SOL    HW123066   3.242   2.319   7.846 -1.1542 -2.1913  0.7441
 3869SOL    HW223067   3.111   2.305   7.926 -1.1826 -0.3715 -1.6706
 3870SOL     OW23068   0.996   0.659  17.083 -0.2209 -0.1509 -0.2086
 3870SOL    HW123069   1.054   0.596  17.127  0.8026 -0.0219 -1.3717
 3870SOL    HW223070   0.926   0.681  17.145 -0.8789  1.4554 -1.5368
 3871SOL     OW23071   0.673   3.185   1.067 -0.0060  0.2969 -0.2244
 3871SOL    HW123072   0.600   3.122   1.070 -1.1604  1.6216 -0.4497
 3871SOL    HW223073   0.622   3.260   1.037 -0.7785 -0.1863 -0.1425
 3872SOL     OW23074   2.880   2.465   4.007  0.3152 -0.2837 -0.3958
 3872SOL    HW123075   2.785   2.476   4.011  0.3556 -0.4822  1.5100
 3872SOL    HW223076   2.901   2.523   3.935  1.3913  0.1400  0.2552
 3873SOL     OW23077   3.477   3.949   8.856  0.3129  0.6273 -0.7484
 3873SOL    HW123078   3.571   3.939   8.842  0.4268  0.1634  0.3639
 3873SOL    HW223079   3.459   3.889   8.928 -0.0942 -0.3169 -1.6351
 3874SOL     OW23080   1.715   0.592  17.593 -0.0124  0.2649 -0.7722
 3874SOL    HW123081   1.624   0.620  17.582  0.2949  0.8174 -1.9413
 3874SOL    HW223082   1.715   0.521  17.528 -0.5688  0.0142 -0.4980
 3875SOL     OW23083   1.368   1.437   8.220 -0.4003 -0.2279  0.3244
 3875SOL    HW123084   1.383   1.409   8.310 -0.0799 -0.5053  0.1840
 3875SOL    HW223085   1.433   1.387   8.169 -1.9059 -0.1616 -1.6616
 3876SOL     OW23086   0.299   1.094   8.097 -0.4710  0.7055  0.3100
 3876SOL    HW123087   0.361   1.083   8.025 -0.9542 -0.6636  0.0953
 3876SOL    HW223088   0.345   1.052   8.170  0.1508  0.0632 -0.4441
 3877SOL     OW23089   1.113   0.280   6.307  0.4492 -0.0029 -0.0962
 3877SOL    HW123090   1.123   0.355   6.248 -0.2776  0.3542  0.2345
 3877SOL    HW223091   1.021   0.288   6.332  0.4709 -0.7333  0.2293
 3878SOL     OW23092   0.642   3.560   6.054 -0.0762  0.1214  0.0622
 3878SOL    HW123093   0.559   3.519   6.030 -1.2217  1.3882  1.9310
 3878SOL    HW223094   0.663   3.596   5.968  0.5019 -0.7070 -0.1517
 3879SOL     OW23095   0.121   0.309  16.160  1.0508 -0.3723  0.5092
 3879SOL    HW123096   0.038   0.263  16.163 -0.4520  2.2748 -0.7373
 3879SOL    HW223097   0.101   0.397  16.128  1.3187  0.0091  1.3642
 3880SOL     OW23098   3.814   2.296   6.257 -0.4070  0.4888 -0.0275
 3880SOL    HW123099   3.772   2.310   6.172  0.8936  0.6550 -0.6380
 3880SOL    HW223100   3.902   2.268   6.234 -0.7628 -0.1397 -0.6019
 3881SOL     OW23101   2.764   3.729   8.692  0.3557 -0.3401  0.0816
 3881SOL    HW123102   2.751   3.636   8.673  0.6525 -0.3566 -0.0478
 3881SOL    HW223103   2.793   3.752   8.603  1.0932 -2.6658 -0.2775
 3882SOL     OW23104   2.345   2.608   1.464 -0.7310  0.0908 -0.1113
 3882SOL    HW123105   2.397   2.532   1.439 -0.4066 -1.0788  4.0803
 3882SOL    HW223106   2.288   2.577   1.534  0.5431  0.6901  1.2076
 3883SOL     OW23107   2.441   0.439   2.849  0.6891 -0.2156  0.4476
 3883SOL    HW123108   2.501   0.497   2.896  1.0820 -1.2335  1.1936
 3883SOL    HW223109   2.499   0.396   2.787 -1.1342 -1.7813 -0.1876
 3884SOL     OW23110   1.463   1.149   6.865  0.1830 -0.0009  0.3249
 3884SOL    HW123111   1.385   1.198   6.890  0.7819  0.3494  1.4906
 3884SOL    HW223112   1.441   1.055   6.866  1.7288 -0.3710 -0.1556
 3885SOL     OW23113   1.484   3.225   3.714  0.0571 -0.3343  0.1789
 3885SOL    HW123114   1.549   3.279   3.668 -1.8438  0.9273 -1.0511
 3885SOL    HW223115   1.492   3.146   3.661 -0.6896  0.0875 -0.5712
 3886SOL     OW23116   2.875   1.590   7.739  0.0220  0.4017  0.2089
 3886SOL    HW123117   2.856   1.524   7.806 -0.6995 -0.1123 -0.5100
 3886SOL    HW223118   2.967   1.568   7.727  0.0832  0.7152  0.1047
 3887SOL     OW23119   2.318   3.040   3.072 -0.0915  0.5373 -0.2670
 3887SOL    HW123120   2.322   3.017   3.165  0.3188 -0.0264 -0.4171
 3887SOL    HW223121   2.254   2.980   3.033  0.3590 -0.4479  0.5177
 3888SOL     OW23122   1.274   0.857   3.057 -0.0849  0.4652  0.4058
 3888SOL    HW123123   1.208   0.814   3.003 -0.7557  0.8138  0.9530
 3888SOL    HW223124   1.319   0.783   3.098 -0.9946 -0.0084  0.5600
 3889SOL     OW23125   0.136   3.322   4.676  0.2149  0.1436 -0.3434
 3889SOL    HW123126   0.103   3.296   4.762 -1.1768  1.3205 -0.5224
 3889SOL    HW223127   0.062   3.287   4.628  0.1288 -0.7943  0.4722
 3890SOL     OW23128   4.338   4.496   7.151  0.1574 -0.4506 -0.0233
 3890SOL    HW123129   4.267   4.515   7.090  0.6185 -1.2320 -0.8112
 3890SOL    HW223130   4.301   4.517   7.237 -1.3632 -2.0572 -0.2727
 3891SOL     OW23131   4.111   3.471   2.712 -0.0554  0.3229  0.2778
 3891SOL    HW123132   4.137   3.538   2.649 -0.2216  1.2521  1.1897
 3891SOL    HW223133   4.026   3.447   2.676  0.5136 -2.5003  0.7998
 3892SOL     OW23134   4.199   2.173   5.108  0.5133  0.2190 -0.6065
 3892SOL    HW123135   4.203   2.248   5.168 -4.5459 -0.4928  0.6513
 3892SOL    HW223136   4.288   2.174   5.072  1.0852  0.4982  0.8023
 3893SOL     OW23137   3.408   0.171   2.719 -0.5382  0.4649 -0.4527
 3893SOL    HW123138   3.389   0.104   2.785 -0.1297 -0.0441 -0.8516
 3893SOL    HW223139   3.345   0.147   2.651  1.2260 -1.2301 -1.4982
 3894SOL     OW23140   0.675   1.757  12.462  0.1727 -0.6709  0.3053
 3894SOL    HW123141   0.672   1.731  12.370 -1.6287  0.8659 -0.0623
 3894SOL    HW223142   0.769   1.751  12.480  0.0712  0.3299  1.1444
 3895SOL     OW23143   1.806   1.536   6.783 -0.4914 -0.3714  0.7380
 3895SOL    HW123144   1.803   1.629   6.804 -0.4004  0.1824 -1.6606
 3895SOL    HW223145   1.721   1.508   6.817 -1.0949  1.4768  0.7570
 3896SOL     OW23146   2.969   0.766   4.808 -0.3609  0.1075 -0.0654
 3896SOL    HW123147   2.937   0.823   4.738  0.9928  1.4453  0.4010
 3896SOL    HW223148   2.895   0.707   4.818  0.1564 -0.6452 -0.6226
 3897SOL     OW23149   1.072   0.984   2.168 -0.8650  0.3984 -0.1876
 3897SOL    HW123150   1.138   0.922   2.137  0.2613  2.0158 -1.0347
 3897SOL    HW223151   1.075   0.972   2.263 -1.9176 -1.1921 -0.3482
 3898SOL     OW23152   2.353   1.264   7.412  0.5784  0.2123 -0.5030
 3898SOL    HW123153   2.352   1.197   7.480 -0.7145  0.0862 -0.6426
 3898SOL    HW223154   2.303   1.330   7.460 -0.1619  0.8227 -2.0840
 3899SOL     OW23155   2.395   3.963  17.360  0.4612  0.4943 -0.5461
 3899SOL    HW123156   2.437   4.020  17.296 -0.1636  0.0566 -1.3395
 3899SOL    HW223157   2.324   4.020  17.392  0.3040 -0.5779  1.0554
 3900SOL     OW23158   4.569   3.506  13.118 -1.1499 -0.0398  0.0056
 3900SOL    HW123159   4.497   3.524  13.178 -0.8351  3.3072 -0.6175
 3900SOL    HW223160   4.543   3.547  13.035  1.2688  0.3479 -0.5451
 3901SOL     OW23161   4.447   1.072  17.047  0.2199  0.0634 -0.0631
 3901SOL    HW123162   4.474   0.996  16.996 -0.0218  0.3987 -0.6883
 3901SOL    HW223163   4.352   1.065  17.038  0.2741 -1.7919  0.7114
 3902SOL     OW23164   4.437   1.039   5.279 -0.3543 -0.3415 -0.2648
 3902SOL    HW123165   4.452   0.954   5.322 -0.4895 -0.9256 -1.3626
 3902SOL    HW223166   4.408   1.081   5.360 -0.1390  1.9930 -1.4140
 3903SOL     OW23167   3.654   4.229  10.714 -0.3583 -0.3059  0.3938
 3903SOL    HW123168   3.714   4.158  10.691 -0.5122 -0.5133  0.6258
 3903SOL    HW223169   3.687   4.293  10.651  1.1480  0.7103  2.2071
 3904SOL     OW23170   0.740   3.807   5.755 -0.5404  0.3948  0.1789
 3904SOL    HW123171   0.666   3.752   5.729  0.3353 -0.2050 -1.0184
 3904SOL    HW223172   0.796   3.821   5.679  0.9968  0.8830  1.4032
 3905SOL     OW23173   3.328   2.257  15.970 -0.5848 -0.4695  0.2924
 3905SOL    HW123174   3.233   2.266  15.963 -0.6067 -0.1128  1.1251
 3905SOL    HW223175   3.351   2.267  15.878 -1.0803  0.2765  0.2556
 3906SOL     OW23176   4.223   2.017  16.182  0.3665  0.2525  0.2677
 3906SOL    HW123177   4.239   1.956  16.254  0.6990 -0.0239 -0.0423
 3906SOL    HW223178   4.293   2.079  16.205  0.2005  0.5810 -0.1006
 3907SOL     OW23179   0.045   4.363   5.691  0.4416  0.6482 -0.3724
 3907SOL    HW123180   0.115   4.302   5.672 -2.0807 -2.8434  1.5588
 3907SOL    HW223181   0.043   4.404   5.605  0.0267 -1.3945 -1.3347
 3908SOL     OW23182   0.855   1.782  12.784 -0.7112  0.0134  0.3668
 3908SOL    HW123183   0.802   1.742  12.715 -1.1873 -1.5304  1.6184
 3908SOL    HW223184   0.908   1.710  12.819 -0.0310 -0.5158 -1.7492
 3909SOL     OW23185   3.298   4.190   4.988  0.9651  0.1814  0.0437
 3909SOL    HW123186   3.347   4.168   5.068  1.1181 -2.8536 -0.8896
 3909SOL    HW223187   3.209   4.200   5.021  0.5559  0.1832 -1.0739
 3910SOL     OW23188   4.497   1.061  12.066  0.3014  0.6260  0.5726
 3910SOL    HW123189   4.439   1.037  11.995 -1.7107  0.5784  2.2385
 3910SOL    HW223190   4.572   1.086  12.012  0.2796 -1.7656 -0.5619
 3911SOL     OW23191   2.279   2.740   6.134 -0.6242 -0.1453 -0.5715
 3911SOL    HW123192   2.297   2.787   6.216 -1.2490 -3.7860  1.6304
 3911SOL    HW223193   2.184   2.732   6.136 -0.6779  0.2110 -1.4355
 3912SOL     OW23194   1.854   2.121   3.727  0.7315  0.7047  0.4642
 3912SOL    HW123195   1.870   2.029   3.705  1.1127  1.5905 -2.8920
 3912SOL    HW223196   1.938   2.154   3.695  0.7566  0.6310  0.4545
 3913SOL     OW23197   2.461   1.855   6.206  0.9167 -0.0950 -0.0731
 3913SOL    HW123198   2.419   1.937   6.232 -0.9864 -1.3672  0.8562
 3913SOL    HW223199   2.543   1.861   6.255  1.3437 -2.3486 -0.5110
 3914SOL     OW23200   3.932   4.258   9.644 -0.4088  0.4702 -0.0499
 3914SOL    HW123201   3.879   4.332   9.616 -2.9597 -1.6520 -0.8997
 3914SOL    HW223202   4.001   4.308   9.688  0.0026  0.4658 -0.6946
 3915SOL     OW23203   1.217   2.026   6.923  0.1924 -0.3708  0.4407
 3915SOL    HW123204   1.153   2.067   6.865  0.1274  1.9184  2.1353
 3915SOL    HW223205   1.279   2.095   6.947  0.9533  0.0726 -2.8472
 3916SOL     OW23206   4.588   4.115  11.183  0.1649  0.1869 -0.3948
 3916SOL    HW123207   4.499   4.080  11.180  0.8045 -1.5577  1.0598
 3916SOL    HW223208   4.635   4.092  11.102  1.5233 -1.0769  0.7534
 3917SOL     OW23209   0.514   2.781   7.096 -0.2006 -0.2097 -0.8688
 3917SOL    HW123210   0.536   2.688   7.104  1.1843  0.1909  0.0184
 3917SOL    HW223211   0.494   2.784   7.002 -1.3850 -1.0527 -0.6342
 3918SOL     OW23212   1.299   1.311  17.507  0.2121  0.0652  0.1378
 3918SOL    HW123213   1.373   1.295  17.448  1.6841  1.4403  1.5888
 3918SOL    HW223214   1.322   1.402  17.529  2.3026 -0.6511  0.9344
 3919SOL     OW23215   3.810   3.627   9.267  0.1784  0.2867 -0.8393
 3919SOL    HW123216   3.751   3.669   9.329 -0.5664  0.4309 -1.6429
 3919SOL    HW223217   3.889   3.619   9.320 -0.1664 -3.2673 -0.8448
 3920SOL     OW23218   3.186   4.512   4.716 -0.3205 -0.1636 -0.0419
 3920SOL    HW123219   3.093   4.516   4.738  0.1770  0.7004  1.9413
 3920SOL    HW223220   3.229   4.592   4.748 -0.2790  0.3470 -1.3804
 3921SOL     OW23221   4.409   0.842  12.188  0.4778 -0.7647  0.1363
 3921SOL    HW123222   4.378   0.858  12.277  1.4300  1.1991  0.1129
 3921SOL    HW223223   4.447   0.922  12.151 -0.5651 -0.2772  0.0894
 3922SOL     OW23224   1.196   4.221   4.373 -0.1737  0.6546 -0.0262
 3922SOL    HW123225   1.281   4.180   4.358 -0.1010  0.0337  1.9685
 3922SOL    HW223226   1.191   4.250   4.464 -0.4730  2.1055 -0.5049
 3923SOL     OW23227   0.061   3.387   3.599 -0.2841  0.1468  0.1127
 3923SOL    HW123228   0.040   3.324   3.530  2.1773  0.2779 -0.7367
 3923SOL    HW223229   0.102   3.452   3.543 -2.1918  0.9500 -0.3674
 3924SOL     OW23230   1.231   3.412   6.145 -0.2426  0.5348 -0.6617
 3924SOL    HW123231   1.198   3.502   6.151 -0.4831  0.3374  0.9501
 3924SOL    HW223232   1.278   3.406   6.228 -0.1838  0.0535 -0.7300
 3925SOL     OW23233   2.569   2.962   6.115  0.4147 -0.1960  0.5278
 3925SOL    HW123234   2.601   2.914   6.192  0.3246 -2.6231 -0.9184
 3925SOL    HW223235   2.586   3.051   6.144  1.5610 -0.4600  0.6864
 3926SOL     OW23236   3.140   2.057   8.579  0.1111  0.3337  0.0192
 3926SOL    HW123237   3.114   1.993   8.646 -2.1891  2.0385  0.7481
 3926SOL    HW223238   3.077   2.128   8.591  0.3417  0.4997  0.2602
 3927SOL     OW23239   1.390   3.705  10.406  0.0816  0.5338  0.2864
 3927SOL    HW123240   1.476   3.688  10.366 -1.0947 -1.4621 -1.4023
 3927SOL    HW223241   1.326   3.705  10.335  0.3870  1.7048  0.0183
 3928SOL     OW23242   1.127   0.455   6.081 -0.0979  0.3039 -0.1155
 3928SOL    HW123243   1.125   0.436   5.987 -1.0969 -0.7563  0.1231
 3928SOL    HW223244   1.059   0.521   6.093  0.3014  0.1130  3.0831
 3929SOL     OW23245   0.805   4.314  13.223  0.0751 -0.1012  0.8436
 3929SOL    HW123246   0.857   4.252  13.273  2.1819  0.1587 -1.0104
 3929SOL    HW223247   0.778   4.254  13.154 -0.8463  0.6873  0.5153
 3930SOL     OW23248   1.348   3.685   7.217 -0.3584  0.6696  0.9350
 3930SOL    HW123249   1.287   3.671   7.289 -0.6425  1.0987  0.7777
 3930SOL    HW223250   1.414   3.743   7.255  0.6227  0.0555  0.1821
 3931SOL     OW23251   0.662   4.267  12.043  0.3174  0.0355  0.0036
 3931SOL    HW123252   0.707   4.266  11.959  0.8047  0.5170  0.2609
 3931SOL    HW223253   0.733   4.248  12.104  0.1511  1.2672  0.5909
 3932SOL     OW23254   1.315   0.733  14.325 -0.1936 -0.1101  0.0619
 3932SOL    HW123255   1.309   0.828  14.334  2.3240  0.0302  0.4411
 3932SOL    HW223256   1.356   0.708  14.408 -0.9685 -0.5116  0.3170
 3933SOL     OW23257   4.130   0.784   4.343 -0.1234 -0.4415 -0.0658
 3933SOL    HW123258   4.112   0.872   4.309  0.1113 -0.6850 -0.8268
 3933SOL    HW223259   4.149   0.734   4.263  1.5718 -3.6752  2.3595
 3934SOL     OW23260   1.343   1.969   8.954 -0.0587 -0.0195  0.6647
 3934SOL    HW123261   1.256   1.969   8.916  0.5206  3.4871 -0.6510
 3934SOL    HW223262   1.378   2.057   8.945  2.3871 -1.2819 -2.2014
 3935SOL     OW23263   0.412   3.723   7.371 -0.2244  0.4195  0.1249
 3935SOL    HW123264   0.319   3.702   7.374 -0.3056  0.0230 -4.1570
 3935SOL    HW223265   0.398   3.813   7.341 -0.4525 -0.1120 -1.4002
 3936SOL     OW23266   4.701   3.217  11.734  0.5278 -0.8271 -0.4633
 3936SOL    HW123267   4.681   3.223  11.640 -3.4153 -0.6181  0.3787
 3936SOL    HW223268   4.717   3.309  11.753  1.3807 -0.5101 -2.6710
 3937SOL     OW23269   1.191   0.039   9.707  0.1414 -0.0309  0.1795
 3937SOL    HW123270   1.207   4.684   9.763 -2.4902 -0.7729 -0.1233
 3937SOL    HW223271   1.205   0.111   9.769 -2.6348  0.9029 -0.3057
 3938SOL     OW23272   3.772   1.557  16.887 -0.3301  0.9022 -0.2739
 3938SOL    HW123273   3.681   1.562  16.916 -0.8657  0.1573 -1.8174
 3938SOL    HW223274   3.752   1.529  16.797  0.1399 -0.2464 -0.0229
 3939SOL     OW23275   4.345   1.323   5.937 -0.3143 -0.1884 -0.1403
 3939SOL    HW123276   4.395   1.358   5.863 -1.2914  0.1483 -0.6436
 3939SOL    HW223277   4.278   1.391   5.941  1.5187  1.6068 -0.1143
 3940SOL     OW23278   0.985   1.754   6.115  0.6058 -0.1012  0.1052
 3940SOL    HW123279   0.902   1.729   6.073  0.3195 -1.0195  1.2249
 3940SOL    HW223280   0.957   1.784   6.201 -0.3289 -1.6865  0.3714
 3941SOL     OW23281   2.271   1.678   3.488 -0.4302 -0.1898  0.4120
 3941SOL    HW123282   2.229   1.734   3.422  2.0664  1.3903  0.1740
 3941SOL    HW223283   2.279   1.742   3.558  0.3681 -0.0886  0.2253
 3942SOL     OW23284   0.241   2.308   2.806 -0.1329 -0.7264 -0.5239
 3942SOL    HW123285   0.229   2.256   2.727 -3.4034  1.0491 -1.1823
 3942SOL    HW223286   0.304   2.376   2.782 -0.9327  0.2913  0.2510
 3943SOL     OW23287   2.444   3.782   3.366 -0.6304  0.3885  0.1988
 3943SOL    HW123288   2.480   3.805   3.451  0.2223 -0.0337 -0.0378
 3943SOL    HW223289   2.413   3.691   3.368 -0.7933  0.4488  0.3287
 3944SOL     OW23290   0.025   2.001   2.560 -0.5038 -0.0162  0.1856
 3944SOL    HW123291   4.659   2.040   2.568 -0.6742 -0.7030  1.5894
 3944SOL    HW223292   0.030   1.935   2.491  3.4186  1.0150 -0.5227
 3945SOL     OW23293   0.384   3.805   8.910  0.2068 -0.0998  0.4807
 3945SOL    HW123294   0.346   3.768   8.990 -0.0774 -0.9223 -0.0308
 3945SOL    HW223295   0.458   3.860   8.934  0.2154  0.3763 -0.6333
 3946SOL     OW23296   1.490   1.254  11.420  0.3229  0.1056 -0.5845
 3946SOL    HW123297   1.526   1.167  11.401  0.4348  0.5837 -2.6172
 3946SOL    HW223298   1.415   1.230  11.474 -0.5253  3.5087 -0.2528
 3947SOL     OW23299   2.963   4.663  16.867 -0.3005 -0.9167 -0.0597
 3947SOL    HW123300   2.937   4.616  16.788 -3.1569  0.0256  0.3018
 3947SOL    HW223301   2.884   4.712  16.888 -0.7151 -1.6434  0.0631
 3948SOL     OW23302   1.842   4.103   2.854 -0.2527 -0.4740  0.4516
 3948SOL    HW123303   1.793   4.155   2.791  0.8625  2.1110  1.7411
 3948SOL    HW223304   1.805   4.148   2.930 -1.2174  2.9617 -2.0882
 3949SOL     OW23305   4.390   4.101   3.857 -0.4523  0.3713 -0.2648
 3949SOL    HW123306   4.480   4.102   3.824  0.5194 -1.0419  2.4258
 3949SOL    HW223307   4.341   4.061   3.785 -1.0376 -0.6335  0.6849
 3950SOL     OW23308   2.920   3.814   7.204  0.2419 -0.0100 -0.3255
 3950SOL    HW123309   2.919   3.751   7.276  3.7723 -0.9451 -1.1173
 3950SOL    HW223310   3.010   3.846   7.211  0.4465 -0.8449  0.8002
 3951SOL     OW23311   4.298   0.815   7.711  0.2543  0.4863  0.4184
 3951SOL    HW123312   4.212   0.856   7.702 -2.0262 -4.6213 -0.9797
 3951SOL    HW223313   4.354   0.891   7.724  1.0119  0.1855 -1.1656
 3952SOL     OW23314   2.174   0.799   0.503 -0.5613 -0.5777  0.4532
 3952SOL    HW123315   2.234   0.724   0.501  2.0961  1.5806 -0.9763
 3952SOL    HW223316   2.123   0.790   0.422  1.7856 -2.2379 -0.8320
 3953SOL     OW23317   2.390   3.246   1.129  0.5233  0.0206  0.8715
 3953SOL    HW123318   2.362   3.325   1.175 -1.1090 -0.0863  0.0697
 3953SOL    HW223319   2.416   3.287   1.047 -0.5652 -2.1834 -0.5701
 3954SOL     OW23320   4.442   4.172   7.853 -0.0714 -0.3961 -0.6240
 3954SOL    HW123321   4.480   4.211   7.775  0.8496 -0.7212 -0.3353
 3954SOL    HW223322   4.498   4.098   7.876  0.0821 -0.8803 -2.5724
 3955SOL     OW23323   1.304   0.465   4.480 -0.2563 -0.2469 -0.0653
 3955SOL    HW123324   1.276   0.545   4.436 -1.4797 -0.5957  0.0692
 3955SOL    HW223325   1.355   0.423   4.411 -0.0030  0.3632 -0.2504
 3956SOL     OW23326   2.711   2.359   2.270  0.3277 -0.7839  0.3835
 3956SOL    HW123327   2.759   2.298   2.214  2.0801  0.4383  0.5407
 3956SOL    HW223328   2.638   2.302   2.295 -0.6576  0.1655 -0.2919
 3957SOL     OW23329   2.120   3.479   6.454  0.1705  0.0845  0.3285
 3957SOL    HW123330   2.158   3.543   6.394  1.2498 -0.6429  0.2227
 3957SOL    HW223331   2.173   3.401   6.436  1.2172  0.9155 -0.1677
 3958SOL     OW23332   1.511   3.177  16.252 -0.0038  0.1003  0.1484
 3958SOL    HW123333   1.489   3.158  16.343  0.0243  0.8345  0.3108
 3958SOL    HW223334   1.487   3.099  16.203 -0.3272  1.2948 -1.5576
 3959SOL     OW23335   2.871   2.040  14.829 -0.2754 -0.1632 -0.0934
 3959SOL    HW123336   2.964   2.022  14.844  0.0874  0.2370 -1.8253
 3959SOL    HW223337   2.825   1.968  14.870  2.3565 -1.5716  0.3954
 3960SOL     OW23338   2.627   2.320   8.582  0.3485  0.4988  0.8469
 3960SOL    HW123339   2.565   2.287   8.517  0.9141 -0.8300  0.9829
 3960SOL    HW223340   2.593   2.409   8.589  0.0776  0.2991  2.0717
 3961SOL     OW23341   3.169   4.174  17.032 -0.4807  0.2009  0.5189
 3961SOL    HW123342   3.151   4.143  17.120  3.2251 -2.0232  0.5006
 3961SOL    HW223343   3.143   4.266  17.037  0.9511  0.5619  1.0715
 3962SOL     OW23344   3.848   4.161   5.842  0.5044 -0.7132 -0.5099
 3962SOL    HW123345   3.817   4.239   5.796  1.2093 -0.2984 -0.2819
 3962SOL    HW223346   3.939   4.154   5.811  0.5047  0.7706 -0.8444
 3963SOL     OW23347   0.104   2.162  13.180  0.3514  0.2985 -0.3661
 3963SOL    HW123348   0.096   2.250  13.217 -1.5639  0.3308 -0.8632
 3963SOL    HW223349   0.029   2.109  13.205  2.1164 -2.8628 -1.8186
 3964SOL     OW23350   4.478   2.409  11.481 -0.2885  0.0207  0.2467
 3964SOL    HW123351   4.385   2.428  11.493  0.2027  1.6638  1.4246
 3964SOL    HW223352   4.485   2.349  11.407 -2.5561 -0.6745  0.5859
 3965SOL     OW23353   0.705   2.505   6.588  0.5226 -0.5742 -0.0269
 3965SOL    HW123354   0.783   2.534   6.540 -0.5190  1.1495 -0.6523
 3965SOL    HW223355   0.695   2.567   6.661  0.4704  1.4796 -1.7861
 3966SOL     OW23356   4.099   2.177   4.477  0.4884  0.6162 -0.6154
 3966SOL    HW123357   4.101   2.246   4.544 -2.8485 -1.7468  1.9119
 3966SOL    HW223358   4.021   2.204   4.430 -0.2981  0.0498  0.3496
 3967SOL     OW23359   0.450   2.630  10.823 -0.3367 -0.3504  0.4444
 3967SOL    HW123360   0.512   2.635  10.750 -0.4103  0.5997  0.4470
 3967SOL    HW223361   0.383   2.576  10.781  0.2725  0.6909 -1.9065
 3968SOL     OW23362   0.829   4.142  16.304 -0.3678 -0.0543  0.2152
 3968SOL    HW123363   0.805   4.121  16.394  0.1647 -0.2649  0.3087
 3968SOL    HW223364   0.831   4.049  16.285  2.2189  0.3902 -1.7503
 3969SOL     OW23365   3.267   2.527   0.111  0.0035 -0.1112  0.7976
 3969SOL    HW123366   3.190   2.575   0.141  1.7174  1.9504  1.9039
 3969SOL    HW223367   3.278   2.481   0.194 -2.0797 -4.1885 -1.1976
 3970SOL     OW23368   4.413   1.308  10.600 -0.0128 -0.3581 -0.1487
 3970SOL    HW123369   4.368   1.378  10.646  0.6322  1.4406 -2.2706
 3970SOL    HW223370   4.460   1.264  10.671  0.8305  0.6526 -0.0877
 3971SOL     OW23371   4.395   3.469  15.760 -0.1458 -0.1061  0.5386
 3971SOL    HW123372   4.402   3.401  15.827 -0.6115 -0.2760  0.4147
 3971SOL    HW223373   4.383   3.545  15.816  3.0272 -0.8033  2.1825
 3972SOL     OW23374   0.039   0.672  16.604  0.2504  0.1184 -0.5683
 3972SOL    HW123375   0.021   0.766  16.607  1.2154  0.2798 -0.0311
 3972SOL    HW223376   0.004   0.643  16.688  0.2467 -1.0542 -0.9729
 3973SOL     OW23377   0.875   1.061  14.535 -0.1942  0.3419 -0.1553
 3973SOL    HW123378   0.965   1.041  14.510 -0.4536  0.3440 -1.0809
 3973SOL    HW223379   0.858   0.997  14.604 -1.4264  1.2608  0.4019
 3974SOL     OW23380   2.244   1.248   9.213  0.4136  0.3533  0.7115
 3974SOL    HW123381   2.196   1.169   9.236 -1.4745  1.0625 -0.8319
 3974SOL    HW223382   2.320   1.249   9.272 -0.4195 -0.4579  1.8165
 3975SOL     OW23383   1.139   1.018   5.611  0.1745 -0.3962 -0.1555
 3975SOL    HW123384   1.157   1.108   5.582 -1.7996 -1.3799 -4.5032
 3975SOL    HW223385   1.092   0.991   5.532 -0.6239 -2.0808  0.9030
 3976SOL     OW23386   0.023   0.205   1.587 -0.2771  0.5929 -0.3379
 3976SOL    HW123387   0.038   0.175   1.677 -0.3443  0.6494 -0.3081
 3976SOL    HW223388   0.011   0.116   1.553 -2.6450 -0.0022  2.0798
 3977SOL     OW23389   4.595   1.595   1.508 -0.9282 -0.4275 -0.2055
 3977SOL    HW123390   4.617   1.671   1.454  0.7600 -1.1609 -0.5269
 3977SOL    HW223391   4.598   1.527   1.440  0.4189 -1.2442  0.6676
 3978SOL     OW23392   0.703   2.069  12.338 -0.1087  0.0642  0.3737
 3978SOL    HW123393   0.771   2.048  12.401 -0.5186 -1.6354  0.2631
 3978SOL    HW223394   0.744   2.097  12.256 -0.8313  2.6463  0.8813
 3979SOL     OW23395   3.951   1.642  10.059 -0.2310 -0.7113 -0.3716
 3979SOL    HW123396   3.886   1.702  10.024  0.7094  0.2180 -0.5413
 3979SOL    HW223397   3.974   1.703  10.129  0.7283 -0.3612 -0.9868
 3980SOL     OW23398   0.840   1.576   3.135 -0.1047  0.0052 -0.6548
 3980SOL    HW123399   0.889   1.497   3.113  0.8663  0.0188  1.4026
 3980SOL    HW223400   0.834   1.572   3.231  0.0718 -1.4583 -0.7144
 3981SOL     OW23401   3.555   1.719   6.394  0.5449  0.4428  0.2063
 3981SOL    HW123402   3.495   1.710   6.319  1.1262  0.9640 -0.3169
 3981SOL    HW223403   3.639   1.684   6.366 -0.3197 -0.7132 -0.9738
 3982SOL     OW23404   0.516   4.590   2.538  0.1767  0.2932 -0.0721
 3982SOL    HW123405   0.520   4.494   2.548 -0.8158  0.1771 -0.7401
 3982SOL    HW223406   0.443   4.616   2.594  1.5664  0.9038  1.4334
 3983SOL     OW23407   1.968   2.596   7.075 -0.6199 -0.5145 -0.1555
 3983SOL    HW123408   1.968   2.569   6.983  3.0177  0.7568 -0.5242
 3983SOL    HW223409   2.024   2.526   7.111  0.9790  0.1431 -1.3590
 3984SOL     OW23410   2.164   2.654   3.816 -0.0882  0.4649 -0.0512
 3984SOL    HW123411   2.070   2.636   3.814  0.9008 -4.6522  0.4200
 3984SOL    HW223412   2.166   2.718   3.887 -0.2465  0.7576 -0.3065
 3985SOL     OW23413   0.569   3.772   4.515 -0.2376  0.1090  0.0469
 3985SOL    HW123414   0.617   3.793   4.435  1.3203 -1.0921  0.6798
 3985SOL    HW223415   0.557   3.853   4.564  0.6482  0.0864  0.3065
 3986SOL     OW23416   0.420   3.463  11.004 -0.2112  0.1081  0.5392
 3986SOL    HW123417   0.505   3.436  10.970 -0.3251  0.6195 -0.1490
 3986SOL    HW223418   0.409   3.544  10.954 -2.4962 -1.2118 -1.0646
 3987SOL     OW23419   3.169   2.370   4.588 -0.6451 -0.3881  0.0800
 3987SOL    HW123420   3.146   2.322   4.668 -1.4354  0.5223  0.3971
 3987SOL    HW223421   3.252   2.411   4.613  0.2662 -2.1871  0.0293
 3988SOL     OW23422   0.809   2.380   2.761 -0.6104  0.1727 -0.1376
 3988SOL    HW123423   0.767   2.428   2.691  0.5935 -2.7117 -2.8385
 3988SOL    HW223424   0.746   2.386   2.833  0.8441  2.4925  0.9424
 3989SOL     OW23425   0.321   3.913   3.333  0.6345 -0.2422 -0.4242
 3989SOL    HW123426   0.393   3.856   3.307  1.6191 -0.0494  1.8793
 3989SOL    HW223427   0.361   3.996   3.304  1.0196 -0.9173 -1.8258
 3990SOL     OW23428   1.732   3.012   4.614  0.0092  0.2417 -0.0867
 3990SOL    HW123429   1.682   3.034   4.536 -1.0276 -1.6896  0.0348
 3990SOL    HW223430   1.769   2.932   4.576 -2.1007  0.1006 -1.8325
 3991SOL     OW23431   1.785   2.369   6.546  0.0920 -0.0416 -0.5652
 3991SOL    HW123432   1.701   2.379   6.501 -1.0955 -0.3784  1.5787
 3991SOL    HW223433   1.836   2.446   6.520  3.8209 -2.5362 -0.6287
 3992SOL     OW23434   0.698   0.894  13.980  0.0677 -0.8553 -0.0859
 3992SOL    HW123435   0.695   0.987  14.001  1.8144 -1.6302  3.6458
 3992SOL    HW223436   0.630   0.900  13.913 -0.3442  3.0768  0.7251
 3993SOL     OW23437   0.318   0.229   2.530 -0.1141 -0.1092 -0.0050
 3993SOL    HW123438   0.359   0.182   2.603  1.5257 -0.5778 -1.2349
 3993SOL    HW223439   0.234   0.258   2.566 -0.3203 -0.6036 -0.0845
 3994SOL     OW23440   2.423   2.608   6.744  0.3873 -0.0832  0.0630
 3994SOL    HW123441   2.423   2.571   6.655  1.1530  0.5977 -0.2233
 3994SOL    HW223442   2.517   2.606   6.763  0.3073 -2.1710  0.2295
 3995SOL     OW23443   1.554   4.267   1.346 -0.2822  0.3508 -0.2247
 3995SOL    HW123444   1.602   4.349   1.349 -0.0095  0.1861 -0.0817
 3995SOL    HW223445   1.607   4.228   1.277 -3.0460 -0.3091 -1.9841
 3996SOL     OW23446   3.784   3.164   4.320  0.0542 -0.6785 -0.2034
 3996SOL    HW123447   3.847   3.204   4.380  0.3207  0.1986 -1.0725
 3996SOL    HW223448   3.851   3.134   4.257  1.1534  0.4098  0.4647
 3997SOL     OW23449   3.074   0.182   3.477 -0.2785  0.2308  0.0571
 3997SOL    HW123450   3.139   0.182   3.548 -0.6514 -1.2406  0.3917
 3997SOL    HW223451   3.108   0.258   3.429  1.1868 -0.0869  0.5959
 3998SOL     OW23452   2.057   4.497   8.642 -0.1439 -0.3243 -0.5411
 3998SOL    HW123453   1.989   4.518   8.706  1.4092  0.8164  0.7454
 3998SOL    HW223454   2.054   4.402   8.648  0.0772 -0.3076 -0.1192
 3999SOL     OW23455   0.369   1.672   7.893  0.0273  0.8126  0.2033
 3999SOL    HW123456   0.463   1.668   7.878  0.0705  2.5739  0.1122
 3999SOL    HW223457   0.353   1.629   7.977  1.9773 -0.3973 -0.0625
 4000SOL     OW23458   0.039   2.184   4.423  0.3039 -0.5070 -0.6466
 4000SOL    HW123459   4.713   2.197   4.505  2.8720 -1.2078  0.9380
 4000SOL    HW223460   4.679   2.154   4.383  0.6547 -0.6905 -1.2240
 4001SOL     OW23461   3.889   3.331  13.929 -0.4885  0.0055 -0.3189
 4001SOL    HW123462   3.959   3.343  13.993 -0.2023  0.9700 -0.8191
 4001SOL    HW223463   3.894   3.408  13.873  0.9753  2.1914  2.8239
 4002SOL     OW23464   3.441   2.826  13.900 -0.3391  0.7998 -0.7063
 4002SOL    HW123465   3.378   2.844  13.969 -0.6253 -2.8269 -0.0495
 4002SOL    HW223466   3.516   2.880  13.927  0.3843 -1.2427  1.3446
 4003SOL     OW23467   2.915   0.030   1.858  0.1026  0.1787  0.6967
 4003SOL    HW123468   2.951   0.080   1.785  0.0478 -0.8553 -0.0509
 4003SOL    HW223469   2.906   0.095   1.927 -0.4635  1.0524 -0.1956
 4004SOL     OW23470   1.618   0.769   2.498  0.1462 -0.4997  0.3455
 4004SOL    HW123471   1.594   0.861   2.483 -1.4278 -0.9553  0.0468
 4004SOL    HW223472   1.612   0.756   2.592 -2.1134 -2.7985 -0.1127
 4005SOL     OW23473   2.600   2.444   5.945  0.3865 -0.4205  0.1337
 4005SOL    HW123474   2.510   2.474   5.932  1.3960  2.4643 -0.1234
 4005SOL    HW223475   2.637   2.526   5.976  0.1521  0.2690 -1.4562
 4006SOL     OW23476   3.348   4.459   6.803 -0.2031  0.0746  0.8248
 4006SOL    HW123477   3.379   4.391   6.862  3.5385 -0.4313 -1.7657
 4006SOL    HW223478   3.412   4.473   6.734 -0.6769 -1.3748  0.1042
 4007SOL     OW23479   0.291   1.604   5.173  0.0936  0.4303  0.3206
 4007SOL    HW123480   0.266   1.660   5.099 -0.9563  2.3161  2.1103
 4007SOL    HW223481   0.349   1.538   5.136 -1.4400 -0.8377  0.1736
 4008SOL     OW23482   0.330   2.381   7.156 -0.0724  0.1423 -0.1964
 4008SOL    HW123483   0.359   2.399   7.245  2.4341 -2.9810 -0.3395
 4008SOL    HW223484   0.236   2.382   7.172  0.3904  0.5432  2.3679
 4009SOL     OW23485   0.057   3.305   6.569  0.0275  0.3248 -0.3934
 4009SOL    HW123486   0.032   3.212   6.571 -0.0907  0.3439 -1.5501
 4009SOL    HW223487   0.122   3.302   6.499  0.6470  3.1648  0.0828
 4010SOL     OW23488   0.530   2.806   1.816  0.0934 -0.0102  0.2779
 4010SOL    HW123489   0.467   2.771   1.879 -0.5856  0.5137 -0.0991
 4010SOL    HW223490   0.478   2.876   1.775 -0.3015 -0.6826 -0.3566
 4011SOL     OW23491   3.361   1.334   1.647 -0.4069 -0.3310  0.3710
 4011SOL    HW123492   3.394   1.400   1.586  0.0850 -0.0440  0.9522
 4011SOL    HW223493   3.316   1.282   1.580  1.3600  0.2441 -1.2498
 4012SOL     OW23494   2.443   3.807   2.881 -0.2665 -0.1559  0.6648
 4012SOL    HW123495   2.407   3.878   2.935  1.1036  1.1386 -0.1143
 4012SOL    HW223496   2.365   3.760   2.852 -0.3385 -0.4738  1.3522
 4013SOL     OW23497   2.251   4.433   2.118 -0.0855  0.2175  0.0932
 4013SOL    HW123498   2.188   4.459   2.051  0.7002  1.5667 -0.1163
 4013SOL    HW223499   2.189   4.416   2.188 -1.9229  1.3551 -1.2708
 4014SOL     OW23500   1.539   2.603  12.634 -0.7005 -0.2689  0.1533
 4014SOL    HW123501   1.476   2.669  12.663 -2.1015 -1.9410  0.9733
 4014SOL    HW223502   1.484   2.535  12.595  1.6870 -1.4253 -1.1746
 4015SOL     OW23503   3.000   3.984   6.735 -0.2262 -0.1579 -0.2117
 4015SOL    HW123504   3.051   3.927   6.677 -0.0499 -1.6348  1.4045
 4015SOL    HW223505   3.065   4.052   6.753  0.4179 -0.8529  0.0513
 4016SOL     OW23506   0.075   0.625  16.333  0.4408  0.2248 -0.2421
 4016SOL    HW123507   0.140   0.690  16.359 -0.0335  0.7954 -0.4766
 4016SOL    HW223508   0.051   0.586  16.417  1.8790 -2.1568 -0.9579
 4017SOL     OW23509   3.344   3.251   9.059 -0.7272 -0.0076  0.3838
 4017SOL    HW123510   3.403   3.230   8.986 -1.1677  0.8338 -0.2041
 4017SOL    HW223511   3.258   3.223   9.029 -0.3385 -1.4780  0.6469
 4018SOL     OW23512   2.209   2.288  12.249 -0.4854  0.3016 -0.3937
 4018SOL    HW123513   2.213   2.306  12.155 -1.3993 -0.1600 -0.5106
 4018SOL    HW223514   2.167   2.369  12.278 -0.1533 -0.1340  1.2622
 4019SOL     OW23515   3.442   2.265   6.243 -0.2399 -0.5302 -0.4004
 4019SOL    HW123516   3.377   2.242   6.177 -0.0350 -1.7884 -0.1785
 4019SOL    HW223517   3.484   2.179   6.245 -2.2830 -1.4912  0.7394
 4020SOL     OW23518   0.608   1.922   8.315  0.1065  0.4591 -0.5351
 4020SOL    HW123519   0.524   1.927   8.359 -0.1724 -3.5125 -0.6896
 4020SOL    HW223520   0.629   2.016   8.316  0.6267  0.3033  2.0723
 4021SOL     OW23521   1.109   2.447   9.311  0.1182 -0.0017 -0.2562
 4021SOL    HW123522   1.029   2.463   9.262 -0.3119 -1.6733 -0.1049
 4021SOL    HW223523   1.158   2.522   9.278  0.6467 -0.6869 -1.0211
 4022SOL     OW23524   0.519   2.009   4.488  0.0555  0.3214  0.5895
 4022SOL    HW123525   0.531   1.989   4.580 -0.9041  0.5563  0.7635
 4022SOL    HW223526   0.541   1.930   4.439 -1.1001  1.0856 -1.2001
 4023SOL     OW23527   3.200   3.029  10.501  0.5534  0.2745  0.0583
 4023SOL    HW123528   3.205   2.935  10.518  0.3506  0.6549  2.2212
 4023SOL    HW223529   3.143   3.063  10.569 -0.9832 -0.3335 -0.9362
 4024SOL     OW23530   0.419   1.918   8.072  0.2484  0.2162 -0.1139
 4024SOL    HW123531   0.412   1.843   8.012  1.9664  0.4060 -0.5545
 4024SOL    HW223532   0.495   1.893   8.124  0.4893  0.3949 -0.3768
 4025SOL     OW23533   4.597   3.791   3.373 -0.1318  0.0261 -0.5472
 4025SOL    HW123534   4.639   3.873   3.348 -1.6490  0.1936 -2.6390
 4025SOL    HW223535   4.513   3.833   3.393 -0.4615 -0.4388 -0.9554
 4026SOL     OW23536   1.418   0.464   8.493  0.3093 -0.5216 -0.4068
 4026SOL    HW123537   1.489   0.444   8.554  0.1025  0.9488  0.3157
 4026SOL    HW223538   1.347   0.429   8.547 -0.7700  0.9148 -0.9221
 4027SOL     OW23539   3.185   3.844   6.590  0.2767 -0.6079 -0.0579
 4027SOL    HW123540   3.208   3.902   6.517 -2.5831  0.4677 -0.0944
 4027SOL    HW223541   3.236   3.764   6.579 -1.4493 -1.7395  0.2231
 4028SOL     OW23542   4.648   1.042   0.288  0.2436  0.7870 -0.0349
 4028SOL    HW123543   4.574   1.090   0.249 -0.8326 -0.3993  0.5679
 4028SOL    HW223544   4.698   1.113   0.329 -1.5033  1.3167  1.1857
 4029SOL     OW23545   4.385   2.132   9.168 -0.1552  0.7517  0.1717
 4029SOL    HW123546   4.355   2.115   9.078  1.6282 -0.5166 -0.1870
 4029SOL    HW223547   4.373   2.226   9.162  1.4266  0.9324 -0.0969
 4030SOL     OW23548   0.776   1.233   3.466 -0.2428  0.0704  0.2087
 4030SOL    HW123549   0.849   1.237   3.528 -1.2875  2.1150  1.3308
 4030SOL    HW223550   0.814   1.217   3.380 -0.6511  0.1864  0.0069
 4031SOL     OW23551   2.982   3.957   8.481  0.0612  0.5725  0.3888
 4031SOL    HW123552   3.013   3.996   8.399  0.7606 -2.2936 -0.6943
 4031SOL    HW223553   2.974   4.027   8.546 -1.1958  0.5246  0.2824
 4032SOL     OW23554   0.265   4.156  16.089 -0.7075 -0.1875 -0.0480
 4032SOL    HW123555   0.206   4.081  16.095  1.1640 -1.6672 -0.2845
 4032SOL    HW223556   0.343   4.135  16.139 -1.7846 -3.3489  0.2797
 4033SOL     OW23557   2.811   4.383   8.485 -0.0077  0.2376 -0.4958
 4033SOL    HW123558   2.747   4.315   8.506  0.9747  0.0666  1.9458
 4033SOL    HW223559   2.752   4.449   8.450  2.1984  1.5329 -1.7277
 4034SOL     OW23560   1.155   3.307   5.263  0.0889 -0.1294  0.9744
 4034SOL    HW123561   1.228   3.363   5.288 -0.6694  0.6436  1.4261
 4034SOL    HW223562   1.197   3.236   5.214  0.3530  0.7910 -0.1349
 4035SOL     OW23563   2.692   1.610   3.021 -0.0736  0.0816 -0.6579
 4035SOL    HW123564   2.768   1.659   2.989 -2.0200  2.8482 -1.0234
 4035SOL    HW223565   2.733   1.527   3.045  1.8606  0.9335 -1.0205
 4036SOL     OW23566   3.164   3.276   5.945 -0.2030 -0.0358 -0.2100
 4036SOL    HW123567   3.126   3.198   5.984 -2.3625  1.5938  0.9624
 4036SOL    HW223568   3.205   3.235   5.868  0.0234 -2.2793  1.0987
 4037SOL     OW23569   2.454   2.595  11.066  0.1364  0.2252  0.2576
 4037SOL    HW123570   2.412   2.681  11.070  1.4760  0.8753  0.3665
 4037SOL    HW223571   2.425   2.548  11.144 -0.1228 -1.0524 -0.6230
 4038SOL     OW23572   0.818   2.955   6.972 -0.1280 -0.2767 -0.1162
 4038SOL    HW123573   0.906   2.942   6.936 -0.0492 -1.5379  0.5413
 4038SOL    HW223574   0.792   3.045   6.956 -1.3201 -0.6538 -0.3093
 4039SOL     OW23575   2.504   1.952   3.878 -0.5861  0.2422  0.4558
 4039SOL    HW123576   2.588   1.983   3.845 -0.3246 -2.2221 -1.2275
 4039SOL    HW223577   2.523   1.877   3.935  1.5231  0.1698 -0.3463
 4040SOL     OW23578   1.624   4.301   7.268  0.2905  0.0512  0.4789
 4040SOL    HW123579   1.571   4.336   7.340  1.5614  1.7907  0.5555
 4040SOL    HW223580   1.691   4.369   7.267 -0.7316  1.0588  1.2840
 4041SOL     OW23581   1.740   3.827   7.745  0.1189 -0.0482  0.3469
 4041SOL    HW123582   1.684   3.827   7.823  0.0708  1.2088  0.3163
 4041SOL    HW223583   1.826   3.854   7.779  1.1887 -2.9284 -0.1429
 4042SOL     OW23584   0.275   1.327   2.498  0.2280 -0.1261  0.5239
 4042SOL    HW123585   0.224   1.300   2.574  1.0698  2.4895  2.0275
 4042SOL    HW223586   0.218   1.313   2.422  1.1201 -1.4639  0.1078
 4043SOL     OW23587   2.568   3.758   8.371  0.6460 -0.1722 -0.0430
 4043SOL    HW123588   2.659   3.747   8.397  0.9564 -1.2459 -1.5728
 4043SOL    HW223589   2.536   3.668   8.374  1.3179 -0.4862 -2.0829
 4044SOL     OW23590   4.388   1.061  16.687  0.4982  0.0277  0.2097
 4044SOL    HW123591   4.339   1.059  16.605  0.7097  1.1340  0.0549
 4044SOL    HW223592   4.441   1.140  16.691  0.4221 -0.0325  2.8355
 4045SOL     OW23593   4.623   3.981   7.875 -0.2338  0.1029 -0.6281
 4045SOL    HW123594   4.705   4.020   7.906 -1.8576  0.1735  3.6116
 4045SOL    HW223595   4.595   3.911   7.934 -3.3602  0.5251 -1.6243
 4046SOL     OW23596   0.840   2.066  12.773 -0.1040  0.0264  0.3095
 4046SOL    HW123597   0.893   2.112  12.838  1.9132 -0.1901 -1.1942
 4046SOL    HW223598   0.856   1.978  12.807  0.4791 -0.3361 -0.8951
 4047SOL     OW23599   2.039   2.973   1.030 -0.5787  0.3144  0.3285
 4047SOL    HW123600   2.117   3.013   1.067 -0.1883  0.0081 -0.1701
 4047SOL    HW223601   1.997   2.928   1.104  0.9377 -1.6187  0.0062
 4048SOL     OW23602   2.297   0.908   8.237 -1.2610  0.0979  0.3564
 4048SOL    HW123603   2.278   1.000   8.219 -1.2073  0.3171  1.4295
 4048SOL    HW223604   2.216   0.875   8.277 -1.8972 -0.6472 -1.5796
 4049SOL     OW23605   3.820   1.800   4.958  0.5050  0.0282  0.3012
 4049SOL    HW123606   3.876   1.852   4.901  2.0674 -4.8546 -2.5653
 4049SOL    HW223607   3.795   1.861   5.028 -2.4476 -0.7474 -0.0974
 4050SOL     OW23608   4.211   2.911   5.621 -0.2183  0.0738  0.0545
 4050SOL    HW123609   4.162   2.993   5.619  1.9655  1.4429  2.0934
 4050SOL    HW223610   4.209   2.892   5.528  0.7732 -0.4646  0.1379
 4051SOL     OW23611   0.771   3.925   5.332 -0.1395 -0.2267  0.9851
 4051SOL    HW123612   0.703   3.990   5.348  1.3272  1.1668  1.5072
 4051SOL    HW223613   0.715   3.866   5.281  0.0245 -1.5883  2.3701
 4052SOL     OW23614   4.612   4.012   2.906  0.6815 -0.2933  0.0735
 4052SOL    HW123615   4.618   4.064   2.826 -1.1215 -0.2986 -0.0614
 4052SOL    HW223616   4.591   4.078   2.972  1.0300 -1.7424  1.6140
 4053SOL     OW23617   4.049   3.059   7.503 -0.4150  0.5907 -0.3995
 4053SOL    HW123618   4.059   3.080   7.596 -1.0162 -1.1405  0.0591
 4053SOL    HW223619   4.111   3.117   7.459 -0.2467  1.6335  1.1910
 4054SOL     OW23620   2.272   4.193   9.823 -0.0279  0.2153  0.9853
 4054SOL    HW123621   2.193   4.186   9.770  0.6365  0.7507 -0.0811
 4054SOL    HW223622   2.269   4.104   9.859  0.7351 -0.5872 -0.9110
 4055SOL     OW23623   3.716   2.807   3.570 -0.3888  0.2184 -0.2574
 4055SOL    HW123624   3.785   2.796   3.636  0.8760  0.1716 -1.6019
 4055SOL    HW223625   3.640   2.769   3.613 -1.2008  0.4510 -1.4957
 4056SOL     OW23626   4.569   0.903   7.063 -0.2063 -0.8512 -0.0801
 4056SOL    HW123627   4.597   0.831   7.120  2.6556 -0.9281 -1.5636
 4056SOL    HW223628   4.650   0.935   7.022 -0.3019  0.7732  1.0084
 4057SOL     OW23629   2.800   2.277   1.977 -0.8056 -0.0120  0.1599
 4057SOL    HW123630   2.762   2.211   1.919  1.9151 -0.1084 -1.5059
 4057SOL    HW223631   2.777   2.363   1.940  0.2811  0.1286 -0.1716
 4058SOL     OW23632   3.689   2.646   2.380 -0.3390 -0.4319 -0.2704
 4058SOL    HW123633   3.644   2.566   2.407  0.3811 -0.6622  0.2608
 4058SOL    HW223634   3.645   2.715   2.430 -1.6215 -0.3586 -1.5220
 4059SOL     OW23635   4.061   2.547  17.581 -0.2620 -0.1293  0.6748
 4059SOL    HW123636   4.139   2.600  17.593 -0.4724  0.5600 -0.9634
 4059SOL    HW223637   4.091   2.488  17.513 -0.6386  1.6125 -1.0053
 4060SOL     OW23638   0.611   0.478  14.185 -0.9316  0.6155 -0.2387
 4060SOL    HW123639   0.669   0.494  14.260 -1.0440 -0.0275 -0.0148
 4060SOL    HW223640   0.526   0.481  14.230  0.5958 -2.0904  2.8370
 4061SOL     OW23641   0.318   1.968   2.838  0.5714 -0.3637 -0.3600
 4061SOL    HW123642   0.391   1.953   2.777  1.9621 -1.4935  1.5810
 4061SOL    HW223643   0.363   2.039   2.885 -2.9886 -0.4373  3.1336
 4062SOL     OW23644   3.951   1.497  15.263 -0.0485 -0.0224  0.3794
 4062SOL    HW123645   3.904   1.495  15.347  0.5457  1.5002  0.7616
 4062SOL    HW223646   3.899   1.444  15.203 -1.0314  0.4308  0.8321
 4063SOL     OW23647   2.154   4.261  16.226  0.0761  0.0906 -0.2930
 4063SOL    HW123648   2.081   4.308  16.265  0.1925 -1.1122  1.3444
 4063SOL    HW223649   2.226   4.270  16.287  1.9568  1.5529 -2.7072
 4064SOL     OW23650   2.093   0.728   2.943 -0.2925 -0.1416 -0.4131
 4064SOL    HW123651   2.168   0.777   2.978 -0.2963 -0.3628 -0.0973
 4064SOL    HW223652   2.109   0.654   3.000  0.0470 -1.2722 -1.9767
 4065SOL     OW23653   3.662   0.742   8.624  0.1817 -0.3300  0.5440
 4065SOL    HW123654   3.581   0.792   8.624  0.3720  0.0005  3.2814
 4065SOL    HW223655   3.665   0.701   8.711  0.9703  0.3450  0.8361
 4066SOL     OW23656   1.397   0.385   4.206 -0.2984 -0.0661  0.1339
 4066SOL    HW123657   1.332   0.319   4.231  1.9751 -2.5310 -0.4040
 4066SOL    HW223658   1.417   0.355   4.117 -0.2844  0.8124 -0.1589
 4067SOL     OW23659   1.136   4.422   8.783  0.2918 -0.1224  0.6946
 4067SOL    HW123660   1.095   4.371   8.714 -0.4910  0.8738  0.4191
 4067SOL    HW223661   1.227   4.405   8.758  0.2833  0.8301  0.0168
 4068SOL     OW23662   4.327   0.020  13.774  0.7878  0.2774 -0.1849
 4068SOL    HW123663   4.400   4.713  13.830 -0.9100 -2.7825  0.5180
 4068SOL    HW223664   4.283   0.073  13.840  0.0200 -0.1813 -0.3200
 4069SOL     OW23665   0.067   4.310   4.641  0.2813 -0.2672  0.4288
 4069SOL    HW123666   0.157   4.301   4.611  0.9428  1.4314  1.9362
 4069SOL    HW223667   0.033   4.381   4.587 -2.0827 -0.5093  1.5879
 4070SOL     OW23668   3.413   1.821  14.804 -0.5503  0.3161  0.2778
 4070SOL    HW123669   3.423   1.773  14.722  0.6112 -2.3863  1.9792
 4070SOL    HW223670   3.456   1.901  14.775 -0.2417 -0.0913 -0.4028
 4071SOL     OW23671   4.163   3.003   6.256  0.5896  0.0876 -0.2903
 4071SOL    HW123672   4.190   3.093   6.275  1.6940 -0.4071  0.4138
 4071SOL    HW223673   4.092   3.020   6.193  1.8591  1.1431 -1.4249
 4072SOL     OW23674   3.522   1.839   7.137 -0.5539  0.1812 -0.7246
 4072SOL    HW123675   3.543   1.933   7.129  1.0224 -0.1496 -0.4447
 4072SOL    HW223676   3.586   1.811   7.203  0.0919 -0.6442 -1.7198
 4073SOL     OW23677   3.596   0.020   7.717 -0.3271 -0.7309  0.3444
 4073SOL    HW123678   3.614   0.081   7.646  1.1723 -0.2184  1.1694
 4073SOL    HW223679   3.508   4.717   7.689 -0.1555 -0.4223 -0.4436
 4074SOL     OW23680   3.652   4.348  16.763  0.0145  0.5369  0.1096
 4074SOL    HW123681   3.625   4.391  16.682  1.4024 -1.6577 -1.5152
 4074SOL    HW223682   3.569   4.307  16.787  0.8643 -1.1258  0.2158
 4075SOL     OW23683   0.320   3.763  13.492  0.0644  0.0950 -0.2465
 4075SOL    HW123684   0.398   3.808  13.458 -0.3815  0.1351 -1.1973
 4075SOL    HW223685   0.320   3.780  13.586  0.1446 -2.6221  0.2475
 4076SOL     OW23686   2.800   2.508  12.131  0.1629 -0.6052 -0.2100
 4076SOL    HW123687   2.778   2.557  12.052  0.8640 -0.0176 -0.0408
 4076SOL    HW223688   2.877   2.460  12.100  0.2475  0.0755 -1.0423
 4077SOL     OW23689   1.056   3.645   5.498  0.2329 -0.4613 -0.1613
 4077SOL    HW123690   1.141   3.683   5.477  0.4981 -0.9409  0.0571
 4077SOL    HW223691   1.012   3.724   5.530  0.1983  0.0920 -1.5687
 4078SOL     OW23692   4.679   1.301   0.915  0.2318  0.0026 -0.1506
 4078SOL    HW123693   0.048   1.274   0.933  0.6134  0.5925 -1.1301
 4078SOL    HW223694   4.635   1.291   0.999  0.8006  0.1527  0.1707
 4079SOL     OW23695   3.143   0.047   8.063 -0.2507  0.3130  0.3277
 4079SOL    HW123696   3.174   0.095   8.140 -0.6069 -2.3178  2.1302
 4079SOL    HW223697   3.176   0.116   8.005 -0.6709  1.3108  1.2791
 4080SOL     OW23698   0.917   4.570   8.234 -0.0680  0.5982 -0.4916
 4080SOL    HW123699   0.917   4.623   8.314  1.2926 -0.5900  0.2952
 4080SOL    HW223700   0.838   4.593   8.186  1.0925 -1.4023 -3.3315
 4081SOL     OW23701   3.148   0.900  16.949 -0.2329 -0.6130 -0.1183
 4081SOL    HW123702   3.111   0.871  16.866  1.7647 -0.8984 -0.8949
 4081SOL    HW223703   3.093   0.975  16.971 -1.8733 -1.8248 -0.0995
 4082SOL     OW23704   4.065   4.572  16.524 -0.3447 -0.2405 -0.7795
 4082SOL    HW123705   4.038   4.663  16.519  1.2945  0.1938 -1.6234
 4082SOL    HW223706   4.103   4.569  16.437 -0.2940  0.8115 -0.7858
 4083SOL     OW23707   0.001   4.488   8.051 -0.1572 -0.2560  0.1484
 4083SOL    HW123708   0.016   4.577   8.019 -2.3463 -0.3219 -1.0640
 4083SOL    HW223709   4.630   4.479   8.026  0.2309  2.7162 -2.3421
 4084SOL     OW23710   0.525   0.939  10.185  0.1192  0.4606 -0.1876
 4084SOL    HW123711   0.618   0.915  10.189  0.4200  1.9438  1.7312
 4084SOL    HW223712   0.496   0.910  10.272  1.3255 -1.7270 -0.4998
 4085SOL     OW23713   2.947   1.552   4.450  0.6114  0.7201  0.3524
 4085SOL    HW123714   2.916   1.620   4.389  1.0512  1.2957  0.7706
 4085SOL    HW223715   2.857   1.520   4.454  0.6287  0.6899  0.4756
 4086SOL     OW23716   1.338   2.233   7.317  0.1050  0.2398 -0.1620
 4086SOL    HW123717   1.261   2.194   7.275 -0.3608  0.9626  0.0174
 4086SOL    HW223718   1.392   2.159   7.344  0.8942  0.1394 -1.9927
 4087SOL     OW23719   1.257   1.915   8.584  0.1466 -0.0383 -0.0105
 4087SOL    HW123720   1.225   1.925   8.674 -0.7893 -0.9675 -0.2444
 4087SOL    HW223721   1.344   1.953   8.593  0.5573 -1.0294  0.2205
 4088SOL     OW23722   4.680   4.440   4.003  0.0372 -0.0342 -0.4933
 4088SOL    HW123723   4.679   4.483   4.088  0.3276  0.4964 -0.7596
 4088SOL    HW223724   0.049   4.433   3.970 -0.3178 -2.1857 -1.0184
 4089SOL     OW23725   0.432   0.985   7.209  0.6676 -0.1904  0.1138
 4089SOL    HW123726   0.467   1.037   7.136 -0.9528  0.4128 -0.2423
 4089SOL    HW223727   0.396   0.911   7.161  2.4082 -0.2446 -1.1245
 4090SOL     OW23728   1.951   1.907  14.082 -0.5138  0.0977 -0.0268
 4090SOL    HW123729   1.899   1.986  14.067 -1.2688 -0.2575  0.7032
 4090SOL    HW223730   2.011   1.899  14.008  0.0821  1.4324  0.3104
 4091SOL     OW23731   1.804   2.390   4.970  0.8917 -0.1588 -0.5038
 4091SOL    HW123732   1.839   2.364   5.055 -0.6980  0.5627  0.3919
 4091SOL    HW223733   1.771   2.480   4.974  2.9821  0.5440  0.6341
 4092SOL     OW23734   2.342   3.723   2.413  0.0244  0.3752  0.4003
 4092SOL    HW123735   2.390   3.782   2.471  0.4474 -0.0152  0.4442
 4092SOL    HW223736   2.304   3.779   2.345 -0.0288 -0.6019 -0.3689
 4093SOL     OW23737   2.010   1.086   2.124  0.5239  0.3993 -0.1419
 4093SOL    HW123738   1.990   1.005   2.077 -0.7598  0.2770  0.6085
 4093SOL    HW223739   2.073   1.132   2.068 -0.3803  2.6251  0.6719
 4094SOL     OW23740   1.236   2.526  12.011 -0.0314  0.5340  0.0590
 4094SOL    HW123741   1.239   2.461  11.941  1.2621 -0.5812  1.1404
 4094SOL    HW223742   1.142   2.537  12.023 -0.0769  0.4928 -0.2614
 4095SOL     OW23743   3.328   1.135  12.828  1.3457 -0.0863  0.3699
 4095SOL    HW123744   3.318   1.151  12.735 -0.4387  1.9144  0.8992
 4095SOL    HW223745   3.289   1.048  12.833  1.7983 -0.3264 -0.3097
 4096SOL     OW23746   0.384   0.214  16.710 -0.3520 -0.2455 -0.4353
 4096SOL    HW123747   0.337   0.199  16.628  0.5376  1.6363 -1.2710
 4096SOL    HW223748   0.468   0.188  16.673  0.0222 -2.1866  1.7851
 4097SOL     OW23749   2.385   1.499  17.415  0.0934  0.4639  0.2414
 4097SOL    HW123750   2.392   1.445  17.337  0.4117 -0.1921  0.7187
 4097SOL    HW223751   2.339   1.444  17.478  1.1822 -3.2937 -2.2493
 4098SOL     OW23752   1.924   2.343  11.007  0.4783 -0.0171 -0.6283
 4098SOL    HW123753   1.952   2.349  11.099 -2.9150  1.2960  0.3350
 4098SOL    HW223754   1.833   2.314  11.015  0.3115  1.0466  1.3091
 4099SOL     OW23755   2.621   1.856  16.325 -0.1460 -0.0251 -0.1701
 4099SOL    HW123756   2.525   1.861  16.321 -0.1541  0.3599  0.4896
 4099SOL    HW223757   2.645   1.912  16.251 -0.8475  1.7398  0.9400
 4100SOL     OW23758   3.939   4.084   5.175 -0.1873 -0.1512 -0.2421
 4100SOL    HW123759   4.005   4.021   5.145  1.5121  0.5270  2.0737
 4100SOL    HW223760   3.879   4.029   5.225 -1.3601  0.6663 -0.7703
 4101SOL     OW23761   2.162   1.814   4.748 -0.5820  0.6275 -0.2096
 4101SOL    HW123762   2.185   1.796   4.657 -1.4564  0.6570 -0.4391
 4101SOL    HW223763   2.254   1.827   4.771 -0.6384  0.8549 -0.1071
 4102SOL     OW23764   0.956   2.995  15.338 -0.1640  0.1376 -0.1133
 4102SOL    HW123765   0.868   2.972  15.369  0.2782 -0.8533  0.3850
 4102SOL    HW223766   0.937   2.965  15.249 -1.0649 -1.1936  0.5278
 4103SOL     OW23767   3.356   4.626   0.849 -0.0446 -0.2156 -0.2193
 4103SOL    HW123768   3.425   4.684   0.817 -0.0869  1.5581  2.9356
 4103SOL    HW223769   3.389   4.540   0.824 -1.7978 -0.0792 -3.0386
 4104SOL     OW23770   2.479   1.617   7.424 -0.0012  0.0603  0.4265
 4104SOL    HW123771   2.401   1.570   7.451 -0.5072 -0.1041 -1.3479
 4104SOL    HW223772   2.555   1.563   7.447  0.8004  1.3692  0.8560
 4105SOL     OW23773   1.735   3.535   6.681  0.0296  0.1246  0.0286
 4105SOL    HW123774   1.706   3.483   6.607  0.2037  1.5931 -1.0792
 4105SOL    HW223775   1.651   3.568   6.712 -0.4334 -0.2001 -0.8717
 4106SOL     OW23776   2.428   3.079   6.440 -0.0273  0.1528 -0.1792
 4106SOL    HW123777   2.518   3.111   6.432 -0.3003  1.3003  1.2451
 4106SOL    HW223778   2.429   3.068   6.535  0.0513  1.1394 -0.0649
 4107SOL     OW23779   0.253   3.774   9.154  0.4417  0.9553  0.3298
 4107SOL    HW123780   0.257   3.696   9.209 -0.3421  0.0366 -0.9107
 4107SOL    HW223781   0.263   3.847   9.216 -3.4283  0.5276  1.4887
 4108SOL     OW23782   0.383   3.638   2.660 -0.7166  0.6377 -0.5356
 4108SOL    HW123783   0.384   3.730   2.636  0.5411  0.5740 -0.7139
 4108SOL    HW223784   0.467   3.597   2.642 -0.0619  0.0747  3.8200
 4109SOL     OW23785   3.947   4.586   8.064  0.2742  0.5444  0.2383
 4109SOL    HW123786   3.970   4.529   7.991  0.5070  0.0118  0.7231
 4109SOL    HW223787   3.961   4.531   8.142 -0.2669  3.4333  2.3777
 4110SOL     OW23788   1.778   1.516   5.904 -0.0902  0.0647  0.1387
 4110SOL    HW123789   1.740   1.449   5.847  2.6412 -0.3133 -1.2227
 4110SOL    HW223790   1.828   1.453   5.956  1.5712 -0.5266 -2.1979
 4111SOL     OW23791   2.524   1.315   1.070 -0.3986  0.1128 -0.6666
 4111SOL    HW123792   2.513   1.220   1.067 -1.1553  0.2354 -1.5723
 4111SOL    HW223793   2.536   1.327   1.165  0.7145 -0.2951 -0.7609
 4112SOL     OW23794   0.641   2.643   5.788  0.2684  0.3780 -0.6840
 4112SOL    HW123795   0.668   2.733   5.766 -0.7079  0.9719  0.5056
 4112SOL    HW223796   0.709   2.594   5.743  0.4009  0.4374 -0.5473
 4113SOL     OW23797   2.403   1.690   5.108  0.1624 -0.0518  0.0884
 4113SOL    HW123798   2.324   1.739   5.129 -0.1719 -0.9738  0.9592
 4113SOL    HW223799   2.424   1.638   5.186 -0.6514  0.8147  0.8741
 4114SOL     OW23800   0.112   0.863   4.624 -0.2824 -0.3053 -0.6982
 4114SOL    HW123801   0.079   0.860   4.534  0.4392  1.0034 -1.0033
 4114SOL    HW223802   0.063   0.794   4.670  0.2264  1.2367  2.1785
 4115SOL     OW23803   2.634   1.378   5.652 -0.5814  0.5577 -0.0430
 4115SOL    HW123804   2.673   1.456   5.612 -0.0663 -0.2254 -1.0722
 4115SOL    HW223805   2.625   1.410   5.741 -0.4862 -1.7589  0.8010
 4116SOL     OW23806   1.338   3.889   4.182 -0.1603  0.0293 -0.1063
 4116SOL    HW123807   1.399   3.926   4.118  0.9058 -1.3068  0.1407
 4116SOL    HW223808   1.364   3.939   4.260  2.6504 -1.0897 -0.3288
 4117SOL     OW23809   3.922   0.318   5.940 -0.0420  0.0792  0.0442
 4117SOL    HW123810   3.856   0.288   5.878 -2.8784 -1.7080  3.9536
 4117SOL    HW223811   4.006   0.325   5.894 -0.0604  2.2092  0.3132
 4118SOL     OW23812   3.960   0.071  14.339  0.1798  0.0494  0.0408
 4118SOL    HW123813   3.975   0.078  14.433 -0.2316  0.3310  0.0864
 4118SOL    HW223814   3.908   4.712  14.333  0.4029  0.0289 -1.7777
 4119SOL     OW23815   0.857   3.365  16.413  0.8063  0.0687  0.1545
 4119SOL    HW123816   0.763   3.365  16.428  0.7081  2.9816 -0.4451
 4119SOL    HW223817   0.868   3.418  16.334 -1.0080  1.9754  1.1882
 4120SOL     OW23818   2.612   0.234  11.394  0.2420 -0.3205  0.3030
 4120SOL    HW123819   2.639   0.143  11.380  0.9580 -0.0163 -0.3202
 4120SOL    HW223820   2.635   0.239  11.487 -1.0564  1.2964  0.5233
 4121SOL     OW23821   1.651   1.445   6.533  0.7903  1.0542 -0.0950
 4121SOL    HW123822   1.606   1.364   6.557  0.9667  1.3361  1.1802
 4121SOL    HW223823   1.649   1.486   6.619  1.6873 -2.3169  1.5467
 4122SOL     OW23824   1.893   2.578   3.846  0.2622  0.2751  0.4941
 4122SOL    HW123825   1.886   2.567   3.941 -2.4204  1.2940  0.4117
 4122SOL    HW223826   1.839   2.507   3.813  1.0202  0.0062 -0.1837
 4123SOL     OW23827   0.406   1.463  15.939 -0.4269  0.3210 -0.4463
 4123SOL    HW123828   0.426   1.504  15.855 -0.6963  1.7997  0.2163
 4123SOL    HW223829   0.360   1.383  15.912 -1.0477  0.2707  0.7492
 4124SOL     OW23830   0.893   2.930   1.212 -0.2433  0.3061  0.3668
 4124SOL    HW123831   0.837   2.973   1.277  1.3251  0.8418  1.3551
 4124SOL    HW223832   0.913   2.997   1.146 -1.4120  1.5033  1.2246
 4125SOL     OW23833   0.873   1.856   6.349 -0.2650  0.4840 -0.3688
 4125SOL    HW123834   0.845   1.934   6.301 -0.1476 -0.0228 -1.2538
 4125SOL    HW223835   0.902   1.897   6.431 -0.6210 -0.1749  0.0901
 4126SOL     OW23836   3.925   2.960   5.216  0.1525  0.4413 -0.2205
 4126SOL    HW123837   3.943   2.877   5.260  0.5945 -0.1618 -1.5234
 4126SOL    HW223838   3.875   2.939   5.136  1.8287 -0.5617 -1.0015
 4127SOL     OW23839   3.492   1.031   8.484  0.2458  0.0431  0.7237
 4127SOL    HW123840   3.556   0.964   8.461  1.2791  1.0720  0.6653
 4127SOL    HW223841   3.475   1.005   8.575 -1.3045 -1.0775  0.1315
 4128SOL     OW23842   3.683   2.128   1.977 -0.2172 -0.2901  0.4844
 4128SOL    HW123843   3.698   2.217   1.945  0.8170 -0.6469 -0.0261
 4128SOL    HW223844   3.683   2.093   1.888 -0.0056  0.8837  0.0125
 4129SOL     OW23845   1.963   2.349   5.195  0.4163 -0.2268 -0.5363
 4129SOL    HW123846   2.021   2.285   5.236 -1.5051 -1.6555 -0.0298
 4129SOL    HW223847   2.027   2.419   5.187 -0.0186  0.1386 -0.8074
 4130SOL     OW23848   2.492   1.589   6.711 -0.6669  0.4123  0.5671
 4130SOL    HW123849   2.569   1.646   6.716 -0.6149  0.4392 -0.4777
 4130SOL    HW223850   2.446   1.631   6.638  2.0001  0.0096 -1.3599
 4131SOL     OW23851   0.456   0.501  10.472  0.0546 -0.6272 -0.4027
 4131SOL    HW123852   0.522   0.557  10.515 -1.5460  1.9503 -1.3045
 4131SOL    HW223853   0.443   0.437  10.542 -2.0963 -0.4605 -0.6406
 4132SOL     OW23854   1.592   1.986   2.056 -0.1651 -0.2028  0.5292
 4132SOL    HW123855   1.542   1.930   2.114 -1.2449 -0.4192 -0.6242
 4132SOL    HW223856   1.630   2.052   2.115 -0.2727  0.0680  0.2962
 4133SOL     OW23857   3.113   1.191   7.194  0.2642 -0.1234 -0.4963
 4133SOL    HW123858   3.086   1.250   7.264  2.3333  0.6796 -0.3717
 4133SOL    HW223859   3.094   1.105   7.232  0.1083 -0.9293 -2.4126
 4134SOL     OW23860   0.261   2.666   4.356 -0.7299 -0.1269  0.0755
 4134SOL    HW123861   0.215   2.596   4.402 -0.7256  0.7928  1.4675
 4134SOL    HW223862   0.330   2.706   4.409 -1.5799 -0.3902  1.3738
 4135SOL     OW23863   2.293   1.866   6.701  0.2286  0.8976 -0.3438
 4135SOL    HW123864   2.300   1.942   6.759 -1.4640  1.4470 -0.8406
 4135SOL    HW223865   2.239   1.806   6.753  0.7172 -0.5478 -1.5399
 4136SOL     OW23866   4.649   0.719   5.096 -0.2152 -0.1583  0.3886
 4136SOL    HW123867   4.638   0.814   5.089 -1.3441 -0.1631  2.3608
 4136SOL    HW223868   4.617   0.706   5.185 -0.9083  0.4140  0.2212
 4137SOL     OW23869   2.751   4.103  16.576 -0.1857 -0.4504  0.8014
 4137SOL    HW123870   2.721   4.124  16.487 -1.3185  0.8430  1.4834
 4137SOL    HW223871   2.823   4.165  16.589 -2.0109  1.7741  0.3946
 4138SOL     OW23872   1.396   0.781   5.219  0.6142  0.1666  0.2231
 4138SOL    HW123873   1.313   0.821   5.247  0.5065  1.1471 -1.4986
 4138SOL    HW223874   1.437   0.801   5.303 -1.3739  0.6516  1.0848
 4139SOL     OW23875   2.538   1.210   2.537  0.1037  0.2371  0.3905
 4139SOL    HW123876   2.564   1.142   2.475  0.6809  0.0125  0.8846
 4139SOL    HW223877   2.627   1.227   2.566  0.5497  0.5082 -1.1641
 4140SOL     OW23878   0.346   3.125   3.592 -0.0022  0.4115  0.2597
 4140SOL    HW123879   0.336   3.038   3.631 -0.7160  0.5818  0.4655
 4140SOL    HW223880   0.301   3.183   3.654 -1.0273 -0.6771  0.5355
 4141SOL     OW23881   2.225   2.378   3.074 -0.0786 -0.0641  0.2711
 4141SOL    HW123882   2.161   2.370   3.004  0.0194  1.6423 -0.0033
 4141SOL    HW223883   2.191   2.310   3.133  0.4088  1.0247  1.8091
 4142SOL     OW23884   1.219   3.568  13.376  0.3048  0.1004 -0.1103
 4142SOL    HW123885   1.265   3.649  13.400  1.9847 -0.9548  0.2138
 4142SOL    HW223886   1.148   3.595  13.318 -1.1548 -0.0368  1.5719
 4143SOL     OW23887   1.989   4.569   2.502  0.0263  0.3507  0.2411
 4143SOL    HW123888   1.904   4.596   2.537 -0.0207  1.2993 -0.6081
 4143SOL    HW223889   2.013   4.655   2.469 -0.7922  0.1723 -0.8305
 4144SOL     OW23890   2.621   2.679   4.710 -0.3732  0.0256 -0.3887
 4144SOL    HW123891   2.690   2.646   4.652 -0.7670 -1.8947  0.2372
 4144SOL    HW223892   2.653   2.763   4.743 -0.7353  0.0223 -0.0183
 4145SOL     OW23893   0.476   1.811  17.045 -0.7513 -0.0430  0.4338
 4145SOL    HW123894   0.526   1.819  17.126  2.3520 -0.6438 -1.4240
 4145SOL    HW223895   0.510   1.895  17.014  0.6745 -0.5007  0.7501
 4146SOL     OW23896   2.783   3.876   4.173 -0.4053  0.0685  0.3734
 4146SOL    HW123897   2.843   3.807   4.144 -1.6129 -0.8296  0.0107
 4146SOL    HW223898   2.794   3.859   4.267 -2.0170 -1.1302  0.3408
 4147SOL     OW23899   3.789   0.110   3.981 -0.0558  0.1706  0.6997
 4147SOL    HW123900   3.695   0.127   3.970 -0.2347  0.9217  3.4071
 4147SOL    HW223901   3.794   0.116   4.076 -0.7122 -1.0271  0.8167
 4148SOL     OW23902   4.057   0.637   4.133  1.0021 -0.0141  0.2180
 4148SOL    HW123903   4.079   0.545   4.144 -0.4026 -0.6343 -2.1730
 4148SOL    HW223904   3.973   0.653   4.174  1.6095  2.9010  0.3775
 4149SOL     OW23905   0.521   1.056   4.452 -0.6004 -0.6832  0.5280
 4149SOL    HW123906   0.431   1.075   4.425  0.0414 -1.9361 -2.5083
 4149SOL    HW223907   0.510   1.004   4.532  1.9798 -0.7474  0.8223
 4150SOL     OW23908   3.293   4.007  17.594 -1.0217 -0.3269 -0.5064
 4150SOL    HW123909   3.322   3.977  17.508 -1.3565  1.2128 -1.1371
 4150SOL    HW223910   3.377   4.035  17.630  0.8797 -1.8793 -3.6973
 4151SOL     OW23911   1.008   3.696   8.924  0.2197  0.3541  0.1910
 4151SOL    HW123912   0.937   3.748   8.963  0.4896 -0.1554  1.3322
 4151SOL    HW223913   0.978   3.687   8.833 -0.6178  1.0115  0.3988
 4152SOL     OW23914   3.463   4.264   8.432 -0.6160  0.1618  0.1617
 4152SOL    HW123915   3.476   4.216   8.513  0.9422 -0.4596 -0.4403
 4152SOL    HW223916   3.538   4.324   8.431  0.1495 -0.8288 -1.6617
 4153SOL     OW23917   1.854   3.615   9.122 -0.2485  0.0249 -0.2204
 4153SOL    HW123918   1.814   3.695   9.157 -0.1058 -0.7262  1.6677
 4153SOL    HW223919   1.948   3.635   9.120 -0.7534  1.9465 -3.7477
 4154SOL     OW23920   4.316   2.312   2.967  0.4894  0.3322 -0.2419
 4154SOL    HW123921   4.233   2.293   3.010  0.4173 -2.2259 -1.4780
 4154SOL    HW223922   4.370   2.236   2.989  1.9112  1.5357  0.4174
 4155SOL     OW23923   2.451   0.227   3.965 -0.2754 -0.3919  0.1846
 4155SOL    HW123924   2.504   0.151   3.988 -1.4706 -0.7903  1.6449
 4155SOL    HW223925   2.436   0.218   3.871  0.2887 -1.7675  0.2322
 4156SOL     OW23926   1.993   4.146   7.139  0.5477  0.0946  0.0923
 4156SOL    HW123927   2.030   4.226   7.101  1.2815  0.2985  1.2408
 4156SOL    HW223928   1.975   4.172   7.229 -0.9326 -0.0887 -0.1507
 4157SOL     OW23929   2.970   1.195  11.326  0.0099  0.0151 -0.1221
 4157SOL    HW123930   3.064   1.196  11.310  0.2582  1.9963  1.4960
 4157SOL    HW223931   2.953   1.279  11.281  1.1924  1.8078  2.7811
 4158SOL     OW23932   4.147   1.006  15.742  0.1319  0.0749  0.6283
 4158SOL    HW123933   4.209   0.964  15.683 -0.0675 -0.6448  0.9291
 4158SOL    HW223934   4.078   0.947  15.774 -2.3029  1.9017 -1.2284
 4159SOL     OW23935   2.872   4.711   9.029  0.5018 -0.0335  0.1336
 4159SOL    HW123936   2.885   0.024   9.117 -2.9550  1.7774 -0.0485
 4159SOL    HW223937   2.824   0.058   8.981 -0.3877  0.7107  2.1053
 4160SOL     OW23938   2.884   0.213   7.980  0.0228  0.0641  0.1930
 4160SOL    HW123939   2.965   0.262   7.964 -0.3433  0.3602 -0.7201
 4160SOL    HW223940   2.908   0.136   7.928 -1.0600 -0.4386  0.4428
 4161SOL     OW23941   1.954   3.417   1.650  0.0418  0.0102 -0.7770
 4161SOL    HW123942   1.860   3.401   1.659 -0.2296  2.0634  0.0125
 4161SOL    HW223943   1.967   3.512   1.658  3.1740 -0.4068 -0.8652
 4162SOL     OW23944   0.899   4.044   2.290  0.1325 -0.1315 -0.0729
 4162SOL    HW123945   0.894   4.030   2.196  0.0895  2.6622 -0.5009
 4162SOL    HW223946   0.930   3.959   2.319  0.6644  0.4153  0.9810
 4163SOL     OW23947   1.063   1.476   2.342 -0.3674 -0.3164  0.6499
 4163SOL    HW123948   1.058   1.466   2.437  1.1090 -0.2690  0.7220
 4163SOL    HW223949   0.992   1.418   2.315 -0.5108 -0.3126  1.0201
 4164SOL     OW23950   2.954   0.354  13.774  0.5749 -0.3921  0.3351
 4164SOL    HW123951   2.959   0.381  13.682  0.6480 -0.2833  0.3714
 4164SOL    HW223952   3.043   0.379  13.801  0.4341  0.8212 -0.3405
 4165SOL     OW23953   1.250   0.240   3.489 -0.2009  0.1465  0.3034
 4165SOL    HW123954   1.241   0.297   3.565 -0.5439  1.4150 -0.7058
 4165SOL    HW223955   1.343   0.241   3.467 -0.0544 -1.1001  0.8471
 4166SOL     OW23956   1.457   0.028   7.428  0.5061 -0.5171 -0.3766
 4166SOL    HW123957   1.477   0.032   7.522  0.2699  1.4024 -0.4212
 4166SOL    HW223958   1.377   0.079   7.421  1.2753  0.9480  1.4228
 4167SOL     OW23959   0.409   0.457   4.311 -0.2185 -0.0856 -0.4881
 4167SOL    HW123960   0.362   0.523   4.361  0.2250 -0.9639  1.0834
 4167SOL    HW223961   0.330   0.405   4.300  0.0171 -0.5899  0.1955
 4168SOL     OW23962   2.086   0.430  15.008 -0.0250  0.4602  0.3292
 4168SOL    HW123963   2.104   0.505  14.951 -2.2022 -0.1594 -1.1917
 4168SOL    HW223964   2.015   0.393  14.956  0.4527  0.7345 -0.5195
 4169SOL     OW23965   2.389   1.217   0.587 -0.3770 -0.3274  0.0548
 4169SOL    HW123966   2.411   1.306   0.560 -2.2781  0.0771 -0.1919
 4169SOL    HW223967   2.394   1.172   0.503 -2.2771 -2.2068  0.9296
 4170SOL     OW23968   0.989   4.609   6.294  0.8569 -0.3458  0.3728
 4170SOL    HW123969   0.999   4.517   6.316  0.5584 -1.1344 -2.8645
 4170SOL    HW223970   0.921   4.626   6.359 -0.0076 -1.4651 -0.2407
 4171SOL     OW23971   0.536   2.407   6.151 -0.0838 -0.4075  0.0519
 4171SOL    HW123972   0.518   2.420   6.245  0.4885 -1.5263  0.3141
 4171SOL    HW223973   0.450   2.399   6.110 -0.1300  1.0283 -0.1341
 4172SOL     OW23974   3.953   2.952  13.958 -0.0721 -0.4383  0.0984
 4172SOL    HW123975   3.989   3.013  14.021  1.5194 -1.8247  0.5235
 4172SOL    HW223976   4.027   2.923  13.904  0.9789  0.8995  0.8313
 4173SOL     OW23977   4.525   2.913   5.959  0.1965  0.1940  0.0260
 4173SOL    HW123978   4.618   2.920   5.937  0.2567 -1.2520 -0.1781
 4173SOL    HW223979   4.517   2.818   5.956  2.3228 -0.0132  0.7513
 4174SOL     OW23980   2.001   3.465  11.403 -0.5778  0.0434 -0.6309
 4174SOL    HW123981   2.066   3.456  11.333  0.1844 -1.6839  0.2867
 4174SOL    HW223982   2.038   3.426  11.482  0.8693  2.1605 -0.2745
 4175SOL     OW23983   1.324   0.042  12.297 -0.2788 -0.0005  0.5858
 4175SOL    HW123984   1.328   4.706  12.374  0.9159  1.9394  1.9510
 4175SOL    HW223985   1.372   4.714  12.230  0.9845  2.2028 -0.1270
 4176SOL     OW23986   2.503   1.985   2.631  0.8990  0.2449  0.0252
 4176SOL    HW123987   2.565   1.916   2.655  0.2170 -0.1941  0.5240
 4176SOL    HW223988   2.457   1.955   2.553 -0.3919 -2.0294  1.6756
 4177SOL     OW23989   0.292   1.451   7.470  0.0122 -0.1579 -0.0040
 4177SOL    HW123990   0.348   1.398   7.413  0.5512  0.2287  0.1748
 4177SOL    HW223991   0.269   1.390   7.540  0.0601 -0.9519 -0.6642
 4178SOL     OW23992   4.096   1.743   9.647  0.1739  0.5084 -0.4301
 4178SOL    HW123993   4.091   1.691   9.727 -1.7479  2.1147  0.4863
 4178SOL    HW223994   4.021   1.802   9.660 -0.1157  0.5561 -2.3510
 4179SOL     OW23995   4.360   2.021  15.905 -0.7173 -0.1187 -0.1528
 4179SOL    HW123996   4.273   2.004  15.939 -0.2936  1.9595  1.9688
 4179SOL    HW223997   4.347   2.060  15.818  1.6656 -1.1374 -0.9744
 4180SOL     OW23998   4.416   2.161  11.306 -0.4724 -0.8310 -0.0990
 4180SOL    HW123999   4.332   2.192  11.273 -0.0860 -0.2088 -0.4893
 4180SOL    HW224000   4.414   2.068  11.282  1.1835 -1.0273  0.5236
 4181SOL     OW24001   3.958   2.638   0.273 -0.2201 -0.3375  0.1111
 4181SOL    HW124002   4.053   2.634   0.278 -0.1777  1.3006  0.7384
 4181SOL    HW224003   3.939   2.681   0.356  0.0940  0.5777 -0.2952
 4182SOL     OW24004   3.756   0.481  15.872 -0.2551 -0.1446 -0.0890
 4182SOL    HW124005   3.798   0.544  15.815 -0.8221  0.2604 -0.0630
 4182SOL    HW224006   3.674   0.526  15.893 -0.1657 -0.2250  0.4480
 4183SOL     OW24007   1.760   4.469   1.394 -0.6045  0.0072 -0.4367
 4183SOL    HW124008   1.722   4.552   1.424 -1.4697 -1.1394  1.6165
 4183SOL    HW224009   1.842   4.467   1.443 -0.7110 -1.0128 -0.3045
 4184SOL     OW24010   3.332   2.987   7.008 -0.2570 -0.2376 -0.2511
 4184SOL    HW124011   3.272   2.940   6.951 -0.9108  2.5035 -1.8160
 4184SOL    HW224012   3.277   3.057   7.043 -2.1910 -2.2825  0.7618
 4185SOL     OW24013   2.091   1.125  11.715 -0.0821 -0.4758  0.2154
 4185SOL    HW124014   2.099   1.160  11.804 -1.1157  2.1031 -0.7146
 4185SOL    HW224015   2.131   1.038  11.718 -1.1555 -0.9446  1.0913
 4186SOL     OW24016   1.912   1.588   1.041  0.5037  0.1637 -0.1030
 4186SOL    HW124017   1.991   1.605   0.988  1.5886  0.6306  1.6809
 4186SOL    HW224018   1.848   1.556   0.978  1.4498 -1.4632 -0.2291
 4187SOL     OW24019   3.476   0.271   9.953 -0.2326  0.3335  0.0322
 4187SOL    HW124020   3.513   0.229   9.875  2.1502 -1.4827  2.1355
 4187SOL    HW224021   3.404   0.211   9.975 -0.4821  0.4835 -0.3792
 4188SOL     OW24022   1.883   4.284   4.694 -0.0590  0.2062 -0.0394
 4188SOL    HW124023   1.958   4.236   4.659  1.6645  1.7449  1.4910
 4188SOL    HW224024   1.934   4.363   4.711 -0.0110  0.4798 -1.4491
 4189SOL     OW24025   1.580   2.503   6.803 -0.0694 -0.3883  0.0324
 4189SOL    HW124026   1.500   2.533   6.845 -0.0114  2.0470 -1.6022
 4189SOL    HW224027   1.639   2.502   6.878 -0.1091 -1.9912  0.0467
 4190SOL     OW24028   1.795   0.889   2.094  0.2282  0.1562  0.3519
 4190SOL    HW124029   1.831   0.852   2.174  0.4618  0.7979  0.5414
 4190SOL    HW224030   1.725   0.941   2.134 -0.7918  0.0928 -1.3450
 4191SOL     OW24031   3.628   2.341   7.606 -0.4719  0.1802  0.0452
 4191SOL    HW124032   3.595   2.421   7.646 -0.2870 -1.0609  2.6465
 4191SOL    HW224033   3.667   2.379   7.527  1.5895  1.4374  1.6749
 4192SOL     OW24034   4.455   1.208   4.495  0.3647 -0.2226  0.1601
 4192SOL    HW124035   4.452   1.114   4.477  1.6170  0.1821 -2.2118
 4192SOL    HW224036   4.366   1.223   4.527  0.9022  1.5010  0.8681
 4193SOL     OW24037   0.608   2.165  11.708  0.5354 -0.1375 -0.3974
 4193SOL    HW124038   0.583   2.073  11.702 -0.0142  0.0756 -1.3767
 4193SOL    HW224039   0.556   2.198  11.781 -0.9879  0.0350 -1.5703
 4194SOL     OW24040   0.445   2.514   4.718 -0.0125  0.4367 -0.5231
 4194SOL    HW124041   0.475   2.578   4.654  1.9795 -0.2446 -0.2671
 4194SOL    HW224042   0.484   2.564   4.790  1.1106 -2.0842  0.6220
 4195SOL     OW24043   0.462   1.515   3.200  0.6316 -0.0889  0.2279
 4195SOL    HW124044   0.473   1.601   3.240 -0.1391  0.9385 -1.7926
 4195SOL    HW224045   0.369   1.507   3.180  0.7347 -1.6863  0.4167
 4196SOL     OW24046   2.305   0.804   2.518  0.1394  0.5805 -0.4088
 4196SOL    HW124047   2.300   0.718   2.559  1.2607  0.3340 -0.7753
 4196SOL    HW224048   2.396   0.828   2.538  0.8435 -1.0530 -1.6297
 4197SOL     OW24049   1.599   2.269   4.002  0.1632 -0.1699  0.2124
 4197SOL    HW124050   1.540   2.331   4.046  0.1272 -0.1087  0.0784
 4197SOL    HW224051   1.626   2.329   3.933 -0.2214  0.2802  0.4502
 4198SOL     OW24052   3.819   4.513   5.187  0.6148  0.4948  0.5730
 4198SOL    HW124053   3.778   4.449   5.129  1.0486  0.9950 -0.2929
 4198SOL    HW224054   3.745   4.546   5.237  0.4575  1.6586 -0.4294
 4199SOL     OW24055   3.199   0.397   4.917 -0.2106  0.5377 -0.1688
 4199SOL    HW124056   3.113   0.358   4.931  0.1573 -0.4634 -0.7610
 4199SOL    HW224057   3.262   0.325   4.908 -0.1798  0.6378 -0.7587
 4200SOL     OW24058   2.534   2.970  17.440 -0.1277 -0.7656 -0.2776
 4200SOL    HW124059   2.500   2.883  17.462  1.7508 -1.7195 -1.1415
 4200SOL    HW224060   2.566   3.003  17.524  0.3795 -0.2323 -0.6786
 4201SOL     OW24061   0.141   1.776   2.716 -0.0519 -0.3521 -0.8864
 4201SOL    HW124062   0.206   1.845   2.726 -0.0090 -0.6269  0.6663
 4201SOL    HW224063   0.179   1.736   2.638  0.4494 -0.0513 -0.7981
 4202SOL     OW24064   1.636   3.260   2.468 -0.2712 -0.4278  0.2575
 4202SOL    HW124065   1.619   3.238   2.376  0.1734 -2.7493  0.7322
 4202SOL    HW224066   1.673   3.173   2.487 -1.2955 -0.5448  1.7335
 4203SOL     OW24067   2.660   0.680   5.529  0.0388 -0.6275  0.1601
 4203SOL    HW124068   2.726   0.639   5.474  0.7421  1.6532 -0.6840
 4203SOL    HW224069   2.651   0.770   5.499  2.3282 -0.4030  0.1106
 4204SOL     OW24070   2.106   3.566   2.954 -0.1139 -0.3392 -0.4025
 4204SOL    HW124071   2.192   3.569   2.913 -0.1797 -0.9245 -0.5903
 4204SOL    HW224072   2.088   3.473   2.937 -2.3287 -0.3981  2.3561
 4205SOL     OW24073   0.885   4.281   5.240  0.0608  0.2712  0.1756
 4205SOL    HW124074   0.889   4.193   5.203 -1.1160  0.3491 -0.1392
 4205SOL    HW224075   0.794   4.276   5.271  0.5228 -0.9017  1.3229
 4206SOL     OW24076   1.063   2.703  13.721  0.1483  0.7267 -0.1664
 4206SOL    HW124077   0.982   2.723  13.767  1.3332 -0.9010  2.6224
 4206SOL    HW224078   1.118   2.775  13.752  0.1326  0.0959  1.3461
 4207SOL     OW24079   3.822   4.557  17.071  0.6168 -0.1954 -0.1499
 4207SOL    HW124080   3.796   4.627  17.012  2.2152  2.2415  2.0372
 4207SOL    HW224081   3.895   4.597  17.119  1.0590  1.8231 -2.5017
 4208SOL     OW24082   2.839   0.486  12.311 -0.2197  0.4518  0.2711
 4208SOL    HW124083   2.871   0.497  12.400 -0.5688  1.5289  0.2657
 4208SOL    HW224084   2.766   0.427  12.328 -0.0041  0.0004 -0.3531
 4209SOL     OW24085   1.585   3.878   2.257 -0.4585 -0.0876  0.3356
 4209SOL    HW124086   1.634   3.845   2.332  1.2072  2.0824  0.1970
 4209SOL    HW224087   1.527   3.947   2.291 -0.6640 -0.1638  0.1426
 4210SOL     OW24088   4.388   3.155   0.457  0.2672 -0.6021 -0.3237
 4210SOL    HW124089   4.366   3.222   0.521 -0.7187 -1.2034 -0.0354
 4210SOL    HW224090   4.428   3.201   0.383 -1.5300 -0.3829 -1.1619
 4211SOL     OW24091   0.413   0.006   6.187  0.0402 -0.0610  1.0002
 4211SOL    HW124092   0.443   4.670   6.116  0.7156  0.6692  0.6956
 4211SOL    HW224093   0.363   4.659   6.232 -1.3594  0.3299  0.0509
 4212SOL     OW24094   2.833   4.164   5.250  0.3172 -0.1501 -0.1395
 4212SOL    HW124095   2.753   4.185   5.202  1.5769  2.6209 -0.9853
 4212SOL    HW224096   2.805   4.104   5.320  2.9176 -2.9465 -1.4841
 4213SOL     OW24097   3.400   4.273  12.094 -1.0033  0.4659  0.5294
 4213SOL    HW124098   3.389   4.293  12.002  2.9738 -2.4798 -0.5873
 4213SOL    HW224099   3.469   4.208  12.082 -1.8955 -0.4676  0.4285
 4214SOL     OW24100   2.001   3.452  14.518  0.9339  0.0731 -0.6852
 4214SOL    HW124101   1.949   3.466  14.439  0.3215  0.0225 -0.2934
 4214SOL    HW224102   2.079   3.504  14.498 -0.1258  2.2307  0.7890
 4215SOL     OW24103   4.057   2.383   5.615  0.0860  0.2167 -0.0685
 4215SOL    HW124104   4.083   2.413   5.702  0.6612  1.0490 -0.5318
 4215SOL    HW224105   3.963   2.396   5.632  0.1323 -1.7247  1.5729
 4216SOL     OW24106   2.854   4.388   3.342 -0.4493  0.1912 -0.2405
 4216SOL    HW124107   2.886   4.299   3.354 -2.1470 -0.7252 -2.5508
 4216SOL    HW224108   2.839   4.412   3.434  1.2621 -0.2785  0.1618
 4217SOL     OW24109   2.682   0.578  13.443  0.1765 -0.8671  0.0258
 4217SOL    HW124110   2.654   0.511  13.381  0.0034 -1.8679  1.1823
 4217SOL    HW224111   2.703   0.649  13.382 -1.3364  0.1991  0.7447
 4218SOL     OW24112   1.143   4.361   6.331  0.4785 -0.5421 -0.2778
 4218SOL    HW124113   1.234   4.355   6.301  0.7432 -1.0751  0.6550
 4218SOL    HW224114   1.148   4.356   6.426 -0.8165 -0.7746 -0.2147
 4219SOL     OW24115   0.649   0.935   7.788  0.1405  0.5672 -0.1485
 4219SOL    HW124116   0.668   0.922   7.881 -1.3693 -0.7322 -0.0161
 4219SOL    HW224117   0.652   0.847   7.751  2.4244 -0.1468  1.7376
 4220SOL     OW24118   4.360   1.079   8.282 -0.0534 -0.1095 -0.5737
 4220SOL    HW124119   4.274   1.047   8.257  0.7072 -0.7248 -2.3782
 4220SOL    HW224120   4.414   1.018   8.232 -1.4398 -1.8885  0.1093
 4221SOL     OW24121   4.514   0.343   8.523 -0.5696  0.3969 -0.0124
 4221SOL    HW124122   4.496   0.345   8.430 -0.7766 -1.6811 -0.0216
 4221SOL    HW224123   4.601   0.384   8.521 -0.6355  0.4566 -1.6540
 4222SOL     OW24124   1.407   3.128  11.138  0.1423 -0.3929  0.1868
 4222SOL    HW124125   1.340   3.177  11.185  1.2007  0.7797  0.4459
 4222SOL    HW224126   1.471   3.190  11.104  1.0330 -0.8478  1.0104
 4223SOL     OW24127   3.743   4.591  11.070 -0.5104 -1.1793  0.5174
 4223SOL    HW124128   3.833   4.613  11.043 -0.5589 -0.7873  0.6704
 4223SOL    HW224129   3.732   4.514  11.014  0.2272 -1.9989  1.5025
 4224SOL     OW24130   2.576   0.840   2.633 -0.0635 -0.1020  0.2348
 4224SOL    HW124131   2.568   0.870   2.723  0.6221  2.6705 -0.6127
 4224SOL    HW224132   2.594   0.922   2.586  2.2674  0.1677  1.6020
 4225SOL     OW24133   1.701   3.259   1.191  0.1113  0.1623 -0.0265
 4225SOL    HW124134   1.612   3.234   1.213 -0.2622 -1.4532 -3.4837
 4225SOL    HW224135   1.751   3.215   1.260 -0.5673 -0.0397  0.3296
 4226SOL     OW24136   0.591   2.097   6.493 -0.2061  0.4505 -0.8663
 4226SOL    HW124137   0.547   2.063   6.415  1.3084 -0.4050 -1.3473
 4226SOL    HW224138   0.549   2.049   6.564  2.2262  1.0267  0.9552
 4227SOL     OW24139   4.182   4.609   4.819  0.0823  0.3786  0.1413
 4227SOL    HW124140   4.220   4.691   4.788  0.5128  0.0680 -0.1587
 4227SOL    HW224141   4.149   4.576   4.735 -1.4026 -0.7457  1.1625
 4228SOL     OW24142   2.561   1.393   4.136  0.1286 -0.4431 -0.3902
 4228SOL    HW124143   2.571   1.342   4.216  0.0310  1.2007  0.6717
 4228SOL    HW224144   2.482   1.356   4.097 -0.2865 -1.4119  1.3777
 4229SOL     OW24145   0.737   1.341  10.900  0.3382 -0.3564 -0.4641
 4229SOL    HW124146   0.696   1.394  10.832 -0.0479 -1.3991 -1.0517
 4229SOL    HW224147   0.662   1.307  10.950  0.4741 -0.3081 -0.2258
 4230SOL     OW24148   3.794   2.450  13.541 -0.7880 -0.1241  0.0961
 4230SOL    HW124149   3.806   2.356  13.558  1.0280 -0.2900 -2.1206
 4230SOL    HW224150   3.709   2.462  13.500 -1.3170 -1.5266  0.7810
 4231SOL     OW24151   1.266   2.151  15.304 -0.5414  0.7512 -0.0238
 4231SOL    HW124152   1.195   2.103  15.261  0.8955  0.8194 -2.4941
 4231SOL    HW224153   1.312   2.087  15.358 -0.3629 -1.6999 -3.0822
 4232SOL     OW24154   3.985   3.611   1.846  0.0094  0.1746 -0.2711
 4232SOL    HW124155   4.043   3.613   1.770 -1.5927 -0.7096 -1.5175
 4232SOL    HW224156   3.976   3.704   1.867  2.5811  0.3074  0.2418
 4233SOL     OW24157   3.150   0.828   1.303 -0.1186 -0.0386 -0.7422
 4233SOL    HW124158   3.243   0.840   1.320 -0.4024  0.6007  0.3765
 4233SOL    HW224159   3.108   0.781   1.375  0.7377  1.5035  0.7553
 4234SOL     OW24160   0.223   0.967   6.218 -0.1461  0.1976  0.4443
 4234SOL    HW124161   0.212   0.996   6.309  0.8844 -1.0350  0.9660
 4234SOL    HW224162   0.179   1.031   6.162  1.4104  1.0627  0.2046
 4235SOL     OW24163   1.414   3.553   9.627 -0.2014  0.2366  0.5535
 4235SOL    HW124164   1.381   3.629   9.578 -0.2734 -1.1972 -1.6208
 4235SOL    HW224165   1.424   3.502   9.547 -1.5870 -1.4947  1.4855
 4236SOL     OW24166   0.408   0.911   9.947 -0.1268 -0.2516  0.3783
 4236SOL    HW124167   0.469   0.979   9.918 -0.6741  0.4119  0.7699
 4236SOL    HW224168   0.420   0.917  10.042 -0.0864 -0.3312  0.3786
 4237SOL     OW24169   3.181   1.555   2.068  0.7664 -0.0515 -0.0521
 4237SOL    HW124170   3.089   1.579   2.054  0.7734 -1.4497 -2.6036
 4237SOL    HW224171   3.200   1.525   1.979  0.4929 -0.5200  0.0496
 4238SOL     OW24172   0.027   0.979   8.693  0.0290  0.1029 -0.4132
 4238SOL    HW124173   4.692   0.916   8.739 -1.5104 -0.2362 -2.7612
 4238SOL    HW224174   4.686   0.991   8.621  0.0424 -0.5316 -0.5355
 4239SOL     OW24175   0.902   4.502   3.494  0.9593 -0.2731  0.4155
 4239SOL    HW124176   0.974   4.459   3.540  0.4677 -0.7800  0.7154
 4239SOL    HW224177   0.842   4.427   3.494  0.0114  0.4805  0.2121
 4240SOL     OW24178   1.253   3.389  14.549 -0.8619 -0.0968 -0.1759
 4240SOL    HW124179   1.346   3.390  14.571 -0.4405  0.8496 -1.9899
 4240SOL    HW224180   1.230   3.482  14.551  0.3261  0.1959  0.0059
 4241SOL     OW24181   2.699   0.593   1.925  0.3182  0.2003  0.3282
 4241SOL    HW124182   2.704   0.612   1.831 -1.5084  1.8767  0.5589
 4241SOL    HW224183   2.613   0.550   1.919 -0.0393  0.6610  2.1634
 4242SOL     OW24184   1.312   0.611   7.189 -0.2031  0.0168  0.6119
 4242SOL    HW124185   1.385   0.584   7.133 -0.4413  0.3912  0.1253
 4242SOL    HW224186   1.273   0.541   7.241 -2.4789 -1.2066 -2.7295
 4243SOL     OW24187   2.903   2.181   7.710  0.4675  0.8231  0.2275
 4243SOL    HW124188   2.863   2.101   7.676  0.2304  0.8922  0.3372
 4243SOL    HW224189   2.952   2.152   7.787  0.6761  1.3552  0.2922
 4244SOL     OW24190   3.586   3.195   2.370  0.1315  0.1128  0.0973
 4244SOL    HW124191   3.521   3.130   2.345  1.3961 -0.7737 -0.9579
 4244SOL    HW224192   3.629   3.149   2.442 -0.2756  1.3536  1.1217
 4245SOL     OW24193   2.330   4.076   6.500  0.0517 -0.2351  0.1347
 4245SOL    HW124194   2.255   4.124   6.466  0.5313  0.9431  0.7551
 4245SOL    HW224195   2.335   4.001   6.441  1.3592  0.7634 -1.0278
 4246SOL     OW24196   2.545   1.225  12.656  0.3524 -0.0963 -0.5862
 4246SOL    HW124197   2.529   1.191  12.568 -2.5949  1.1714 -0.5433
 4246SOL    HW224198   2.462   1.220  12.705  0.7229  0.2414  0.0742
 4247SOL     OW24199   2.928   3.956   5.623  0.0411 -0.3690  0.5904
 4247SOL    HW124200   2.861   3.907   5.670 -0.3632  1.5375  1.9657
 4247SOL    HW224201   2.936   3.891   5.553 -0.7818 -0.6517  0.7622
 4248SOL     OW24202   2.067   3.652   6.759 -0.1003  0.0536 -0.4395
 4248SOL    HW124203   1.993   3.616   6.710 -1.8395 -0.0734  2.2496
 4248SOL    HW224204   2.114   3.709   6.699 -0.7482  0.4333 -0.5783
 4249SOL     OW24205   4.414   2.433   9.181  0.5891 -0.3208 -0.0208
 4249SOL    HW124206   4.369   2.470   9.105 -0.0374  2.9553  1.9492
 4249SOL    HW224207   4.459   2.509   9.218  0.0084  0.0030  0.0130
 4250SOL     OW24208   1.779   2.388   9.165  0.0598 -0.1629 -0.1930
 4250SOL    HW124209   1.861   2.424   9.131  0.2606  0.4478  0.9334
 4250SOL    HW224210   1.827   2.336   9.229 -0.6182  0.9693  1.2214
 4251SOL     OW24211   1.881   2.436  12.396  0.1007 -0.0663 -0.2706
 4251SOL    HW124212   1.855   2.467  12.310  1.7213 -3.0679 -1.8314
 4251SOL    HW224213   1.968   2.474  12.401 -0.4300  1.5410 -3.2154
 4252SOL     OW24214   0.684   3.314   1.856 -0.3694  0.4448 -0.8880
 4252SOL    HW124215   0.758   3.260   1.827 -1.1549 -0.4905 -1.1634
 4252SOL    HW224216   0.717   3.402   1.838 -1.4087  0.3809 -3.0803
 4253SOL     OW24217   1.953   2.694   5.481  0.4495  0.6564  0.4060
 4253SOL    HW124218   2.006   2.771   5.463  0.7745  0.5564  0.9549
 4253SOL    HW224219   1.904   2.730   5.556 -1.4414  0.2924 -0.6449
 4254SOL     OW24220   4.604   0.797   8.914  0.5396 -0.4409  0.3574
 4254SOL    HW124221   4.562   0.714   8.937 -2.2218  0.1763 -2.4883
 4254SOL    HW224222   4.682   0.761   8.873  0.7365  2.5680 -1.8944
 4255SOL     OW24223   3.509   4.124   4.421 -0.6520 -0.2051 -0.2059
 4255SOL    HW124224   3.443   4.134   4.352 -0.5861 -0.6632 -0.3346
 4255SOL    HW224225   3.480   4.037   4.449  1.0604 -0.9833 -0.8219
 4256SOL     OW24226   0.218   0.668   5.031  0.1368  0.2527  0.1298
 4256SOL    HW124227   0.244   0.627   5.113  1.0230  0.4755 -0.0413
 4256SOL    HW224228   0.125   0.652   5.044  0.7233 -1.6266  2.0189
 4257SOL     OW24229   0.056   4.026   8.190 -0.2261 -0.5528  0.2492
 4257SOL    HW124230   4.707   4.063   8.243  1.0092  2.6147 -0.3660
 4257SOL    HW224231   0.079   4.105   8.141 -1.1358 -0.2692  0.2829
 4258SOL     OW24232   1.195   0.457   5.801  0.5116 -0.6402 -0.0226
 4258SOL    HW124233   1.270   0.414   5.842  1.8189  0.1984 -1.5354
 4258SOL    HW224234   1.179   0.391   5.733 -0.3706 -1.3975  0.9012
 4259SOL     OW24235   4.171   3.390   7.297 -0.4154 -0.0596  0.3365
 4259SOL    HW124236   4.126   3.471   7.321 -1.4284  0.1728 -2.4330
 4259SOL    HW224237   4.237   3.421   7.235  0.3225 -0.1222  1.0811
 4260SOL     OW24238   0.055   2.336   6.092 -0.1049  0.1331 -0.0308
 4260SOL    HW124239   0.012   2.340   6.006 -1.5073 -0.2766  0.6572
 4260SOL    HW224240   0.143   2.369   6.071 -0.6924  0.8504 -1.3894
 4261SOL     OW24241   1.087   1.645   7.483  0.2061 -0.2703 -0.3343
 4261SOL    HW124242   1.156   1.708   7.465 -1.5609  1.5413 -0.7163
 4261SOL    HW224243   1.075   1.608   7.396 -1.8259  0.7511 -0.4892
 4262SOL     OW24244   3.588   4.589   7.938  0.4384 -0.4812  0.2065
 4262SOL    HW124245   3.569   4.643   7.861 -2.3222 -0.4648  0.9163
 4262SOL    HW224246   3.619   4.661   7.992  1.2167  0.0624 -0.9652
 4263SOL     OW24247   3.347   4.408   8.718  0.5138  0.6254  0.4255
 4263SOL    HW124248   3.361   4.313   8.715  0.2777  0.5634  1.2784
 4263SOL    HW224249   3.260   4.419   8.756  0.2749 -1.3878  0.4964
 4264SOL     OW24250   0.339   2.882   0.136  0.0335  0.6342  0.5931
 4264SOL    HW124251   0.396   2.808   0.154  0.0378 -0.1737 -2.7940
 4264SOL    HW224252   0.324   2.871   0.043 -0.2533  2.7531  0.3823
 4265SOL     OW24253   0.302   2.681   6.820 -0.1715 -0.3803 -0.2579
 4265SOL    HW124254   0.207   2.674   6.834 -0.0664  1.9509  1.5858
 4265SOL    HW224255   0.319   2.753   6.759 -0.4662 -1.1540 -1.2566
 4266SOL     OW24256   0.607   2.076   7.239  0.7303  0.1542  0.2595
 4266SOL    HW124257   0.596   2.156   7.290 -0.2526  0.7756 -0.9188
 4266SOL    HW224258   0.570   2.015   7.302 -1.6515 -0.3642 -1.6113
 4267SOL     OW24259   4.246   2.056   5.443  0.0918  0.6877 -0.6251
 4267SOL    HW124260   4.277   2.000   5.373  0.1095  0.6511 -0.5881
 4267SOL    HW224261   4.193   1.992   5.489  2.1513 -0.4544  0.1654
 4268SOL     OW24262   3.045   3.863  11.530 -0.3949  0.1969  0.3985
 4268SOL    HW124263   3.037   3.939  11.588 -0.2787 -0.7885  1.6968
 4268SOL    HW224264   3.107   3.891  11.463 -2.1471  0.8469 -0.9639
 4269SOL     OW24265   3.480   2.570   2.924 -0.0908  0.0387  0.3430
 4269SOL    HW124266   3.411   2.597   2.985  0.3799  2.2571 -0.1159
 4269SOL    HW224267   3.551   2.609   2.976 -0.1896  0.8697 -0.1579
 4270SOL     OW24268   4.115   0.916   4.805  0.4061 -0.7898 -0.2821
 4270SOL    HW124269   4.107   0.978   4.732  0.4264  0.0698  0.4501
 4270SOL    HW224270   4.024   0.887   4.813  0.6196 -0.9886  1.4254
 4271SOL     OW24271   2.461   3.151  15.247 -0.1692 -0.6246 -0.1897
 4271SOL    HW124272   2.482   3.243  15.235 -2.2724 -0.4921 -2.9928
 4271SOL    HW224273   2.365   3.148  15.244 -0.2793  2.6235 -0.0500
 4272SOL     OW24274   4.356   2.054  15.640 -0.0178  0.0779 -0.0127
 4272SOL    HW124275   4.449   2.075  15.633 -0.3644  1.7717  0.4664
 4272SOL    HW224276   4.356   2.004  15.559  1.0208 -0.0932  0.1007
 4273SOL     OW24277   4.419   3.235   5.061  0.2241 -0.1566  0.1150
 4273SOL    HW124278   4.467   3.163   5.101 -1.1105 -0.8282  0.5324
 4273SOL    HW224279   4.381   3.196   4.981  1.4706 -0.3464 -0.3835
 4274SOL     OW24280   3.228   1.411   4.984 -0.5666 -0.1014  0.2368
 4274SOL    HW124281   3.197   1.501   4.996 -0.4072 -0.2052  1.4222
 4274SOL    HW224282   3.177   1.385   4.907  0.5813 -0.7904 -0.2914
 4275SOL     OW24283   3.942   3.874   7.015 -0.2155  0.4035 -0.5495
 4275SOL    HW124284   3.924   3.907   7.103 -1.5344 -2.5983  0.2979
 4275SOL    HW224285   4.037   3.877   7.024 -0.3316  2.7818 -0.0962
 4276SOL     OW24286   4.343   1.174   5.487 -0.1253 -0.5332  0.0825
 4276SOL    HW124287   4.391   1.252   5.461  1.9930 -1.7516  0.2747
 4276SOL    HW224288   4.251   1.199   5.484  0.2760  0.9053  0.1790
 4277SOL     OW24289   1.354   3.980   3.488  0.2986  0.2455  0.1707
 4277SOL    HW124290   1.375   4.044   3.555  2.0883 -1.1582  0.9565
 4277SOL    HW224291   1.258   3.974   3.491  0.2481  0.1585 -1.3384
 4278SOL     OW24292   2.713   4.199   9.229 -0.0252  0.4134  0.4295
 4278SOL    HW124293   2.686   4.192   9.137  0.0279  1.1162  0.3627
 4278SOL    HW224294   2.767   4.278   9.226 -0.5334  0.8087  1.4980
 4279SOL     OW24295   4.457   4.639  13.526  0.1773 -0.3319  0.4982
 4279SOL    HW124296   4.419   4.665  13.610  2.0951 -1.3558  1.6935
 4279SOL    HW224297   4.459   4.712  13.464  2.7599 -0.6677  0.1768
 4280SOL     OW24298   1.994   0.978   3.729 -0.3001 -0.7844 -0.0923
 4280SOL    HW124299   2.089   0.984   3.737 -0.5182  1.6909  0.6464
 4280SOL    HW224300   1.966   1.068   3.747 -0.1727 -0.5312 -1.1778
 4281SOL     OW24301   2.678   0.780  14.804 -0.0263 -0.2198 -0.7527
 4281SOL    HW124302   2.592   0.773  14.846  0.5094  0.5314  0.4570
 4281SOL    HW224303   2.690   0.693  14.767  5.0835 -0.4318  1.5042
 4282SOL     OW24304   3.081   1.037   3.829  0.2320  0.4470 -0.7687
 4282SOL    HW124305   3.165   1.073   3.857 -0.4788 -0.5853  2.7140
 4282SOL    HW224306   3.094   1.050   3.735 -1.1025  1.2985 -0.8247
 4283SOL     OW24307   1.327   3.647   9.245 -0.4665 -0.2396 -1.3479
 4283SOL    HW124308   1.338   3.742   9.248  0.3384 -0.3729  0.0670
 4283SOL    HW224309   1.233   3.633   9.238 -0.7510  0.5952  0.9362
 4284SOL     OW24310   1.195   0.929   6.280 -0.2017 -0.0130 -0.1566
 4284SOL    HW124311   1.188   0.980   6.200 -2.5624 -0.8297 -0.4661
 4284SOL    HW224312   1.144   0.985   6.338 -0.1572 -1.9372  1.7514
 4285SOL     OW24313   0.325   0.051   5.488 -0.0460  0.5711 -0.4907
 4285SOL    HW124314   0.295   0.085   5.403  0.3774  2.2348  0.0313
 4285SOL    HW224315   0.255   4.711   5.511  1.7179 -1.3689 -0.2789
 4286SOL     OW24316   3.562   3.368   9.455 -0.4201  0.5649  0.3556
 4286SOL    HW124317   3.476   3.401   9.481 -1.6611 -0.9207 -1.8810
 4286SOL    HW224318   3.610   3.368   9.538  0.6559 -0.2063 -0.2665
 4287SOL     OW24319   0.840   0.072   9.750 -0.0451 -0.3076  0.1355
 4287SOL    HW124320   0.933   0.091   9.756  0.0661 -1.2938  1.5996
 4287SOL    HW224321   0.836   0.040   9.660 -0.7621 -1.4402  0.5635
 4288SOL     OW24322   2.854   2.660   8.505 -0.2940  0.2396  0.2129
 4288SOL    HW124323   2.935   2.653   8.554 -0.6103  0.9542  0.8374
 4288SOL    HW224324   2.838   2.751   8.479  0.5817 -0.1067 -1.4914
 4289SOL     OW24325   3.194   1.365  16.694 -0.3732 -0.1858  0.9519
 4289SOL    HW124326   3.287   1.376  16.675 -0.1592 -2.5757  0.5186
 4289SOL    HW224327   3.179   1.274  16.722  3.5529 -0.5849  1.7836
 4290SOL     OW24328   4.676   2.022   9.054  0.2500  0.3077  0.0771
 4290SOL    HW124329   4.647   2.085   9.120 -0.4937 -0.4871  0.5041
 4290SOL    HW224330   0.039   1.996   9.090 -0.3843  0.1520  1.4133
 4291SOL     OW24331   0.118   3.969  12.617  0.0449  0.3012 -0.1947
 4291SOL    HW124332   0.038   3.980  12.565 -0.1632  0.2873  0.1206
 4291SOL    HW224333   0.134   4.057  12.649 -3.7969  1.1326 -0.4693
 4292SOL     OW24334   0.256   3.192   0.907 -0.3838  0.2948  0.0325
 4292SOL    HW124335   0.323   3.191   0.839 -1.0743 -0.6700 -0.6418
 4292SOL    HW224336   0.295   3.133   0.971 -1.7379 -0.1404  0.4695
 4293SOL     OW24337   3.710   2.307   3.732  0.1286  0.0742  0.4017
 4293SOL    HW124338   3.664   2.272   3.808 -1.1790 -1.8487 -1.2846
 4293SOL    HW224339   3.792   2.257   3.731  0.4177  0.5944 -2.2459
 4294SOL     OW24340   0.987   0.077   4.560  0.1524  0.3003  0.0770
 4294SOL    HW124341   0.990   4.705   4.585 -0.3792 -0.0871 -1.3063
 4294SOL    HW224342   1.035   0.121   4.630  3.4156 -1.0561 -1.2691
 4295SOL     OW24343   3.786   3.927   6.068 -0.5666  0.1215 -0.4301
 4295SOL    HW124344   3.771   3.849   6.014  0.0698 -2.1448  2.6467
 4295SOL    HW224345   3.785   3.873   6.147 -1.1548 -0.0515 -0.5585
 4296SOL     OW24346   3.322   0.540   9.066  0.0446 -0.2086 -0.0658
 4296SOL    HW124347   3.267   0.610   9.033  0.0934  0.1957  0.7135
 4296SOL    HW224348   3.256   0.494   9.118  1.7044 -2.9759 -0.3396
 4297SOL     OW24349   0.288   0.587  13.515  0.8725 -0.2538 -0.8791
 4297SOL    HW124350   0.286   0.588  13.610  0.2328 -0.9896 -0.8835
 4297SOL    HW224351   0.199   0.569  13.485  0.2861  1.7217 -0.3156
 4298SOL     OW24352   1.758   0.438   6.356 -0.1644  0.2150 -0.3551
 4298SOL    HW124353   1.781   0.455   6.448 -1.0578 -0.1639 -0.0645
 4298SOL    HW224354   1.687   0.375   6.369  0.5417 -0.5397 -0.0735
 4299SOL     OW24355   1.051   0.210   8.340  0.4071  0.9046  0.7163
 4299SOL    HW124356   0.981   0.170   8.391  0.3964 -1.3386 -1.0521
 4299SOL    HW224357   1.125   0.158   8.372  0.5403  0.9390  0.4579
 4300SOL     OW24358   1.760   0.650   4.645  0.2866 -0.2088 -0.0033
 4300SOL    HW124359   1.671   0.642   4.681 -0.1012  0.4498 -0.8303
 4300SOL    HW224360   1.816   0.662   4.722 -0.0423 -0.3767  0.2635
 4301SOL     OW24361   1.361   2.684  14.157  0.2789  0.1136 -0.2162
 4301SOL    HW124362   1.387   2.723  14.074 -0.9591 -0.4670 -0.8782
 4301SOL    HW224363   1.285   2.635  14.126  0.0121  0.1143  0.4255
 4302SOL     OW24364   2.918   1.075   2.016  0.3516 -0.2748  0.1341
 4302SOL    HW124365   3.013   1.066   2.009  0.0840 -1.7578 -1.5498
 4302SOL    HW224366   2.889   0.985   2.024  0.6736 -0.5324 -1.4776
 4303SOL     OW24367   3.150   2.162   0.732  0.5971  0.0874 -0.6864
 4303SOL    HW124368   3.113   2.159   0.821  0.7167 -2.0913 -0.7151
 4303SOL    HW224369   3.245   2.153   0.737  0.4645 -2.1870 -2.4229
 4304SOL     OW24370   0.847   2.375   1.666 -0.0151 -0.2905  0.1598
 4304SOL    HW124371   0.825   2.385   1.573 -2.6785 -1.6253  0.6581
 4304SOL    HW224372   0.814   2.458   1.699  0.9649 -0.2365  1.0035
 4305SOL     OW24373   4.395   3.810   2.935  0.6912 -0.9626 -0.0696
 4305SOL    HW124374   4.429   3.811   2.846  0.0832  3.1742 -0.2632
 4305SOL    HW224375   4.398   3.904   2.953  0.7485 -1.0072  0.1568
 4306SOL     OW24376   4.029   3.916   6.661  0.5505  0.0547 -0.3841
 4306SOL    HW124377   4.056   3.825   6.653 -0.5895 -0.1946 -1.3439
 4306SOL    HW224378   3.934   3.915   6.656  0.4772 -2.4926  1.3398
 4307SOL     OW24379   1.714   3.971  13.760 -0.1122 -0.4991 -0.3130
 4307SOL    HW124380   1.628   4.001  13.730  0.0259  1.3995  1.1795
 4307SOL    HW224381   1.740   4.056  13.795  0.3456 -1.1434  0.9391
 4308SOL     OW24382   0.321   3.813  15.563  0.2637  0.1731 -0.1445
 4308SOL    HW124383   0.402   3.808  15.513 -0.7349  0.4679 -1.8118
 4308SOL    HW224384   0.311   3.720  15.582  2.2383  0.2000  0.9418
 4309SOL     OW24385   2.730   1.916  10.329  0.0286 -0.2769 -0.2955
 4309SOL    HW124386   2.774   1.838  10.363 -0.7666 -0.6177 -0.0636
 4309SOL    HW224387   2.806   1.973  10.315 -1.6229  1.7824 -0.7482
 4310SOL     OW24388   4.651   3.443   6.934 -0.0834  0.1025  0.0295
 4310SOL    HW124389   4.615   3.374   6.878 -0.3257 -1.5525  2.2439
 4310SOL    HW224390   4.713   3.488   6.877  1.7432 -0.2516  1.7311
 4311SOL     OW24391   3.188   0.377   8.597 -0.4183  0.5025  0.8305
 4311SOL    HW124392   3.194   0.289   8.559  0.3403  0.4770  0.9996
 4311SOL    HW224393   3.269   0.414   8.561  0.1560 -2.4310 -0.8820
 4312SOL     OW24394   1.553   4.455   2.888  0.0861  0.4921 -0.8342
 4312SOL    HW124395   1.483   4.493   2.942  0.6703 -0.8670  0.8852
 4312SOL    HW224396   1.621   4.522   2.896 -0.6350  1.1619 -0.3136
 4313SOL     OW24397   0.933   0.401  10.717 -0.0234 -0.8644  0.3260
 4313SOL    HW124398   0.959   0.474  10.774  1.0224 -1.6593  0.8574
 4313SOL    HW224399   1.012   0.359  10.684  1.3988  0.4868  1.9865
 4314SOL     OW24400   1.167   0.273  10.629 -0.1150 -0.0696  0.2466
 4314SOL    HW124401   1.161   0.217  10.706  5.0458 -0.9562  0.0218
 4314SOL    HW224402   1.131   0.214  10.564 -1.2614  0.9160 -0.0238
 4315SOL     OW24403   2.962   1.861   7.795 -0.0858 -0.2750  0.0942
 4315SOL    HW124404   2.932   1.771   7.798  2.1062 -1.0493 -1.0117
 4315SOL    HW224405   3.046   1.850   7.750 -1.2480 -2.1439 -1.6006
 4316SOL     OW24406   3.205   4.135  11.042  0.2411 -0.2772 -0.7477
 4316SOL    HW124407   3.223   4.088  11.122  2.3858  0.5126 -0.7810
 4316SOL    HW224408   3.257   4.215  11.046  0.5913 -0.3959 -2.5820
 4317SOL     OW24409   0.615   3.860   9.539 -0.4216  0.2039 -0.4236
 4317SOL    HW124410   0.663   3.819   9.611 -1.2440  1.4904  0.8605
 4317SOL    HW224411   0.682   3.920   9.506  1.2813 -2.2272 -1.3304
 4318SOL     OW24412   2.375   3.570   7.350 -0.4018  0.1171 -0.0012
 4318SOL    HW124413   2.297   3.615   7.318  0.2426  0.7870 -0.6486
 4318SOL    HW224414   2.429   3.589   7.273  0.1707 -1.2941  0.0417
 4319SOL     OW24415   3.087   0.275   6.843  0.2809 -0.1817 -0.7216
 4319SOL    HW124416   3.015   0.249   6.786 -0.4115  2.0193 -0.8173
 4319SOL    HW224417   3.096   0.368   6.827  4.1640 -0.2886  0.8271
 4320SOL     OW24418   0.025   0.686  14.588  0.6835  0.3892  0.7079
 4320SOL    HW124419   0.053   0.728  14.506 -0.2818 -0.3835 -0.0175
 4320SOL    HW224420   0.113   0.673  14.624  0.3351 -0.5037  1.2282
 4321SOL     OW24421   2.226   1.288   4.650  0.2704 -0.1762  0.2055
 4321SOL    HW124422   2.170   1.347   4.600  0.2375 -1.5002 -1.3220
 4321SOL    HW224423   2.266   1.238   4.579 -0.2982 -0.8887  0.3939
 4322SOL     OW24424   4.484   3.469   9.558  0.3763 -0.1705 -0.2212
 4322SOL    HW124425   4.496   3.376   9.579 -0.6371 -0.3966 -0.6395
 4322SOL    HW224426   4.453   3.467   9.468  0.7018 -2.1492 -0.3056
 4323SOL     OW24427   4.595   4.486   4.552 -0.1889  0.2176  0.2779
 4323SOL    HW124428   4.596   4.581   4.542  0.0535  0.1166 -0.6761
 4323SOL    HW224429   4.566   4.476   4.643  0.5498  2.4943  0.7583
 4324SOL     OW24430   3.388   1.263   7.260  0.3956 -0.1268 -0.6410
 4324SOL    HW124431   3.306   1.235   7.221  0.6258  1.7184 -2.4498
 4324SOL    HW224432   3.368   1.357   7.258  0.4610 -0.1048 -0.1762
 4325SOL     OW24433   4.619   1.965   9.826  0.0368 -0.5238  0.6134
 4325SOL    HW124434   4.703   1.933   9.796  0.7443  0.4971  1.4980
 4325SOL    HW224435   4.647   1.970   9.918  0.5851 -2.5117  0.5419
 4326SOL     OW24436   1.649   1.240   9.029  0.3895 -0.2278 -0.6410
 4326SOL    HW124437   1.623   1.311   9.087  0.2359 -0.2954 -0.6275
 4326SOL    HW224438   1.697   1.293   8.965  0.2954  0.4505 -0.1509
 4327SOL     OW24439   2.499   4.334   0.868 -0.0682 -0.7004 -0.3912
 4327SOL    HW124440   2.518   4.250   0.826 -1.4773 -1.1758 -0.1036
 4327SOL    HW224441   2.545   4.394   0.810 -0.7889 -0.7615 -1.0379
 4328SOL     OW24442   2.748   4.577  13.382 -0.7600  0.0484  0.5429
 4328SOL    HW124443   2.758   4.504  13.444  0.7458 -0.2460 -0.0537
 4328SOL    HW224444   2.833   4.590  13.341 -1.6073  0.8461 -0.9441
 4329SOL     OW24445   0.238   1.017   6.999 -0.2870 -0.3844  0.2463
 4329SOL    HW124446   0.160   1.033   6.946 -1.2233 -2.3227  1.0489
 4329SOL    HW224447   0.280   1.102   7.003 -3.2201  1.0582  0.0713
 4330SOL     OW24448   1.758   1.299   9.324 -0.2819  0.1254 -0.3642
 4330SOL    HW124449   1.699   1.355   9.273  1.3194  1.6019 -0.6048
 4330SOL    HW224450   1.782   1.361   9.393  1.5516 -0.9794 -0.0320
 4331SOL     OW24451   3.880   3.479   2.924  0.2766  0.2527  0.1257
 4331SOL    HW124452   3.818   3.501   2.993 -0.9644 -0.1962 -0.8569
 4331SOL    HW224453   3.966   3.501   2.959  1.3647 -2.8704 -0.4880
 4332SOL     OW24454   4.521   2.475  16.100  0.1704  0.5112 -0.5980
 4332SOL    HW124455   4.509   2.567  16.075 -0.9474  0.7343  0.7908
 4332SOL    HW224456   4.589   2.446  16.040 -0.6507  0.0464 -1.2988
 4333SOL     OW24457   1.957   0.045   4.789  0.1162 -0.1591  0.6660
 4333SOL    HW124458   1.928   0.091   4.710  0.9043 -1.9194 -0.6485
 4333SOL    HW224459   1.915   0.094   4.860 -0.9487 -1.4892  0.9537
 4334SOL     OW24460   2.962   2.462  15.045  0.3839  0.0276 -0.5129
 4334SOL    HW124461   3.021   2.504  14.982  3.1109 -1.3809  1.0771
 4334SOL    HW224462   2.947   2.530  15.112 -0.1624  0.1577 -0.7720
 4335SOL     OW24463   3.732   4.432  10.549  0.0304 -0.6449  0.0964
 4335SOL    HW124464   3.777   4.382  10.482  0.0190 -0.5345  0.0072
 4335SOL    HW224465   3.699   4.508  10.501  3.3168  0.1362 -0.9200
 4336SOL     OW24466   2.035   4.059   4.893 -0.5361  0.6018  0.2141
 4336SOL    HW124467   2.021   4.069   4.987  0.2035 -0.3182  0.4227
 4336SOL    HW224468   2.009   4.144   4.857 -0.9769  0.6660  0.6748
 4337SOL     OW24469   3.701   2.825  11.738 -0.0975  0.5309 -0.8339
 4337SOL    HW124470   3.629   2.850  11.795 -1.2241 -1.7698 -1.2782
 4337SOL    HW224471   3.693   2.898  11.676 -1.0296  1.2233  0.0954
 4338SOL     OW24472   0.739   1.664  17.549 -0.0280 -0.2071  0.3060
 4338SOL    HW124473   0.733   1.635  17.640 -1.4860 -1.5766 -0.2244
 4338SOL    HW224474   0.649   1.678  17.518 -0.2438 -2.0951  0.0791
 4339SOL     OW24475   1.854   0.921   0.549  0.0425 -0.2433  0.2137
 4339SOL    HW124476   1.936   0.967   0.565 -0.2137  0.9975 -2.0206
 4339SOL    HW224477   1.883   0.860   0.481 -0.4047  2.3207 -2.2597
 4340SOL     OW24478   0.581   0.121  12.774  0.5433 -0.1204  0.2344
 4340SOL    HW124479   0.632   0.177  12.716 -1.1775  0.8593 -0.3078
 4340SOL    HW224480   0.493   0.141  12.742  0.3194 -1.7660 -0.1663
 4341SOL     OW24481   1.629   3.977   9.053  0.1130 -0.2903 -0.0584
 4341SOL    HW124482   1.641   3.937   8.967  0.9998 -1.0140  0.4070
 4341SOL    HW224483   1.707   3.961   9.106  0.2876  2.8577  0.6522
 4342SOL     OW24484   3.222   2.744   2.017  0.4947 -0.0577  0.3607
 4342SOL    HW124485   3.262   2.795   1.946  0.7833 -1.0318 -0.1804
 4342SOL    HW224486   3.291   2.747   2.083  0.1583  0.4956  0.6869
 4343SOL     OW24487   0.924   3.934   6.124  0.1454 -0.2385 -0.1025
 4343SOL    HW124488   0.881   3.980   6.052 -1.0671  0.7267  1.2389
 4343SOL    HW224489   0.892   3.988   6.197  3.5931  2.8556 -0.8864
 4344SOL     OW24490   2.532   0.147  13.104  0.1622  0.3739 -0.4704
 4344SOL    HW124491   2.534   0.053  13.122 -1.0604  0.2845 -0.8132
 4344SOL    HW224492   2.608   0.154  13.047  0.3783 -3.6181 -0.6369
 4345SOL     OW24493   3.614   3.795  16.148  0.1450 -0.1444 -0.1314
 4345SOL    HW124494   3.636   3.762  16.235 -1.4692  0.8106  0.6434
 4345SOL    HW224495   3.663   3.875  16.135  1.2232 -0.8425 -0.3179
 4346SOL     OW24496   2.183   4.184  15.809 -0.1064 -0.2746 -0.1744
 4346SOL    HW124497   2.115   4.137  15.858  1.2123 -3.0288 -1.0294
 4346SOL    HW224498   2.232   4.222  15.882  1.0582  1.2266 -1.7460
 4347SOL     OW24499   4.340   1.041  10.717  0.3783  0.0378  0.4689
 4347SOL    HW124500   4.317   0.960  10.763 -0.2941  0.3689  0.7008
 4347SOL    HW224501   4.307   1.107  10.778 -0.7839 -1.5441  1.5891
 4348SOL     OW24502   4.390   2.262   0.863 -0.3739 -0.6152  0.3493
 4348SOL    HW124503   4.315   2.237   0.808 -0.4408 -0.0411  0.1839
 4348SOL    HW224504   4.402   2.184   0.918 -0.6167  0.2720  1.6567
 4349SOL     OW24505   1.723   4.157   4.894 -0.3999  0.0487 -0.5170
 4349SOL    HW124506   1.701   4.181   4.984  2.4120  3.0962 -0.6585
 4349SOL    HW224507   1.791   4.218   4.865  0.9702 -2.0516 -1.7711
 4350SOL     OW24508   1.506   0.285   5.500  0.2025  0.6672 -0.7484
 4350SOL    HW124509   1.584   0.329   5.467  0.8350  0.6288  0.7141
 4350SOL    HW224510   1.525   0.305   5.591 -0.4099  4.0449 -1.3444
 4351SOL     OW24511   2.933   0.312  14.035  0.0490 -0.3289 -0.0428
 4351SOL    HW124512   2.908   0.341  13.947 -0.5935  0.3973  0.3844
 4351SOL    HW224513   2.973   0.226  14.025 -0.1223 -0.3434 -0.6102
 4352SOL     OW24514   3.096   0.712   4.160  0.3719 -0.1959 -0.6207
 4352SOL    HW124515   3.106   0.692   4.067  0.3039  2.6387 -1.2585
 4352SOL    HW224516   3.178   0.762   4.164 -0.5455  1.3024 -0.5594
 4353SOL     OW24517   3.623   0.522  10.712  0.2882  0.0368  0.7093
 4353SOL    HW124518   3.613   0.600  10.767  2.1088  0.7013  0.1097
 4353SOL    HW224519   3.610   0.449  10.772 -0.3548  0.1350  0.6860
 4354SOL     OW24520   3.046   3.694   9.151 -0.2543  0.0421 -0.4258
 4354SOL    HW124521   3.014   3.738   9.072  0.3870  2.2812  0.5666
 4354SOL    HW224522   3.114   3.639   9.113  0.1846  0.8838 -0.8730
 4355SOL     OW24523   2.588   1.263   7.017  0.1624 -0.0867  0.0862
 4355SOL    HW124524   2.569   1.272   6.923 -0.6411  1.1594  0.3819
 4355SOL    HW224525   2.680   1.234   7.021  0.4770  0.6025 -2.2804
 4356SOL     OW24526   4.715   2.476   4.783  0.0725  0.2140 -0.8539
 4356SOL    HW124527   4.711   2.492   4.689  1.1039  2.6867 -0.4765
 4356SOL    HW224528   0.088   2.457   4.785  0.4054  2.3017  3.0961
 4357SOL     OW24529   2.919   2.216   3.893  0.0444 -0.0136  0.9201
 4357SOL    HW124530   3.012   2.199   3.908  0.3456  0.6492 -0.2138
 4357SOL    HW224531   2.904   2.301   3.934 -0.8208  0.6260 -0.7107
 4358SOL     OW24532   3.348   2.590   6.707 -0.2794  0.0602 -0.7880
 4358SOL    HW124533   3.417   2.579   6.773 -1.3441  0.8179  0.4656
 4358SOL    HW224534   3.268   2.589   6.760  0.6908 -1.0771  0.6660
 4359SOL     OW24535   2.561   2.186   4.775  0.0120 -0.5208 -0.2103
 4359SOL    HW124536   2.516   2.264   4.744 -1.1270 -0.9481  0.3814
 4359SOL    HW224537   2.500   2.166   4.845  0.5817 -0.4587  0.3081
 4360SOL     OW24538   2.035   0.710   8.170 -0.0695  0.0659  0.5815
 4360SOL    HW124539   2.019   0.773   8.240  1.7160  0.5240  0.5755
 4360SOL    HW224540   2.072   0.641   8.225 -3.1360 -2.4001 -0.4192
 4361SOL     OW24541   1.688   3.440  16.198 -0.2114 -0.3210  0.0328
 4361SOL    HW124542   1.613   3.500  16.194 -1.1285 -1.5397 -1.1618
 4361SOL    HW224543   1.648   3.354  16.185 -2.6425  0.2687  3.6262
 4362SOL     OW24544   0.392   1.950   7.751 -0.6643 -0.6366  0.1167
 4362SOL    HW124545   0.296   1.943   7.747 -0.7382  0.3785  0.2928
 4362SOL    HW224546   0.408   1.865   7.792 -1.5652 -0.4903  0.7670
 4363SOL     OW24547   2.893   2.115   5.219 -0.7628 -0.1372  0.4761
 4363SOL    HW124548   2.869   2.098   5.310 -0.9624  3.0233  0.9820
 4363SOL    HW224549   2.810   2.122   5.171 -0.2562  3.4767  0.1447
 4364SOL     OW24550   1.110   4.107   5.538  0.2187 -0.3374 -0.2614
 4364SOL    HW124551   1.152   4.072   5.459  1.6360 -0.3615  0.5154
 4364SOL    HW224552   1.188   4.150   5.572 -0.2952  0.9398 -0.6923
 4365SOL     OW24553   0.984   0.995  11.386  0.3362  0.7335  0.0843
 4365SOL    HW124554   0.905   1.024  11.340 -0.4716 -2.1265 -0.3349
 4365SOL    HW224555   0.947   0.969  11.470  0.8216  0.0867  0.0957
 4366SOL     OW24556   0.147   1.521   4.897  0.1134  0.1613 -0.0386
 4366SOL    HW124557   0.103   1.466   4.833 -0.4825  1.3409 -0.6261
 4366SOL    HW224558   0.185   1.448   4.946 -2.5908 -0.2337  1.4278
 4367SOL     OW24559   1.517   2.382   0.991  0.2532  1.3345  0.0539
 4367SOL    HW124560   1.484   2.293   0.975 -0.9443  1.2367  3.0569
 4367SOL    HW224561   1.435   2.431   0.988 -0.8616 -0.5793 -0.6479
 4368SOL     OW24562   1.520   0.222   3.907  0.0963  0.2730  0.1363
 4368SOL    HW124563   1.550   0.189   3.822 -1.2837  0.1958 -0.3221
 4368SOL    HW224564   1.467   0.294   3.874 -0.3484 -0.0360  0.1814
 4369SOL     OW24565   0.190   1.363   8.532 -0.0903 -0.3913 -0.0328
 4369SOL    HW124566   0.211   1.283   8.581  3.6497 -0.9307 -2.4939
 4369SOL    HW224567   0.278   1.398   8.521 -0.3956  0.5518  0.5491
 4370SOL     OW24568   1.049   2.333  12.520  0.1218  0.4239 -0.2327
 4370SOL    HW124569   1.137   2.354  12.551 -0.0263  1.0278 -0.2276
 4370SOL    HW224570   1.014   2.421  12.507 -0.2629  0.2622 -0.3069
 4371SOL     OW24571   4.114   4.092  16.750 -0.3771 -0.4503  0.4679
 4371SOL    HW124572   4.138   4.150  16.823  1.1145 -0.2834 -0.1626
 4371SOL    HW224573   4.034   4.134  16.719 -0.3777 -1.0375 -0.3235
 4372SOL     OW24574   1.576   4.554  11.344 -0.0373 -0.0513 -0.1676
 4372SOL    HW124575   1.515   4.483  11.325  0.6478 -0.9506  0.9955
 4372SOL    HW224576   1.579   4.590  11.255 -1.5451  0.9332  0.1905
 4373SOL     OW24577   2.788   4.271  12.373 -0.1939 -0.0148 -0.5349
 4373SOL    HW124578   2.824   4.358  12.356  1.1912 -0.2187  1.3812
 4373SOL    HW224579   2.698   4.299  12.390  0.9111  2.7639  0.7720
 4374SOL     OW24580   0.956   3.210   3.425  0.8343 -0.3571 -0.3633
 4374SOL    HW124581   0.940   3.116   3.416  0.0823 -0.3690  1.0340
 4374SOL    HW224582   1.005   3.220   3.507  0.6188  5.0069 -0.8729
 4375SOL     OW24583   0.187   1.759   1.858 -0.7255 -0.2463  0.0080
 4375SOL    HW124584   0.106   1.762   1.908  0.4973  0.6897  1.9318
 4375SOL    HW224585   0.186   1.670   1.822  2.0697 -0.7124  1.0406
 4376SOL     OW24586   2.121   3.640   8.347 -0.2346  0.2537  0.7679
 4376SOL    HW124587   2.151   3.712   8.403  2.0344 -1.7138  2.0980
 4376SOL    HW224588   2.205   3.594   8.344 -1.1555 -1.2008 -2.5843
 4377SOL     OW24589   3.305   4.551  12.035 -0.3754  0.4078  0.0588
 4377SOL    HW124590   3.298   4.463  12.071  0.5477  0.2434 -0.1540
 4377SOL    HW224591   3.391   4.546  11.992  0.4334 -0.9862  1.8314
 4378SOL     OW24592   2.391   0.489  11.709  0.2767  0.1011 -0.3678
 4378SOL    HW124593   2.314   0.449  11.667  0.3768 -0.3179 -0.1454
 4378SOL    HW224594   2.415   0.553  11.642  1.2933 -0.0875 -0.1807
 4379SOL     OW24595   1.351   3.483   6.415  0.0107  0.2876 -0.1561
 4379SOL    HW124596   1.362   3.495   6.509 -1.5112  1.8581 -0.1761
 4379SOL    HW224597   1.372   3.568   6.377 -0.0420  1.2701  1.9977
 4380SOL     OW24598   4.611   3.038   8.899  0.4226  0.6318  0.3773
 4380SOL    HW124599   4.665   3.049   8.821 -0.2309  0.4983 -0.0970
 4380SOL    HW224600   4.625   2.946   8.924 -0.4979  0.2197 -0.5864
 4381SOL     OW24601   1.909   1.284   4.147 -0.1465  0.1562 -0.1814
 4381SOL    HW124602   1.918   1.253   4.237 -0.7654 -0.9546 -0.4969
 4381SOL    HW224603   1.827   1.242   4.121  0.6812 -0.2619 -2.1857
 4382SOL     OW24604   2.417   0.751   6.997 -0.0181  0.3485  0.3130
 4382SOL    HW124605   2.334   0.722   6.960  0.1740  2.5161 -1.7798
 4382SOL    HW224606   2.386   0.777   7.084  0.2969  0.9678  0.2416
 4383SOL     OW24607   2.767   3.700   6.643  0.2979  0.6799 -0.1783
 4383SOL    HW124608   2.778   3.629   6.581 -2.6188  0.8701 -0.9013
 4383SOL    HW224609   2.840   3.693   6.705 -1.9171  0.0155  2.3761
 4384SOL     OW24610   2.016   3.461   0.814  0.4449 -0.0629 -0.2813
 4384SOL    HW124611   1.962   3.389   0.848  1.9210 -1.5529 -1.1267
 4384SOL    HW224612   2.070   3.484   0.890 -0.6179 -0.4143  0.5905
 4385SOL     OW24613   1.929   0.308   4.008  0.2040  0.5222  0.4725
 4385SOL    HW124614   1.862   0.325   4.074 -1.6907 -1.7540 -0.8871
 4385SOL    HW224615   2.006   0.325   4.063  0.5062 -0.1890  0.2648
 4386SOL     OW24616   0.195   3.312   6.278  0.5133  0.1959  0.1241
 4386SOL    HW124617   0.104   3.342   6.283 -0.4568 -2.5442 -0.9838
 4386SOL    HW224618   0.228   3.396   6.310  1.7985  0.1255 -1.0363
 4387SOL     OW24619   4.617   1.774   9.518  0.5037  0.1424  0.5775
 4387SOL    HW124620   4.555   1.703   9.530  0.2240  0.4041  0.6882
 4387SOL    HW224621   4.586   1.821   9.440 -2.8283 -0.4231  1.6054
 4388SOL     OW24622   1.272   3.218   1.815 -0.2428  0.0658 -0.3893
 4388SOL    HW124623   1.264   3.298   1.763 -1.2675 -1.1669 -2.1476
 4388SOL    HW224624   1.305   3.161   1.745  0.7945 -0.3351  0.4390
 4389SOL     OW24625   0.646   1.794   2.459  0.4646  0.0341 -0.8117
 4389SOL    HW124626   0.663   1.700   2.451 -0.7222 -0.3002  0.6487
 4389SOL    HW224627   0.732   1.836   2.458 -0.4779  2.0158  1.3807
 4390SOL     OW24628   4.083   0.384   3.394  1.0210  0.1272  0.1150
 4390SOL    HW124629   4.171   0.392   3.356  0.5795  1.2495 -0.6823
 4390SOL    HW224630   4.086   0.291   3.413 -0.7830 -0.2246 -1.3383
 4391SOL     OW24631   0.113   1.383   0.191  0.2370  0.0911 -0.0109
 4391SOL    HW124632   0.125   1.329   0.269 -1.1132  0.1986  0.2823
 4391SOL    HW224633   0.085   1.318   0.127  0.5023  1.2541 -1.3264
 4392SOL     OW24634   1.515   1.800  17.517 -0.3370  0.2446 -0.0090
 4392SOL    HW124635   1.585   1.757  17.566 -1.2535 -1.4768 -0.2144
 4392SOL    HW224636   1.569   1.876  17.492  0.4586 -0.6252 -0.9029
 4393SOL     OW24637   2.668   2.913   2.387  0.2816  0.0557  0.4484
 4393SOL    HW124638   2.724   2.978   2.345  0.6655 -0.1752  0.6075
 4393SOL    HW224639   2.706   2.918   2.475 -1.6682 -0.1772  1.3150
 4394SOL     OW24640   2.667   2.083   5.087 -0.0894  0.0878  0.4993
 4394SOL    HW124641   2.705   2.043   5.009 -2.2582 -0.6138 -0.1998
 4394SOL    HW224642   2.645   2.014   5.150  0.7978 -0.0832  0.6293
 4395SOL     OW24643   0.922   3.848   4.947 -0.0171  0.0890  0.7048
 4395SOL    HW124644   0.862   3.777   4.967 -1.5074  1.1153 -0.1817
 4395SOL    HW224645   1.004   3.802   4.967  1.7941  1.6607 -3.2003
 4396SOL     OW24646   1.057   3.990   3.471 -0.3510  0.5110  0.1036
 4396SOL    HW124647   1.027   3.921   3.411  1.2595 -1.0499  1.0902
 4396SOL    HW224648   0.978   3.992   3.525  0.2771  0.5288  1.0218
 4397SOL     OW24649   0.674   0.799  16.518  0.1952 -0.3304 -0.5677
 4397SOL    HW124650   0.627   0.881  16.535 -0.5372 -1.0271  0.8215
 4397SOL    HW224651   0.608   0.731  16.532  1.0244 -0.8836  0.7193
 4398SOL     OW24652   0.812   2.903   7.245  0.1995  0.0921 -0.5026
 4398SOL    HW124653   0.763   2.921   7.165 -0.1213  0.0911 -0.3054
 4398SOL    HW224654   0.853   2.989   7.249  0.3109 -0.0012  0.3327
 4399SOL     OW24655   3.062   0.637  10.039  0.1906 -0.1146  0.2993
 4399SOL    HW124656   3.078   0.719   9.992  1.3627 -0.2682  0.4352
 4399SOL    HW224657   3.148   0.598  10.022 -0.6133 -1.4622 -0.6665
 4400SOL     OW24658   3.770   4.438  10.843  0.7023 -0.3254  0.3786
 4400SOL    HW124659   3.695   4.379  10.841 -0.1161  0.6923  0.7266
 4400SOL    HW224660   3.780   4.457  10.750  1.6811 -1.6382  0.2150
 4401SOL     OW24661   3.440   1.106   5.973  0.0942 -0.5945 -0.3225
 4401SOL    HW124662   3.531   1.081   5.985  0.1392  0.2624  1.0877
 4401SOL    HW224663   3.415   1.120   6.064 -1.0056 -2.2404 -0.3755
 4402SOL     OW24664   4.093   0.192   5.316  0.1975 -0.4850  0.0938
 4402SOL    HW124665   4.001   0.217   5.328  1.2530  3.0661  0.7820
 4402SOL    HW224666   4.100   0.221   5.225 -1.1405 -2.0816 -0.5348
 4403SOL     OW24667   1.505   2.350   5.858  0.4101  0.0051 -0.2320
 4403SOL    HW124668   1.535   2.261   5.875  0.8206 -0.0524 -1.2612
 4403SOL    HW224669   1.577   2.399   5.898 -0.7152  0.2852  1.4861
 4404SOL     OW24670   2.837   3.757   8.417  0.1923  0.1869 -0.5401
 4404SOL    HW124671   2.902   3.823   8.441  0.4550 -1.1997  2.5455
 4404SOL    HW224672   2.902   3.697   8.380 -0.5641 -1.5490  0.9422
 4405SOL     OW24673   0.716   3.770   7.037 -0.1760  0.7527  0.2626
 4405SOL    HW124674   0.736   3.845   7.093  1.4093  0.8644 -0.4458
 4405SOL    HW224675   0.754   3.702   7.092  1.0141  0.8909 -0.3866
 4406SOL     OW24676   0.779   1.987   7.485 -0.1084 -0.2917  0.3133
 4406SOL    HW124677   0.872   1.992   7.460 -0.0005 -1.0369  0.5732
 4406SOL    HW224678   0.756   2.080   7.478  1.0690 -0.0819 -0.8099
 4407SOL     OW24679   0.670   3.081   1.365 -0.3316 -0.4709 -0.0649
 4407SOL    HW124680   0.684   3.073   1.459 -0.4215 -1.5886 -0.1364
 4407SOL    HW224681   0.599   3.144   1.359  0.5693  0.4687 -0.7972
 4408SOL     OW24682   1.834   0.493   1.801  0.1332 -0.2344 -0.0711
 4408SOL    HW124683   1.854   0.510   1.893  1.0545 -0.3459 -0.2529
 4408SOL    HW224684   1.912   0.441   1.778  1.3855  0.2853  2.9250
 4409SOL     OW24685   0.161   1.830   8.927  0.2408 -0.1598 -0.2362
 4409SOL    HW124686   0.098   1.817   8.998  0.4086  3.0411  0.5022
 4409SOL    HW224687   0.101   1.848   8.855  0.9985  1.6987 -0.3919
 4410SOL     OW24688   1.314   3.783   9.518 -0.5925 -0.1189 -0.8285
 4410SOL    HW124689   1.332   3.876   9.501 -3.0845  0.8793  1.9645
 4410SOL    HW224690   1.229   3.779   9.475 -1.1271  0.3282  0.1864
 4411SOL     OW24691   1.386   0.661  10.443  0.3114  0.1591 -0.2462
 4411SOL    HW124692   1.384   0.614  10.526  1.8710 -0.6495 -0.6593
 4411SOL    HW224693   1.305   0.712  10.443 -1.2750 -2.3904  1.0953
 4412SOL     OW24694   0.328   2.458   7.428  0.1400 -0.4296 -0.3949
 4412SOL    HW124695   0.315   2.549   7.456  4.1762 -1.0300  3.2695
 4412SOL    HW224696   0.263   2.421   7.487 -0.6447 -1.2010 -1.7513
 4413SOL     OW24697   0.984   0.040   5.229  0.0533  0.5544  0.4708
 4413SOL    HW124698   0.976   4.679   5.277  1.0569 -1.4421 -2.8109
 4413SOL    HW224699   0.895   0.038   5.194 -0.8506 -0.5408  2.7731
 4414SOL     OW24700   0.110   0.401  11.981 -0.4402 -0.4290 -0.3278
 4414SOL    HW124701   0.034   0.435  11.934 -0.3112  0.1966 -0.0823
 4414SOL    HW224702   0.084   0.412  12.072  0.3596  1.7084 -0.3692
 4415SOL     OW24703   2.727   2.796   7.917 -0.3228 -0.3411  0.0136
 4415SOL    HW124704   2.684   2.754   7.991 -0.5780  1.1368  0.7034
 4415SOL    HW224705   2.819   2.777   7.933  0.2104  2.4832  0.2527
 4416SOL     OW24706   4.188   0.603   7.854  0.1310 -0.2354  0.5854
 4416SOL    HW124707   4.107   0.654   7.847  1.4311  1.6758 -0.5939
 4416SOL    HW224708   4.240   0.655   7.793 -0.0007 -0.3324  0.3901
 4417SOL     OW24709   2.375   3.368  11.651  0.2494 -0.2204 -0.4159
 4417SOL    HW124710   2.329   3.450  11.632  1.5034  0.6184  0.1695
 4417SOL    HW224711   2.300   3.313  11.673  1.6658 -2.1568 -0.4465
 4418SOL     OW24712   1.896   3.236   5.545  0.0191 -0.0437 -0.5206
 4418SOL    HW124713   1.960   3.209   5.611  1.3490  3.1231 -0.5386
 4418SOL    HW224714   1.820   3.190   5.581 -0.3964 -0.8345 -2.4290
 4419SOL     OW24715   0.610   4.096   8.746 -0.1097 -0.1213  0.6398
 4419SOL    HW124716   0.556   4.102   8.667  0.6256 -1.6310  0.0207
 4419SOL    HW224717   0.631   4.188   8.763 -0.4669 -0.1454  1.2303
 4420SOL     OW24718   0.676   1.238   3.979 -0.1783  0.5649  0.4404
 4420SOL    HW124719   0.707   1.218   4.067  2.0210 -1.9480 -0.9007
 4420SOL    HW224720   0.718   1.323   3.968  1.7012 -0.5378 -0.9426
 4421SOL     OW24721   4.491   1.892   9.282 -0.8231 -0.0081 -0.3541
 4421SOL    HW124722   4.503   1.843   9.201  2.2753 -1.2639  0.8856
 4421SOL    HW224723   4.460   1.973   9.241  1.2638  2.0376  2.1548
 4422SOL     OW24724   3.840   3.732   3.105  0.0206 -0.5294 -0.0065
 4422SOL    HW124725   3.848   3.748   3.011 -1.5441 -1.2293 -0.2576
 4422SOL    HW224726   3.919   3.767   3.147 -0.3254  0.3817 -0.1025
 4423SOL     OW24727   3.435   4.323   7.019  0.3534  0.1810  0.0141
 4423SOL    HW124728   3.483   4.390   7.067  0.7025 -2.0482  2.7918
 4423SOL    HW224729   3.501   4.266   6.980 -0.1460 -0.8969  0.7348
 4424SOL     OW24730   3.991   3.513  13.757  0.3151 -0.4964  0.0614
 4424SOL    HW124731   4.006   3.422  13.731  1.2730 -0.0876 -0.8210
 4424SOL    HW224732   4.019   3.554  13.676 -1.9363 -2.4042 -1.6798
 4425SOL     OW24733   4.450   0.601  12.036  0.0622  0.2985 -0.1339
 4425SOL    HW124734   4.445   0.691  12.067 -1.0716 -0.1219  0.9198
 4425SOL    HW224735   4.376   0.556  12.078 -0.1898  1.5107  0.7146
 4426SOL     OW24736   0.925   3.156   7.246 -0.1123 -0.1658  0.1687
 4426SOL    HW124737   0.871   3.235   7.258  0.1967  0.2502 -1.2526
 4426SOL    HW224738   0.981   3.180   7.172  0.0412 -1.2199 -0.0513
 4427SOL     OW24739   1.847   3.433   5.824 -0.0929  0.2680  0.4346
 4427SOL    HW124740   1.758   3.445   5.791 -0.2682 -1.0534  0.4052
 4427SOL    HW224741   1.911   3.469   5.762  1.1360  0.5738  1.8757
 4428SOL     OW24742   4.367   3.219   9.278  0.1815  0.5751 -0.8673
 4428SOL    HW124743   4.379   3.187   9.367 -1.9353 -0.6180 -0.9900
 4428SOL    HW224744   4.453   3.202   9.241  0.9413  0.6995  0.8746
 4429SOL     OW24745   1.847   3.257  13.499 -0.7014 -0.2356 -0.0747
 4429SOL    HW124746   1.823   3.303  13.418 -1.2047 -0.3900 -0.0134
 4429SOL    HW224747   1.835   3.328  13.562  1.9968  0.4635 -0.3464
 4430SOL     OW24748   2.136   1.560   6.666  0.5065 -0.6288 -0.6526
 4430SOL    HW124749   2.166   1.650   6.648  1.8705 -0.9028  0.2751
 4430SOL    HW224750   2.069   1.562   6.733  0.1453  0.5528 -1.0517
 4431SOL     OW24751   0.608   4.594   1.985 -0.1027  0.4227 -0.2270
 4431SOL    HW124752   0.617   4.586   2.079  2.3759  2.0077 -0.3318
 4431SOL    HW224753   0.514   4.582   1.972  0.1264 -0.9224 -0.7404
 4432SOL     OW24754   2.880   1.044   8.922 -0.4965 -0.4639 -0.4777
 4432SOL    HW124755   2.799   1.004   8.890  0.6946 -1.9879 -1.5920
 4432SOL    HW224756   2.854   1.087   9.003 -0.3595 -1.6313  0.1911
 4433SOL     OW24757   0.401   0.822  10.407  0.1316 -0.1126 -0.3923
 4433SOL    HW124758   0.381   0.827  10.501 -0.4875 -0.9924 -0.4809
 4433SOL    HW224759   0.457   0.745  10.403 -0.7284 -0.6470 -2.2559
 4434SOL     OW24760   3.984   0.536   5.687 -0.0514 -0.0809 -0.0546
 4434SOL    HW124761   3.938   0.509   5.607 -0.5262 -1.4611  0.6831
 4434SOL    HW224762   4.002   0.629   5.669 -3.7135  0.5360 -0.6532
 4435SOL     OW24763   0.332   1.644  10.784  0.2143 -0.1955  0.6068
 4435SOL    HW124764   0.400   1.699  10.823  0.1228 -0.1774  0.7392
 4435SOL    HW224765   0.368   1.622  10.698  0.9456 -2.2304  1.4231
 4436SOL     OW24766   1.972   2.429   8.711  0.7363  0.2371 -0.1298
 4436SOL    HW124767   2.032   2.360   8.741  1.6325 -0.7893 -4.2587
 4436SOL    HW224768   1.915   2.379   8.652  1.2120  1.0220 -1.2733
 4437SOL     OW24769   4.339   4.491  17.076  0.3585 -0.1673  0.2631
 4437SOL    HW124770   4.260   4.467  17.126  0.8608  2.8646  2.5002
 4437SOL    HW224771   4.403   4.443  17.128 -0.0783  0.7957  1.6885
 4438SOL     OW24772   4.343   3.933  10.905 -0.3057  0.5259 -0.1510
 4438SOL    HW124773   4.348   3.962  10.996 -0.8055  0.2472 -0.0317
 4438SOL    HW224774   4.432   3.899  10.899  0.8729  4.0880 -3.2894
 4439SOL     OW24775   4.028   4.539   1.546  0.1028 -0.0307 -0.1016
 4439SOL    HW124776   4.090   4.466   1.557 -1.0058 -0.8876  0.4693
 4439SOL    HW224777   3.947   4.498   1.515 -0.3336  0.8187 -0.0818
 4440SOL     OW24778   2.633   4.445   9.631 -0.3595  0.3717  0.3609
 4440SOL    HW124779   2.724   4.423   9.648 -0.0125  0.7453 -0.9869
 4440SOL    HW224780   2.595   4.360   9.654 -1.3575  0.6485 -0.2411
 4441SOL     OW24781   3.932   3.457   6.254 -0.5951 -0.5925  0.1877
 4441SOL    HW124782   3.888   3.504   6.183  0.0367  0.4373  0.4885
 4441SOL    HW224783   3.953   3.528   6.315  0.2357  0.0167 -0.8128
 4442SOL     OW24784   4.032   0.940   2.592  0.3954  0.1414 -0.0851
 4442SOL    HW124785   4.008   0.897   2.510 -0.9333 -0.0323  0.3879
 4442SOL    HW224786   4.000   0.875   2.654  0.8681 -0.0199 -0.0147
 4443SOL     OW24787   1.441   3.108  17.588 -0.1953  0.4253 -0.6705
 4443SOL    HW124788   1.497   3.074  17.658 -0.7762 -0.3066 -0.5650
 4443SOL    HW224789   1.376   3.038  17.581  1.2533 -0.8515 -1.5224
 4444SOL     OW24790   1.627   3.391  11.747 -0.5391  0.2549 -0.6871
 4444SOL    HW124791   1.646   3.305  11.711  2.0474  0.3140  0.5127
 4444SOL    HW224792   1.576   3.361  11.821  0.7430  1.6073  0.7419
 4445SOL     OW24793   4.135   4.076   4.594  0.2745 -0.3946 -0.1546
 4445SOL    HW124794   4.063   4.110   4.542 -0.6493 -1.6711  0.2832
 4445SOL    HW224795   4.135   3.984   4.567  0.0400 -0.2377 -0.6798
 4446SOL     OW24796   0.818   1.496  10.465 -0.2499  0.0654  0.3369
 4446SOL    HW124797   0.794   1.493  10.372  1.4454 -0.6810 -0.0703
 4446SOL    HW224798   0.844   1.588  10.477 -0.9130  0.1938  0.7630
 4447SOL     OW24799   2.465   1.221   2.837  0.5005  0.1374  0.6239
 4447SOL    HW124800   2.479   1.221   2.743 -0.7423  2.4499  0.4481
 4447SOL    HW224801   2.510   1.302   2.863  2.6381 -0.8696  0.0924
 4448SOL     OW24802   2.314   3.668  15.120  0.0544  0.2955 -0.4540
 4448SOL    HW124803   2.297   3.761  15.132  3.6740  0.8545  0.3128
 4448SOL    HW224804   2.232   3.634  15.083 -0.4697 -1.5256  2.3350
 4449SOL     OW24805   0.845   1.792  16.746  0.5936  0.4452  0.4327
 4449SOL    HW124806   0.903   1.717  16.729 -0.6299 -0.3885 -0.0387
 4449SOL    HW224807   0.823   1.767  16.836 -0.2954  1.3059  0.4549
 4450SOL     OW24808   2.453   3.365   3.631 -0.5371 -0.2249 -0.1677
 4450SOL    HW124809   2.429   3.380   3.540 -1.4777  1.2872  0.3303
 4450SOL    HW224810   2.425   3.273   3.637 -1.2194 -0.1707 -2.4247
 4451SOL     OW24811   0.769   2.498   2.505 -0.1917 -0.0045  0.1099
 4451SOL    HW124812   0.817   2.559   2.449 -0.3454 -0.0829 -0.1074
 4451SOL    HW224813   0.741   2.433   2.441  1.3423  0.1030 -0.6659
 4452SOL     OW24814   2.175   1.547  11.582 -0.2606  0.0071 -0.2354
 4452SOL    HW124815   2.150   1.546  11.490 -1.3130 -1.7173  0.0957
 4452SOL    HW224816   2.135   1.628  11.613 -0.3575 -0.0204 -0.2889
 4453SOL     OW24817   3.890   0.101   7.436  0.2213 -0.2595  0.0995
 4453SOL    HW124818   3.906   0.068   7.525  1.2086  0.6934  0.2734
 4453SOL    HW224819   3.976   0.098   7.395 -0.8162  4.0518 -2.3868
 4454SOL     OW24820   3.027   1.829  17.159 -0.1089 -0.2270 -0.2203
 4454SOL    HW124821   3.045   1.859  17.070 -2.5979  0.1059 -0.5945
 4454SOL    HW224822   2.967   1.899  17.183  2.4769  0.8402  3.1771
 4455SOL     OW24823   0.671   0.332   6.581 -0.0967 -0.4769 -0.6833
 4455SOL    HW124824   0.595   0.284   6.548 -0.8331 -0.0119  0.3092
 4455SOL    HW224825   0.624   0.407   6.618 -0.8629 -1.0889 -0.4208
 4456SOL     OW24826   4.282   1.763  11.848  0.3955 -0.3351 -0.1510
 4456SOL    HW124827   4.199   1.806  11.868  0.2894 -0.6755  0.1289
 4456SOL    HW224828   4.337   1.836  11.876 -1.1683  1.1287 -0.8504
 4457SOL     OW24829   0.687   1.682   8.428  0.2577 -0.4969 -0.8504
 4457SOL    HW124830   0.652   1.762   8.388  1.3279  1.4671  2.1620
 4457SOL    HW224831   0.682   1.700   8.522  1.2196  0.6842 -1.0087
 4458SOL     OW24832   4.157   1.181   2.894  0.5784  0.7013  0.1010
 4458SOL    HW124833   4.114   1.196   2.810  1.1463  1.0776 -0.1279
 4458SOL    HW224834   4.246   1.168   2.859 -1.0114 -1.5700 -3.0573
 4459SOL     OW24835   3.475   0.754   6.922  0.7584  0.4235 -0.0034
 4459SOL    HW124836   3.457   0.713   6.837 -2.1276 -1.1178  1.3445
 4459SOL    HW224837   3.558   0.791   6.893  0.2796  0.6241 -1.1297
 4460SOL     OW24838   0.906   1.414  17.370 -0.2631  0.2787 -0.2970
 4460SOL    HW124839   0.972   1.344  17.370  0.6304  1.1295 -2.2444
 4460SOL    HW224840   0.845   1.384  17.437  2.7479 -1.1810  1.8060
 4461SOL     OW24841   4.043   2.369   7.983  0.4243 -0.2455  0.7363
 4461SOL    HW124842   4.128   2.366   7.940 -0.7481  0.2633 -1.6050
 4461SOL    HW224843   3.988   2.412   7.917 -0.4746 -0.9089  1.0444
 4462SOL     OW24844   3.239   3.082   5.384  0.2378 -0.7941  0.2141
 4462SOL    HW124845   3.164   3.077   5.324 -0.5667 -1.1199  1.2416
 4462SOL    HW224846   3.292   3.013   5.346  1.3333 -1.3637  2.7841
 4463SOL     OW24847   3.591   0.728  10.892  0.3165 -0.1666 -0.3004
 4463SOL    HW124848   3.603   0.823  10.899 -0.1758 -0.1704  0.5406
 4463SOL    HW224849   3.496   0.728  10.905  0.0087  0.8704 -2.5490
 4464SOL     OW24850   3.640   0.454  16.961  0.8397 -0.1043 -0.2696
 4464SOL    HW124851   3.562   0.444  17.016  1.6923 -0.1184  0.9280
 4464SOL    HW224852   3.713   0.447  17.022  0.8033 -5.2074 -0.8019
 4465SOL     OW24853   2.374   3.031  15.810 -0.0148  0.1558  0.3461
 4465SOL    HW124854   2.416   2.964  15.756 -0.4374 -0.2618  0.5376
 4465SOL    HW224855   2.303   3.054  15.750 -0.5769 -2.5689 -0.0439
 4466SOL     OW24856   0.024   3.782   1.810 -0.2760  0.3058  0.5932
 4466SOL    HW124857   4.709   3.787   1.721 -0.5602  0.8939  0.7379
 4466SOL    HW224858   0.001   3.691   1.830 -1.3234 -0.1794 -2.8585
 4467SOL     OW24859   4.546   1.363   5.484 -0.3833  0.3937 -0.0438
 4467SOL    HW124860   4.620   1.404   5.441  0.0703  0.5055  0.8496
 4467SOL    HW224861   4.593   1.289   5.520  1.5802  2.2448  1.1602
 4468SOL     OW24862   4.262   3.762   8.050 -0.1187 -0.0764  0.1728
 4468SOL    HW124863   4.220   3.676   8.051  0.9278 -0.5918  0.4752
 4468SOL    HW224864   4.356   3.749   8.034  0.1382  1.3946  0.4495
 4469SOL     OW24865   2.358   0.936   6.023  0.6389 -0.4799 -0.4695
 4469SOL    HW124866   2.316   0.852   6.004 -1.2617 -0.2018  2.5015
 4469SOL    HW224867   2.303   0.990   6.080  2.3604 -1.1658  1.8169
 4470SOL     OW24868   4.697   1.251   6.369  0.6705 -0.0116  0.1202
 4470SOL    HW124869   4.618   1.290   6.332  2.2806  3.9493  0.8488
 4470SOL    HW224870   0.027   1.274   6.292  1.7575 -0.4933  0.6958
 4471SOL     OW24871   4.530   3.412   6.577  0.3548  0.2576  0.1736
 4471SOL    HW124872   4.494   3.340   6.526 -0.8129  1.4296 -0.6435
 4471SOL    HW224873   4.620   3.380   6.588  0.8260  0.5920 -2.7910
 4472SOL     OW24874   4.598   2.101   5.456 -0.1853 -0.0740  0.2154
 4472SOL    HW124875   4.551   2.128   5.535  0.4507 -0.6724  0.7943
 4472SOL    HW224876   4.623   2.009   5.458  1.2433  0.2834 -1.1211
 4473SOL     OW24877   0.523   0.086   3.094 -0.0219  0.2068  0.0715
 4473SOL    HW124878   0.580   0.055   3.165  1.4085  0.4513 -0.9649
 4473SOL    HW224879   0.504   4.719   3.060 -0.6132  0.1698  0.4997
 4474SOL     OW24880   2.245   0.196   4.160  0.0958 -0.1520  0.1014
 4474SOL    HW124881   2.263   0.103   4.147  1.8260  0.1332  0.4304
 4474SOL    HW224882   2.285   0.235   4.083 -0.3623  1.0799  0.4909
 4475SOL     OW24883   3.184   2.112   9.393  0.2329 -0.3113 -0.0707
 4475SOL    HW124884   3.102   2.119   9.344 -0.5935 -2.9960  0.9712
 4475SOL    HW224885   3.213   2.027   9.363 -0.2035 -0.8082  0.8945
 4476SOL     OW24886   4.166   4.099  12.293 -0.0822 -0.4026  0.3178
 4476SOL    HW124887   4.087   4.049  12.308 -0.0974 -0.0164  1.5343
 4476SOL    HW224888   4.168   4.143  12.378 -2.5199 -0.3979  0.3666
 4477SOL     OW24889   4.261   1.102  16.452 -0.3199  0.5665  0.2457
 4477SOL    HW124890   4.246   1.057  16.369 -0.7072  1.0113  0.0774
 4477SOL    HW224891   4.227   1.188  16.430 -4.3266 -1.4620 -1.5266
 4478SOL     OW24892   1.963   3.372   4.521  0.7255 -0.0716  0.2709
 4478SOL    HW124893   1.923   3.406   4.441  3.3261 -0.3453 -1.1465
 4478SOL    HW224894   1.969   3.453   4.572 -1.5587  1.8184 -2.4728
 4479SOL     OW24895   3.831   4.656   6.854 -0.2120  0.4672 -0.2732
 4479SOL    HW124896   3.909   4.654   6.799  0.8173 -1.8408  1.2764
 4479SOL    HW224897   3.756   4.658   6.794 -0.0118 -2.0045 -0.6244
 4480SOL     OW24898   0.537   1.863   7.392  0.1801  0.1683  0.4734
 4480SOL    HW124899   0.590   1.887   7.468  1.7276 -0.2446 -0.4767
 4480SOL    HW224900   0.473   1.803   7.430 -1.6193  1.3372 -0.7236
 4481SOL     OW24901   0.527   2.795  12.379  0.2768  0.3820 -0.3171
 4481SOL    HW124902   0.552   2.725  12.439  0.4220  0.1304 -0.6665
 4481SOL    HW224903   0.550   2.752  12.296 -1.3437 -3.7795  1.3865
 4482SOL     OW24904   4.046   0.609   3.105  0.2118  0.2051  0.5951
 4482SOL    HW124905   3.951   0.620   3.096  0.3065  1.1985  0.8373
 4482SOL    HW224906   4.063   0.682   3.164 -3.0083 -0.4813  2.3732
 4483SOL     OW24907   4.201   1.450   2.626 -0.2906  0.2122 -0.1608
 4483SOL    HW124908   4.187   1.359   2.603 -0.9211  0.4658 -0.7666
 4483SOL    HW224909   4.256   1.475   2.552  0.1359  0.3942  0.2098
 4484SOL     OW24910   0.304   0.812  10.665  0.0159 -0.1528  0.0264
 4484SOL    HW124911   0.291   0.893  10.714 -1.9929 -1.0360  0.9292
 4484SOL    HW224912   0.218   0.773  10.655  0.4318 -0.9513 -0.4130
 4485SOL     OW24913   0.248   2.105   8.163  0.7100  0.2507  0.3728
 4485SOL    HW124914   0.311   2.040   8.131 -0.3122 -1.1264  1.1348
 4485SOL    HW224915   0.303   2.170   8.207  1.0117  0.4796 -0.3431
 4486SOL     OW24916   3.287   1.993   4.253  0.4446  0.0124  0.7442
 4486SOL    HW124917   3.197   1.970   4.230  0.7652  2.6883 -3.0865
 4486SOL    HW224918   3.287   2.033   4.340  2.0694  1.4268  0.0811
 4487SOL     OW24919   0.585   2.199  12.676  0.0189  0.4135  0.1340
 4487SOL    HW124920   0.558   2.112  12.647  1.0620  0.0854  0.1194
 4487SOL    HW224921   0.680   2.190  12.691  0.2855  2.1041 -0.5020
 4488SOL     OW24922   1.313   4.309   8.184 -0.1689 -0.0725 -0.1519
 4488SOL    HW124923   1.384   4.368   8.210 -0.0206  0.4282 -1.7387
 4488SOL    HW224924   1.249   4.367   8.143 -0.2088 -1.2314 -1.7201
 4489SOL     OW24925   2.262   1.657  16.870  0.6814  0.1263 -0.1592
 4489SOL    HW124926   2.319   1.727  16.839  1.2823 -0.9143 -1.4067
 4489SOL    HW224927   2.270   1.596  16.796 -0.4699  1.0237 -1.0056
 4490SOL     OW24928   2.736   3.220   3.162 -0.2169 -0.0617  0.3742
 4490SOL    HW124929   2.721   3.174   3.244 -1.2744 -0.0814  0.1702
 4490SOL    HW224930   2.821   3.182   3.138 -0.6410  0.2685 -1.6797
 4491SOL     OW24931   0.640   0.253   8.491  0.1901  0.7379 -0.5020
 4491SOL    HW124932   0.645   0.298   8.407 -1.8150 -0.6024 -1.3192
 4491SOL    HW224933   0.636   0.328   8.551 -0.6054  0.8685 -0.7291
 4492SOL     OW24934   1.341   0.573   7.526  0.3138  0.3083  0.5293
 4492SOL    HW124935   1.361   0.636   7.457 -0.7154  0.3304  0.2513
 4492SOL    HW224936   1.343   0.493   7.475  1.7171  0.2925  0.6044
 4493SOL     OW24937   0.025   0.224   2.942 -0.0152 -0.1401 -0.2889
 4493SOL    HW124938   0.094   0.283   2.972 -0.0105 -1.0597  1.4988
 4493SOL    HW224939   4.720   0.181   3.023  1.3582 -1.1283 -0.3758
 4494SOL     OW24940   3.071   2.840  11.634  0.1113  0.0424 -0.1173
 4494SOL    HW124941   3.154   2.883  11.656  0.5638 -0.2026 -1.3682
 4494SOL    HW224942   3.073   2.841  11.539  0.6583 -1.2207 -0.1210
 4495SOL     OW24943   2.514   0.509   3.196  0.1979 -1.0179  0.3972
 4495SOL    HW124944   2.538   0.577   3.258 -0.3062 -1.4163  1.0367
 4495SOL    HW224945   2.586   0.520   3.133 -1.0375 -3.4041 -1.4502
 4496SOL     OW24946   2.707   4.669  17.371 -0.0329  0.6175  0.1617
 4496SOL    HW124947   2.695   0.002  17.293  0.0784 -0.2565 -0.4647
 4496SOL    HW224948   2.619   4.650  17.405 -0.6461 -0.6021 -2.1184
 4497SOL     OW24949   0.610   2.770  10.006 -0.9753  0.1642  0.0075
 4497SOL    HW124950   0.675   2.824  10.051 -2.4918  3.2532 -1.4509
 4497SOL    HW224951   0.557   2.839   9.966 -0.1909  1.1471  0.6748
 4498SOL     OW24952   0.357   3.954  11.425  0.2151 -0.3980  0.2409
 4498SOL    HW124953   0.383   3.871  11.465  1.9174  0.7562  1.5025
 4498SOL    HW224954   0.337   4.000  11.507 -0.1940 -0.7073  0.3114
 4499SOL     OW24955   4.527   1.968   8.067 -0.4437 -0.0214 -0.0178
 4499SOL    HW124956   4.478   1.897   8.107  1.9208 -2.2929 -1.0971
 4499SOL    HW224957   4.584   2.000   8.137 -0.6274  0.5554 -0.1304
 4500SOL     OW24958   0.016   0.409   8.753  0.2784  0.1262 -0.1746
 4500SOL    HW124959   0.106   0.381   8.735  0.4778 -0.0952  1.1586
 4500SOL    HW224960   0.033   0.501   8.772  1.6710 -0.1450 -0.0813
 4501SOL     OW24961   1.595   3.550   5.093  0.2336  0.7676 -0.3055
 4501SOL    HW124962   1.686   3.577   5.090  0.7143 -1.0453 -1.6047
 4501SOL    HW224963   1.566   3.589   5.010  1.1138 -0.3108 -1.0994
 4502SOL     OW24964   3.984   3.678   6.392 -0.4083 -0.0074 -0.6203
 4502SOL    HW124965   4.043   3.750   6.369 -0.5062  0.7671  1.5602
 4502SOL    HW224966   4.020   3.639   6.471 -0.1189  2.7348  0.6246
 4503SOL     OW24967   3.831   4.591   2.249 -0.7587 -0.4340 -1.0588
 4503SOL    HW124968   3.783   4.621   2.173 -0.6460  0.2843 -0.8461
 4503SOL    HW224969   3.903   4.549   2.202  0.8843  1.2972 -0.1109
 4504SOL     OW24970   4.321   1.923   3.520  0.1120  0.4654  0.1640
 4504SOL    HW124971   4.236   1.884   3.537 -0.0795  1.2222  0.9499
 4504SOL    HW224972   4.339   1.966   3.604 -2.7367  1.8836  0.0270
 4505SOL     OW24973   0.784   3.687  15.477 -0.4258  0.3358 -0.2513
 4505SOL    HW124974   0.799   3.757  15.414 -0.4199 -0.6226 -1.3226
 4505SOL    HW224975   0.704   3.647  15.441 -0.5732  0.7775 -0.4161
 4506SOL     OW24976   1.244   0.384   2.936 -0.1014 -0.0747  0.1663
 4506SOL    HW124977   1.278   0.300   2.967 -1.6030  0.8057  4.1761
 4506SOL    HW224978   1.169   0.384   2.995  0.0971 -2.7961  0.4048
 4507SOL     OW24979   0.604   3.757   0.180  0.5833 -0.1482 -0.4266
 4507SOL    HW124980   0.648   3.674   0.167 -0.9925 -1.0814  0.1072
 4507SOL    HW224981   0.584   3.757   0.274 -0.6848  0.5040 -0.6937
 4508SOL     OW24982   1.576   3.031   7.788  0.1977  0.4005  0.4821
 4508SOL    HW124983   1.612   3.115   7.760 -0.1832 -0.2386 -1.9612
 4508SOL    HW224984   1.489   3.053   7.819 -0.5563  1.7103 -2.5864
 4509SOL     OW24985   2.272   4.620  16.364 -0.0088 -0.2403  0.1264
 4509SOL    HW124986   2.217   4.613  16.443 -2.4303 -0.5050 -1.5845
 4509SOL    HW224987   2.357   4.601  16.404 -0.1872 -2.4983 -0.6039
 4510SOL     OW24988   2.885   2.706  16.601 -0.1623  0.2599 -0.1781
 4510SOL    HW124989   2.890   2.762  16.523 -0.9702 -1.4197 -1.4445
 4510SOL    HW224990   2.928   2.755  16.671 -2.1522  0.3368  1.0176
 4511SOL     OW24991   0.790   0.563   9.007 -0.3603 -0.2695  0.2358
 4511SOL    HW124992   0.736   0.497   9.052  0.9508 -1.7879 -0.4204
 4511SOL    HW224993   0.791   0.637   9.067 -1.9089  0.6572 -0.8655
 4512SOL     OW24994   3.724   0.318   3.667  0.1940 -0.0421 -0.3375
 4512SOL    HW124995   3.697   0.249   3.606  0.3606 -0.1813 -0.2582
 4512SOL    HW224996   3.701   0.401   3.625 -0.4659  0.9122  1.9400
 4513SOL     OW24997   1.451   1.891  16.885 -0.3108 -0.5885  0.3818
 4513SOL    HW124998   1.499   1.854  16.811  2.2576  0.8375  1.2954
 4513SOL    HW224999   1.366   1.875  16.846 -0.5810  3.0893 -0.5122
 4514SOL     OW25000   0.402   2.828  13.292 -0.1686 -0.4901  0.2614
 4514SOL    HW125001   0.458   2.845  13.216 -1.1437  1.7028  0.0273
 4514SOL    HW225002   0.383   2.734  13.286 -0.0403 -0.5659  0.9670
 4515SOL     OW25003   0.592   0.163   9.730  0.3467 -0.2129 -0.1292
 4515SOL    HW125004   0.604   0.247   9.774  0.4601  0.7827 -2.0688
 4515SOL    HW225005   0.677   0.122   9.744 -0.2612 -2.2030 -2.1902
 4516SOL     OW25006   4.690   3.216   3.392  0.2398 -0.3571 -0.3182
 4516SOL    HW125007   0.032   3.159   3.347  1.0733 -1.3146  2.0574
 4516SOL    HW225008   4.609   3.173   3.365  1.5793 -2.2293 -1.2988
 4517SOL     OW25009   1.575   0.252  15.479 -0.0485  0.4171 -0.0224
 4517SOL    HW125010   1.545   0.165  15.503  0.3415  0.1057 -0.6645
 4517SOL    HW225011   1.634   0.228  15.407 -1.0257 -0.0099 -0.6734
 4518SOL     OW25012   4.359   0.767   2.857 -0.1612 -0.0316 -0.0321
 4518SOL    HW125013   4.300   0.827   2.902  1.1725  1.7066 -0.5697
 4518SOL    HW225014   4.310   0.685   2.854 -1.6775  0.8563  0.4220
 4519SOL     OW25015   1.902   3.369   3.414 -0.2132  0.5381 -0.0934
 4519SOL    HW125016   1.811   3.394   3.398 -1.1080 -2.1562  0.7619
 4519SOL    HW225017   1.954   3.398   3.339  0.8487 -2.2020 -0.4244
 4520SOL     OW25018   4.559   2.740  14.361  0.7558 -0.2746  0.3563
 4520SOL    HW125019   4.631   2.734  14.424  0.3320 -0.1465  0.8606
 4520SOL    HW225020   4.576   2.668  14.301  0.4355  0.3714 -0.5147
 4521SOL     OW25021   2.467   0.053   8.168  0.1426  0.5694 -0.4326
 4521SOL    HW125022   2.512   4.704   8.120  0.9009 -0.6991  2.1407
 4521SOL    HW225023   2.413   0.081   8.094  0.6717  1.6419 -0.3999
 4522SOL     OW25024   1.146   4.355   5.269 -0.0301  0.0816  0.2825
 4522SOL    HW125025   1.053   4.335   5.262  0.3539 -2.2016  1.7446
 4522SOL    HW225026   1.183   4.308   5.193 -3.0647 -0.1025 -1.0647
 4523SOL     OW25027   3.309   4.586   9.920  0.6748  0.2921  0.4584
 4523SOL    HW125028   3.293   4.506   9.870  2.7179  0.3046 -0.2370
 4523SOL    HW225029   3.403   4.597   9.906 -0.0363  2.4748 -2.5159
 4524SOL     OW25030   2.540   1.144   9.870  0.5025  0.3932  0.8299
 4524SOL    HW125031   2.604   1.073   9.873  0.4809  0.3004 -1.0912
 4524SOL    HW225032   2.473   1.112   9.931 -0.6707 -0.1253 -0.7507
 4525SOL     OW25033   1.726   4.150   5.261 -0.1873  0.4234  0.1580
 4525SOL    HW125034   1.811   4.171   5.298  0.1545  1.3994 -1.1951
 4525SOL    HW225035   1.673   4.174   5.337 -0.5648 -0.8704  0.3179
 4526SOL     OW25036   1.817   2.106   1.361 -0.1855  0.1208 -0.3265
 4526SOL    HW125037   1.804   2.012   1.373 -1.8586  0.4340  0.2834
 4526SOL    HW225038   1.748   2.122   1.296 -0.8024 -2.1563 -0.2223
 4527SOL     OW25039   1.485   4.194   9.931  0.5082 -0.1874 -0.1463
 4527SOL    HW125040   1.530   4.118   9.894 -3.7023 -2.0820 -1.4772
 4527SOL    HW225041   1.433   4.149   9.998  1.7809 -3.0999 -1.1298
 4528SOL     OW25042   1.483   2.687   2.758  0.6165  0.2642 -0.6169
 4528SOL    HW125043   1.451   2.651   2.675 -2.5397 -0.8243  1.1025
 4528SOL    HW225044   1.552   2.626   2.782 -0.9589  0.0371  3.2661
 4529SOL     OW25045   4.576   0.704   6.631 -0.1066  0.3933 -0.0671
 4529SOL    HW125046   4.555   0.707   6.538 -0.6968 -2.7602 -0.0242
 4529SOL    HW225047   4.483   0.715   6.653  0.8142  3.4941  2.2489
 4530SOL     OW25048   2.396   0.288   5.180  0.3965  0.1157  0.7609
 4530SOL    HW125049   2.365   0.358   5.122 -0.3445 -2.0288 -1.4138
 4530SOL    HW225050   2.466   0.252   5.126 -0.5865  0.1894 -0.5743
 4531SOL     OW25051   4.678   1.719   9.992 -0.2683  0.2506 -0.3714
 4531SOL    HW125052   4.602   1.695   9.939 -1.5905 -1.3735  2.3068
 4531SOL    HW225053   0.026   1.675   9.942 -0.1852 -1.9221  1.7122
 4532SOL     OW25054   1.533   4.384  16.558  0.2945  0.4720  0.1547
 4532SOL    HW125055   1.439   4.380  16.540  0.7689 -1.9176 -1.8303
 4532SOL    HW225056   1.549   4.478  16.545 -0.4888  0.2692 -2.3129
 4533SOL     OW25057   3.098   0.816   5.482 -0.1448  0.0443 -0.4721
 4533SOL    HW125058   3.071   0.741   5.429  0.9259 -2.3645  2.4122
 4533SOL    HW225059   3.091   0.893   5.425  1.6813 -0.1558 -0.9782
 4534SOL     OW25060   2.509   0.755  13.569 -0.0226  0.1442 -0.0253
 4534SOL    HW125061   2.552   0.676  13.603  2.3050  0.6554 -1.7231
 4534SOL    HW225062   2.582   0.781  13.512  0.5431  1.8942  1.5224
 4535SOL     OW25063   1.434   3.753   6.460  0.2641  0.3752  0.1321
 4535SOL    HW125064   1.401   3.778   6.546 -0.8311 -0.4395 -0.0500
 4535SOL    HW225065   1.397   3.829   6.415 -0.2041 -0.0291 -0.1690
 4536SOL     OW25066   3.648   3.423   9.180 -0.1304 -0.3295  0.1870
 4536SOL    HW125067   3.707   3.498   9.182 -0.3541 -0.1324 -0.5946
 4536SOL    HW225068   3.611   3.426   9.268 -0.4878  0.2792  0.0152
 4537SOL     OW25069   2.076   1.904   9.559 -0.1749  0.0446 -0.5492
 4537SOL    HW125070   2.110   1.823   9.520  1.9225 -0.4923  2.3592
 4537SOL    HW225071   2.088   1.886   9.653 -0.5842 -0.3923 -0.5812
 4538SOL     OW25072   3.053   4.647   2.174  0.1694  0.4976 -0.0020
 4538SOL    HW125073   3.131   4.698   2.152  1.9314 -1.7344  0.9513
 4538SOL    HW225074   2.994   4.682   2.108 -0.2049 -1.5199 -0.7310
 4539SOL     OW25075   4.065   0.126  10.593 -0.7429 -0.2565 -0.0999
 4539SOL    HW125076   3.972   0.140  10.612 -0.8816  0.0643 -1.0054
 4539SOL    HW225077   4.043   0.060  10.527  2.9800  1.2378 -2.8390
 4540SOL     OW25078   2.199   0.375   2.043 -0.1926 -0.0997 -0.3313
 4540SOL    HW125079   2.294   0.387   2.037 -0.0184 -0.2993  1.9406
 4540SOL    HW225080   2.164   0.439   1.980 -0.5505  1.1506  1.1313
 4541SOL     OW25081   3.509   0.391   7.298  0.1487  0.1389  0.0578
 4541SOL    HW125082   3.570   0.362   7.229 -0.4210 -0.0599 -0.3604
 4541SOL    HW225083   3.531   0.484   7.305 -1.5597  0.6499 -1.4183
 4542SOL     OW25084   0.211   0.427   2.944 -0.1261  0.4335  0.6207
 4542SOL    HW125085   0.280   0.473   2.991  2.1953  0.6375 -2.9157
 4542SOL    HW225086   0.208   0.475   2.861  0.8708  2.8375  1.9848
 4543SOL     OW25087   4.719   4.616  14.742 -0.2740  0.0163  0.1430
 4543SOL    HW125088   4.656   4.660  14.799 -0.2399 -0.2475  0.3833
 4543SOL    HW225089   0.078   4.664  14.765  0.1563 -0.8216  0.4106
 4544SOL     OW25090   4.057   3.776   0.920  0.5821  0.2819 -0.5022
 4544SOL    HW125091   4.116   3.740   0.986  2.1011 -0.5526 -2.3164
 4544SOL    HW225092   4.044   3.702   0.862  0.2309 -0.7615  0.9298
 4545SOL     OW25093   4.696   4.223   1.323 -0.6590 -0.3781 -0.1815
 4545SOL    HW125094   4.622   4.202   1.379  0.8802  3.9906  3.4445
 4545SOL    HW225095   4.649   4.280   1.262  1.6307  1.8192  0.0819
 4546SOL     OW25096   0.090   2.714   3.825  0.4715 -0.0068  0.2269
 4546SOL    HW125097   0.172   2.743   3.785  1.1400 -1.4772  0.5264
 4546SOL    HW225098   0.116   2.666   3.903 -1.3248 -3.2167 -1.1658
 4547SOL     OW25099   3.757   0.103  16.626 -0.3586 -0.0023  0.7275
 4547SOL    HW125100   3.742   0.184  16.674  1.5837  0.4363  0.5872
 4547SOL    HW225101   3.846   0.114  16.593 -0.2364 -1.0475  0.7223
 4548SOL     OW25102   1.057   1.235  10.750 -1.1044 -0.2366  0.2105
 4548SOL    HW125103   1.104   1.233  10.834  1.1928 -1.3134 -1.1070
 4548SOL    HW225104   1.087   1.324  10.730  1.5678 -0.9366  1.1523
 4549SOL     OW25105   4.263   4.431  11.772  0.0927 -0.3635  0.0403
 4549SOL    HW125106   4.259   4.435  11.676 -2.3987 -1.1806  0.1178
 4549SOL    HW225107   4.192   4.380  11.811 -0.2256  1.2072  1.4753
 4550SOL     OW25108   2.253   4.301   7.127  0.1757 -0.1812  0.2803
 4550SOL    HW125109   2.255   4.206   7.115  0.7027  0.0217 -1.1650
 4550SOL    HW225110   2.254   4.324   7.034  1.5536  0.7700  0.5311
 4551SOL     OW25111   3.941   2.515  12.986 -0.0895 -0.3017 -0.2437
 4551SOL    HW125112   4.002   2.443  13.003  1.0787  0.6273 -0.5089
 4551SOL    HW225113   3.877   2.483  13.051 -0.1318  3.1809  1.4423
 4552SOL     OW25114   3.784   0.700   2.941  0.6096 -0.0153  0.3446
 4552SOL    HW125115   3.708   0.753   2.917  0.4387  1.3681  4.0342
 4552SOL    HW225116   3.840   0.716   2.865  0.3359 -2.5135 -0.3875
 4553SOL     OW25117   1.746   2.111  11.073  0.5324  0.3216 -0.4516
 4553SOL    HW125118   1.706   2.147  11.152  1.5290  0.1112  0.1547
 4553SOL    HW225119   1.696   2.030  11.061  0.7804  0.2109 -0.7682
 4554SOL     OW25120   4.653   0.403   6.265 -0.5987 -0.3808  0.1663
 4554SOL    HW125121   0.003   0.417   6.328 -0.9072  0.0610  0.4197
 4554SOL    HW225122   4.583   0.365   6.318 -0.4445 -0.8340  0.0434
 4555SOL     OW25123   4.322   1.243  13.443 -0.3872  0.2293  0.2416
 4555SOL    HW125124   4.340   1.317  13.501  0.8556  1.6499 -1.9544
 4555SOL    HW225125   4.337   1.171  13.505  0.5036  0.5369  0.3758
 4556SOL     OW25126   3.693   2.426   4.656 -0.7294  0.5128  0.4374
 4556SOL    HW125127   3.781   2.455   4.631 -1.6766  3.1562  0.1740
 4556SOL    HW225128   3.659   2.390   4.574  1.6441 -2.4479  0.7272
 4557SOL     OW25129   2.292   4.538   1.637  0.4470 -0.0217  0.2352
 4557SOL    HW125130   2.233   4.468   1.611  0.9665 -0.7170  0.9469
 4557SOL    HW225131   2.374   4.499   1.607  0.0470 -0.5205 -0.2131
 4558SOL     OW25132   0.646   0.350   8.222  0.6867 -0.4991  0.0507
 4558SOL    HW125133   0.610   0.438   8.230  0.8096 -0.2686 -2.0293
 4558SOL    HW225134   0.582   0.308   8.164 -1.1945  2.1819  0.1965
 4559SOL     OW25135   2.798   0.673  11.963 -0.3385 -0.1662 -0.1178
 4559SOL    HW125136   2.742   0.701  11.891 -1.2883 -0.4906  0.4983
 4559SOL    HW225137   2.789   0.578  11.961  1.0555 -0.3060 -0.1932
 4560SOL     OW25138   0.523   3.076   6.183 -0.3472  0.2577  0.5441
 4560SOL    HW125139   0.536   2.983   6.168  0.7217  0.5975 -0.5854
 4560SOL    HW225140   0.576   3.115   6.114 -2.0480  0.8278 -0.4310
 4561SOL     OW25141   0.264   4.656   7.152  0.0822  0.6400 -0.3018
 4561SOL    HW125142   0.182   4.637   7.198  0.1219  3.0366  0.7449
 4561SOL    HW225143   0.248   0.020   7.112  1.1586  1.3534  0.7839
 4562SOL     OW25144   0.962   4.284   6.128 -0.5378  0.1320  0.2715
 4562SOL    HW125145   0.902   4.240   6.189  0.3289 -1.5445 -0.0732
 4562SOL    HW225146   1.049   4.287   6.166 -0.6275  2.1411  0.2915
 4563SOL     OW25147   4.601   2.066  16.428  0.1994  0.4392  0.3785
 4563SOL    HW125148   4.532   2.005  16.454 -1.7195  0.1997 -5.2757
 4563SOL    HW225149   4.643   2.078  16.513 -0.1100  1.1852  0.4254
 4564SOL     OW25150   1.845   1.580   2.149  0.4061 -0.1366 -0.9947
 4564SOL    HW125151   1.797   1.526   2.087  0.8753 -1.1912 -0.4430
 4564SOL    HW225152   1.895   1.515   2.198 -1.4444 -1.5495 -0.9779
 4565SOL     OW25153   1.426   0.145   8.660  0.2065 -0.2898 -0.1300
 4565SOL    HW125154   1.468   0.207   8.720  0.1552 -1.1070  0.7426
 4565SOL    HW225155   1.339   0.140   8.699 -0.2154  0.4944 -0.9704
 4566SOL     OW25156   1.606   3.794   8.539  0.1087  0.1241  0.0775
 4566SOL    HW125157   1.682   3.831   8.496  0.6253  0.6173  1.4276
 4566SOL    HW225158   1.533   3.846   8.506  1.6456  2.9896  1.1946
 4567SOL     OW25159   0.167   0.873   7.836  0.0377  0.0190  0.6879
 4567SOL    HW125160   0.256   0.908   7.847  0.4466 -1.0915  0.8621
 4567SOL    HW225161   0.123   0.918   7.908 -1.4385 -0.6334  0.1780
 4568SOL     OW25162   3.412   4.328   4.009 -0.3834  0.5547  0.2039
 4568SOL    HW125163   3.404   4.268   3.934 -2.3786 -1.0939  1.7183
 4568SOL    HW225164   3.496   4.295   4.040 -0.6317 -0.5156 -0.2361
 4569SOL     OW25165   0.540   0.053  16.530  0.3315 -0.1373 -0.6215
 4569SOL    HW125166   0.609   0.062  16.464  1.8493  0.5702  1.0697
 4569SOL    HW225167   0.465   0.064  16.472  0.7090  0.5064 -0.9899
 4570SOL     OW25168   4.333   1.931   9.553  0.0594 -0.0439 -0.0146
 4570SOL    HW125169   4.352   1.965   9.466  0.0054  0.4440  0.1665
 4570SOL    HW225170   4.270   1.994   9.587  0.5290 -0.2415  1.2456
 4571SOL     OW25171   0.906   3.283   2.721 -0.4235 -0.8221  0.2178
 4571SOL    HW125172   0.955   3.293   2.639  0.2177 -0.7387  0.6137
 4571SOL    HW225173   0.979   3.252   2.774  2.1252  2.5232 -1.3248
 4572SOL     OW25174   3.527   1.135  13.491 -0.0978 -0.5965 -0.2787
 4572SOL    HW125175   3.593   1.068  13.472  0.4691 -0.2529  0.4916
 4572SOL    HW225176   3.558   1.165  13.576 -1.8818 -2.2988  0.9821
 4573SOL     OW25177   1.878   1.790  11.056  0.4016 -0.2311  0.3140
 4573SOL    HW125178   1.863   1.715  11.113  1.7998  0.7230  1.9275
 4573SOL    HW225179   1.898   1.858  11.121  0.2378  0.6346 -0.5317
 4574SOL     OW25180   2.973   2.384  12.753 -0.4037  0.4564 -0.1694
 4574SOL    HW125181   2.993   2.460  12.697  0.8198 -0.9515 -1.6298
 4574SOL    HW225182   2.887   2.367  12.716 -0.9535 -0.2521  1.4220
 4575SOL     OW25183   4.169   0.395  16.155 -0.7713 -0.6214  0.2366
 4575SOL    HW125184   4.190   0.362  16.068 -0.9805  1.7982 -0.7156
 4575SOL    HW225185   4.185   0.314  16.204  0.3054  0.8389  2.3343
 4576SOL     OW25186   1.774   2.743   4.213 -0.6468  0.2890 -0.1157
 4576SOL    HW125187   1.772   2.732   4.308 -1.2856  0.1520 -0.1469
 4576SOL    HW225188   1.754   2.654   4.183  0.1030  0.2426 -0.5067
 4577SOL     OW25189   0.975   3.231   6.391  0.5189 -0.2835 -0.4989
 4577SOL    HW125190   0.939   3.253   6.305 -0.6551  0.2514  0.1251
 4577SOL    HW225191   0.955   3.311   6.438 -0.7051 -0.2671 -1.0517
 4578SOL     OW25192   1.091   2.484   1.813 -0.4803 -0.3489  0.2406
 4578SOL    HW125193   1.024   2.486   1.881 -1.1488 -1.2787 -0.3857
 4578SOL    HW225194   1.049   2.527   1.738  0.6048 -1.8228 -1.2115
 4579SOL     OW25195   0.280   4.329  14.531  0.3741  0.0767 -0.1843
 4579SOL    HW125196   0.304   4.303  14.443  2.1502  1.2520 -0.0292
 4579SOL    HW225197   0.203   4.384  14.517  1.3749  1.9516  1.6613
 4580SOL     OW25198   0.390   0.112  12.999  0.0372  0.2718 -0.3368
 4580SOL    HW125199   0.401   0.201  13.033 -0.2639  0.5378 -0.9289
 4580SOL    HW225200   0.472   0.096  12.953  0.3462  1.6824 -0.2561
 4581SOL     OW25201   2.582   2.384  13.588  0.3903  0.0950 -0.2392
 4581SOL    HW125202   2.500   2.431  13.573  0.1267 -0.3607 -0.2225
 4581SOL    HW225203   2.581   2.318  13.519 -0.9645  1.4143 -1.5048
 4582SOL     OW25204   2.462   4.122   1.258  0.0592  0.2387  0.2943
 4582SOL    HW125205   2.549   4.147   1.227 -0.2172  1.9598  0.8831
 4582SOL    HW225206   2.457   4.151   1.349 -2.1313 -0.3566  0.3615
 4583SOL     OW25207   0.461   0.887  13.455 -0.0851  0.8319  0.0605
 4583SOL    HW125208   0.480   0.931  13.537 -0.8007  0.2639  0.5381
 4583SOL    HW225209   0.477   0.798  13.488 -1.7322  0.0888 -1.1033
 4584SOL     OW25210   1.715   1.322   8.614  0.2933  0.6627  0.0400
 4584SOL    HW125211   1.807   1.296   8.619 -0.0437 -0.4804  0.2806
 4584SOL    HW225212   1.666   1.240   8.620  0.4351  0.4029 -2.2713
 4585SOL     OW25213   2.322   1.823   7.740 -0.1579  0.2329 -0.5276
 4585SOL    HW125214   2.232   1.805   7.769 -0.0159  0.1940 -0.1169
 4585SOL    HW225215   2.364   1.740   7.763  1.0735  0.9577 -0.1479
 4586SOL     OW25216   4.543   2.795   7.161 -0.2945  0.0160  0.2388
 4586SOL    HW125217   4.500   2.748   7.233 -0.1775  1.2841  1.1437
 4586SOL    HW225218   4.635   2.770   7.174 -0.2250  0.2774  0.2558
 4587SOL     OW25219   2.092   1.043   9.277  0.6871  0.0165 -0.5055
 4587SOL    HW125220   2.021   1.070   9.219  0.2013  0.3466  0.2359
 4587SOL    HW225221   2.068   0.952   9.291 -1.6909  0.9533  1.5257
 4588SOL     OW25222   0.173   2.138   0.872  0.1538 -0.2603  0.5737
 4588SOL    HW125223   0.187   2.091   0.790 -0.1601  0.7137 -0.0356
 4588SOL    HW225224   0.089   2.104   0.903  1.5061 -2.1434  2.1424
 4589SOL     OW25225   2.592   1.015   8.905  0.3197 -0.2064 -0.4752
 4589SOL    HW125226   2.545   0.985   8.983  0.4287 -0.1040 -0.3698
 4589SOL    HW225227   2.630   0.930   8.886  2.5326  0.6612  0.0269
 4590SOL     OW25228   3.199   0.299   7.936  0.6514  0.2205 -0.2832
 4590SOL    HW125229   3.187   0.389   7.966  0.6726  0.1686 -0.1175
 4590SOL    HW225230   3.279   0.308   7.885 -0.3883 -0.6149 -2.0517
 4591SOL     OW25231   3.680   1.132   2.836  0.2363 -0.1158 -0.1369
 4591SOL    HW125232   3.741   1.205   2.845  0.2375  0.0015 -1.1082
 4591SOL    HW225233   3.687   1.121   2.741 -1.4943  1.1311 -0.4054
 4592SOL     OW25234   3.518   3.587  10.096 -0.8242 -0.0763 -0.6382
 4592SOL    HW125235   3.539   3.533  10.172 -0.8415 -0.3402 -0.8188
 4592SOL    HW225236   3.544   3.530  10.023 -0.1415 -3.6966  2.3866
 4593SOL     OW25237   4.595   4.111   4.678 -0.1797 -0.3637  0.2523
 4593SOL    HW125238   4.651   4.186   4.659  0.2625 -0.4546  1.1821
 4593SOL    HW225239   4.552   4.109   4.593 -1.1832  2.6938  0.6642
 4594SOL     OW25240   3.612   1.064  15.179 -0.1631  0.1064 -0.0461
 4594SOL    HW125241   3.522   1.039  15.200 -0.5320  1.4857  0.0380
 4594SOL    HW225242   3.650   1.078  15.265  0.7147 -0.6395 -0.3185
 4595SOL     OW25243   3.360   0.503   2.005 -0.5698 -0.0091  0.6791
 4595SOL    HW125244   3.433   0.527   1.948  0.2725  0.6789  2.0678
 4595SOL    HW225245   3.382   0.410   2.009  3.1946  0.7552 -2.1416
 4596SOL     OW25246   4.325   3.936   9.668 -0.5493 -0.1563  0.0307
 4596SOL    HW125247   4.231   3.924   9.681 -0.3818 -0.5838  0.8605
 4596SOL    HW225248   4.365   3.851   9.652 -0.6325 -0.4791  1.4770
 4597SOL     OW25249   1.192   1.258  11.010  0.4756 -0.5723 -0.1429
 4597SOL    HW125250   1.158   1.219  11.090 -0.0467  0.4977  0.1598
 4597SOL    HW225251   1.123   1.322  10.994  1.2005  0.1349 -0.4425
 4598SOL     OW25252   2.050   3.631   4.373  0.0468 -0.1170  0.0545
 4598SOL    HW125253   2.119   3.569   4.396  1.3952  1.8102  1.1226
 4598SOL    HW225254   2.091   3.717   4.377 -1.9398  0.8028  0.6782
 4599SOL     OW25255   0.057   2.995   3.961  0.3792 -0.7392 -0.6077
 4599SOL    HW125256   0.109   3.068   3.928 -1.1676 -0.1150 -1.6850
 4599SOL    HW225257   0.063   2.930   3.891  1.0305 -0.2612 -0.9871
 4600SOL     OW25258   1.993   3.858   2.333  0.4540 -0.8460  0.0961
 4600SOL    HW125259   1.990   3.883   2.425 -2.2959 -1.6792  0.2339
 4600SOL    HW225260   1.950   3.772   2.327  1.6595 -1.3425 -1.4676
 4601SOL     OW25261   2.497   1.139  14.949 -0.4989 -0.5033 -0.5866
 4601SOL    HW125262   2.570   1.109  15.003  0.4103 -0.8377 -2.0100
 4601SOL    HW225263   2.430   1.141  15.017 -1.0518  1.2273 -1.1677
 4602SOL     OW25264   4.329   1.036  13.611  0.2609 -0.0071  0.2798
 4602SOL    HW125265   4.329   0.940  13.613  1.1240  0.0000  0.4633
 4602SOL    HW225266   4.280   1.060  13.690 -0.3610 -1.6872  0.4031
 4603SOL     OW25267   0.936   0.771  14.009 -0.0527 -0.7107 -0.0628
 4603SOL    HW125268   0.844   0.794  14.020  0.8058  0.7884  3.9446
 4603SOL    HW225269   0.941   0.678  14.031 -1.9274 -0.8036 -0.1137
 4604SOL     OW25270   1.671   3.692  11.176  0.8995 -0.0492  0.3572
 4604SOL    HW125271   1.595   3.636  11.160 -0.2233  2.0493 -1.6536
 4604SOL    HW225272   1.712   3.672  11.092  0.0106 -0.6562  0.0643
 4605SOL     OW25273   1.712   2.002  17.570 -0.2924 -0.3078 -0.3190
 4605SOL    HW125274   1.761   2.014  17.489  1.2370  1.2742  0.8264
 4605SOL    HW225275   1.782   1.994  17.635  0.2957 -0.7119 -1.0075
 4606SOL     OW25276   1.337   0.457  13.709  0.0862  0.3973 -0.0557
 4606SOL    HW125277   1.276   0.492  13.774  1.1889 -0.7862  1.5893
 4606SOL    HW225278   1.399   0.409  13.764  0.2554  1.3689  0.6065
 4607SOL     OW25279   4.686   1.110   7.679 -0.1713  0.1979 -0.2539
 4607SOL    HW125280   0.016   1.079   7.604 -0.6957  0.7853 -0.8580
 4607SOL    HW225281   4.719   1.199   7.688  3.8886 -1.1728 -1.6061
 4608SOL     OW25282   1.107   0.046  14.679 -0.4648  0.7550  0.5385
 4608SOL    HW125283   1.168   4.699  14.648 -1.0371  1.1907 -1.5430
 4608SOL    HW225284   1.064   0.062  14.595 -1.0617 -4.7611 -0.2439
 4609SOL     OW25285   3.911   1.535   7.941 -0.3590  0.0267 -0.2592
 4609SOL    HW125286   3.927   1.455   7.890  0.6853  0.2238 -0.2291
 4609SOL    HW225287   3.919   1.593   7.865  0.0975 -1.6150 -1.4717
 4610SOL     OW25288   1.298   4.715   2.815  0.1144  0.2490 -0.3747
 4610SOL    HW125289   1.316   4.681   2.727  0.1808 -1.8683  0.4514
 4610SOL    HW225290   1.222   0.050   2.802 -1.1961 -1.3884  0.1641
 4611SOL     OW25291   1.544   2.094   8.361  0.1543  0.2171 -0.2296
 4611SOL    HW125292   1.514   2.111   8.450 -0.0559 -0.0074 -0.2593
 4611SOL    HW225293   1.571   2.006   8.386  0.0590  0.5413  1.0235
 4612SOL     OW25294   1.955   4.155   2.593  0.0290 -0.7631 -0.6324
 4612SOL    HW125295   1.867   4.174   2.559  0.0716  0.6433  0.0574
 4612SOL    HW225296   2.006   4.215   2.539  1.8600 -2.0741 -0.3533
 4613SOL     OW25297   0.089   3.304   2.961 -0.6006 -0.2569  0.6671
 4613SOL    HW125298   0.137   3.376   3.003 -1.4093  0.0554  1.0566
 4613SOL    HW225299   0.089   3.238   3.030  0.0537 -0.4955  0.4372
 4614SOL     OW25300   1.165   4.349   2.749 -0.3590 -0.0720 -0.2570
 4614SOL    HW125301   1.177   4.440   2.720  1.1581 -0.3646 -0.5280
 4614SOL    HW225302   1.105   4.353   2.824 -1.8127  1.5050 -1.4758
 4615SOL     OW25303   2.937   4.566  16.617 -0.2571 -0.1279  0.4424
 4615SOL    HW125304   2.918   4.656  16.593  1.2234 -0.4741 -2.0289
 4615SOL    HW225305   3.021   4.562  16.571 -1.2336 -1.7017 -1.1965
 4616SOL     OW25306   2.833   1.002   6.490  0.3832  0.2496  0.4118
 4616SOL    HW125307   2.889   0.944   6.438  0.5258  1.3449 -0.6615
 4616SOL    HW225308   2.821   1.076   6.431 -1.7334  0.7245  1.4598
 4617SOL     OW25309   4.641   2.792   5.673  0.6290  0.6935 -0.0841
 4617SOL    HW125310   4.611   2.770   5.585  1.0194 -1.9694  0.4420
 4617SOL    HW225311   4.622   2.706   5.712 -1.1407  1.3113  0.4174
 4618SOL     OW25312   0.059   3.057   3.121  0.7303  0.0108 -0.0783
 4618SOL    HW125313   4.699   3.012   3.099  0.4516  1.6209 -2.3184
 4618SOL    HW225314   0.101   2.992   3.178 -1.0572 -2.9234 -2.1098
 4619SOL     OW25315   3.451   3.917   3.213  0.1700 -0.3070  0.2338
 4619SOL    HW125316   3.398   3.991   3.184 -3.0506 -2.2647  1.1229
 4619SOL    HW225317   3.501   3.974   3.272  0.6061 -0.1415 -0.2919
 4620SOL     OW25318   4.150   4.054  11.828  0.3690  0.0975 -0.0699
 4620SOL    HW125319   4.225   4.027  11.775  0.8320 -1.3876  1.3451
 4620SOL    HW225320   4.191   4.107  11.897 -0.3527  0.6841 -0.0927
 4621SOL     OW25321   1.046   3.582   4.839 -0.3159 -0.9173  0.7165
 4621SOL    HW125322   1.019   3.492   4.826  1.5873 -0.8498 -3.9811
 4621SOL    HW225323   0.996   3.627   4.770 -0.5981 -2.0154  0.2153
 4622SOL     OW25324   4.346   2.626   8.646 -0.1158  0.4961  0.3671
 4622SOL    HW125325   4.306   2.709   8.675 -1.1830 -0.0617  0.4861
 4622SOL    HW225326   4.401   2.657   8.574  0.6354 -1.5098  0.1019
 4623SOL     OW25327   4.437   1.084   3.925 -0.0050  0.3899  0.4930
 4623SOL    HW125328   4.497   1.040   3.865  0.3747 -1.4054  2.1930
 4623SOL    HW225329   4.497   1.125   3.988  0.9446 -0.9994  0.4989
 4624SOL     OW25330   3.960   3.350   3.933 -0.4003 -0.2908  0.5519
 4624SOL    HW125331   3.872   3.386   3.944 -0.9140 -1.5128  0.3613
 4624SOL    HW225332   4.011   3.432   3.933  0.5555 -0.8907  0.6201
 4625SOL     OW25333   1.598   0.409   8.702 -0.0796 -0.8086 -0.3345
 4625SOL    HW125334   1.636   0.497   8.711 -1.5609 -0.2852  0.7222
 4625SOL    HW225335   1.607   0.376   8.791 -1.9586  1.5326  0.7344
 4626SOL     OW25336   3.152   1.806   4.777  0.0716 -0.2897  0.6276
 4626SOL    HW125337   3.107   1.806   4.693  0.4508 -2.9148  0.4068
 4626SOL    HW225338   3.168   1.899   4.788 -2.3114  0.2350 -0.3271
 4627SOL     OW25339   0.753   1.111   1.909 -0.3157 -0.0903 -0.5441
 4627SOL    HW125340   0.760   1.105   2.004 -0.7347 -1.3974 -0.5898
 4627SOL    HW225341   0.674   1.060   1.889 -0.9875  0.4814  0.6821
 4628SOL     OW25342   1.794   0.974   5.142  0.3160  0.1223 -0.3197
 4628SOL    HW125343   1.733   1.042   5.112 -1.6568 -1.0771  0.9606
 4628SOL    HW225344   1.873   1.020   5.114  0.7251  0.9973  2.2224
 4629SOL     OW25345   2.068   0.243   3.164  0.8659  0.1764  0.0598
 4629SOL    HW125346   2.161   0.227   3.183  1.3660  0.3119 -2.3342
 4629SOL    HW225347   2.053   0.323   3.114 -2.0361 -1.3765 -1.5487
 4630SOL     OW25348   2.566   3.708   9.043  0.1840 -0.2926 -0.1974
 4630SOL    HW125349   2.593   3.777   9.104  1.8058  0.2281 -1.5098
 4630SOL    HW225350   2.486   3.679   9.086  0.7453  2.2385  2.6324
 4631SOL     OW25351   2.749   0.816   8.825  0.0674  0.4168 -0.1349
 4631SOL    HW125352   2.768   0.791   8.735  2.3127 -0.1508  0.4863
 4631SOL    HW225353   2.822   0.788   8.880 -0.4801 -0.0257  0.3621
 4632SOL     OW25354   4.595   4.461   2.528  0.2380  0.4483  0.2472
 4632SOL    HW125355   4.627   4.551   2.540  0.5855  0.2422  0.8615
 4632SOL    HW225356   4.666   4.423   2.477  0.2912  0.3306  0.4116
 4633SOL     OW25357   4.124   3.003   2.442  0.0078 -0.2297  0.3383
 4633SOL    HW125358   4.052   2.944   2.422 -0.5742  0.5578  0.0929
 4633SOL    HW225359   4.110   3.011   2.536 -0.0561  1.6423  0.1737
 4634SOL     OW25360   0.297   4.108   6.899  0.3270  0.0518 -0.3150
 4634SOL    HW125361   0.278   4.170   6.969  1.4994  1.2825 -1.0691
 4634SOL    HW225362   0.381   4.067   6.921  0.0852 -0.4675 -0.3445
 4635SOL     OW25363   0.915   0.444   2.044 -0.0521 -0.6437  0.6621
 4635SOL    HW125364   0.841   0.451   1.984  2.2197  0.0807 -2.0650
 4635SOL    HW225365   0.866   0.464   2.123 -1.8384 -0.3563 -0.5298
 4636SOL     OW25366   2.048   1.433   2.853 -0.6518  0.3151 -0.1454
 4636SOL    HW125367   2.019   1.465   2.768 -1.0284  0.3699  0.0009
 4636SOL    HW225368   1.979   1.367   2.863 -1.2475  0.6630 -2.0488
 4637SOL     OW25369   2.606   4.343  13.062 -0.3121  0.4069 -0.4169
 4637SOL    HW125370   2.564   4.289  12.995 -2.0924 -0.5329  1.4426
 4637SOL    HW225371   2.573   4.301  13.141  0.1423 -1.8178 -1.4045
 4638SOL     OW25372   4.598   1.860   2.785 -0.0585  0.3473  0.0321
 4638SOL    HW125373   4.687   1.859   2.751 -0.2802  0.3969 -0.5404
 4638SOL    HW225374   4.589   1.936   2.843 -0.6583  1.2675 -1.2755
 4639SOL     OW25375   1.802   1.644   3.094 -0.2533  0.4065  0.1518
 4639SOL    HW125376   1.745   1.707   3.137 -0.4318 -1.2096  2.2947
 4639SOL    HW225377   1.753   1.592   3.030 -0.7478  1.4404 -0.3120
 4640SOL     OW25378   3.097   4.119   7.978  0.1291 -0.2058 -0.2688
 4640SOL    HW125379   3.032   4.125   7.908  1.0855  1.2842 -1.0416
 4640SOL    HW225380   3.097   4.208   8.013 -1.4137 -0.1211 -0.4745
 4641SOL     OW25381   2.208   3.294   7.155 -0.4634 -0.0783  0.1156
 4641SOL    HW125382   2.121   3.297   7.195  0.0083  1.0564  1.0573
 4641SOL    HW225383   2.194   3.341   7.073  2.0900 -1.3440 -1.0711
 4642SOL     OW25384   0.690   4.272   3.138 -0.0321 -0.2534 -0.2551
 4642SOL    HW125385   0.772   4.228   3.117 -1.2201 -1.6807 -1.9213
 4642SOL    HW225386   0.641   4.197   3.172  1.6050 -1.2809 -0.1533
 4643SOL     OW25387   0.406   3.833   6.500 -0.1119  0.7042  0.3963
 4643SOL    HW125388   0.332   3.889   6.474  1.0585  0.3910 -3.7001
 4643SOL    HW225389   0.412   3.762   6.436  0.7996  1.0617  0.0807
 4644SOL     OW25390   3.585   3.248   4.886 -0.1847 -0.1255 -0.2619
 4644SOL    HW125391   3.508   3.288   4.925  0.5234 -0.2727  1.2838
 4644SOL    HW225392   3.656   3.250   4.950 -0.2994 -2.0942 -0.0583
 4645SOL     OW25393   0.735   0.636  11.002  0.6117  0.0223 -0.0626
 4645SOL    HW125394   0.705   0.557  10.957 -0.4916  1.6959 -2.2506
 4645SOL    HW225395   0.745   0.697  10.930  0.7858  0.2847  0.1860
 4646SOL     OW25396   0.198   2.057   5.094 -0.2187 -0.3517 -0.2287
 4646SOL    HW125397   0.290   2.079   5.077  0.3268 -0.4098  2.6318
 4646SOL    HW225398   0.192   2.036   5.187  0.2292  2.0021  0.3330
 4647SOL     OW25399   2.315   2.801   8.386  0.4793  0.5256 -0.1218
 4647SOL    HW125400   2.352   2.714   8.376  0.5495  0.4192  1.1948
 4647SOL    HW225401   2.222   2.781   8.401  0.7821  0.9069  2.1950
 4648SOL     OW25402   3.971   4.105   9.308  0.3935 -0.5628 -0.7413
 4648SOL    HW125403   4.021   4.044   9.363  0.3590  1.2410  1.2908
 4648SOL    HW225404   4.038   4.131   9.244 -0.4823 -1.4216 -2.0275
 4649SOL     OW25405   3.939   3.529   9.738 -0.0443  0.4807  0.1904
 4649SOL    HW125406   3.859   3.581   9.734  0.7381  1.5714 -1.4132
 4649SOL    HW225407   4.001   3.593   9.773 -0.9180 -0.1622  2.8800
 4650SOL     OW25408   4.653   1.993   0.948 -0.5442  0.2423 -0.9750
 4650SOL    HW125409   4.557   1.989   0.945 -0.6274  1.6401  0.1054
 4650SOL    HW225410   4.679   1.907   0.916 -1.6530 -1.8737  3.8442
 4651SOL     OW25411   1.751   0.974   1.298 -0.2512  0.6064  0.3110
 4651SOL    HW125412   1.841   0.990   1.272 -0.0492 -1.8236 -0.4486
 4651SOL    HW225413   1.771   0.927   1.379 -0.1506 -0.8699 -0.5707
 4652SOL     OW25414   2.984   4.691   5.381  0.6519  0.1116 -0.3047
 4652SOL    HW125415   2.911   4.634   5.352  0.9767 -0.1819 -0.5481
 4652SOL    HW225416   3.047   4.620   5.396  1.2252  0.2845 -1.8653
 4653SOL     OW25417   3.888   1.715   7.616  0.4719 -0.3413 -0.2125
 4653SOL    HW125418   3.854   1.793   7.661  2.0388  1.6291 -2.4097
 4653SOL    HW225419   3.814   1.696   7.559 -1.0894  0.2668  1.6434
 4654SOL     OW25420   0.277   1.324   4.568 -0.1394  0.1284  0.5013
 4654SOL    HW125421   0.315   1.339   4.481 -1.3107  0.4928  0.0502
 4654SOL    HW225422   0.352   1.342   4.625  0.4676 -3.6114  0.8735
 4655SOL     OW25423   4.013   2.604  13.575 -0.6133  0.4175  0.4961
 4655SOL    HW125424   4.003   2.699  13.570  0.2279  0.3756 -2.3495
 4655SOL    HW225425   3.927   2.581  13.609  0.0433 -0.9749  1.2099
 4656SOL     OW25426   3.582   4.479   3.832  0.4367  0.6728 -0.0048
 4656SOL    HW125427   3.533   4.409   3.791 -0.5914  0.7220  1.1404
 4656SOL    HW225428   3.584   4.454   3.925 -2.6409  0.4009 -0.0131
 4657SOL     OW25429   0.598   2.888  14.552  0.1409 -0.0784  0.1026
 4657SOL    HW125430   0.511   2.885  14.512  0.3847 -0.1618 -0.4121
 4657SOL    HW225431   0.612   2.794  14.547 -1.9298 -0.5616  2.9535
 4658SOL     OW25432   0.421   4.093  14.314 -0.3829 -0.5339  0.3317
 4658SOL    HW125433   0.371   4.171  14.288  0.3656 -0.0987  0.1860
 4658SOL    HW225434   0.507   4.136  14.315 -1.1228  0.9346  0.6565
 4659SOL     OW25435   2.654   3.728   2.331  0.0036 -0.2383  0.4656
 4659SOL    HW125436   2.602   3.806   2.350 -1.7432 -1.5076  0.9043
 4659SOL    HW225437   2.596   3.652   2.337  1.2480 -1.1932  0.5203
 4660SOL     OW25438   1.461   3.293  11.962 -0.6123 -0.3578  0.3956
 4660SOL    HW125439   1.470   3.211  12.011 -1.4624 -0.8917 -0.3523
 4660SOL    HW225440   1.441   3.350  12.035 -0.4418  0.2726 -0.0515
 4661SOL     OW25441   4.427   1.835   8.875 -0.0683 -0.5319  0.6600
 4661SOL    HW125442   4.504   1.819   8.930 -0.9716  1.1922  2.4032
 4661SOL    HW225443   4.456   1.773   8.808 -2.0190 -2.3757  1.5204
 4662SOL     OW25444   0.896   4.679   8.481 -0.2776  0.0118 -0.5035
 4662SOL    HW125445   0.967   4.667   8.544 -2.0927 -0.0742  1.5110
 4662SOL    HW225446   0.823   4.701   8.539  0.1110  2.3234 -0.8912
 4663SOL     OW25447   4.059   3.287  12.308 -0.1591 -0.1256 -0.4535
 4663SOL    HW125448   4.083   3.291  12.400  1.2336  0.1493 -0.8271
 4663SOL    HW225449   3.967   3.308  12.324 -0.0851  0.9449 -1.4552
 4664SOL     OW25450   3.836   2.865   0.165  0.0011 -0.4599  0.0061
 4664SOL    HW125451   3.898   2.888   0.234  0.4407 -3.3542  0.6026
 4664SOL    HW225452   3.835   2.769   0.170  0.2388 -0.4529  0.1510
 4665SOL     OW25453   2.444   2.499   6.504  0.4419  0.3661  0.2517
 4665SOL    HW125454   2.529   2.456   6.493 -0.0260 -0.4074 -0.3596
 4665SOL    HW225455   2.402   2.493   6.418 -0.7826  1.4355  0.7712
 4666SOL     OW25456   4.207   2.420  11.614  0.0447 -0.0876 -0.0655
 4666SOL    HW125457   4.172   2.394  11.699  0.2168  3.0014  0.9763
 4666SOL    HW225458   4.159   2.360  11.557  0.3830  0.5888 -1.0515
 4667SOL     OW25459   2.555   0.154   9.725 -0.1661  0.2062 -0.1726
 4667SOL    HW125460   2.627   0.215   9.740  0.6803 -0.9029  0.2194
 4667SOL    HW225461   2.560   0.093   9.798  0.3414  0.0631 -0.3249
 4668SOL     OW25462   2.563   2.454   7.278  0.0987  0.9024  0.0327
 4668SOL    HW125463   2.595   2.536   7.239 -1.5169  1.2753 -0.4842
 4668SOL    HW225464   2.648   2.411   7.291  0.3963  1.4842  0.0099
 4669SOL     OW25465   0.814   3.543  17.496  0.3843 -0.2081  0.9317
 4669SOL    HW125466   0.738   3.550  17.553 -0.3806  1.1514 -0.2671
 4669SOL    HW225467   0.874   3.591  17.553  2.8503 -3.0658  0.7372
 4670SOL     OW25468   3.194   4.586   7.176  0.1093  0.9126  0.1766
 4670SOL    HW125469   3.219   4.496   7.157 -1.6772  0.6045 -0.7324
 4670SOL    HW225470   3.199   4.594   7.271 -1.9416 -0.4226  0.3981
 4671SOL     OW25471   3.110   4.459   5.765  0.3438 -0.3600 -0.1450
 4671SOL    HW125472   3.122   4.388   5.828 -1.0061 -3.2315 -3.1699
 4671SOL    HW225473   3.198   4.495   5.775  0.5261 -0.7626 -0.2953
 4672SOL     OW25474   0.378   0.718   7.624  0.3878 -0.0133  0.1105
 4672SOL    HW125475   0.366   0.812   7.639 -1.5296 -0.3432  0.7096
 4672SOL    HW225476   0.358   0.712   7.530 -3.5220  3.5910  0.7007
 4673SOL     OW25477   2.380   4.505   3.781  0.1878  0.0902 -0.1437
 4673SOL    HW125478   2.286   4.496   3.767 -0.2253  1.7877  1.5115
 4673SOL    HW225479   2.418   4.432   3.731 -2.1329  0.0045 -1.7470
 4674SOL     OW25480   0.543   0.645  10.698 -0.0012  0.5907  0.2697
 4674SOL    HW125481   0.634   0.673  10.689 -0.3196  1.3882 -0.4321
 4674SOL    HW225482   0.504   0.732  10.692  0.3997  0.8524  1.3404
 4675SOL     OW25483   3.666   2.747   1.178  0.4927  0.6677 -0.0354
 4675SOL    HW125484   3.586   2.702   1.151  1.6533 -1.7293  0.5223
 4675SOL    HW225485   3.716   2.667   1.195 -2.1222 -0.4803  2.3114
 4676SOL     OW25486   1.214   0.197   0.342  0.8792 -0.2928  0.3379
 4676SOL    HW125487   1.134   0.214   0.392  0.1868  1.5462 -1.3876
 4676SOL    HW225488   1.260   0.277   0.366  1.7413 -0.9561  0.8832
 4677SOL     OW25489   0.904   4.639   1.369  0.0099 -0.1486  0.0398
 4677SOL    HW125490   0.828   4.620   1.313  1.2428 -3.1871 -0.6212
 4677SOL    HW225491   0.969   4.667   1.305 -0.8320 -1.7328 -1.5315
 4678SOL     OW25492   2.949   1.740   2.276  0.4591  0.2224 -0.5151
 4678SOL    HW125493   2.910   1.819   2.314  0.7344 -0.2108  0.6885
 4678SOL    HW225494   3.042   1.760   2.285  1.2532 -3.5764 -0.3249
 4679SOL     OW25495   2.791   2.902   5.980  0.3515  0.0650  0.2265
 4679SOL    HW125496   2.767   2.818   5.943  2.0996 -0.6950  0.8045
 4679SOL    HW225497   2.715   2.914   6.037  0.6530  2.6872  0.1087
 4680SOL     OW25498   1.724   1.058  12.928  0.6558 -0.2533  0.0424
 4680SOL    HW125499   1.740   1.119  13.000 -0.6061 -1.8910  1.6881
 4680SOL    HW225500   1.802   1.004  12.937  1.2058  0.7279  1.2157
 4681SOL     OW25501   1.253   2.089   9.603  0.1317 -0.4466 -0.3575
 4681SOL    HW125502   1.167   2.050   9.589  0.3462 -1.7170  1.8131
 4681SOL    HW225503   1.229   2.178   9.630  0.0615 -0.4740 -0.3281
 4682SOL     OW25504   1.095   1.630   6.813 -0.0887  0.0210  0.0641
 4682SOL    HW125505   1.099   1.680   6.732  0.4616  1.2828  0.8729
 4682SOL    HW225506   1.076   1.692   6.884 -1.6655  0.0755 -0.4121
 4683SOL     OW25507   2.582   0.173   2.377 -0.5194  0.5006  0.6294
 4683SOL    HW125508   2.580   0.080   2.400 -3.9057  0.7726  1.4462
 4683SOL    HW225509   2.665   0.164   2.331 -1.1919  1.0834 -0.7016
 4684SOL     OW25510   4.707   0.040   9.003 -0.3756 -0.7709  0.2374
 4684SOL    HW125511   4.671   0.127   8.989  3.3432  0.7504 -0.0510
 4684SOL    HW225512   0.078   0.061   8.983 -0.8929  0.6784 -0.6369
 4685SOL     OW25513   1.254   0.377   7.341 -0.0075 -0.4987  0.4343
 4685SOL    HW125514   1.193   0.351   7.272  1.3365  0.0548 -0.9713
 4685SOL    HW225515   1.250   0.294   7.388  1.4910  0.1944  1.7876
 4686SOL     OW25516   0.882   0.931   1.534 -0.4400  0.4235 -0.1773
 4686SOL    HW125517   0.921   0.894   1.455  0.9619 -0.1266  0.7531
 4686SOL    HW225518   0.824   0.857   1.553 -0.2273  0.6076  1.2161
 4687SOL     OW25519   4.259   0.221   6.035 -0.1673 -0.4521  0.1966
 4687SOL    HW125520   4.262   0.265   5.950  3.1195 -0.1570  0.4919
 4687SOL    HW225521   4.314   0.151   6.002 -0.7307 -0.3832 -0.9166
 4688SOL     OW25522   1.763   3.464   9.960  0.8217 -0.3019  0.2881
 4688SOL    HW125523   1.719   3.452   9.876 -0.9446  2.8115  0.7731
 4688SOL    HW225524   1.758   3.560   9.965 -2.5873 -0.5204  0.7196
 4689SOL     OW25525   0.094   0.638  12.827  0.0467 -0.3544  0.0443
 4689SOL    HW125526   0.078   0.670  12.915  0.9238  0.2521 -0.0124
 4689SOL    HW225527   0.011   0.591  12.816  0.1324 -0.5637  0.2884
 4690SOL     OW25528   2.077   1.642   1.816  0.1291 -0.3069 -0.0700
 4690SOL    HW125529   2.122   1.676   1.739 -1.5080  2.2138  0.0875
 4690SOL    HW225530   1.985   1.665   1.801  0.6634 -0.1423 -3.0999
 4691SOL     OW25531   1.017   2.007   9.478 -0.6943 -0.6327 -0.1078
 4691SOL    HW125532   0.937   1.959   9.455  0.2458 -2.8305  1.1726
 4691SOL    HW225533   1.063   2.021   9.395  0.3815 -1.3765  0.3656
 4692SOL     OW25534   4.246   4.713   6.299 -0.0587  0.5218 -0.0021
 4692SOL    HW125535   4.208   4.691   6.214 -3.2953  0.5961  1.4398
 4692SOL    HW225536   4.297   4.633   6.310  0.6847  1.0402  0.3285
 4693SOL     OW25537   0.320   0.389   7.113  0.0712  0.3507  0.4034
 4693SOL    HW125538   0.308   0.323   7.182 -0.6670 -0.4365 -0.4661
 4693SOL    HW225539   0.229   0.419   7.123 -0.5389 -0.6085 -2.3258
 4694SOL     OW25540   4.184   1.321  11.627  0.9496 -0.1926 -0.1087
 4694SOL    HW125541   4.154   1.311  11.537 -1.8999 -1.2181  0.9418
 4694SOL    HW225542   4.172   1.227  11.643 -1.0496  0.4022  1.8963
 4695SOL     OW25543   3.543   1.654  15.455  0.2003 -0.4894  0.0316
 4695SOL    HW125544   3.553   1.684  15.365 -1.7444  1.6724  0.5265
 4695SOL    HW225545   3.493   1.721  15.503  0.3245  0.4431 -1.1358
 4696SOL     OW25546   3.839   3.384   1.892 -0.7855 -0.1472 -0.1054
 4696SOL    HW125547   3.893   3.461   1.873 -0.1620 -0.8586 -1.1774
 4696SOL    HW225548   3.769   3.404   1.831 -0.5011 -2.0660 -1.0509
 4697SOL     OW25549   4.700   1.871   1.665 -0.3196  0.3303 -0.3006
 4697SOL    HW125550   0.058   1.879   1.719 -0.4387 -0.5921  0.0116
 4697SOL    HW225551   4.719   1.788   1.621 -3.1596 -0.4917  0.0206
 4698SOL     OW25552   2.693   2.236   7.464 -0.2943 -0.0774  0.7209
 4698SOL    HW125553   2.609   2.260   7.503  0.2714  1.8122  0.7353
 4698SOL    HW225554   2.748   2.293   7.517  1.3447 -0.8603 -0.1186
 4699SOL     OW25555   2.485   0.509   5.688  0.0113 -0.4125 -1.0758
 4699SOL    HW125556   2.572   0.536   5.660  0.5815 -0.5164  0.5914
 4699SOL    HW225557   2.435   0.507   5.606 -0.8175  1.1488 -0.6100
 4700SOL     OW25558   2.168   0.195   8.506  0.7915 -0.0624  0.5320
 4700SOL    HW125559   2.201   0.119   8.458  1.3066  0.5143 -0.0202
 4700SOL    HW225560   2.239   0.258   8.494  0.3432  0.3448  0.0257
 4701SOL     OW25561   0.211   4.453   7.827 -0.2639  0.3605 -0.0508
 4701SOL    HW125562   0.168   4.518   7.882  3.0483  3.5030 -1.1837
 4701SOL    HW225563   0.133   4.419   7.783 -1.0606  0.6919  1.0903
 4702SOL     OW25564   0.719   1.604  11.466 -0.2339 -0.0321  0.1121
 4702SOL    HW125565   0.719   1.690  11.425 -0.6199 -0.2667 -0.3706
 4702SOL    HW225566   0.809   1.575  11.447  0.4363  3.0647 -1.4107
 4703SOL     OW25567   3.887   4.262   2.940  0.3242  0.4102 -0.4546
 4703SOL    HW125568   3.966   4.208   2.947 -0.9750 -1.4173  0.1352
 4703SOL    HW225569   3.892   4.306   2.856  2.5967  1.8269  0.4294
 4704SOL     OW25570   0.698   3.426  14.078 -0.0119  0.3203  0.0646
 4704SOL    HW125571   0.784   3.441  14.118 -0.4584 -1.1581  1.5491
 4704SOL    HW225572   0.660   3.364  14.140  2.1493 -1.0644  0.0136
 4705SOL     OW25573   1.816   1.407   8.892  0.1109  0.2058 -0.2997
 4705SOL    HW125574   1.834   1.364   8.808 -1.2616  2.1460 -1.5953
 4705SOL    HW225575   1.904   1.402   8.927  0.0260  0.4459 -0.0482
 4706SOL     OW25576   0.578   1.344   1.930 -0.1593 -0.6479 -0.5965
 4706SOL    HW125577   0.583   1.385   1.843 -1.1215  0.0247 -0.3378
 4706SOL    HW225578   0.634   1.270   1.908  1.5061  0.7723 -1.1327
 4707SOL     OW25579   1.815   2.521  12.637  0.3355  0.1383 -0.2795
 4707SOL    HW125580   1.724   2.493  12.636 -0.6374  3.4103 -1.5540
 4707SOL    HW225581   1.841   2.491  12.550  2.0472  1.7280 -0.3135
 4708SOL     OW25582   0.734   3.420   1.227 -0.7069  0.1987  0.5810
 4708SOL    HW125583   0.655   3.465   1.256 -0.4848  0.7898  0.2840
 4708SOL    HW225584   0.704   3.396   1.139  1.3305  4.0464 -1.1857
 4709SOL     OW25585   3.475   1.518  15.959  0.1536 -0.8685  0.3959
 4709SOL    HW125586   3.468   1.572  15.880 -0.7227 -0.2960  0.8515
 4709SOL    HW225587   3.469   1.580  16.032 -2.7085 -1.0984  0.3670
 4710SOL     OW25588   4.250   4.410   6.019  0.6164 -0.3685 -0.0152
 4710SOL    HW125589   4.222   4.498   6.046  1.7891 -0.7207  2.3877
 4710SOL    HW225590   4.246   4.371   6.106 -0.0581 -2.4408 -0.9762
 4711SOL     OW25591   3.670   1.888   3.876 -0.0791  0.1218 -0.2680
 4711SOL    HW125592   3.615   1.812   3.894  0.3355 -0.0017  0.4933
 4711SOL    HW225593   3.671   1.880   3.781 -0.0948 -1.3839 -0.1328
 4712SOL     OW25594   1.119   0.294   5.595  0.0322  0.3774  0.5606
 4712SOL    HW125595   1.025   0.296   5.578 -0.0220 -0.3905  0.7536
 4712SOL    HW225596   1.142   0.216   5.543 -0.0083  0.7622 -0.0408
 4713SOL     OW25597   1.610   3.565   5.757  0.7761 -0.4290  0.1650
 4713SOL    HW125598   1.590   3.654   5.784  1.0464 -0.3186  0.0064
 4713SOL    HW225599   1.546   3.513   5.806 -1.4495  1.2527 -0.9670
 4714SOL     OW25600   4.540   4.320   7.083 -0.1363 -0.6812 -0.1499
 4714SOL    HW125601   4.601   4.317   7.156 -0.6645 -0.7064  0.2885
 4714SOL    HW225602   4.488   4.393   7.117  2.1253  0.6341  0.4829
 4715SOL     OW25603   3.510   1.088   8.019 -0.2210 -0.3976  0.0435
 4715SOL    HW125604   3.454   1.026   8.066  0.9591 -1.9685 -0.5964
 4715SOL    HW225605   3.558   1.117   8.097 -0.0719  0.9635 -0.5749
 4716SOL     OW25606   1.068   3.295   4.733 -0.1643  0.3574  0.5961
 4716SOL    HW125607   1.042   3.245   4.810  1.9043 -2.9553 -0.8030
 4716SOL    HW225608   1.161   3.271   4.740 -0.3412 -0.0989  1.3611
 4717SOL     OW25609   2.051   4.254   0.642 -0.9456  0.2174 -0.0794
 4717SOL    HW125610   1.994   4.317   0.687 -0.2464 -0.9480  2.4491
 4717SOL    HW225611   2.022   4.175   0.687  1.5902 -1.1639 -0.9106
 4718SOL     OW25612   2.209   2.085   7.606  0.1710 -0.0651  0.8371
 4718SOL    HW125613   2.210   1.998   7.647 -1.0106 -0.6671 -0.3959
 4718SOL    HW225614   2.301   2.096   7.581  0.3201 -3.6399 -0.2607
 4719SOL     OW25615   1.711   2.915   6.928  0.4988  0.0405  0.3400
 4719SOL    HW125616   1.780   2.907   6.994 -0.9525  2.1121  2.1337
 4719SOL    HW225617   1.728   3.005   6.901 -0.1497  0.6797  2.0700
 4720SOL     OW25618   3.938   1.929  13.466  0.0560 -0.3528 -0.6763
 4720SOL    HW125619   3.912   1.839  13.482 -0.3425  0.0212  0.8024
 4720SOL    HW225620   4.020   1.911  13.420  0.2599  2.5660 -1.5021
 4721SOL     OW25621   2.685   3.956  10.245 -0.2138  0.0881  0.0613
 4721SOL    HW125622   2.632   3.935  10.169 -0.4802  3.1727 -0.5946
 4721SOL    HW225623   2.757   4.006  10.206  1.4108 -0.7510  1.9680
 4722SOL     OW25624   4.180   3.124   7.746 -0.0088 -0.2651  0.0192
 4722SOL    HW125625   4.233   3.062   7.795 -1.9681 -0.8543  1.4058
 4722SOL    HW225626   4.146   3.191   7.805 -1.2943 -2.1978  1.4970
 4723SOL     OW25627   3.678   0.120  11.068  0.0326  0.0868 -0.3318
 4723SOL    HW125628   3.767   0.145  11.092  0.4900 -1.4784 -0.3902
 4723SOL    HW225629   3.687   0.025  11.072 -0.1847  0.1055  0.4994
 4724SOL     OW25630   2.624   0.533   8.919  0.5637 -0.2759 -0.4235
 4724SOL    HW125631   2.546   0.477   8.910 -0.4191  0.7316  2.0337
 4724SOL    HW225632   2.586   0.614   8.885 -3.6204 -1.9078  0.3901
 4725SOL     OW25633   2.732   2.032   3.802  0.1479  0.3347 -0.3850
 4725SOL    HW125634   2.801   2.092   3.831  0.0856 -0.3471  1.1573
 4725SOL    HW225635   2.720   2.056   3.710 -0.5832  1.1894 -0.0704
 4726SOL     OW25636   3.851   0.247   5.449 -0.7604 -0.4308 -0.2402
 4726SOL    HW125637   3.787   0.226   5.381 -0.6113  3.0335 -1.4598
 4726SOL    HW225638   3.850   0.170   5.506  1.6666  1.3164  2.1713
 4727SOL     OW25639   0.774   3.273   5.609 -0.2467 -0.2586  0.0046
 4727SOL    HW125640   0.846   3.304   5.554  0.3240  0.1733  1.0192
 4727SOL    HW225641   0.708   3.278   5.540  0.2333 -1.6581 -0.5569
 4728SOL     OW25642   1.935   0.116  13.071 -0.6729 -0.3765  0.6261
 4728SOL    HW125643   2.000   0.105  13.140 -1.0162 -0.3950  0.9477
 4728SOL    HW225644   1.964   0.057  13.001 -2.5083  1.2007 -1.4359
 4729SOL     OW25645   1.196   3.987   6.719  0.1111  0.6962  0.0917
 4729SOL    HW125646   1.193   3.898   6.685 -2.1675  2.3734 -4.1360
 4729SOL    HW225647   1.237   4.028   6.643  1.0406  1.5623  1.0608
 4730SOL     OW25648   2.660   2.497   7.876  0.7257  0.1212 -0.4104
 4730SOL    HW125649   2.733   2.484   7.815  1.5262  0.6448  0.4515
 4730SOL    HW225650   2.584   2.502   7.818  0.0732 -0.1618  0.4191
 4731SOL     OW25651   3.098   0.377   8.866  0.3886 -0.6678 -0.2922
 4731SOL    HW125652   3.185   0.384   8.905  0.5890  0.1814 -0.9078
 4731SOL    HW225653   3.120   0.368   8.774 -1.5267  0.9143 -0.8877
 4732SOL     OW25654   2.758   4.430   2.919  0.2919  0.0279  0.5057
 4732SOL    HW125655   2.674   4.395   2.889 -1.6073  3.2892  2.0389
 4732SOL    HW225656   2.801   4.427   2.833  1.1620  0.1039  0.9358
 4733SOL     OW25657   0.821   1.678  17.289 -1.0119  0.2187  0.2506
 4733SOL    HW125658   0.866   1.594  17.286 -1.6038 -0.0125 -1.8183
 4733SOL    HW225659   0.806   1.674  17.384  1.1644  1.5550  0.6577
 4734SOL     OW25660   3.756   4.148   4.304 -0.5567  0.0568  0.4330
 4734SOL    HW125661   3.710   4.166   4.222 -1.1316  1.5960  1.0941
 4734SOL    HW225662   3.689   4.167   4.369  0.1967  1.0157  0.9385
 4735SOL     OW25663   1.987   1.732   8.104  0.4667 -0.3644 -0.2853
 4735SOL    HW125664   1.912   1.766   8.152 -0.2524 -0.6852 -1.2019
 4735SOL    HW225665   1.985   1.788   8.027 -3.6197 -1.6304 -1.0763
 4736SOL     OW25666   3.867   2.906   6.086 -0.1620 -0.5662 -0.9958
 4736SOL    HW125667   3.838   2.997   6.094 -1.9249 -1.1691 -0.6013
 4736SOL    HW225668   3.898   2.888   6.174  3.1217  2.0578 -1.6133
 4737SOL     OW25669   0.516   4.032   4.200  0.9940 -0.3966 -0.0939
 4737SOL    HW125670   0.596   4.065   4.241  1.3604  0.4972 -1.5341
 4737SOL    HW225671   0.545   3.944   4.176  2.1858  0.2498 -1.0413
 4738SOL     OW25672   1.663   1.622  17.337 -0.3980 -0.3193  0.4911
 4738SOL    HW125673   1.595   1.688  17.348 -0.1332  0.0939 -0.3204
 4738SOL    HW225674   1.691   1.637  17.247 -0.5658 -2.0109  0.1446
 4739SOL     OW25675   4.523   1.643  15.524  0.0389 -0.1057 -0.4171
 4739SOL    HW125676   4.596   1.698  15.553 -0.9631  0.4162  1.0693
 4739SOL    HW225677   4.484   1.618  15.607 -0.8426  1.4253 -0.3722
 4740SOL     OW25678   4.031   2.044  10.236  0.4424 -0.1391 -0.3849
 4740SOL    HW125679   4.053   2.103  10.164  0.3731 -0.7462 -0.9062
 4740SOL    HW225680   4.005   2.099  10.310  2.5037  0.5331 -0.1761
 4741SOL     OW25681   1.061   1.267  11.757 -0.5156 -0.0498 -0.1266
 4741SOL    HW125682   1.124   1.195  11.757 -1.0714 -0.5285 -0.2706
 4741SOL    HW225683   1.062   1.293  11.665 -0.0652 -1.2026 -0.4433
 4742SOL     OW25684   4.101   4.485   4.579  0.1944  0.0144 -0.0685
 4742SOL    HW125685   4.183   4.434   4.577  0.8198  1.0472 -0.9796
 4742SOL    HW225686   4.032   4.427   4.609  1.5001 -1.1948  0.5928
 4743SOL     OW25687   0.873   2.424  14.605  0.5789 -0.9825 -0.1144
 4743SOL    HW125688   0.835   2.350  14.651  0.5013  0.0952  1.5540
 4743SOL    HW225689   0.930   2.455  14.675  2.4732  0.7748 -2.4232
 4744SOL     OW25690   2.936   0.035   9.983 -0.6072  0.3758  0.0232
 4744SOL    HW125691   2.945   4.668  10.019 -2.1822  0.2843  0.1988
 4744SOL    HW225692   2.847   0.060  10.008  0.4339  1.0526  3.0805
 4745SOL     OW25693   0.170   2.854   9.110 -0.7531 -0.3249 -0.3041
 4745SOL    HW125694   0.175   2.904   9.192 -0.3552  1.4927 -1.4256
 4745SOL    HW225695   0.217   2.772   9.121  0.2142  0.1167 -1.0536
 4746SOL     OW25696   2.916   1.638   3.785  0.4599  0.3084 -0.3274
 4746SOL    HW125697   2.891   1.707   3.847  1.7383  0.0505  0.4564
 4746SOL    HW225698   2.872   1.563   3.824  1.2792  0.9028  1.7477
 4747SOL     OW25699   2.907   0.220   2.045 -0.5252  0.0892 -0.1714
 4747SOL    HW125700   2.869   0.253   2.126  1.2089 -1.6193  1.3102
 4747SOL    HW225701   2.987   0.269   2.022  0.4105 -1.0142  0.7283
 4748SOL     OW25702   1.347   1.573  10.504  0.4254 -0.0679 -0.6567
 4748SOL    HW125703   1.364   1.660  10.541  2.8685 -1.2598  1.0384
 4748SOL    HW225704   1.433   1.531  10.505 -0.2821 -1.4866 -0.1260
 4749SOL     OW25705   0.170   1.672   7.710  0.2728 -0.6307  0.6560
 4749SOL    HW125706   0.247   1.679   7.767  1.4033  1.2360 -1.1254
 4749SOL    HW225707   0.144   1.582   7.733 -2.1822  0.1394  0.8941
 4750SOL     OW25708   3.038   1.751  10.901  0.2557 -0.5597 -0.0172
 4750SOL    HW125709   3.109   1.796  10.856 -0.0747  0.6868  0.7081
 4750SOL    HW225710   3.055   1.657  10.899  1.3337 -0.3451 -1.1134
 4751SOL     OW25711   4.131   1.459   2.069  0.3314 -0.3070  0.1725
 4751SOL    HW125712   4.128   1.431   2.160  4.3461  0.6259  0.5839
 4751SOL    HW225713   4.214   1.420   2.041 -0.1339 -1.6817  0.6812
 4752SOL     OW25714   2.713   3.588   4.488 -0.0936 -0.1608  0.0503
 4752SOL    HW125715   2.786   3.531   4.510  0.4245  0.5042  0.0558
 4752SOL    HW225716   2.762   3.669   4.473 -2.6012  1.7861  2.3568
 4753SOL     OW25717   3.638   2.345  12.863 -0.0214 -0.2069 -0.3643
 4753SOL    HW125718   3.591   2.308  12.937 -0.3743 -1.0452 -1.0081
 4753SOL    HW225719   3.617   2.297  12.783  0.6185  0.8192 -1.1600
 4754SOL     OW25720   1.248   2.856   8.868  0.0025 -0.2231  0.0462
 4754SOL    HW125721   1.281   2.866   8.957  1.9383  2.8790 -1.0337
 4754SOL    HW225722   1.186   2.927   8.851 -1.5552 -1.2734  1.2938
 4755SOL     OW25723   3.398   1.379   3.552  0.1445 -0.6152  0.0191
 4755SOL    HW125724   3.417   1.313   3.485 -1.3488 -1.0790  0.0447
 4755SOL    HW225725   3.433   1.333   3.628  2.2935  0.8336 -0.0876
 4756SOL     OW25726   3.102   2.553   6.831 -0.3470  0.3041  0.5878
 4756SOL    HW125727   3.097   2.462   6.800  3.9548 -0.0400  0.9207
 4756SOL    HW225728   3.024   2.552   6.887 -1.6520 -0.1984 -1.2686
 4757SOL     OW25729   0.035   4.057   4.924 -0.1892  0.4290  0.3177
 4757SOL    HW125730   0.012   4.066   4.831  2.1606 -1.8251 -0.5128
 4757SOL    HW225731   0.004   4.141   4.957  0.1820  1.4227 -1.8168
 4758SOL     OW25732   2.986   0.710   8.340 -0.0486  0.3803  0.5879
 4758SOL    HW125733   3.013   0.635   8.286 -0.4661 -0.9289  2.1868
 4758SOL    HW225734   3.026   0.786   8.298  2.0785 -1.8248 -1.4007
 4759SOL     OW25735   0.844   1.324  11.267  0.6272 -0.4460 -0.0508
 4759SOL    HW125736   0.839   1.403  11.213 -2.7579  0.3723  1.4311
 4759SOL    HW225737   0.882   1.371  11.342  2.0803 -0.3751 -0.8394
 4760SOL     OW25738   4.215   2.749   5.898  0.0417  0.7274 -0.6371
 4760SOL    HW125739   4.119   2.744   5.897  0.0844 -0.7883  1.9294
 4760SOL    HW225740   4.222   2.818   5.832  0.1379  1.0129 -0.3285
 4761SOL     OW25741   4.133   2.746  14.815  0.0174 -0.0652  0.3942
 4761SOL    HW125742   4.074   2.745  14.890 -0.0961 -2.2506  0.2650
 4761SOL    HW225743   4.080   2.792  14.750  0.5824 -1.4491 -1.0509
 4762SOL     OW25744   3.424   0.891   8.707  0.0506  0.1697  0.3648
 4762SOL    HW125745   3.379   0.842   8.777  1.0974 -0.1096  0.8341
 4762SOL    HW225746   3.378   0.845   8.637  1.7451  4.1238 -3.3471
 4763SOL     OW25747   4.328   1.108   1.096  0.2643 -0.0874  0.2026
 4763SOL    HW125748   4.295   1.123   1.007  2.3560  3.0233 -0.0212
 4763SOL    HW225749   4.245   1.106   1.144 -0.3723 -0.7255 -0.9336
 4764SOL     OW25750   4.660   2.196   9.267 -0.3127  0.0433  0.2914
 4764SOL    HW125751   4.565   2.195   9.278 -0.3651 -0.3503 -0.1614
 4764SOL    HW225752   4.681   2.289   9.270 -0.7476  0.1214  1.0771
 4765SOL     OW25753   4.359   1.148  12.564  0.2965 -0.2910  0.4128
 4765SOL    HW125754   4.279   1.194  12.588  0.5506  0.2118  0.2852
 4765SOL    HW225755   4.417   1.216  12.529 -0.0946  0.8158  1.9297
 4766SOL     OW25756   2.472   2.136   2.867 -0.1689 -0.4192  0.0055
 4766SOL    HW125757   2.457   2.218   2.820  2.1974  0.4086  0.7022
 4766SOL    HW225758   2.504   2.075   2.801  1.0397  0.3418 -0.1004
 4767SOL     OW25759   2.971   1.137   1.639  0.1731  0.6024 -0.5696
 4767SOL    HW125760   2.895   1.104   1.592 -1.0574  1.2008  0.9876
 4767SOL    HW225761   2.926   1.186   1.708  0.4547  0.1884 -0.0958
 4768SOL     OW25762   3.005   0.481   7.412 -0.0904 -0.1724 -0.3140
 4768SOL    HW125763   2.936   0.547   7.417  0.8976  0.9278 -1.1452
 4768SOL    HW225764   3.082   0.539   7.414  0.1312 -0.3996 -2.3092
 4769SOL     OW25765   2.880   4.114   2.405 -0.1247 -0.2027  0.2653
 4769SOL    HW125766   2.792   4.078   2.415 -0.6843  0.5165 -2.0330
 4769SOL    HW225767   2.862   4.190   2.460  1.9138  0.1378  0.4684
 4770SOL     OW25768   4.204   4.084  16.250 -0.3379 -0.1718  0.4706
 4770SOL    HW125769   4.280   4.135  16.278 -1.0519 -0.3668  2.7592
 4770SOL    HW225770   4.175   4.035  16.327 -3.6155  0.8709 -0.0905
 4771SOL     OW25771   1.732   4.213   3.164 -0.3113 -0.3394 -0.2765
 4771SOL    HW125772   1.795   4.285   3.154 -0.8684  0.1970  0.0927
 4771SOL    HW225773   1.690   4.236   3.246 -0.1883  1.5613 -0.7342
 4772SOL     OW25774   1.494   2.137  17.587 -0.0170 -0.3072 -0.6547
 4772SOL    HW125775   1.582   2.112  17.558 -0.4354 -1.7252 -0.7093
 4772SOL    HW225776   1.444   2.120  17.508 -0.7202 -0.9077 -0.0766
 4773SOL     OW25777   1.230   4.534   5.475 -0.2458  0.3426 -0.5630
 4773SOL    HW125778   1.206   4.490   5.393 -2.1846 -0.6478  0.5479
 4773SOL    HW225779   1.153   4.525   5.530 -0.8082 -1.1660 -1.5887
 4774SOL     OW25780   3.720   2.613   6.002 -0.0182 -0.4773  0.0706
 4774SOL    HW125781   3.676   2.693   6.030  1.3244  0.4795 -0.5307
 4774SOL    HW225782   3.662   2.549   6.042 -0.9724  1.2555  1.4300
 4775SOL     OW25783   4.345   3.558   4.223 -0.6848 -0.1724 -0.2807
 4775SOL    HW125784   4.306   3.644   4.239 -0.8686 -0.4702  0.9215
 4775SOL    HW225785   4.340   3.548   4.128  0.4428  0.7430 -0.4440
 4776SOL     OW25786   1.921   1.747   5.885  0.4650 -0.2098 -0.0741
 4776SOL    HW125787   1.865   1.670   5.883  0.1711 -0.0461  1.9615
 4776SOL    HW225788   1.994   1.719   5.830  2.6319  1.6055  1.8598
 4777SOL     OW25789   1.495   1.090   3.242 -0.5093  0.0782 -0.9867
 4777SOL    HW125790   1.422   1.093   3.304  0.3064 -0.4111  0.0130
 4777SOL    HW225791   1.569   1.116   3.297 -1.0995 -1.3906  0.5183
 4778SOL     OW25792   1.153   1.134   3.088 -0.1061  0.3311  0.5985
 4778SOL    HW125793   1.164   1.048   3.048  0.1598  1.0999 -0.9973
 4778SOL    HW225794   1.185   1.180   3.010  0.3857 -1.1392 -0.0623
 4779SOL     OW25795   4.206   2.478  16.280 -0.3506 -0.2800  0.0339
 4779SOL    HW125796   4.214   2.383  16.282  1.9594 -0.0369  1.5668
 4779SOL    HW225797   4.138   2.494  16.346 -1.5663  0.7093 -1.4385
 4780SOL     OW25798   2.172   3.822   4.700  0.2937 -0.1595 -0.3633
 4780SOL    HW125799   2.250   3.864   4.664 -1.1261  1.3323 -1.7048
 4780SOL    HW225800   2.202   3.819   4.791  1.8320  1.2746 -0.8148
 4781SOL     OW25801   2.156   1.930  12.222 -0.5454  0.2735  0.5854
 4781SOL    HW125802   2.117   1.960  12.304  1.4052  0.5339  1.4074
 4781SOL    HW225803   2.250   1.925  12.242 -0.5142 -2.9761 -0.3404
 4782SOL     OW25804   1.495   4.698   2.043 -0.4714  0.2023 -0.1998
 4782SOL    HW125805   1.497   4.602   2.044 -2.0431  0.1652 -1.2966
 4782SOL    HW225806   1.560   4.711   1.974 -0.9040 -3.6107 -1.2955
 4783SOL     OW25807   2.526   0.811  16.386 -0.0393  0.3903 -0.2027
 4783SOL    HW125808   2.521   0.872  16.460 -0.0199 -0.7883  0.7766
 4783SOL    HW225809   2.452   0.834  16.329  0.8376  1.2973 -0.9840
 4784SOL     OW25810   3.974   1.346   7.555 -0.4411  0.9593  0.0366
 4784SOL    HW125811   4.061   1.373   7.584 -1.0546  2.9858 -0.0134
 4784SOL    HW225812   3.950   1.396   7.477 -0.3805  0.2034 -0.4725
 4785SOL     OW25813   2.486   4.545   6.642  0.1473 -0.2929 -0.2007
 4785SOL    HW125814   2.483   4.451   6.622  1.4841 -0.4301  0.2215
 4785SOL    HW225815   2.447   4.541   6.730  1.2008  1.2772  0.3408
 4786SOL     OW25816   1.364   3.407   5.877 -0.2339  0.1327 -0.1514
 4786SOL    HW125817   1.336   3.400   5.968 -1.6829 -1.3904 -0.7187
 4786SOL    HW225818   1.285   3.390   5.826  0.0114  0.3355 -0.5943
 4787SOL     OW25819   1.510   4.153   2.321  0.3667  0.6015  0.1998
 4787SOL    HW125820   1.476   4.223   2.265  1.8084  1.0984 -0.0417
 4787SOL    HW225821   1.455   4.162   2.399  3.1196  2.6062  1.9045
 4788SOL     OW25822   0.196   0.089   5.218  0.4140  0.0655  0.2612
 4788SOL    HW125823   0.212   0.179   5.188  2.7485 -0.0153  1.2731
 4788SOL    HW225824   0.113   0.079   5.171 -0.1442 -0.0467  1.2768
 4789SOL     OW25825   0.172   1.963   9.421 -0.2497  0.0574  0.0138
 4789SOL    HW125826   0.147   1.909   9.347 -3.1023  0.1096  0.9261
 4789SOL    HW225827   0.203   1.896   9.481 -2.9199 -0.4762  0.8167
 4790SOL     OW25828   3.652   2.956  15.337 -0.0566 -0.6730  0.3974
 4790SOL    HW125829   3.609   3.042  15.334  1.5584  0.0439 -2.3624
 4790SOL    HW225830   3.658   2.953  15.241  0.3334 -2.6225  0.4950
 4791SOL     OW25831   3.679   0.205   5.224 -0.2103 -0.1396 -0.0163
 4791SOL    HW125832   3.636   0.120   5.228  0.5552 -0.5035  0.4083
 4791SOL    HW225833   3.612   0.252   5.274  0.5756 -0.1223  1.0124
 4792SOL     OW25834   0.868   0.945   5.631 -0.4045 -0.1177  0.3083
 4792SOL    HW125835   0.936   0.955   5.698  0.4993 -0.6805 -0.5176
 4792SOL    HW225836   0.851   0.851   5.627  0.3672 -0.3093  1.5050
 4793SOL     OW25837   0.875   2.815   8.410 -0.3770  0.0618 -0.2254
 4793SOL    HW125838   0.963   2.777   8.414 -0.0534  0.8042 -0.2953
 4793SOL    HW225839   0.817   2.739   8.403  0.9329 -1.1077  1.5475
 4794SOL     OW25840   1.613   1.750   5.781  0.1096  0.0136 -0.1460
 4794SOL    HW125841   1.688   1.788   5.736 -0.1275 -0.8550 -1.2862
 4794SOL    HW225842   1.630   1.755   5.875 -1.0511  0.5596  0.0284
 4795SOL     OW25843   0.785   2.883   5.773  0.0938 -0.5160  0.0384
 4795SOL    HW125844   0.852   2.881   5.841  0.2684 -0.4088 -0.1319
 4795SOL    HW225845   0.839   2.885   5.694  0.7349  0.5268  0.5163
 4796SOL     OW25846   1.602   1.615   2.272 -0.0534 -0.4186 -0.2108
 4796SOL    HW125847   1.662   1.612   2.197  0.9934 -0.1286  0.6177
 4796SOL    HW225848   1.537   1.674   2.234 -1.5401  0.2997  3.5606
 4797SOL     OW25849   4.526   1.648   8.720  0.1187  0.4706 -0.5648
 4797SOL    HW125850   4.617   1.678   8.714  0.7415 -1.8415 -3.1595
 4797SOL    HW225851   4.538   1.562   8.679  0.2887 -1.0068  2.5719
 4798SOL     OW25852   4.667   3.118   0.583  0.0269  0.1175  0.0961
 4798SOL    HW125853   4.680   3.210   0.609  3.4618 -0.6846  1.2187
 4798SOL    HW225854   4.623   3.129   0.499 -1.4022 -0.3314  0.7927
 4799SOL     OW25855   4.597   0.141  13.703 -0.0941 -0.4679  0.4443
 4799SOL    HW125856   4.527   0.190  13.660 -1.1197 -1.5749  0.8414
 4799SOL    HW225857   4.676   0.172  13.658 -1.2411 -2.0253 -2.6161
 4800SOL     OW25858   3.074   1.572  12.009  0.1125 -0.3947  0.5150
 4800SOL    HW125859   3.140   1.547  12.073  1.0631  0.4402 -0.1264
 4800SOL    HW225860   3.012   1.617  12.067  1.0494 -0.4980  1.5932
 4801SOL     OW25861   4.570   4.066   2.400 -0.3735  0.1609  0.1999
 4801SOL    HW125862   4.660   4.049   2.374 -1.2936 -2.7454 -1.1571
 4801SOL    HW225863   4.514   4.063   2.322 -0.4871 -2.4903  0.3889
 4802SOL     OW25864   3.169   1.015   7.572  0.4901 -0.0416 -0.2627
 4802SOL    HW125865   3.077   0.990   7.570  0.9248 -1.7567  1.1263
 4802SOL    HW225866   3.169   1.105   7.604  0.0225 -0.5206  1.0674
 4803SOL     OW25867   0.924   1.356   1.517 -0.2691  0.6268  0.2446
 4803SOL    HW125868   1.017   1.352   1.539  0.3056 -0.7753 -2.4423
 4803SOL    HW225869   0.886   1.315   1.594  1.5568 -1.2539  0.1328
 4804SOL     OW25870   2.709   0.511   3.007 -0.1940  0.4960  0.3449
 4804SOL    HW125871   2.720   0.453   2.932 -2.3631  1.3199 -0.6091
 4804SOL    HW225872   2.792   0.531   3.050 -0.4441 -0.2105  1.1648
 4805SOL     OW25873   2.937   3.763   8.916  0.3475  0.4354 -0.0958
 4805SOL    HW125874   2.882   3.768   8.838 -1.0853  1.6761  0.9930
 4805SOL    HW225875   2.989   3.843   8.908  2.7062 -1.2207 -1.3899
 4806SOL     OW25876   3.119   1.804   3.614 -0.2906  0.2953 -0.0982
 4806SOL    HW125877   3.157   1.811   3.702  1.2585 -3.0732 -0.5058
 4806SOL    HW225878   3.137   1.893   3.584  0.0021  0.3363  0.1883
 4807SOL     OW25879   1.745   2.830   2.351 -0.0498  0.3049 -0.6691
 4807SOL    HW125880   1.837   2.853   2.338 -0.1679  0.6500 -0.8907
 4807SOL    HW225881   1.734   2.754   2.294 -0.2025 -0.2766  0.1384
 4808SOL     OW25882   1.902   1.307   6.056 -0.1918  0.1903 -0.2930
 4808SOL    HW125883   1.886   1.214   6.039  2.1764 -0.6442  1.9519
 4808SOL    HW225884   1.885   1.317   6.150 -0.0192  1.5355 -0.4052
 4809SOL     OW25885   1.460   0.277   4.626  0.0690  0.0114  0.4204
 4809SOL    HW125886   1.468   0.260   4.720  3.9478 -0.5244 -0.0262
 4809SOL    HW225887   1.376   0.323   4.618  0.5821  1.0952  1.1722
 4810SOL     OW25888   2.437   2.798   3.296 -0.2002 -0.1368  0.1464
 4810SOL    HW125889   2.360   2.747   3.268  0.4263 -0.8422 -0.2990
 4810SOL    HW225890   2.390   2.881   3.306  1.7996  1.1761 -1.2762
 4811SOL     OW25891   2.765   1.862  11.257  1.0007  0.4117  0.1535
 4811SOL    HW125892   2.727   1.836  11.341  0.0926 -0.3452 -0.4899
 4811SOL    HW225893   2.851   1.893  11.287  1.9242 -2.9633  1.0184
 4812SOL     OW25894   3.060   3.019   4.884 -0.1622 -0.0178 -0.0725
 4812SOL    HW125895   3.010   2.940   4.906 -1.0125  0.8097  0.9357
 4812SOL    HW225896   3.145   2.981   4.862 -0.5256 -1.4030  0.8847
 4813SOL     OW25897   2.439   4.295   2.590  0.5107  0.1483 -0.3723
 4813SOL    HW125898   2.394   4.372   2.553 -1.2748  0.2063  1.9124
 4813SOL    HW225899   2.528   4.329   2.588  0.2760  0.7908  0.0309
 4814SOL     OW25900   1.231   3.080   7.780  0.4041  0.2032  0.5687
 4814SOL    HW125901   1.222   2.991   7.816 -1.2084  1.0697  2.3380
 4814SOL    HW225902   1.262   3.145   7.843 -0.6399 -0.7279  2.0452
 4815SOL     OW25903   3.251   1.609   8.518 -0.9131  0.2523  0.0924
 4815SOL    HW125904   3.270   1.681   8.578 -1.7673 -0.2400  0.9700
 4815SOL    HW225905   3.217   1.649   8.438  0.2089  0.8647 -0.0715
 4816SOL     OW25906   1.103   2.502   5.672  0.1146  0.1693 -0.2628
 4816SOL    HW125907   1.058   2.451   5.605 -0.2780 -0.9858  0.8839
 4816SOL    HW225908   1.181   2.446   5.680  0.5551  0.9319  0.7288
 4817SOL     OW25909   4.670   2.293   1.925 -0.0449 -0.0063 -0.2762
 4817SOL    HW125910   4.610   2.249   1.986  1.3550  0.3212  1.3324
 4817SOL    HW225911   4.600   2.298   1.860 -0.8518  1.4946  0.7249
 4818SOL     OW25912   1.373   1.249   5.183 -0.2297 -0.1868  0.1238
 4818SOL    HW125913   1.375   1.345   5.179  0.7640 -0.2680 -1.4301
 4818SOL    HW225914   1.448   1.225   5.129 -2.4621 -1.6375 -2.3608
 4819SOL     OW25915   2.313   1.750   0.512  0.3745  0.0971  0.3823
 4819SOL    HW125916   2.338   1.751   0.419  0.5723  0.1555  0.4359
 4819SOL    HW225917   2.378   1.815   0.540 -0.9227  2.5194 -2.1597
 4820SOL     OW25918   4.029   3.742  13.901 -0.6860 -0.2463  0.5487
 4820SOL    HW125919   4.018   3.649  13.881 -0.7333 -0.1545  0.1544
 4820SOL    HW225920   4.047   3.736  13.995 -0.3407 -0.0165  0.4978
 4821SOL     OW25921   4.389   3.636   0.904 -0.1634 -0.8158 -0.5752
 4821SOL    HW125922   4.326   3.651   0.975 -0.6156 -0.5536 -1.0305
 4821SOL    HW225923   4.453   3.588   0.957  0.8565 -0.1628 -1.2209
 4822SOL     OW25924   4.716   2.269   8.474 -0.0806 -0.2762  0.5303
 4822SOL    HW125925   4.637   2.290   8.423  0.4402 -0.1507 -0.2179
 4822SOL    HW225926   4.712   2.337   8.542  2.3846 -2.2616  2.6418
 4823SOL     OW25927   4.655   4.117   5.453 -0.1691 -0.1225 -0.1650
 4823SOL    HW125928   4.712   4.108   5.530  0.6320 -1.1527 -0.8815
 4823SOL    HW225929   4.577   4.165   5.482 -0.5582 -0.4102 -0.7427
 4824SOL     OW25930   1.882   2.038  10.334  0.7597 -0.1276  0.1902
 4824SOL    HW125931   1.807   2.082  10.294  0.9326  0.6115  0.6931
 4824SOL    HW225932   1.913   1.994  10.255 -2.7131 -4.0176  0.9857
 4825SOL     OW25933   3.920   0.823   5.209  0.1305  0.2264  0.2211
 4825SOL    HW125934   3.983   0.769   5.257 -0.0918  1.1444  1.5454
 4825SOL    HW225935   3.858   0.842   5.279  0.8145 -0.1647  0.9258
 4826SOL     OW25936   0.842   1.584  11.187 -0.4800  0.3815 -0.2283
 4826SOL    HW125937   0.908   1.567  11.254 -0.0853 -0.6560 -0.8852
 4826SOL    HW225938   0.805   1.673  11.187 -1.8599 -0.1914 -1.6834
 4827SOL     OW25939   3.932   3.383   4.768 -0.4739  0.2218 -0.1080
 4827SOL    HW125940   4.018   3.341   4.772  0.0841  1.4933  1.2020
 4827SOL    HW225941   3.947   3.458   4.825 -2.4940 -1.0988  2.1593
 4828SOL     OW25942   2.691   3.088   8.845 -0.0476 -0.1550  0.4397
 4828SOL    HW125943   2.726   3.095   8.933  1.9483 -0.6029 -0.3122
 4828SOL    HW225944   2.599   3.104   8.863 -0.2972 -1.0081 -0.0656
 4829SOL     OW25945   0.883   2.372   7.392  0.1374  0.1827 -0.4004
 4829SOL    HW125946   0.934   2.335   7.320 -0.0801 -0.0606 -0.4303
 4829SOL    HW225947   0.802   2.321   7.399  1.0004 -1.1360  0.0308
 4830SOL     OW25948   0.643   1.648   7.886  0.7225 -0.2638 -0.2501
 4830SOL    HW125949   0.692   1.599   7.819 -0.0136 -2.1152  0.5907
 4830SOL    HW225950   0.700   1.647   7.963  3.2841  0.5735 -2.1226
 4831SOL     OW25951   2.381   3.248  11.343 -0.1354  0.3265 -0.5171
 4831SOL    HW125952   2.457   3.272  11.289  0.9645  2.0120  1.7886
 4831SOL    HW225953   2.419   3.192  11.410  0.1744 -0.2795 -1.2014
 4832SOL     OW25954   1.458   2.171  16.324 -0.1261 -0.8690  0.1116
 4832SOL    HW125955   1.435   2.101  16.385  3.0034 -2.6971 -0.8368
 4832SOL    HW225956   1.494   2.242  16.377 -0.1763 -0.5632 -0.2612
 4833SOL     OW25957   2.092   2.786  14.914  0.2649  0.2047  0.0032
 4833SOL    HW125958   2.100   2.698  14.951 -1.9427  0.0213  0.0267
 4833SOL    HW225959   2.041   2.758  14.838 -1.3727 -0.5494  1.3882
 4834SOL     OW25960   0.738   3.596   5.433 -0.3354 -0.7771 -0.6957
 4834SOL    HW125961   0.671   3.598   5.501  2.7581 -1.6429  2.3786
 4834SOL    HW225962   0.798   3.532   5.471  0.2480  1.0655  1.4868
 4835SOL     OW25963   0.295   2.983  14.270  0.8786  0.3426  0.2429
 4835SOL    HW125964   0.286   2.936  14.353 -0.8819  1.2945  0.6167
 4835SOL    HW225965   0.282   3.068  14.313  2.3590  0.3104  0.7609
 4836SOL     OW25966   4.042   3.482  14.438  0.3333 -0.3485  0.5663
 4836SOL    HW125967   4.040   3.409  14.377 -0.5377  1.4172 -1.4967
 4836SOL    HW225968   4.027   3.546  14.370  0.5966 -2.8376 -1.8442
 4837SOL     OW25969   0.685   0.681   3.878 -0.0635  0.8461 -0.0988
 4837SOL    HW125970   0.662   0.607   3.822  0.3159  1.1588 -0.6678
 4837SOL    HW225971   0.665   0.750   3.814  1.1363 -1.4939 -2.9774
 4838SOL     OW25972   2.186   0.256  13.129 -0.0328 -0.3463 -0.1138
 4838SOL    HW125973   2.279   0.276  13.121  0.2460 -0.7202  2.0230
 4838SOL    HW225974   2.168   0.312  13.204 -1.7410 -0.5736 -0.3680
 4839SOL     OW25975   2.445   3.855  10.994  0.1501 -0.2519  0.4060
 4839SOL    HW125976   2.353   3.875  10.976  0.4028 -1.0183 -1.6811
 4839SOL    HW225977   2.450   3.875  11.088 -0.8698 -2.1002  0.8514
 4840SOL     OW25978   1.473   4.035   5.201  0.3833 -0.4955  0.2150
 4840SOL    HW125979   1.553   4.085   5.221  1.4772 -0.9395 -3.0056
 4840SOL    HW225980   1.487   3.946   5.233 -0.8533 -1.3270 -1.5414
 4841SOL     OW25981   0.569   2.104   8.698  0.4211 -0.3848 -0.4041
 4841SOL    HW125982   0.489   2.081   8.746  0.1252  1.2980 -0.0934
 4841SOL    HW225983   0.537   2.167   8.634 -0.6964  1.0171  1.5181
 4842SOL     OW25984   1.310   3.129   3.256  0.3761  0.6185 -0.1977
 4842SOL    HW125985   1.265   3.213   3.254 -0.6718  0.0667  0.2353
 4842SOL    HW225986   1.283   3.091   3.173  1.4589 -2.0425  0.6697
 4843SOL     OW25987   3.184   3.609  15.147  0.6884  0.4528  0.3967
 4843SOL    HW125988   3.121   3.562  15.093  0.4575  0.5833  0.5541
 4843SOL    HW225989   3.192   3.541  15.214  1.1712  0.3729  0.2603
 4844SOL     OW25990   0.430   0.891   2.736  0.0174 -0.4953 -0.0860
 4844SOL    HW125991   0.432   0.957   2.805 -0.4024  0.1019 -0.6474
 4844SOL    HW225992   0.427   0.957   2.667 -0.9374  1.5339  1.9268
 4845SOL     OW25993   0.736   1.837  11.316 -0.3740  1.3121  0.5169
 4845SOL    HW125994   0.827   1.824  11.288 -0.7949 -2.4047  0.8535
 4845SOL    HW225995   0.736   1.896  11.391 -2.4817  1.1952  0.6017
 4846SOL     OW25996   1.843   4.707  13.767  0.2826 -0.1824 -0.1970
 4846SOL    HW125997   1.841   4.696  13.862 -1.7374  2.8051  0.1119
 4846SOL    HW225998   1.925   0.032  13.751 -0.4514  0.5337 -1.9357
 4847SOL     OW25999   4.547   0.559   3.320 -0.3459 -0.2373 -0.4795
 4847SOL    HW126000   4.602   0.560   3.242  0.3050 -0.6959 -0.0282
 4847SOL    HW226001   4.564   0.475   3.363  1.6557  0.2761 -0.2478
 4848SOL     OW26002   2.844   0.891  16.248  0.1380 -0.5467 -0.4360
 4848SOL    HW126003   2.764   0.942  16.231 -1.0423 -2.3649 -0.3475
 4848SOL    HW226004   2.833   0.823  16.181 -0.7315  0.0087 -0.8575
 4849SOL     OW26005   0.475   1.922   3.952  0.2348 -0.1857  0.5323
 4849SOL    HW126006   0.385   1.891   3.964  0.2381  0.3333  1.8364
 4849SOL    HW226007   0.464   1.979   3.876 -0.4573  1.4995  1.8875
 4850SOL     OW26008   1.376   0.279  13.174 -0.5299 -0.1630  0.2514
 4850SOL    HW126009   1.313   0.265  13.244 -1.2625 -1.2635 -0.6245
 4850SOL    HW226010   1.432   0.201  13.181 -0.0321  0.0382 -1.3704
 4851SOL     OW26011   2.883   1.012   4.029 -0.1859 -0.1138 -0.1343
 4851SOL    HW126012   2.957   1.008   3.968 -0.8833 -0.9758 -0.9310
 4851SOL    HW226013   2.814   1.064   3.987 -2.2495  0.3851  3.8322
 4852SOL     OW26014   3.521   0.321   8.261 -0.1056 -0.1605  0.0191
 4852SOL    HW126015   3.545   0.386   8.194 -0.9052 -0.2544 -0.3678
 4852SOL    HW226016   3.477   0.267   8.195  0.4292 -0.1113 -0.3738
 4853SOL     OW26017   3.084   4.306  12.054  0.3658  0.0362 -0.6052
 4853SOL    HW126018   3.148   4.290  11.984  0.2529 -1.1685 -0.4345
 4853SOL    HW226019   3.143   4.322  12.128  0.0783  0.5016 -0.4837
 4854SOL     OW26020   3.600   4.281  15.662 -0.2249 -1.1517 -0.3098
 4854SOL    HW126021   3.519   4.234  15.684 -0.6841 -0.2176 -0.0086
 4854SOL    HW226022   3.644   4.274  15.747 -1.4949  1.0324  0.5257
 4855SOL     OW26023   2.487   0.758  11.202 -0.3598 -0.6342 -0.0265
 4855SOL    HW126024   2.503   0.806  11.283 -0.7304  1.2300 -1.0837
 4855SOL    HW226025   2.563   0.700  11.195 -0.3824 -0.7100  0.3395
 4856SOL     OW26026   3.531   3.357   5.241  0.6229 -0.3518  0.6333
 4856SOL    HW126027   3.585   3.279   5.255  1.7555  0.1539 -0.8850
 4856SOL    HW226028   3.477   3.354   5.320 -0.2721  0.3221  0.0464
 4857SOL     OW26029   0.896   2.999   7.711 -0.9821  0.0516 -0.8697
 4857SOL    HW126030   0.961   2.961   7.652  0.0531 -0.3001  0.4729
 4857SOL    HW226031   0.954   3.033   7.780 -1.8630  3.4126 -1.8078
 4858SOL     OW26032   3.978   4.700   4.971  0.4350 -0.3059 -0.0796
 4858SOL    HW126033   3.932   4.620   4.999  0.6216  0.5943  2.8201
 4858SOL    HW226034   4.040   4.660   4.910 -0.7234 -0.1832 -1.3226
 4859SOL     OW26035   1.879   1.199   8.126  0.2451 -0.5330 -0.1477
 4859SOL    HW126036   1.913   1.284   8.098 -0.5928 -0.0890  0.1861
 4859SOL    HW226037   1.900   1.201   8.220  1.4986  2.0663 -0.4906
 4860SOL     OW26038   3.118   1.097   1.279 -0.3166 -0.4646 -0.0745
 4860SOL    HW126039   3.117   1.006   1.250 -2.8285 -0.3843 -0.1975
 4860SOL    HW226040   3.058   1.134   1.215 -3.2659  0.5462  3.2679
 4861SOL     OW26041   2.072   2.292   3.438 -0.0667 -0.3849  0.1266
 4861SOL    HW126042   2.021   2.278   3.358  0.3832  0.0595 -0.2360
 4861SOL    HW226043   2.140   2.225   3.440  0.0974 -0.2096  0.4822
 4862SOL     OW26044   0.436   3.931   8.233  0.5281 -0.0473 -0.0363
 4862SOL    HW126045   0.432   3.935   8.328 -1.2460  0.7358 -0.1424
 4862SOL    HW226046   0.462   4.021   8.211  1.2158 -0.2447 -0.0329
 4863SOL     OW26047   3.991   4.668   6.609  0.0078  0.1558 -0.1519
 4863SOL    HW126048   4.036   0.030   6.617  0.6339 -0.0661 -1.3503
 4863SOL    HW226049   3.969   4.660   6.516  1.3904  2.8785 -0.6835
 4864SOL     OW26050   4.372   3.352   1.979 -0.1722  0.0892 -0.6871
 4864SOL    HW126051   4.304   3.320   1.920 -0.3621 -0.1271 -0.3561
 4864SOL    HW226052   4.438   3.372   1.913  0.4726  0.2764  0.0142
 4865SOL     OW26053   0.447   1.426   8.604 -0.2753  0.1969 -0.1856
 4865SOL    HW126054   0.535   1.393   8.590 -0.5662 -0.3664 -0.6810
 4865SOL    HW226055   0.422   1.392   8.689 -0.8889  2.6497  0.6232
 4866SOL     OW26056   2.717   1.460   4.669 -0.0784 -0.1531 -0.1623
 4866SOL    HW126057   2.621   1.458   4.670 -0.0910  0.0562 -1.3688
 4866SOL    HW226058   2.741   1.404   4.595  2.2536 -0.8323  1.0892
 4867SOL     OW26059   1.966   4.205   7.395  0.0610 -0.1730 -0.0283
 4867SOL    HW126060   1.877   4.176   7.413 -0.7448  1.8443 -0.7479
 4867SOL    HW226061   1.963   4.289   7.442  1.8688 -0.3606  0.4249
 4868SOL     OW26062   2.970   3.087   7.186  0.1159 -0.2913 -0.0242
 4868SOL    HW126063   2.997   3.052   7.270  1.8029 -1.6259 -1.1320
 4868SOL    HW226064   3.054   3.122   7.158 -1.9920  4.1881 -0.8382
 4869SOL     OW26065   4.651   4.605   9.705  0.2779 -0.3460 -0.0727
 4869SOL    HW126066   4.710   4.590   9.779  1.2668 -0.5320 -0.8921
 4869SOL    HW226067   4.618   4.517   9.685  0.6355 -0.6063  0.4858
 4870SOL     OW26068   1.216   1.049   5.063  0.2093  0.7115 -0.3755
 4870SOL    HW126069   1.287   0.985   5.051  0.6905  1.2200 -0.2361
 4870SOL    HW226070   1.264   1.116   5.113  0.4052  1.1387 -1.1364
 4871SOL     OW26071   0.643   1.472  11.701  0.4691 -0.2210 -0.3375
 4871SOL    HW126072   0.692   1.394  11.673 -0.9120 -1.5088  0.7866
 4871SOL    HW226073   0.640   1.510  11.613  0.7492  0.8463  0.1225
 4872SOL     OW26074   0.564   1.120   5.714  0.1880  0.1162  0.6701
 4872SOL    HW126075   0.652   1.144   5.685 -1.0610 -0.5238 -3.7349
 4872SOL    HW226076   0.555   1.035   5.670 -0.5659  0.2408  0.5763
 4873SOL     OW26077   3.608   2.250   3.981 -0.2047 -0.1826  0.1038
 4873SOL    HW126078   3.673   2.210   4.038  1.0817 -0.1398 -1.3324
 4873SOL    HW226079   3.532   2.211   4.024 -0.7108 -1.7563 -2.2191
 4874SOL     OW26080   2.045   3.857   8.823 -0.7682  0.0410  0.4880
 4874SOL    HW126081   2.031   3.763   8.811 -0.1306 -0.0030  0.0966
 4874SOL    HW226082   2.133   3.866   8.860  0.2330 -1.3952 -1.5684
 4875SOL     OW26083   3.012   4.251  14.457 -0.2402 -0.1986 -0.9570
 4875SOL    HW126084   3.068   4.176  14.438  0.0482 -0.1502 -0.3177
 4875SOL    HW226085   2.938   4.235  14.400  0.6415 -1.3464 -1.7735
 4876SOL     OW26086   4.265   3.420   0.711 -0.4221 -0.1027 -0.0654
 4876SOL    HW126087   4.181   3.461   0.732 -0.2869  0.8111 -1.2884
 4876SOL    HW226088   4.318   3.498   0.695 -1.1832 -0.0952 -2.6152
 4877SOL     OW26089   4.515   1.772   5.532  0.4921 -0.1525 -0.8380
 4877SOL    HW126090   4.475   1.757   5.447 -0.7080 -2.6793  0.1872
 4877SOL    HW226091   4.456   1.839   5.566  0.2587 -0.9186  0.2971
 4878SOL     OW26092   3.061   0.125  16.265 -0.7307 -0.0108 -0.0399
 4878SOL    HW126093   3.139   0.069  16.271  0.8196  2.2569  0.9850
 4878SOL    HW226094   3.014   0.086  16.191 -1.6318 -0.2005  0.6323
 4879SOL     OW26095   4.713   4.717   3.833  0.5196 -0.0079  0.1031
 4879SOL    HW126096   4.679   0.066   3.778  1.7340  0.0638 -0.5549
 4879SOL    HW226097   4.686   4.640   3.782  3.6386 -1.3277  0.4589
 4880SOL     OW26098   3.030   3.074   5.204  0.3851  0.0037 -0.4957
 4880SOL    HW126099   3.025   3.159   5.162 -2.6693 -0.1104 -0.3627
 4880SOL    HW226100   2.942   3.061   5.239  1.2081 -0.5398  1.3895
 4881SOL     OW26101   2.646   0.026   0.380 -0.2968 -0.1956  0.1977
 4881SOL    HW126102   2.605   4.679   0.434 -0.8777  1.7699  2.2248
 4881SOL    HW226103   2.718   4.705   0.333 -1.0009  0.0562 -1.1193
 4882SOL     OW26104   1.911   0.676   4.223 -0.5051  0.2515  0.2643
 4882SOL    HW126105   1.843   0.620   4.261 -1.9670  0.1502 -2.5937
 4882SOL    HW226106   1.977   0.663   4.292 -0.1189 -0.0372 -0.1575
 4883SOL     OW26107   4.643   0.415  13.791 -0.0522  0.5216 -0.1912
 4883SOL    HW126108   4.701   0.359  13.738 -0.7348  0.1420 -0.5457
 4883SOL    HW226109   4.564   0.399  13.739 -2.1230  1.0932  2.7907
 4884SOL     OW26110   3.619   3.871   2.972 -0.3833 -0.0091 -0.4815
 4884SOL    HW126111   3.696   3.893   2.918  0.1823 -1.9972 -0.5004
 4884SOL    HW226112   3.661   3.849   3.055 -0.9896 -1.5512 -0.5811
 4885SOL     OW26113   3.854   1.006   8.088 -0.6658 -0.3521 -0.1250
 4885SOL    HW126114   3.802   1.048   8.157  2.0368  1.5959  0.7231
 4885SOL    HW226115   3.811   0.921   8.079 -1.4034 -0.1393  1.4008
 4886SOL     OW26116   0.209   0.681   8.471  0.0825  0.1850 -0.1252
 4886SOL    HW126117   0.210   0.657   8.379  1.7083 -2.9089  0.7095
 4886SOL    HW226118   0.297   0.666   8.506 -0.0918  0.2405  0.3373
 4887SOL     OW26119   1.936   3.330  13.910  0.4812  0.0986  0.3298
 4887SOL    HW126120   1.951   3.270  13.984  0.1356  0.6530  0.8500
 4887SOL    HW226121   1.935   3.269  13.837  0.8210  0.1907  0.2492
 4888SOL     OW26122   0.755   0.297  10.324  0.2849 -0.2715  0.3052
 4888SOL    HW126123   0.757   0.205  10.300  0.0795 -0.0122 -0.7178
 4888SOL    HW226124   0.668   0.318  10.289 -0.8789 -1.7241  2.3170
 4889SOL     OW26125   1.556   2.190   9.663 -0.1141 -0.0230 -0.3216
 4889SOL    HW126126   1.618   2.255   9.697 -0.1776  0.1676 -0.5711
 4889SOL    HW226127   1.608   2.113   9.639  0.0496 -0.5005  1.5583
 4890SOL     OW26128   2.828   1.395   6.701  0.1948 -0.3095  0.0537
 4890SOL    HW126129   2.734   1.379   6.708 -0.2315  3.3394  2.8750
 4890SOL    HW226130   2.841   1.376   6.608 -1.6008 -0.8776 -0.0784
 4891SOL     OW26131   3.483   4.412   3.036  0.5723  0.0207 -0.9378
 4891SOL    HW126132   3.427   4.355   3.089  0.6557  0.0813 -0.7850
 4891SOL    HW226133   3.494   4.489   3.092  1.1063  0.4413 -1.6128
 4892SOL     OW26134   3.612   0.266  10.822 -0.0913 -0.0404 -0.4318
 4892SOL    HW126135   3.519   0.252  10.842  0.5259 -2.4062  0.7895
 4892SOL    HW226136   3.653   0.250  10.906  2.3147 -2.2354 -2.0403
 4893SOL     OW26137   3.806   0.383  16.497 -0.6871  0.0530  0.3049
 4893SOL    HW126138   3.731   0.389  16.557  0.8030  2.1141  1.9406
 4893SOL    HW226139   3.794   0.457  16.437  1.5960  0.7651  0.7353
 4894SOL     OW26140   1.639   0.373   7.048 -0.4721 -0.0405 -0.2488
 4894SOL    HW126141   1.687   0.430   7.108  0.3439 -0.5467 -0.4132
 4894SOL    HW226142   1.661   0.281   7.062  1.8631  0.5687  0.0804
 4895SOL     OW26143   0.105   1.518   6.882  0.0366  0.6327  0.1103
 4895SOL    HW126144   0.195   1.486   6.883 -0.2790 -0.1639  2.0334
 4895SOL    HW226145   0.083   1.518   6.789  2.0245 -3.5355 -0.3733
 4896SOL     OW26146   0.922   3.721   7.613 -0.4671  0.1848 -0.5864
 4896SOL    HW126147   0.931   3.626   7.621 -0.3726  0.1469 -1.1679
 4896SOL    HW226148   0.827   3.716   7.614 -0.4444 -0.3927 -1.4422
 4897SOL     OW26149   2.692   0.107  17.165 -0.2451 -0.1380  0.5218
 4897SOL    HW126150   2.668   0.198  17.145 -2.0245 -0.6409  0.3516
 4897SOL    HW226151   2.620   0.061  17.121  0.6088 -1.2057  0.2216
 4898SOL     OW26152   3.820   0.978   7.779  0.0869 -0.3380  0.1583
 4898SOL    HW126153   3.783   1.061   7.810  0.3013 -0.5266  0.9139
 4898SOL    HW226154   3.742   0.927   7.757 -0.6901  0.3985  1.1953
 4899SOL     OW26155   4.387   2.336   2.716 -0.6284 -0.2002 -0.3451
 4899SOL    HW126156   4.350   2.330   2.804  0.8970  0.6697  0.3425
 4899SOL    HW226157   4.450   2.406   2.733 -1.0501 -0.4355  2.1576
 4900SOL     OW26158   0.147   1.732   4.346  0.0403 -0.2436 -0.2987
 4900SOL    HW126159   0.091   1.748   4.270  1.9314 -1.2491 -1.9071
 4900SOL    HW226160   0.188   1.816   4.368 -1.2815  0.6496 -1.2790
 4901SOL     OW26161   1.265   4.520  13.323  0.3791  0.2307  0.3382
 4901SOL    HW126162   1.181   4.560  13.345 -0.2753 -1.6607  1.2203
 4901SOL    HW226163   1.317   4.599  13.304  0.1623  0.4128  0.5094
 4902SOL     OW26164   1.717   0.193   7.325 -0.1560 -0.0565 -0.5566
 4902SOL    HW126165   1.800   0.145   7.323  0.1357  0.3523  1.9180
 4902SOL    HW226166   1.682   0.150   7.247  1.3266  1.0457 -1.8217
 4903SOL     OW26167   1.482   2.257   2.339 -0.0290 -0.3420  0.4677
 4903SOL    HW126168   1.428   2.267   2.261 -2.2695  1.4802  2.2650
 4903SOL    HW226169   1.563   2.299   2.310 -1.4423  1.2701 -1.0542
 4904SOL     OW26170   0.307   4.518   7.575  1.0200  0.2870 -0.0980
 4904SOL    HW126171   0.280   4.489   7.662  0.7292  0.0328 -0.2717
 4904SOL    HW226172   0.395   4.481   7.573  2.0059  2.7950 -2.5506
 4905SOL     OW26173   3.548   1.237   5.769 -0.0374  0.1544  0.3476
 4905SOL    HW126174   3.523   1.217   5.859 -1.1856 -0.8586 -0.2022
 4905SOL    HW226175   3.538   1.332   5.762 -0.1240  0.0645 -0.8693
 4906SOL     OW26176   1.692   1.010   8.691  0.0261  0.1358 -0.2571
 4906SOL    HW126177   1.738   0.970   8.617  3.2305 -0.0009  1.7935
 4906SOL    HW226178   1.745   0.965   8.758  0.9675  3.3488  1.1790
 4907SOL     OW26179   3.512   1.058   3.146 -1.0186 -0.1838  0.3987
 4907SOL    HW126180   3.604   1.047   3.122 -1.3661 -0.9222 -0.5668
 4907SOL    HW226181   3.484   0.977   3.106 -2.0619 -0.6116  1.9816
 4908SOL     OW26182   4.032   2.251   6.534  0.3383 -0.0946  0.3692
 4908SOL    HW126183   4.058   2.336   6.498 -0.7813  0.3686  0.6741
 4908SOL    HW226184   3.940   2.265   6.554  0.7979  3.0659  0.2582
 4909SOL     OW26185   3.940   3.714   8.655  0.8514  0.3510  0.1495
 4909SOL    HW126186   3.851   3.702   8.687  1.0806 -2.7969 -0.2928
 4909SOL    HW226187   3.988   3.669   8.726  1.2741 -1.4935 -1.2968
 4910SOL     OW26188   0.000   4.455  14.515 -0.0535 -0.0863 -0.0014
 4910SOL    HW126189   4.719   4.508  14.595  1.4662  1.2094 -0.7956
 4910SOL    HW226190   4.656   4.510  14.471  1.0646 -0.6388 -2.3607
 4911SOL     OW26191   1.276   3.283   7.601  0.3955  0.0075  0.8668
 4911SOL    HW126192   1.258   3.225   7.675  0.9499 -2.4852 -0.9436
 4911SOL    HW226193   1.199   3.339   7.592  2.0444  2.1710  0.3476
 4912SOL     OW26194   0.899   1.559   4.338  0.0143  0.0681 -0.3849
 4912SOL    HW126195   0.962   1.590   4.402  2.2318 -1.0684 -2.0036
 4912SOL    HW226196   0.903   1.630   4.274  2.9975  1.2921  1.1409
 4913SOL     OW26197   4.329   2.886   4.217  0.6049  0.1472 -0.3638
 4913SOL    HW126198   4.300   2.822   4.281  0.2652  0.3933 -0.2667
 4913SOL    HW226199   4.309   2.833   4.140 -0.7620  0.4824 -0.2448
 4914SOL     OW26200   2.551   3.675  10.597  0.3483 -0.1392  0.1699
 4914SOL    HW126201   2.579   3.763  10.574  0.9682 -0.3671  0.0621
 4914SOL    HW226202   2.507   3.656  10.513  1.8401 -1.2750 -0.3595
 4915SOL     OW26203   2.507   3.501  10.824  0.8139 -0.5592 -0.0992
 4915SOL    HW126204   2.535   3.592  10.824  1.3436 -0.7202 -1.1205
 4915SOL    HW226205   2.458   3.509  10.906  1.1370  1.1078 -0.0830
 4916SOL     OW26206   1.398   4.313   6.746 -0.1038 -0.0725  0.1844
 4916SOL    HW126207   1.459   4.249   6.709  3.2826  2.0257  2.1347
 4916SOL    HW226208   1.357   4.254   6.810 -1.9507 -2.2293 -2.9952
 4917SOL     OW26209   0.931   1.633   9.376 -0.4632 -0.3265 -0.4448
 4917SOL    HW126210   0.924   1.652   9.282 -0.9126  0.0797 -0.3286
 4917SOL    HW226211   1.024   1.608   9.378 -0.2154  0.7228  1.3936
 4918SOL     OW26212   0.725   1.902  10.852 -0.4989 -0.1392 -0.4522
 4918SOL    HW126213   0.717   1.928  10.943  0.3403 -1.0455 -0.1273
 4918SOL    HW226214   0.793   1.835  10.859 -1.5308 -0.8812  2.1931
 4919SOL     OW26215   0.398   4.387   6.198 -0.8006  0.0056  0.3001
 4919SOL    HW126216   0.316   4.385   6.148 -0.0421  1.5174 -1.0166
 4919SOL    HW226217   0.366   4.452   6.260  0.0107  0.6870  0.0127
 4920SOL     OW26218   1.280   0.626   1.022 -0.3305  0.0920 -0.2236
 4920SOL    HW126219   1.217   0.582   1.079 -1.0199  1.1717 -0.1605
 4920SOL    HW226220   1.331   0.676   1.085  2.5198  1.4552 -3.6057
 4921SOL     OW26221   2.438   2.437   8.993  0.4675 -0.6843  0.1465
 4921SOL    HW126222   2.395   2.457   9.077 -1.4440  1.6444 -1.3916
 4921SOL    HW226223   2.517   2.488   8.979 -0.3340  0.1661 -1.2496
 4922SOL     OW26224   3.918   1.981   3.348  0.3186  0.3585 -0.0716
 4922SOL    HW126225   3.948   2.036   3.275  0.0008 -1.8508 -1.8879
 4922SOL    HW226226   3.941   1.893   3.320  0.5857  0.0178  1.2407
 4923SOL     OW26227   2.697   0.135   9.995  0.1748  0.7625  0.1124
 4923SOL    HW126228   2.710   0.199   9.925  0.7294 -0.4467 -0.8895
 4923SOL    HW226229   2.644   0.178  10.062  0.5897 -1.4437  1.8603
 4924SOL     OW26230   2.642   3.373  10.583  0.7773 -0.0827 -0.7643
 4924SOL    HW126231   2.693   3.332  10.653  1.6105 -0.7391 -1.7529
 4924SOL    HW226232   2.591   3.433  10.638  2.2130  0.9996 -0.6012
 4925SOL     OW26233   0.739   0.036   5.477  0.6793 -0.1679 -0.2528
 4925SOL    HW126234   0.707   4.713   5.556 -0.2644 -1.0335 -1.1168
 4925SOL    HW226235   0.773   4.683   5.427 -0.7040 -0.1343 -1.2152
 4926SOL     OW26236   0.257   0.033   4.460 -0.6104 -0.1797 -0.5173
 4926SOL    HW126237   0.223   0.069   4.378  1.0885 -0.6655 -1.4262
 4926SOL    HW226238   0.321   0.103   4.474  1.1066 -1.6468 -0.9964
 4927SOL     OW26239   2.528   4.321  12.466 -0.2759  0.2469 -0.2845
 4927SOL    HW126240   2.508   4.351  12.555 -1.5763  1.4494 -0.9801
 4927SOL    HW226241   2.440   4.287  12.448 -0.7136  1.4726 -0.4626
 4928SOL     OW26242   2.104   0.484   7.620 -0.3640  0.3777 -0.1373
 4928SOL    HW126243   2.165   0.555   7.640 -1.2318  0.7396  1.2439
 4928SOL    HW226244   2.107   0.457   7.528  1.1548 -0.5443  0.1810
 4929SOL     OW26245   4.318   2.947   7.348 -0.0018 -0.0369 -0.5069
 4929SOL    HW126246   4.311   2.890   7.425  1.9688  0.1168 -0.2206
 4929SOL    HW226247   4.306   3.035   7.386 -0.0128 -0.7426  1.1538
 4930SOL     OW26248   4.495   3.086   1.850 -0.0064 -0.0291  0.0141
 4930SOL    HW126249   4.401   3.097   1.868 -0.2807 -2.0622 -0.1097
 4930SOL    HW226250   4.521   3.177   1.864 -0.6138 -0.4704  4.0314
 4931SOL     OW26251   0.043   4.081   8.613  0.5062 -0.1634 -0.7222
 4931SOL    HW126252   4.709   4.083   8.535  0.8417  1.6206 -0.9319
 4931SOL    HW226253   0.123   4.038   8.582  0.5882  0.6077 -1.6002
 4932SOL     OW26254   2.929   2.477  17.521 -0.4201 -0.3984 -0.0746
 4932SOL    HW126255   2.893   2.506  17.605 -1.4758  0.3899 -0.7988
 4932SOL    HW226256   2.852   2.494  17.467 -0.5542  0.4087  0.3647
 4933SOL     OW26257   3.017   1.420  14.679 -0.3712 -0.0444 -0.2106
 4933SOL    HW126258   3.096   1.379  14.713  1.0139  0.8783 -2.3082
 4933SOL    HW226259   3.054   1.424  14.591 -0.5330  1.4459 -0.2111
 4934SOL     OW26260   1.134   0.504  14.313 -0.4118  0.4028 -0.2981
 4934SOL    HW126261   1.040   0.518  14.329 -0.6467 -0.8644 -0.5669
 4934SOL    HW226262   1.174   0.583  14.350 -0.3334  0.0062  0.4771
 4935SOL     OW26263   2.141   3.571   2.522  0.2004 -0.5485  0.2048
 4935SOL    HW126264   2.170   3.655   2.486 -1.5775 -0.7091 -1.6557
 4935SOL    HW226265   2.196   3.510   2.473  0.1972  0.2261 -0.7811
 4936SOL     OW26266   3.788   3.558  17.532  0.0578  0.5503 -0.2775
 4936SOL    HW126267   3.698   3.533  17.510  0.3272 -0.2689 -0.4338
 4936SOL    HW226268   3.824   3.470  17.535  0.3883  0.7050  0.3383
 4937SOL     OW26269   2.793   3.762  13.489  0.3946 -0.0067  0.0706
 4937SOL    HW126270   2.756   3.841  13.528 -1.3231  0.6296 -2.8419
 4937SOL    HW226271   2.711   3.712  13.482 -0.1730  0.9786 -0.4122
 4938SOL     OW26272   1.004   1.800   3.203 -0.6251 -0.1036 -0.3521
 4938SOL    HW126273   0.986   1.756   3.286 -0.6161 -0.6747 -0.6526
 4938SOL    HW226274   1.024   1.728   3.143  3.2404 -1.1952  2.2450
 4939SOL     OW26275   1.878   3.998  17.203  0.6907  0.1125 -0.3106
 4939SOL    HW126276   1.935   3.923  17.224 -1.0979 -1.7671 -2.1232
 4939SOL    HW226277   1.941   4.068  17.189  0.2280  0.3824 -1.0076
 4940SOL     OW26278   3.113   2.238   4.822  0.9044  0.1812 -0.0988
 4940SOL    HW126279   3.163   2.184   4.884 -1.4401 -0.2893  1.3838
 4940SOL    HW226280   3.023   2.229   4.854  0.2179 -0.2369 -2.1577
 4941SOL     OW26281   1.588   0.707   9.629  0.5115 -0.6169  0.3780
 4941SOL    HW126282   1.512   0.757   9.598 -1.1620 -1.4796  3.0937
 4941SOL    HW226283   1.660   0.771   9.633  1.3077 -1.5268  0.4641
 4942SOL     OW26284   2.737   1.299   0.693 -0.3710 -0.6407 -0.0032
 4942SOL    HW126285   2.808   1.289   0.757 -0.0863 -2.9710 -0.6792
 4942SOL    HW226286   2.683   1.220   0.697  0.1526 -0.9483  1.0101
 4943SOL     OW26287   0.247   4.236   6.655  0.3920 -0.8379  0.1708
 4943SOL    HW126288   0.172   4.198   6.609  1.5089 -2.1784 -0.5375
 4943SOL    HW226289   0.243   4.192   6.740  1.7854 -0.7812  0.2572
 4944SOL     OW26290   1.109   0.791   7.480  0.3000 -0.0294  0.2550
 4944SOL    HW126291   1.199   0.786   7.510  1.0038 -1.2205 -2.0759
 4944SOL    HW226292   1.082   0.701   7.465  1.1452 -0.1222 -0.6497
 4945SOL     OW26293   0.468   2.538  17.607 -0.1345  0.5940 -0.3515
 4945SOL    HW126294   0.450   2.451  17.643 -0.4010  0.4726 -0.7864
 4945SOL    HW226295   0.459   2.590   0.000  0.6846 -0.4790  0.4505
 4946SOL     OW26296   4.069   3.938   2.997 -0.4206  0.4374 -0.2648
 4946SOL    HW126297   4.032   3.925   3.084  0.1217  0.6199 -0.0117
 4946SOL    HW226298   4.103   4.027   3.002 -1.3243  0.8105 -0.7463
 4947SOL     OW26299   3.642   4.335  12.285  0.1832  0.3966 -0.0226
 4947SOL    HW126300   3.577   4.271  12.255 -0.1620 -0.4250  2.4522
 4947SOL    HW226301   3.680   4.364  12.202  0.3785  1.3056  0.3942
 4948SOL     OW26302   3.304   3.862   6.085  0.6231  0.5008 -0.8176
 4948SOL    HW126303   3.326   3.899   6.170 -2.5087 -2.4525  1.2498
 4948SOL    HW226304   3.230   3.805   6.104  0.7143  0.2843 -1.1088
 4949SOL     OW26305   3.348   2.516   8.719 -0.0544  0.2974 -0.0471
 4949SOL    HW126306   3.254   2.523   8.704  0.0409  0.2747 -0.6633
 4949SOL    HW226307   3.390   2.517   8.633  0.2903  2.9833  0.1406
 4950SOL     OW26308   0.275   0.844   4.848 -0.1060  0.3581 -0.0196
 4950SOL    HW126309   0.232   0.778   4.901 -0.7074 -0.3922 -1.4587
 4950SOL    HW226310   0.212   0.847   4.776  0.4514 -0.5371 -0.5443
 4951SOL     OW26311   1.939   2.367   6.224 -0.2318 -0.3998 -0.8160
 4951SOL    HW126312   1.967   2.291   6.276 -0.7665 -0.1537 -0.1739
 4951SOL    HW226313   1.882   2.334   6.155 -1.1037 -0.4622 -0.0591
 4952SOL     OW26314   3.318   0.479   4.690  0.1722  0.4242 -0.0061
 4952SOL    HW126315   3.317   0.574   4.698 -0.8833  0.3578  0.6330
 4952SOL    HW226316   3.276   0.447   4.769  2.5190 -1.1546  0.6156
 4953SOL     OW26317   4.718   3.954  11.367  0.0541 -0.2085 -0.3948
 4953SOL    HW126318   4.689   3.988  11.452  1.3410  0.8872 -0.4025
 4953SOL    HW226319   4.659   4.006  11.312 -0.4268 -1.0370 -0.6639
 4954SOL     OW26320   0.207   0.480  10.388  0.0512  0.6927 -0.0479
 4954SOL    HW126321   0.299   0.480  10.413  0.0400  1.6481 -0.0116
 4954SOL    HW226322   0.206   0.482  10.292 -1.1024  2.3539 -0.0095
 4955SOL     OW26323   4.002   2.662   8.157 -0.0028  0.1684 -0.5899
 4955SOL    HW126324   3.977   2.587   8.212  1.4344 -0.6741 -1.0630
 4955SOL    HW226325   4.038   2.722   8.223  0.9967 -1.8730  0.7522
 4956SOL     OW26326   0.876   2.939   8.968 -0.5466  0.4595  0.4628
 4956SOL    HW126327   0.863   3.000   9.040 -0.4327  0.2265  0.6806
 4956SOL    HW226328   0.918   3.000   8.907 -0.3578  0.3437  0.4779
 4957SOL     OW26329   1.863   0.169   1.472  0.5837 -0.7276  0.2655
 4957SOL    HW126330   1.818   0.168   1.556  0.0739  0.4774  0.0128
 4957SOL    HW226331   1.890   0.078   1.468  4.6912  0.5995 -2.3448
 4958SOL     OW26332   0.534   1.206  11.509 -0.1359  0.0813  0.3484
 4958SOL    HW126333   0.523   1.275  11.443  0.0612  0.5288  0.7861
 4958SOL    HW226334   0.630   1.201  11.514 -0.0499  1.6765  0.2228
 4959SOL     OW26335   0.853   2.057   2.304  0.0181  1.0004  0.6027
 4959SOL    HW126336   0.854   2.025   2.394 -1.0194 -0.9434 -0.0765
 4959SOL    HW226337   0.915   2.128   2.321  1.2440  0.2464 -0.7600
 4960SOL     OW26338   1.090   3.302  13.380  0.1111  0.1292 -0.2266
 4960SOL    HW126339   1.074   3.283  13.288  0.2292 -1.3785  0.0548
 4960SOL    HW226340   1.160   3.367  13.372  0.5956 -0.6222 -2.1125
 4961SOL     OW26341   3.106   0.296  15.124  0.3403 -0.0995 -0.1289
 4961SOL    HW126342   3.070   0.214  15.090 -2.0988  0.6746  0.5651
 4961SOL    HW226343   3.139   0.342  15.047 -0.5233 -1.3728 -1.2435
 4962SOL     OW26344   2.312   0.720   6.514 -0.1433  0.2754  0.4708
 4962SOL    HW126345   2.301   0.682   6.426 -0.7150  0.1554  0.5912
 4962SOL    HW226346   2.300   0.640   6.564 -1.1171 -0.2022 -0.5215
 4963SOL     OW26347   0.208   0.586   6.624 -0.4061 -0.2186  0.1854
 4963SOL    HW126348   0.296   0.554   6.601 -1.1009 -1.8292 -0.1975
 4963SOL    HW226349   0.158   0.518   6.581 -0.7016  0.3355 -0.3389
 4964SOL     OW26350   4.439   1.348   2.130  0.7754  0.1263  0.1122
 4964SOL    HW126351   4.444   1.363   2.225  4.2897  1.9206 -0.3796
 4964SOL    HW226352   4.469   1.258   2.136 -1.1339 -0.5470 -0.2629
 4965SOL     OW26353   3.900   2.543   8.657  0.2593  0.0664 -0.2982
 4965SOL    HW126354   3.903   2.537   8.752 -1.8368  3.2142 -0.0420
 4965SOL    HW226355   3.824   2.487   8.642 -0.1368  0.6560 -0.4760
 4966SOL     OW26356   4.418   2.514   3.701  0.0994  0.0944  0.0530
 4966SOL    HW126357   4.463   2.563   3.770  0.9957 -1.0194  0.2555
 4966SOL    HW226358   4.473   2.533   3.625  0.9667 -0.8680  0.4415
 4967SOL     OW26359   2.578   3.706  13.072  0.6576  0.6021 -0.4858
 4967SOL    HW126360   2.653   3.741  13.024  2.7066 -2.3585  0.5035
 4967SOL    HW226361   2.527   3.786  13.085 -0.2163 -0.2051  1.0997
 4968SOL     OW26362   0.589   2.204  10.779 -0.1948  0.0938 -0.2329
 4968SOL    HW126363   0.504   2.165  10.800  0.1898 -1.0017 -0.7053
 4968SOL    HW226364   0.598   2.288  10.824  1.9818  0.3490 -1.1264
 4969SOL     OW26365   3.798   0.580  16.131  0.1439  0.6513 -0.0597
 4969SOL    HW126366   3.824   0.531  16.053 -0.0141  0.6226 -0.0956
 4969SOL    HW226367   3.746   0.650  16.090 -0.0000 -0.6106 -2.0677
 4970SOL     OW26368   1.957   3.170  11.044 -0.0040  0.2456  0.6848
 4970SOL    HW126369   2.042   3.169  11.001  0.3585 -1.8588  1.4663
 4970SOL    HW226370   1.993   3.165  11.133  0.0520  0.2420  0.6621
 4971SOL     OW26371   1.465   1.788   7.702  0.6613  0.1778  0.2184
 4971SOL    HW126372   1.462   1.729   7.777 -0.4668 -0.9696 -0.7369
 4971SOL    HW226373   1.551   1.765   7.667  0.0846 -1.3506 -0.2037
 4972SOL     OW26374   3.066   0.378   9.584 -0.1306  0.1025  0.2654
 4972SOL    HW126375   3.058   0.388   9.679  1.9151  1.7099  0.2730
 4972SOL    HW226376   3.027   0.291   9.583 -0.0980  0.0843  0.7127
 4973SOL     OW26377   0.075   2.432   1.316  0.8321  0.4048 -0.7561
 4973SOL    HW126378   0.084   2.367   1.247 -1.5980 -0.7828  0.0302
 4973SOL    HW226379   0.043   2.377   1.388  2.1775  1.8787  0.9808
 4974SOL     OW26380   2.695   0.553  13.924  0.9582  0.1015  0.4849
 4974SOL    HW126381   2.619   0.610  13.920  0.6789 -0.3319 -0.2473
 4974SOL    HW226382   2.690   0.497  13.847  1.1544 -0.3663  0.8061
 4975SOL     OW26383   2.801   4.703   7.785  0.1969 -0.2000 -0.1471
 4975SOL    HW126384   2.751   0.030   7.719  1.6311  1.0664 -0.3029
 4975SOL    HW226385   2.736   4.677   7.850 -1.6543  2.2505 -1.0136
 4976SOL     OW26386   2.127   4.347   2.477  0.1861  0.1392  0.4550
 4976SOL    HW126387   2.216   4.383   2.478 -0.3369  1.3797  2.3496
 4976SOL    HW226388   2.082   4.428   2.502 -2.0240 -0.5329 -1.3324
 4977SOL     OW26389   3.846   0.296  14.264 -0.4173  0.7863 -0.2444
 4977SOL    HW126390   3.906   0.224  14.285 -2.1864  0.2001  2.7501
 4977SOL    HW226391   3.850   0.291  14.169  1.3450 -0.0889 -0.1276
 4978SOL     OW26392   2.316   2.828  17.295  0.4906  0.7755  0.8225
 4978SOL    HW126393   2.406   2.812  17.270 -0.0495 -1.2338  0.2115
 4978SOL    HW226394   2.301   2.913  17.254  0.6730  0.9295  1.0718
 4979SOL     OW26395   1.234   3.446  11.778 -0.0130 -0.0887 -0.2558
 4979SOL    HW126396   1.289   3.397  11.839  0.0760 -2.1225 -1.9711
 4979SOL    HW226397   1.151   3.405  11.801 -0.2149 -0.2626 -1.2895
 4980SOL     OW26398   4.591   0.677   0.405  0.3378  0.0498  0.2841
 4980SOL    HW126399   4.630   0.734   0.338  0.6557 -1.3691 -0.7485
 4980SOL    HW226400   4.656   0.607   0.401 -0.3114 -0.4702 -1.3017
 4981SOL     OW26401   0.072   3.234  14.102 -0.2103 -0.0561  0.5393
 4981SOL    HW126402   0.121   3.230  14.184  0.2111 -0.3852  0.2703
 4981SOL    HW226403   0.148   3.252  14.046 -1.3601 -0.8356 -1.2827
 4982SOL     OW26404   4.062   4.273   9.043 -0.0510 -0.2277 -0.1124
 4982SOL    HW126405   4.070   4.366   9.065 -0.3793  0.2813 -2.1570
 4982SOL    HW226406   4.134   4.236   9.094 -1.8319  0.6942  3.0379
 4983SOL     OW26407   4.172   4.695  11.334 -0.0935  0.2947  0.3945
 4983SOL    HW126408   4.158   4.633  11.262  3.3972  1.3463 -1.1830
 4983SOL    HW226409   4.217   4.636  11.395 -2.2382 -1.4893  0.2589
 4984SOL     OW26410   3.871   1.430   0.758 -0.1887 -0.1256 -0.4347
 4984SOL    HW126411   3.870   1.355   0.818 -2.4451  2.2490  2.5083
 4984SOL    HW226412   3.847   1.390   0.674 -0.5671 -1.8264  0.4883
 4985SOL     OW26413   2.510   2.170   6.328 -0.1325 -0.5662 -0.5230
 4985SOL    HW126414   2.490   2.188   6.236 -0.4692  0.3751 -0.2682
 4985SOL    HW226415   2.423   2.165   6.368 -0.0415 -0.1961 -0.2767
 4986SOL     OW26416   2.472   0.739   3.782 -0.0719 -0.2301  0.3763
 4986SOL    HW126417   2.447   0.830   3.798  1.7999  0.3948 -0.3272
 4986SOL    HW226418   2.392   0.695   3.751 -0.8413  1.3724  0.0234
 4987SOL     OW26419   2.989   1.085   7.952 -1.0660 -0.2149  0.8599
 4987SOL    HW126420   2.923   1.076   8.020  0.3225 -1.1501  2.0905
 4987SOL    HW226421   3.065   1.124   7.996 -0.3594 -0.7032  0.0744
 4988SOL     OW26422   1.960   0.730   4.821 -0.6319  0.1647  0.1258
 4988SOL    HW126423   2.049   0.756   4.800 -0.4303  0.6948  1.5721
 4988SOL    HW226424   1.943   0.788   4.896  0.2023  0.5900 -0.0150
 4989SOL     OW26425   0.592   2.320   3.862  0.3583 -0.4987 -0.3141
 4989SOL    HW126426   0.615   2.246   3.917  1.5726  0.8691  1.0046
 4989SOL    HW226427   0.674   2.367   3.849 -0.2191  0.7962  0.6811
 4990SOL     OW26428   2.919   0.707  13.957  0.1845  0.0149  0.5729
 4990SOL    HW126429   2.845   0.657  13.923  1.0342 -0.6981 -0.2567
 4990SOL    HW226430   2.959   0.656  14.027  1.1678 -0.1046 -0.0719
 4991SOL     OW26431   0.555   4.334   7.148  0.1628  0.5666 -0.1192
 4991SOL    HW126432   0.590   4.411   7.104 -0.3184 -1.1445 -3.5046
 4991SOL    HW226433   0.480   4.364   7.199 -0.8517 -2.8483  0.4128
 4992SOL     OW26434   1.918   2.120   8.039 -0.1135 -0.3160 -0.8457
 4992SOL    HW126435   1.974   2.181   7.991  0.0056  0.9806  0.9447
 4992SOL    HW226436   1.923   2.050   7.973 -1.9001 -1.5108  0.2762
 4993SOL     OW26437   0.519   1.633   2.035 -0.6404 -0.1438  0.1350
 4993SOL    HW126438   0.443   1.577   2.020 -0.0000 -0.8412 -0.5173
 4993SOL    HW226439   0.532   1.666   1.946 -1.4755 -0.2153 -0.0171
 4994SOL     OW26440   1.312   1.491  12.661 -0.1809 -0.0668  0.5990
 4994SOL    HW126441   1.363   1.505  12.740  1.4259  0.4033 -0.5227
 4994SOL    HW226442   1.375   1.452  12.600  1.1533  2.0130  0.6696
 4995SOL     OW26443   4.395   4.398  15.543 -0.2360  0.6934 -0.2113
 4995SOL    HW126444   4.313   4.434  15.509  0.8719  2.7765 -0.6948
 4995SOL    HW226445   4.439   4.368  15.463 -2.2565 -1.6306 -0.4499
 4996SOL     OW26446   3.717   0.293   2.489  0.4415  0.1071 -0.3456
 4996SOL    HW126447   3.778   0.223   2.466  0.1324 -0.0026 -0.8453
 4996SOL    HW226448   3.651   0.283   2.420 -1.2396  0.4828  1.2107
 4997SOL     OW26449   3.937   0.640   7.331 -0.5003 -0.0161 -0.2306
 4997SOL    HW126450   3.923   0.563   7.387 -0.7450  0.5432  0.4794
 4997SOL    HW226451   4.029   0.621   7.310 -0.6628 -0.6406 -0.3644
 4998SOL     OW26452   2.433   0.635  15.371  0.2078 -0.2892 -0.7092
 4998SOL    HW126453   2.362   0.677  15.420  0.1838 -0.0824 -0.9217
 4998SOL    HW226454   2.511   0.627  15.426 -1.1680  1.6924  1.5624
 4999SOL     OW26455   1.979   0.833   6.906 -0.5568 -0.3018 -0.7081
 4999SOL    HW126456   2.020   0.894   6.845  0.2122  0.3509  0.4700
 4999SOL    HW226457   1.886   0.848   6.891 -0.6219  0.2158  0.2050
 5000SOL     OW26458   0.277   2.402   5.122 -0.8515 -0.4596  0.4568
 5000SOL    HW126459   0.252   2.319   5.164 -0.0810  0.2463  2.3201
 5000SOL    HW226460   0.313   2.444   5.200 -0.9205 -0.3432  0.4269
 5001SOL     OW26461   1.887   4.357   6.366 -0.4772 -0.3339 -0.6201
 5001SOL    HW126462   1.833   4.401   6.432  3.1723 -1.6130  3.1571
 5001SOL    HW226463   1.938   4.432   6.334 -1.6827  0.2380 -1.2302
 5002SOL     OW26464   4.399   0.433   6.517  0.0654  0.5384  0.0122
 5002SOL    HW126465   4.453   0.409   6.592  0.4841  1.2244 -0.0735
 5002SOL    HW226466   4.371   0.345   6.491 -0.8385  1.2431 -1.4377
 5003SOL     OW26467   3.890   1.300   7.810  0.5515  0.1221 -0.6946
 5003SOL    HW126468   3.931   1.304   7.723 -1.2722  0.6354 -1.5381
 5003SOL    HW226469   3.796   1.292   7.796  0.5864 -0.1870 -0.7413
 5004SOL     OW26470   1.329   3.300   2.168  1.0202  0.2848 -1.1243
 5004SOL    HW126471   1.393   3.363   2.202 -3.0022  3.3755  0.7250
 5004SOL    HW226472   1.378   3.251   2.102  1.2889 -1.1800  0.1672
 5005SOL     OW26473   1.163   2.391   6.230  0.0120 -0.0144 -0.2516
 5005SOL    HW126474   1.170   2.376   6.136  1.1431  2.0820 -0.5017
 5005SOL    HW226475   1.195   2.308   6.265 -1.1234 -0.4650 -0.2719
 5006SOL     OW26476   3.175   1.794   5.829 -0.3749  0.0212 -0.6145
 5006SOL    HW126477   3.156   1.878   5.787 -0.4088  0.9042  1.1451
 5006SOL    HW226478   3.270   1.805   5.826 -0.4174  0.7276  0.4680
 5007SOL     OW26479   0.661   3.559   4.652 -0.0019  0.0606 -0.1780
 5007SOL    HW126480   0.730   3.623   4.667 -0.3614  0.5934 -0.7675
 5007SOL    HW226481   0.625   3.619   4.586  0.9734 -1.8322 -2.4267
 5008SOL     OW26482   3.585   2.447  17.036  0.1077 -0.0567 -0.0459
 5008SOL    HW126483   3.582   2.385  17.108  0.7040  0.8513  0.7650
 5008SOL    HW226484   3.628   2.525  17.072  2.7206 -1.8547  0.7121
 5009SOL     OW26485   4.261   4.395  15.082  0.5516 -0.0697  0.7109
 5009SOL    HW126486   4.297   4.479  15.055 -0.1192 -0.0132  0.0082
 5009SOL    HW226487   4.318   4.331  15.039  1.5823  1.3045  0.0281
 5010SOL     OW26488   1.490   3.985   7.573 -0.3467  0.1805  0.3758
 5010SOL    HW126489   1.449   4.069   7.596  0.4614  0.9210 -0.8812
 5010SOL    HW226490   1.466   3.931   7.648  1.7505 -0.7359  0.3748
 5011SOL     OW26491   3.595   4.179   6.872  0.3758 -0.2829  0.1623
 5011SOL    HW126492   3.586   4.218   6.785  0.2009  0.1125  0.3539
 5011SOL    HW226493   3.659   4.110   6.857  1.2730  0.6914 -0.4384
 5012SOL     OW26494   0.967   3.222   3.711  0.0994 -0.1250  0.4367
 5012SOL    HW126495   0.881   3.217   3.752 -0.1035  2.0996  0.2885
 5012SOL    HW226496   1.011   3.298   3.749  0.6780 -0.5345  0.5957
 5013SOL     OW26497   2.991   1.673   6.227  0.5042  0.5212 -0.0347
 5013SOL    HW126498   2.900   1.642   6.235  1.0884 -0.9165  1.0037
 5013SOL    HW226499   2.985   1.768   6.236  0.0170  0.4767  0.1342
 5014SOL     OW26500   2.521   1.849   3.377 -0.4755 -0.0120  0.2818
 5014SOL    HW126501   2.481   1.930   3.407  1.9183  1.9352 -1.7837
 5014SOL    HW226502   2.576   1.882   3.306 -1.7635 -1.0179 -1.1728
 5015SOL     OW26503   4.341   4.388   2.070 -0.6142 -0.2226  0.3152
 5015SOL    HW126504   4.251   4.403   2.043 -0.4407 -1.1689 -0.7963
 5015SOL    HW226505   4.333   4.301   2.108  2.5799 -0.7534 -0.1957
 5016SOL     OW26506   3.729   2.983  14.278 -0.0995  0.1061  0.5247
 5016SOL    HW126507   3.684   2.952  14.356 -0.5844  0.4934  0.3992
 5016SOL    HW226508   3.818   2.947  14.283 -0.6214 -1.4321 -1.2590
 5017SOL     OW26509   3.654   0.772  15.977 -0.4527 -0.2916  0.5344
 5017SOL    HW126510   3.600   0.693  15.977 -0.4963 -0.2622  2.0547
 5017SOL    HW226511   3.584   0.837  15.977 -0.3697 -0.2176 -1.2698
 5018SOL     OW26512   3.878   0.711   3.558  0.3502 -0.3032 -0.2664
 5018SOL    HW126513   3.846   0.622   3.541 -0.6799  0.5422 -2.7451
 5018SOL    HW226514   3.958   0.701   3.508  0.3892  0.2015 -0.3060
 5019SOL     OW26515   2.334   2.439  17.381 -0.0165 -0.2266  0.0325
 5019SOL    HW126516   2.419   2.411  17.348 -0.1737 -1.3281  0.5838
 5019SOL    HW226517   2.281   2.454  17.302 -0.2465  0.8659  0.3973
 5020SOL     OW26518   2.751   4.286  10.476 -0.0864  0.1829 -0.2470
 5020SOL    HW126519   2.766   4.333  10.558 -0.0866 -1.4965  0.7149
 5020SOL    HW226520   2.837   4.276  10.435  0.2164 -0.1658  0.4619
 5021SOL     OW26521   3.503   4.595   0.415  0.1704 -0.0970 -0.4117
 5021SOL    HW126522   3.502   4.674   0.469 -3.6685 -0.4836  0.1082
 5021SOL    HW226523   3.434   4.621   0.353  0.8182  1.3691 -0.5076
 5022SOL     OW26524   1.513   0.983  17.183  0.5465 -0.1017  0.7699
 5022SOL    HW126525   1.530   0.943  17.098 -1.4304  0.0290  0.3119
 5022SOL    HW226526   1.516   0.910  17.244  0.4262 -0.6223  0.1477
 5023SOL     OW26527   4.445   0.892   2.617  0.2965 -0.0936  0.4852
 5023SOL    HW126528   4.375   0.892   2.552  2.9719  2.0786 -2.4226
 5023SOL    HW226529   4.410   0.856   2.699 -0.5057 -0.6479 -0.0918
 5024SOL     OW26530   1.689   3.818   2.537  0.7416 -0.2815  0.0250
 5024SOL    HW126531   1.689   3.722   2.547 -0.5772 -0.2360  0.4120
 5024SOL    HW226532   1.595   3.835   2.537  0.7792 -0.0791 -0.6037
 5025SOL     OW26533   4.064   1.087  12.346  0.1896  0.1521 -0.5588
 5025SOL    HW126534   4.078   1.132  12.263  1.6689 -0.0889 -0.4278
 5025SOL    HW226535   4.145   1.037  12.348 -0.0295 -0.1747  0.1034
 5026SOL     OW26536   4.191   1.241   4.625 -0.3084  0.4360 -0.8055
 5026SOL    HW126537   4.173   1.301   4.552  0.2365  0.6648 -0.7486
 5026SOL    HW226538   4.108   1.245   4.673  0.7642  1.0428  1.0195
 5027SOL     OW26539   0.208   2.950   6.979  0.1275  0.8418 -0.4143
 5027SOL    HW126540   0.182   2.938   6.887 -3.2948 -0.2601  0.6725
 5027SOL    HW226541   0.292   2.991   6.962 -0.3541  0.4230 -3.8712
 5028SOL     OW26542   3.465   2.549   6.966  0.5811 -0.2109 -0.0241
 5028SOL    HW126543   3.476   2.634   7.007  0.0982  0.5383 -1.4668
 5028SOL    HW226544   3.513   2.488   7.023 -1.5018 -0.2940  1.6219
 5029SOL     OW26545   3.201   1.709   2.756  0.5026 -0.0282 -0.2696
 5029SOL    HW126546   3.208   1.796   2.719  1.8006 -0.0906 -0.1502
 5029SOL    HW226547   3.285   1.666   2.739  0.8704  1.5112 -2.2923
 5030SOL     OW26548   2.004   4.697  15.051 -0.5189  0.1761 -0.4067
 5030SOL    HW126549   2.066   4.665  14.986  0.7565  0.7009  0.5703
 5030SOL    HW226550   2.063   0.013  15.116 -0.3106  0.1631 -0.5907
 5031SOL     OW26551   2.749   0.024   3.930  0.3666  0.1244  0.1017
 5031SOL    HW126552   2.723   0.106   3.971  1.2874 -0.0223  0.9916
 5031SOL    HW226553   2.772   0.047   3.840  0.1250  2.6258  0.6688
 5032SOL     OW26554   1.666   2.151  16.749  0.3115 -0.2547  0.5342
 5032SOL    HW126555   1.590   2.125  16.802 -1.0382  1.4043 -0.5995
 5032SOL    HW226556   1.736   2.118  16.806 -0.7564 -0.8818  1.4876
 5033SOL     OW26557   3.975   0.299  15.829 -0.6071 -0.4112  0.2792
 5033SOL    HW126558   3.943   0.330  15.744  1.0940 -2.5026 -1.1337
 5033SOL    HW226559   3.900   0.336  15.875  0.3239 -0.3327  1.7459
 5034SOL     OW26560   3.356   3.836   5.157 -0.0734 -0.8411 -0.4733
 5034SOL    HW126561   3.431   3.894   5.170 -0.3815 -0.7550  0.9195
 5034SOL    HW226562   3.367   3.792   5.241  1.4814 -1.3998 -0.9652
 5035SOL     OW26563   4.606   0.992   5.070 -0.0224 -0.3153  0.5257
 5035SOL    HW126564   4.547   1.031   5.134  0.9909 -1.0651  1.9003
 5035SOL    HW226565   4.663   1.062   5.036 -0.4131  0.0965  0.7202
 5036SOL     OW26566   2.957   3.030  13.622  0.7399 -0.2909  0.4966
 5036SOL    HW126567   2.936   2.942  13.653  0.1106 -0.4373 -0.3458
 5036SOL    HW226568   2.926   3.082  13.695 -1.7081 -2.0261  0.6776
 5037SOL     OW26569   2.016   0.691  12.517 -0.5218 -0.2104 -0.4411
 5037SOL    HW126570   1.950   0.754  12.547 -1.1814 -0.4146 -1.4628
 5037SOL    HW226571   1.985   0.643  12.440 -1.3940  2.8638 -1.9999
 5038SOL     OW26572   2.416   2.328  11.554  0.0687 -0.6151  0.5405
 5038SOL    HW126573   2.359   2.346  11.629 -1.6989  2.1953 -1.4601
 5038SOL    HW226574   2.405   2.234  11.547 -1.1533 -0.2206 -2.9019
 5039SOL     OW26575   2.183   2.139   2.153  0.4321 -0.2232 -0.2377
 5039SOL    HW126576   2.263   2.176   2.116  0.2318  2.5220  2.0171
 5039SOL    HW226577   2.185   2.044   2.143 -0.2039 -0.3107  0.4244
 5040SOL     OW26578   0.136   0.224  10.029 -0.0277 -0.1968 -0.1040
 5040SOL    HW126579   0.057   0.228   9.976 -2.6215 -2.9024  3.5044
 5040SOL    HW226580   0.160   0.316  10.040 -0.0430 -0.1155 -0.7517
 5041SOL     OW26581   3.257   3.418   0.985 -0.4369  0.5984 -0.0853
 5041SOL    HW126582   3.237   3.495   1.037 -0.4903 -0.0649  0.8658
 5041SOL    HW226583   3.225   3.458   0.904  0.0510 -1.6773 -1.4004
 5042SOL     OW26584   1.860   3.690   4.989  0.0305  0.1862  0.2639
 5042SOL    HW126585   1.820   3.777   4.999 -1.2473 -0.1458 -1.9499
 5042SOL    HW226586   1.850   3.667   5.081  1.8310 -1.6687 -0.0088
 5043SOL     OW26587   0.265   2.830  14.475 -0.3089  0.1133  0.2303
 5043SOL    HW126588   0.199   2.779  14.521 -0.2558  0.1779  0.3785
 5043SOL    HW226589   0.319   2.761  14.436  0.1699  1.5513 -1.6658
 5044SOL     OW26590   2.066   3.959   6.093 -0.0622  0.5366 -0.5945
 5044SOL    HW126591   1.976   3.966   6.063 -0.6260  0.8682  1.1887
 5044SOL    HW226592   2.098   4.040   6.053  0.8945  0.0732 -0.7828
 5045SOL     OW26593   1.319   2.912  10.994 -0.1381 -0.1456  0.2932
 5045SOL    HW126594   1.342   2.995  11.036  0.0310  0.4496 -0.9640
 5045SOL    HW226595   1.255   2.875  11.054 -0.1557  0.0308  0.3841
 5046SOL     OW26596   1.335   4.059   6.494  0.7157  0.0762  0.6875
 5046SOL    HW126597   1.363   4.110   6.417 -0.0313 -2.3711 -1.2248
 5046SOL    HW226598   1.414   4.069   6.547  2.4598 -1.7872 -1.5385
 5047SOL     OW26599   0.664   0.599   3.378  0.7193  0.0772  0.1354
 5047SOL    HW126600   0.757   0.621   3.366  0.5171  1.1392  0.5482
 5047SOL    HW226601   0.629   0.682   3.344 -0.1814 -0.4146 -0.1330
 5048SOL     OW26602   1.212   4.297   7.278  0.1117  0.2736  0.1939
 5048SOL    HW126603   1.124   4.268   7.256  0.5173  0.5878 -1.8160
 5048SOL    HW226604   1.228   4.215   7.325 -1.7654 -0.6850 -0.8657
 5049SOL     OW26605   4.068   3.975   5.602  0.1491  0.1507  0.4398
 5049SOL    HW126606   4.034   4.052   5.557  0.2431  0.7043  1.3194
 5049SOL    HW226607   4.161   3.990   5.583  0.3470 -0.1907  1.1444
 5050SOL     OW26608   1.325   0.798   2.140  0.2263  0.1766  0.6960
 5050SOL    HW126609   1.369   0.862   2.084  0.0484 -0.9487 -0.7325
 5050SOL    HW226610   1.354   0.840   2.221  0.1097  1.1732  0.2182
 5051SOL     OW26611   0.729   1.182   4.241 -0.3374  0.1206  0.1991
 5051SOL    HW126612   0.767   1.219   4.321 -0.1007  0.2141  0.0428
 5051SOL    HW226613   0.651   1.140   4.276  1.1241 -1.2221  1.8181
 5052SOL     OW26614   1.261   4.443  17.650  0.2460 -0.3587  0.4956
 5052SOL    HW126615   1.308   4.526  17.648 -3.2439  1.6489  0.3542
 5052SOL    HW226616   1.193   4.463   0.029  1.1842  4.1887  0.0732
 5053SOL     OW26617   4.495   1.881  10.453 -1.3293  0.0531  0.0602
 5053SOL    HW126618   4.546   1.819  10.402 -0.0725 -1.6046  3.3375
 5053SOL    HW226619   4.407   1.875  10.415 -1.0423  0.1048 -0.6033
 5054SOL     OW26620   3.229   0.821   8.919 -0.2184 -0.3383 -0.6597
 5054SOL    HW126621   3.228   0.901   8.971 -0.5911 -0.0513 -1.1100
 5054SOL    HW226622   3.136   0.800   8.924 -0.4492  1.1314  1.2512
 5055SOL     OW26623   1.978   4.154   3.738 -0.4152  0.0589  0.2481
 5055SOL    HW126624   1.897   4.139   3.690  0.8798  0.9907 -2.2069
 5055SOL    HW226625   2.052   4.126   3.685  1.4337  2.2820  1.6379
 5056SOL     OW26626   4.311   0.371   5.514 -0.1405 -0.1875 -0.2807
 5056SOL    HW126627   4.402   0.403   5.512  0.2721 -1.4803 -2.4933
 5056SOL    HW226628   4.268   0.385   5.430  4.1624 -2.5652 -2.9055
 5057SOL     OW26629   0.751   2.695   3.336 -0.2916  0.4164  0.0771
 5057SOL    HW126630   0.773   2.610   3.300  0.3751  1.6373 -2.3572
 5057SOL    HW226631   0.672   2.681   3.388 -1.3064 -0.3354 -1.6810
 5058SOL     OW26632   4.451   1.753   2.261  0.1665  0.1897  0.4008
 5058SOL    HW126633   4.388   1.769   2.191  0.1591 -0.0687  0.3508
 5058SOL    HW226634   4.462   1.839   2.302 -2.6204  0.5678  0.3974
 5059SOL     OW26635   2.438   0.301  14.660  0.0785 -0.2000 -0.0324
 5059SOL    HW126636   2.511   0.331  14.607  0.3234  0.0172  0.4288
 5059SOL    HW226637   2.397   0.387  14.667  1.8451  0.4920  1.8219
 5060SOL     OW26638   2.696   1.209   3.358 -0.7572 -1.3758  0.0767
 5060SOL    HW126639   2.611   1.185   3.395 -1.0044 -0.0378  0.3702
 5060SOL    HW226640   2.683   1.304   3.353  0.1692 -1.1240  2.1563
 5061SOL     OW26641   0.529   4.097   7.019  0.0781 -0.3201  0.1083
 5061SOL    HW126642   0.624   4.095   7.009  0.0878 -0.4878  0.2180
 5061SOL    HW226643   0.524   4.182   7.063 -0.7770 -0.3329  0.0244
 5062SOL     OW26644   4.146   1.336   8.160  0.1802  0.2764  0.3633
 5062SOL    HW126645   4.150   1.282   8.080  0.5828  0.3948  0.3049
 5062SOL    HW226646   4.137   1.426   8.129 -0.3687 -0.0384 -0.4068
 5063SOL     OW26647   4.537   4.506  13.221 -0.7405 -0.8933  0.0506
 5063SOL    HW126648   4.443   4.507  13.204 -0.5666  1.4697 -0.8040
 5063SOL    HW226649   4.562   4.592  13.186 -2.0163 -1.3598 -2.0113
 5064SOL     OW26650   3.127   1.918  13.052  0.2463  0.1333  0.2918
 5064SOL    HW126651   3.170   1.836  13.076  0.0098 -0.5641 -1.5993
 5064SOL    HW226652   3.162   1.921  12.963 -0.9706 -2.0987 -0.2655
 5065SOL     OW26653   3.777   3.753   4.563 -0.2822 -0.2291  0.1770
 5065SOL    HW126654   3.798   3.818   4.496  0.4637  0.0605  0.6937
 5065SOL    HW226655   3.690   3.765   4.600 -0.4628 -0.6129 -0.1323
 5066SOL     OW26656   3.781   2.934   9.576 -0.4200  0.1340  0.3249
 5066SOL    HW126657   3.732   2.861   9.536  1.2071 -1.4910  1.3090
 5066SOL    HW226658   3.730   2.999   9.528  1.5198 -0.9672 -3.2417
 5067SOL     OW26659   0.496   1.355   6.417 -0.5756 -0.0060  0.0462
 5067SOL    HW126660   0.479   1.270   6.377 -0.0990  0.9417 -2.1262
 5067SOL    HW226661   0.476   1.340   6.510  0.6476 -1.5624  0.0751
 5068SOL     OW26662   0.014   3.607  16.702 -0.0821  0.0372 -0.5804
 5068SOL    HW126663   4.681   3.648  16.633 -0.0142  0.2017 -0.5354
 5068SOL    HW226664   4.718   3.668  16.774  0.6935  1.2843 -1.4486
 5069SOL     OW26665   1.904   2.686   5.067  0.2910 -0.1834 -0.6744
 5069SOL    HW126666   1.997   2.670   5.083 -0.2674 -1.1581  1.5592
 5069SOL    HW226667   1.908   2.765   5.012  1.8183  1.0415  1.2084
 5070SOL     OW26668   2.043   2.245   6.864  0.2951  0.4207  0.8324
 5070SOL    HW126669   2.058   2.271   6.955  0.8510  0.4294  0.7359
 5070SOL    HW226670   2.110   2.308   6.837 -0.3404  1.6478  2.1215
 5071SOL     OW26671   4.162   2.733   8.412 -0.0842  0.0687 -0.5750
 5071SOL    HW126672   4.246   2.688   8.402 -0.5895 -1.2635  1.2592
 5071SOL    HW226673   4.197   2.818   8.440  0.6512 -0.3991 -0.0638
 5072SOL     OW26674   4.474   1.048   7.870  0.3624 -0.6037  0.0614
 5072SOL    HW126675   4.554   1.064   7.820 -0.3089  1.4325 -0.3790
 5072SOL    HW226676   4.515   1.043   7.957 -2.6227  0.9625  1.5594
 5073SOL     OW26677   0.038   0.903  17.573 -0.0780 -0.0141 -0.2852
 5073SOL    HW126678   4.696   0.948  17.629  2.8730  0.0695  3.0022
 5073SOL    HW226679   0.097   0.975  17.549  0.1415  0.0152  0.3290
 5074SOL     OW26680   1.030   2.225   6.801  0.6232  0.2280 -0.4723
 5074SOL    HW126681   0.949   2.222   6.852  1.8356  2.2232  1.6167
 5074SOL    HW226682   1.058   2.313   6.828 -1.9137  0.9203 -0.1263
 5075SOL     OW26683   3.347   3.662   3.161 -0.2962  0.4470  0.1450
 5075SOL    HW126684   3.302   3.696   3.238 -1.5382 -0.6759 -0.0908
 5075SOL    HW226685   3.399   3.737   3.131  0.0819 -1.0058 -2.7562
 5076SOL     OW26686   4.546   0.717  10.713  0.4851  0.8891 -0.0457
 5076SOL    HW126687   4.556   0.721  10.808  0.1154 -1.2812  0.0678
 5076SOL    HW226688   4.622   0.672  10.677  0.8882  1.0990  0.5533
 5077SOL     OW26689   0.046   0.760   9.304 -0.2690  0.0788  0.4664
 5077SOL    HW126690   4.688   0.799   9.265 -0.4961 -0.0088  0.8386
 5077SOL    HW226691   0.117   0.813   9.267 -0.8541  0.1805 -0.4968
 5078SOL     OW26692   1.283   4.475   6.980 -0.2298  0.2286  0.5696
 5078SOL    HW126693   1.353   4.461   6.917 -1.2420  2.8210 -1.1393
 5078SOL    HW226694   1.251   4.386   6.992  0.2801 -0.4169 -2.8438
 5079SOL     OW26695   3.523   3.052  16.622  0.0111 -0.2020 -0.6704
 5079SOL    HW126696   3.618   3.050  16.626  0.0359 -1.0555 -1.8274
 5079SOL    HW226697   3.499   2.961  16.606  1.1516 -0.5415 -0.4156
 5080SOL     OW26698   1.453   2.775  12.000 -0.0159 -0.0470  0.1347
 5080SOL    HW126699   1.399   2.809  12.071 -0.4952  1.2877 -0.8627
 5080SOL    HW226700   1.508   2.851  11.979  0.9709 -0.5757  0.8132
 5081SOL     OW26701   0.456   1.732   1.537 -0.4697 -0.3491 -0.7873
 5081SOL    HW126702   0.488   1.642   1.532  1.2539  0.1936  0.2535
 5081SOL    HW226703   0.467   1.744   1.632  1.8713  0.5231 -1.1472
 5082SOL     OW26704   0.858   2.124   6.562  0.1967 -0.8347 -0.3840
 5082SOL    HW126705   0.767   2.112   6.536  0.0974 -1.9096  0.4645
 5082SOL    HW226706   0.882   2.209   6.523  2.7590 -1.3195  0.1227
 5083SOL     OW26707   1.004   2.121   5.324 -0.5080 -0.0731 -0.0145
 5083SOL    HW126708   0.947   2.147   5.252  0.4202  0.8041 -0.4310
 5083SOL    HW226709   0.970   2.042   5.366 -0.5959  0.2837  0.5853
 5084SOL     OW26710   0.689   0.650   7.766 -0.5975  0.3926  0.3015
 5084SOL    HW126711   0.757   0.661   7.701 -1.1016  1.4056 -0.0569
 5084SOL    HW226712   0.722   0.589   7.832  1.3558  0.4957 -0.5830
 5085SOL     OW26713   0.960   1.257   3.676 -0.1165 -0.3075  0.0328
 5085SOL    HW126714   1.030   1.251   3.741 -0.8436 -2.9427  0.5398
 5085SOL    HW226715   0.894   1.206   3.723 -0.4574 -0.0991 -0.2204
 5086SOL     OW26716   4.059   2.036   9.827  0.2488  0.3539 -0.3878
 5086SOL    HW126717   4.138   1.984   9.845 -1.5135 -2.0102  0.5586
 5086SOL    HW226718   4.063   2.092   9.904  1.0481 -2.9211  1.9924
 5087SOL     OW26719   1.568   2.815   2.065  0.1702  0.0640 -0.0709
 5087SOL    HW126720   1.624   2.742   2.088 -1.3040 -1.2496 -0.6348
 5087SOL    HW226721   1.636   2.880   2.046 -0.9646  1.6983  1.3709
 5088SOL     OW26722   3.907   3.437   8.562  0.1717 -0.3922  0.1210
 5088SOL    HW126723   3.960   3.499   8.511 -0.1413  0.9241  1.4060
 5088SOL    HW226724   3.974   3.407   8.623  1.4007  0.1458 -0.9565
 5089SOL     OW26725   3.891   4.147  11.878  0.4015 -0.3055 -0.6464
 5089SOL    HW126726   3.916   4.229  11.835  0.2182  0.8461  1.4493
 5089SOL    HW226727   3.977   4.105  11.871 -0.4336 -2.2757  1.1805
 5090SOL     OW26728   3.735   3.696   9.722 -0.9541  0.9306  0.0223
 5090SOL    HW126729   3.707   3.741   9.642  3.9743  0.9420 -1.6858
 5090SOL    HW226730   3.723   3.751   9.800  0.9418  1.1729  0.1604
 5091SOL     OW26731   0.730   1.157  14.044 -0.1699 -0.5719  0.0360
 5091SOL    HW126732   0.782   1.236  14.028 -0.1262 -0.8134 -1.0046
 5091SOL    HW226733   0.780   1.122  14.118 -0.1414 -1.0836 -0.2246
 5092SOL     OW26734   0.532   1.224   0.191 -0.0463  0.5878  0.0059
 5092SOL    HW126735   0.470   1.294   0.171  0.9560  1.5973  0.4326
 5092SOL    HW226736   0.599   1.245   0.126 -0.0308 -1.1509 -0.5485
 5093SOL     OW26737   3.336   2.652   1.681  0.0952  0.3376  0.0302
 5093SOL    HW126738   3.253   2.697   1.694  0.1485  0.6738 -0.7742
 5093SOL    HW226739   3.312   2.599   1.605 -2.0544  0.4385  0.6416
 5094SOL     OW26740   3.399   2.724   2.223 -0.5661 -0.5813  0.2360
 5094SOL    HW126741   3.318   2.731   2.275  0.3178 -0.8878  1.6612
 5094SOL    HW226742   3.437   2.810   2.237  2.6228 -1.7115 -1.6041
 5095SOL     OW26743   2.677   0.774  11.751 -0.1690  0.0744  0.0365
 5095SOL    HW126744   2.604   0.806  11.804 -2.6838 -2.6451 -1.7725
 5095SOL    HW226745   2.633   0.717  11.688 -1.6620  0.0564  1.0870
 5096SOL     OW26746   1.977   3.573   8.794  0.5340  0.1232 -0.0173
 5096SOL    HW126747   1.892   3.581   8.836  1.5368 -0.5093  2.1454
 5096SOL    HW226748   1.940   3.580   8.706 -0.1015  0.7459  0.3025
 5097SOL     OW26749   1.617   2.359   5.578 -0.0347  0.2267 -0.0273
 5097SOL    HW126750   1.637   2.448   5.549  2.2934 -0.6665 -1.1222
 5097SOL    HW226751   1.560   2.378   5.653  0.7793 -1.0175  0.9076
 5098SOL     OW26752   0.950   2.486  12.064  0.2080  0.1968  0.3588
 5098SOL    HW126753   0.862   2.467  12.033  0.9557 -2.1111 -0.3856
 5098SOL    HW226754   0.985   2.416  12.009 -1.2319 -0.9880  0.9754
 5099SOL     OW26755   0.573   3.547  10.142 -0.6507 -0.0987  0.4840
 5099SOL    HW126756   0.504   3.588  10.090  1.0074  0.4730 -1.2682
 5099SOL    HW226757   0.573   3.605  10.218  1.9094  0.8647 -0.2461
 5100SOL     OW26758   3.726   2.890   2.742  0.3658 -0.4195  0.7568
 5100SOL    HW126759   3.683   2.809   2.715 -0.4047  0.9453 -2.1509
 5100SOL    HW226760   3.719   2.887   2.837 -0.9197 -0.0123  0.6804
 5101SOL     OW26761   2.872   1.877   8.294  0.4880  0.2827 -0.1737
 5101SOL    HW126762   2.862   1.908   8.384  1.3623  2.1146 -0.7203
 5101SOL    HW226763   2.889   1.957   8.244  1.7210 -0.3746 -0.8021
 5102SOL     OW26764   3.697   1.072   1.854 -0.3079  0.7200  0.9546
 5102SOL    HW126765   3.654   1.000   1.899  1.4775  0.4562  2.2306
 5102SOL    HW226766   3.788   1.058   1.880 -0.2557 -1.9604 -0.7005
 5103SOL     OW26767   3.050   0.695  17.060  0.3780  0.0864 -0.5711
 5103SOL    HW126768   3.099   0.701  17.141  0.0688 -1.0047 -0.3118
 5103SOL    HW226769   3.093   0.770  17.018  2.1236 -1.0995 -0.8708
 5104SOL     OW26770   2.628   2.328  14.023  0.5463 -0.1346 -0.6241
 5104SOL    HW126771   2.591   2.413  13.998 -2.2968  0.2049  4.5232
 5104SOL    HW226772   2.690   2.322  13.951  0.3308  0.0422 -0.8269
 5105SOL     OW26773   4.252   1.928  11.582  0.7548  0.0273 -0.2754
 5105SOL    HW126774   4.177   1.884  11.542  0.8784 -0.6171  0.2012
 5105SOL    HW226775   4.259   2.002  11.522  0.8671  0.3840  0.1774
 5106SOL     OW26776   4.457   0.910   0.421  0.6738 -0.0324 -0.0304
 5106SOL    HW126777   4.487   0.819   0.431  1.0218  0.3122  2.2629
 5106SOL    HW226778   4.539   0.951   0.393 -0.3876 -0.4207 -3.6300
 5107SOL     OW26779   3.977   1.873  11.496  0.2743  0.4544 -0.2334
 5107SOL    HW126780   3.985   1.778  11.491  0.9335  0.4298  1.2143
 5107SOL    HW226781   3.918   1.889  11.569 -1.4180  0.0819 -1.5080
 5108SOL     OW26782   3.936   2.856  14.651 -0.0987  0.2091 -0.2930
 5108SOL    HW126783   3.960   2.919  14.583 -0.8365  1.2857  0.4301
 5108SOL    HW226784   3.884   2.913  14.707  2.2844  0.9207  1.2070
 5109SOL     OW26785   3.429   2.540   5.060  0.8843 -0.0665 -0.3861
 5109SOL    HW126786   3.411   2.515   4.969 -0.0265 -1.3931  0.1651
 5109SOL    HW226787   3.513   2.493   5.060  0.0171 -1.6329 -0.8557
 5110SOL     OW26788   1.877   0.425   3.039 -0.8377 -0.2466  0.2809
 5110SOL    HW126789   1.857   0.473   3.119  1.2125 -0.7015  1.0678
 5110SOL    HW226790   1.787   0.400   3.016 -0.7614 -1.1842  0.9711
 5111SOL     OW26791   1.789   2.124   5.243  0.0020 -0.0661  0.4400
 5111SOL    HW126792   1.795   2.120   5.338  2.0867 -2.9429  0.1985
 5111SOL    HW226793   1.821   2.214   5.238  0.4181 -0.2228  0.2484
 5112SOL     OW26794   4.603   3.222  11.462  0.0712 -0.8811  0.5953
 5112SOL    HW126795   4.673   3.206  11.399 -1.3714 -0.4180 -1.0979
 5112SOL    HW226796   4.542   3.246  11.393 -0.4282 -1.1828  0.9240
 5113SOL     OW26797   1.449   3.131   5.813 -0.4932 -0.2038 -0.2045
 5113SOL    HW126798   1.440   3.226   5.806 -1.7824 -0.4192 -1.4095
 5113SOL    HW226799   1.356   3.111   5.822 -0.1939 -2.1082 -1.1283
 5114SOL     OW26800   0.406   4.098  13.180  0.5334 -0.5513  0.0679
 5114SOL    HW126801   0.378   4.190  13.181  0.0205 -0.7165  0.6234
 5114SOL    HW226802   0.347   4.043  13.231  1.6921  0.9036  2.9934
 5115SOL     OW26803   2.626   0.514   6.013 -0.3374 -0.0904  0.5875
 5115SOL    HW126804   2.617   0.584   5.949  1.3284 -0.7271 -0.3676
 5115SOL    HW226805   2.592   0.547   6.095  1.4774  1.1834  0.8138
 5116SOL     OW26806   4.565   3.320  17.200  0.1590  0.6344  0.4781
 5116SOL    HW126807   4.581   3.412  17.222  0.2351  0.8263 -0.3717
 5116SOL    HW226808   4.604   3.320  17.112 -0.8082 -1.6481  0.0666
 5117SOL     OW26809   4.093   0.594   6.797 -0.0499 -0.2796 -0.7233
 5117SOL    HW126810   4.122   0.597   6.706 -0.7617 -0.5871 -0.9660
 5117SOL    HW226811   4.045   0.676   6.813 -0.1702 -0.2468 -1.2472
 5118SOL     OW26812   1.193   1.663  11.134 -0.6841 -0.2828 -0.2279
 5118SOL    HW126813   1.258   1.729  11.159 -0.8556 -0.6939  1.3035
 5118SOL    HW226814   1.226   1.591  11.188  0.3885  1.2339  1.1437
 5119SOL     OW26815   2.365   4.444   7.614  1.1365 -0.0956  0.2128
 5119SOL    HW126816   2.279   4.453   7.656  0.7035 -0.9295 -0.4715
 5119SOL    HW226817   2.329   4.419   7.529  3.4754 -2.7402 -0.0050
 5120SOL     OW26818   3.085   3.154   5.614  0.7122  0.1863 -0.5245
 5120SOL    HW126819   3.140   3.111   5.679 -0.1295  0.4087  0.3543
 5120SOL    HW226820   3.111   3.110   5.533  1.5029  2.5803 -1.5779
 5121SOL     OW26821   1.030   0.693  12.064  0.4811 -0.0703  0.0667
 5121SOL    HW126822   1.004   0.602  12.052 -0.1129 -0.4396  4.0646
 5121SOL    HW226823   0.945   0.734  12.081  0.1720 -1.8412  2.8308
 5122SOL     OW26824   4.086   1.980  12.078 -0.0910  0.8045  0.1617
 5122SOL    HW126825   4.096   2.011  11.988  1.6814 -1.1148 -0.2877
 5122SOL    HW226826   4.100   2.066  12.119  0.4428  1.4550 -1.3660
 5123SOL     OW26827   2.981   0.475  17.298  0.2914  0.4471 -0.1453
 5123SOL    HW126828   2.920   0.528  17.247  1.6953  2.7165  0.5156
 5123SOL    HW226829   3.053   0.538  17.305 -0.4041  1.1349  0.7731
 5124SOL     OW26830   4.206   1.804   4.870 -0.1312  0.3683  0.0918
 5124SOL    HW126831   4.257   1.845   4.801 -0.3091 -1.4522 -1.1258
 5124SOL    HW226832   4.119   1.809   4.830 -0.2999  1.5772  0.6077
 5125SOL     OW26833   0.680   3.516   5.724 -0.4665 -0.3326 -0.0981
 5125SOL    HW126834   0.732   3.444   5.688  0.7064  0.8617 -0.7996
 5125SOL    HW226835   0.599   3.469   5.746 -0.6151  0.2612  0.6374
 5126SOL     OW26836   1.491   3.508  10.870  0.6976  0.4653 -0.1672
 5126SOL    HW126837   1.516   3.534  10.782  0.4737  3.1593  0.5780
 5126SOL    HW226838   1.412   3.456  10.854  0.2177  0.8285  0.9623
 5127SOL     OW26839   2.815   2.018  17.264 -0.0982 -0.4037 -0.4346
 5127SOL    HW126840   2.740   1.975  17.303  0.4742 -1.4690 -0.5089
 5127SOL    HW226841   2.770   2.098  17.236  1.7844  1.2058  1.1468
 5128SOL     OW26842   4.487   4.538   6.435  0.5112 -0.3531  0.4093
 5128SOL    HW126843   4.508   4.504   6.348  1.1177  0.2082  0.3355
 5128SOL    HW226844   4.480   4.449   6.470  0.7483 -0.4296  0.2692
 5129SOL     OW26845   1.774   0.539   7.238  0.1261  0.4162  0.5626
 5129SOL    HW126846   1.768   0.630   7.268  1.2082 -0.1824  2.5997
 5129SOL    HW226847   1.722   0.498   7.307  0.0147  1.8762  1.3460
 5130SOL     OW26848   2.151   2.304   4.599  0.0430  0.2834  0.1829
 5130SOL    HW126849   2.140   2.395   4.627 -1.4059  0.4221 -0.8564
 5130SOL    HW226850   2.161   2.328   4.507  0.9822 -5.1124 -1.0987
 5131SOL     OW26851   4.529   4.269  16.951 -0.3567  0.0821 -0.5035
 5131SOL    HW126852   4.455   4.232  17.000 -0.3507  0.9324  0.1468
 5131SOL    HW226853   4.499   4.359  16.947  1.4301  0.5718 -2.5079
 5132SOL     OW26854   0.981   2.623   2.765 -0.2052  0.1335 -0.3346
 5132SOL    HW126855   1.043   2.550   2.773 -0.7528 -0.0704  1.9920
 5132SOL    HW226856   0.912   2.601   2.827  0.6903  2.4286  1.5058
 5133SOL     OW26857   4.468   1.457   9.143  0.4731 -0.6297 -0.0709
 5133SOL    HW126858   4.459   1.374   9.096  0.0627  0.7322 -2.3900
 5133SOL    HW226859   4.548   1.446   9.194  0.4563  1.2813  0.3527
 5134SOL     OW26860   2.559   0.960   2.906  0.0179  0.0363  0.0747
 5134SOL    HW126861   2.606   0.961   2.989  0.4341  1.0502 -0.1738
 5134SOL    HW226862   2.531   1.050   2.892 -2.7921 -0.5791  1.7201
 5135SOL     OW26863   3.060   2.359   4.174  0.0617 -0.2046  0.4579
 5135SOL    HW126864   3.010   2.295   4.224 -2.6713  0.1022 -1.8529
 5135SOL    HW226865   2.986   2.401   4.130  0.0484 -0.2587  0.4286
 5136SOL     OW26866   4.666   2.179   9.585  0.1446 -0.0514 -0.3530
 5136SOL    HW126867   4.720   2.128   9.525  0.5284 -0.2060  0.1285
 5136SOL    HW226868   4.646   2.108   9.646 -0.3913  0.1185 -0.3313
 5137SOL     OW26869   4.618   4.087   9.086 -0.1700 -0.4825 -0.7167
 5137SOL    HW126870   4.638   4.003   9.045 -0.1490 -0.7504 -0.1486
 5137SOL    HW226871   4.635   4.063   9.177  0.7898  2.1959 -0.1692
 5138SOL     OW26872   0.886   4.495  10.543  0.8223 -0.0727  0.1380
 5138SOL    HW126873   0.937   4.419  10.571 -1.4764 -2.4775 -2.2202
 5138SOL    HW226874   0.867   4.452  10.460  0.4912  1.9159 -0.8219
 5139SOL     OW26875   1.434   2.130   0.918  0.5518 -0.5526 -0.1968
 5139SOL    HW126876   1.369   2.060   0.905 -1.2648  1.2275 -0.7123
 5139SOL    HW226877   1.475   2.135   0.832  0.0723 -3.3756 -0.5884
 5140SOL     OW26878   3.626   0.610   5.142  0.3461  0.6308 -0.1910
 5140SOL    HW126879   3.679   0.582   5.068 -0.8289 -1.5589 -0.2016
 5140SOL    HW226880   3.577   0.685   5.109 -1.7501 -0.8736 -0.4541
 5141SOL     OW26881   2.756   4.389  13.581 -0.7574 -0.1925 -0.6941
 5141SOL    HW126882   2.763   4.304  13.625 -0.6034  0.5374  0.6996
 5141SOL    HW226883   2.669   4.426  13.591 -0.0588  1.5562 -1.1988
 5142SOL     OW26884   3.407   1.390   5.519 -0.4111 -0.2541 -0.2605
 5142SOL    HW126885   3.365   1.328   5.460 -2.8477  1.4937 -0.3570
 5142SOL    HW226886   3.472   1.342   5.570 -0.2176 -0.3333 -0.5814
 5143SOL     OW26887   3.847   4.654  13.792  0.3259  0.6035 -0.1600
 5143SOL    HW126888   3.771   4.681  13.741  2.0436 -0.6176 -3.3163
 5143SOL    HW226889   3.823   4.679  13.882 -0.0963 -1.0372  0.1709
 5144SOL     OW26890   1.420   3.620  11.114  0.2918 -0.1951  0.2881
 5144SOL    HW126891   1.423   3.539  11.063  0.4547 -0.4519  0.7055
 5144SOL    HW226892   1.400   3.692  11.054 -1.2454 -0.0978  0.9355
 5145SOL     OW26893   3.416   4.328  16.918  0.0763  0.0436 -0.2685
 5145SOL    HW126894   3.406   4.350  17.010 -1.0911 -0.3379 -0.3081
 5145SOL    HW226895   3.354   4.386  16.873  0.2353 -0.0643 -0.6294
 5146SOL     OW26896   2.038   4.206  17.114 -0.2882 -0.2480 -0.0447
 5146SOL    HW126897   1.966   4.222  17.053 -1.1725  1.7381  1.5431
 5146SOL    HW226898   2.087   4.285  17.093  0.8900 -0.6115  1.3315
 5147SOL     OW26899   0.231   0.728   7.077  0.0150 -0.1724 -0.0333
 5147SOL    HW126900   0.243   0.821   7.094  3.2445 -0.4177 -1.0346
 5147SOL    HW226901   0.315   0.697   7.044 -0.6448 -2.2431  0.1944
 5148SOL     OW26902   2.908   0.106   9.714 -0.2935  0.0955 -0.2560
 5148SOL    HW126903   2.938   0.072   9.799 -0.3439 -0.2807 -0.3894
 5148SOL    HW226904   2.846   0.171   9.748  0.3351  1.0742 -0.9716
 5149SOL     OW26905   4.545   3.148   6.474 -0.1388  0.3504 -0.6691
 5149SOL    HW126906   4.615   3.084   6.485 -1.3060 -0.6110  1.2362
 5149SOL    HW226907   4.510   3.111   6.393 -0.7748  1.3268 -0.8491
 5150SOL     OW26908   3.758   3.087   2.566  0.3140 -0.0963  0.2443
 5150SOL    HW126909   3.815   3.148   2.614  1.0165  0.7632 -1.6585
 5150SOL    HW226910   3.744   3.011   2.622  0.8027  1.0217  1.9175
 5151SOL     OW26911   0.325   4.649   2.758 -0.4471 -0.3372 -0.9627
 5151SOL    HW126912   0.232   4.650   2.780 -0.2521 -0.4372 -0.1484
 5151SOL    HW226913   0.340   0.021   2.777 -1.1862 -0.1046 -1.5571
 5152SOL     OW26914   1.215   3.892   8.223  0.0022  0.4923 -0.3810
 5152SOL    HW126915   1.160   3.948   8.277  0.1091  0.5815 -0.3646
 5152SOL    HW226916   1.207   3.817   8.281 -0.5396  0.5670 -0.3666
 5153SOL     OW26917   0.920   1.800   2.477 -0.5032  0.5573  0.0052
 5153SOL    HW126918   0.920   1.745   2.398 -2.8762 -1.3096  1.2998
 5153SOL    HW226919   0.994   1.857   2.457  0.1816  0.8682  3.5774
 5154SOL     OW26920   3.018   0.745   3.793 -0.3449  0.3609 -0.2803
 5154SOL    HW126921   3.083   0.730   3.725 -0.1934  2.2090 -0.5603
 5154SOL    HW226922   3.041   0.837   3.807 -0.3104 -0.2810  3.7795
 5155SOL     OW26923   3.928   1.215   8.461 -0.0249 -0.1055 -0.2066
 5155SOL    HW126924   3.925   1.119   8.466 -0.7028 -0.0253  0.8778
 5155SOL    HW226925   4.022   1.232   8.447  0.2558 -0.1775  1.5952
 5156SOL     OW26926   3.743   3.759   6.695  0.2921  0.3765  0.1782
 5156SOL    HW126927   3.684   3.740   6.768  1.1493 -1.9920  0.2282
 5156SOL    HW226928   3.733   3.682   6.639  0.2752  0.5598 -0.0724
 5157SOL     OW26929   2.367   1.060  15.168 -0.3973 -0.6640 -0.2790
 5157SOL    HW126930   2.410   0.975  15.163 -2.4751 -1.6433 -1.4775
 5157SOL    HW226931   2.394   1.082  15.257  1.2649 -0.2734 -0.8878
 5158SOL     OW26932   3.297   4.229   9.627  0.2035  0.2804 -0.0303
 5158SOL    HW126933   3.359   4.157   9.633 -0.6155 -0.4216  0.0055
 5158SOL    HW226934   3.298   4.242   9.532 -0.6052 -0.7170 -0.1749
 5159SOL     OW26935   1.505   0.260  10.784  0.4682  0.2785  0.3055
 5159SOL    HW126936   1.599   0.272  10.800  0.6646 -1.5609  0.4936
 5159SOL    HW226937   1.507   0.243  10.690 -3.2105  0.0180  0.2704
 5160SOL     OW26938   0.291   0.049   7.513  0.5211  0.2042 -0.2112
 5160SOL    HW126939   0.293   4.675   7.524  1.5778  0.2660  0.1260
 5160SOL    HW226940   0.343   0.079   7.588 -1.0558 -0.1266  1.0181
 5161SOL     OW26941   0.552   1.423   1.666 -0.0466 -0.0769 -0.1941
 5161SOL    HW126942   0.598   1.433   1.583  0.7641 -1.6377  0.0631
 5161SOL    HW226943   0.472   1.373   1.648 -0.9696  0.8675  1.3771
 5162SOL     OW26944   3.504   3.766   4.755 -0.5647 -0.4759 -0.5230
 5162SOL    HW126945   3.417   3.756   4.792 -0.4289 -1.9271 -0.5953
 5162SOL    HW226946   3.538   3.676   4.752 -0.9494 -0.5768 -1.9946
 5163SOL     OW26947   3.465   1.177   7.538  0.6048 -0.1600 -0.6953
 5163SOL    HW126948   3.556   1.152   7.524  1.1404  1.2294  0.3318
 5163SOL    HW226949   3.449   1.212   7.450  1.6960  1.2622 -0.3288
 5164SOL     OW26950   4.041   2.810   4.801  0.5902  0.0957  0.1373
 5164SOL    HW126951   4.126   2.848   4.781 -0.0354  1.3663 -0.1148
 5164SOL    HW226952   4.074   2.731   4.845 -1.4000 -0.7000  0.2160
 5165SOL     OW26953   1.342   1.081  12.533  0.2382 -0.1022 -0.2056
 5165SOL    HW126954   1.281   1.096  12.605  3.1675  0.9151  2.0997
 5165SOL    HW226955   1.289   1.035  12.468 -0.6170 -0.1330  0.5109
 5166SOL     OW26956   4.271   2.369   5.284  0.4093  0.1299  0.0698
 5166SOL    HW126957   4.349   2.408   5.243  0.9025  1.0055  1.8234
 5166SOL    HW226958   4.300   2.346   5.372  1.1382 -0.2563 -0.2736
 5167SOL     OW26959   1.153   1.199   3.903  0.3620  0.3922 -0.3505
 5167SOL    HW126960   1.234   1.185   3.952  0.5034  0.4374 -0.5724
 5167SOL    HW226961   1.106   1.118   3.923 -2.3825  1.6197 -1.8570
 5168SOL     OW26962   1.619   0.049   3.059  0.0667  0.0603  0.2651
 5168SOL    HW126963   1.662   0.015   3.137  1.9339  1.9633  0.0735
 5168SOL    HW226964   1.538   4.721   3.070 -0.6793  1.3775  0.7285
 5169SOL     OW26965   3.557   0.759   9.054 -0.1429  0.2633  0.4003
 5169SOL    HW126966   3.507   0.718   9.125 -0.1912 -0.3624  0.0051
 5169SOL    HW226967   3.610   0.818   9.108  1.0628  0.6743 -1.2491
 5170SOL     OW26968   2.212   4.015   0.713 -0.0435  0.2156 -0.3455
 5170SOL    HW126969   2.274   3.973   0.654  0.2798  1.5036 -0.9102
 5170SOL    HW226970   2.204   4.099   0.668 -0.9472  0.2624 -0.0966
 5171SOL     OW26971   3.068   2.273   9.568  0.0751  0.5842 -0.4270
 5171SOL    HW126972   3.087   2.201   9.629 -1.2766  0.7352  0.1724
 5171SOL    HW226973   3.127   2.241   9.499  0.9100  0.3506  0.4058
 5172SOL     OW26974   2.869   1.717   1.833  0.4908  0.2491 -0.2913
 5172SOL    HW126975   2.868   1.763   1.749 -0.1429  4.1483  1.8785
 5172SOL    HW226976   2.874   1.799   1.882 -3.8290  0.4598 -0.2323
 5173SOL     OW26977   3.119   0.849   8.542  0.2337  0.5843 -0.5558
 5173SOL    HW126978   3.093   0.802   8.463 -0.8628  0.9401 -0.4108
 5173SOL    HW226979   3.170   0.776   8.578 -0.1952  0.3719 -0.3761
 5174SOL     OW26980   1.379   2.649   4.216 -0.1501 -0.0614  0.2416
 5174SOL    HW126981   1.393   2.674   4.308  2.3350  2.7962 -0.9354
 5174SOL    HW226982   1.461   2.606   4.195  1.2666  0.9717  3.5665
 5175SOL     OW26983   3.035   2.757   7.273  0.2436  0.1263  0.0320
 5175SOL    HW126984   2.964   2.722   7.327 -0.5823  0.5255 -0.8002
 5175SOL    HW226985   3.078   2.814   7.338 -0.2609 -0.6303  1.0232
 5176SOL     OW26986   0.679   0.849   2.964  0.1617 -0.4522 -0.2962
 5176SOL    HW126987   0.694   0.759   2.934  2.2359  0.6972 -2.6832
 5176SOL    HW226988   0.641   0.887   2.885  1.8053  2.0884  0.1519
 5177SOL     OW26989   0.204   3.178   2.000  0.2949  0.3224  0.0202
 5177SOL    HW126990   0.283   3.230   1.986 -1.0403  2.7238  1.4216
 5177SOL    HW226991   0.196   3.173   2.095 -2.8361  1.6257 -0.1583
 5178SOL     OW26992   4.568   3.461   2.582  0.1760 -0.6434  0.1591
 5178SOL    HW126993   4.552   3.428   2.670 -1.5020 -1.1860 -0.3606
 5178SOL    HW226994   4.577   3.377   2.537  3.2967  0.8928 -2.1074
 5179SOL     OW26995   1.329   2.880   8.568 -0.7142  0.3999  0.1125
 5179SOL    HW126996   1.405   2.934   8.589 -0.6022 -0.2983  1.5479
 5179SOL    HW226997   1.330   2.829   8.650  2.1640 -0.9209 -0.7459
 5180SOL     OW26998   3.618   3.329   6.219  0.3191  0.2739 -0.2496
 5180SOL    HW126999   3.697   3.304   6.170 -0.1786 -1.9447  0.0724
 5180SOL    HW227000   3.565   3.381   6.159 -1.8591  2.1206  3.3266
 5181SOL     OW27001   1.230   2.163   5.181 -0.3134  0.6631  0.5608
 5181SOL    HW127002   1.252   2.249   5.216 -0.3579  0.8770  0.0635
 5181SOL    HW227003   1.153   2.147   5.235 -0.3434 -0.6553  0.1395
 5182SOL     OW27004   4.279   0.145   8.709 -0.1695 -0.0369 -0.3580
 5182SOL    HW127005   4.297   0.120   8.618 -1.3771  1.3676 -0.9920
 5182SOL    HW227006   4.293   0.063   8.756  1.7175 -0.0151 -0.8892
 5183SOL     OW27007   0.650   1.428   5.598  0.5344 -0.9488 -0.1019
 5183SOL    HW127008   0.676   1.339   5.575  0.1769 -0.7542 -1.2301
 5183SOL    HW227009   0.736   1.470   5.592 -0.8234  1.9161  0.1347
 5184SOL     OW27010   2.619   0.868   5.205 -0.0510  0.5057 -0.6795
 5184SOL    HW127011   2.551   0.811   5.241 -0.4190  2.9323  2.4589
 5184SOL    HW227012   2.639   0.921   5.282  0.1184 -0.6866  0.0867
 5185SOL     OW27013   4.518   0.560   4.131  0.2829 -0.1168  0.4403
 5185SOL    HW127014   4.540   0.586   4.220  2.3018  1.7893 -0.6008
 5185SOL    HW227015   4.558   0.473   4.120  3.3288  1.2782  0.3914
 5186SOL     OW27016   3.047   2.267  13.787 -0.9200 -0.3384  0.1929
 5186SOL    HW127017   3.089   2.348  13.817 -2.8174  0.3075  1.1368
 5186SOL    HW227018   3.118   2.224  13.739 -0.6705 -1.7591  1.8375
 5187SOL     OW27019   4.193   4.668   3.683 -0.2760 -0.2360 -0.2363
 5187SOL    HW127020   4.272   4.621   3.657  0.2860 -1.3601  3.5290
 5187SOL    HW227021   4.164   4.615   3.757  0.1103  1.0560  0.8523
 5188SOL     OW27022   0.520   1.901   2.677  0.2990  0.0150 -0.0292
 5188SOL    HW127023   0.576   1.876   2.750 -0.7256  0.1668  0.8080
 5188SOL    HW227024   0.575   1.872   2.604  2.0183  1.4735  0.6844
 5189SOL     OW27025   2.936   1.014   5.878  0.1602 -0.5205  0.1171
 5189SOL    HW127026   2.877   1.070   5.828  0.8360 -0.7692 -0.9717
 5189SOL    HW227027   2.964   0.946   5.816  1.5228  2.7712 -2.9204
 5190SOL     OW27028   0.280   2.315  11.690 -0.4316  0.4166 -0.0386
 5190SOL    HW127029   0.192   2.350  11.701 -0.3570  1.0715 -1.4891
 5190SOL    HW227030   0.295   2.271  11.773 -1.0974 -0.1339 -0.2086
 5191SOL     OW27031   4.145   3.696   5.489  0.5000 -0.0556 -0.3518
 5191SOL    HW127032   4.149   3.791   5.505  0.9238 -0.7589  3.7042
 5191SOL    HW227033   4.226   3.679   5.441  0.0906 -0.6978 -0.8160
 5192SOL     OW27034   0.866   3.342   2.277  0.1458 -0.1778 -0.0955
 5192SOL    HW127035   0.932   3.275   2.257  0.8494 -0.5464  3.5783
 5192SOL    HW227036   0.892   3.374   2.363  0.0588 -0.7358  0.1360
 5193SOL     OW27037   2.998   2.735   2.756 -0.3162 -0.4078  0.0318
 5193SOL    HW127038   2.906   2.710   2.756 -1.1315  2.6354 -1.2987
 5193SOL    HW227039   3.002   2.811   2.814 -1.1150 -1.8883  2.0458
 5194SOL     OW27040   1.875   0.279   8.974  0.2870 -0.4950  0.3623
 5194SOL    HW127041   1.901   0.245   9.060 -1.4243 -3.8776 -0.4265
 5194SOL    HW227042   1.924   0.217   8.919 -0.8614  0.6263 -1.9164
 5195SOL     OW27043   4.119   2.168   8.784 -0.8475 -0.3545 -0.0215
 5195SOL    HW127044   4.214   2.166   8.800 -0.5948  0.3360 -1.4008
 5195SOL    HW227045   4.137   2.175   8.691 -0.9461 -2.6965 -0.2075
 5196SOL     OW27046   0.472   0.754  11.099 -0.0708  0.1510 -0.5240
 5196SOL    HW127047   0.417   0.691  11.052  0.7034 -0.0066 -1.2227
 5196SOL    HW227048   0.461   0.830  11.042 -1.9633 -0.4759 -0.9944
 5197SOL     OW27049   2.021   4.391   1.528 -0.0791  0.0977 -0.5054
 5197SOL    HW127050   2.091   4.398   1.464  0.0554 -0.2340 -0.3961
 5197SOL    HW227051   2.018   4.297   1.546 -0.2218  0.3838  0.9660
 5198SOL     OW27052   1.769   0.553   0.562  0.5534 -0.0946  0.7941
 5198SOL    HW127053   1.758   0.565   0.656  1.1833 -0.5935  0.9298
 5198SOL    HW227054   1.863   0.573   0.554  0.5085  0.1092  0.7644
 5199SOL     OW27055   2.140   3.947   7.340 -0.0523 -0.4430 -0.5393
 5199SOL    HW127056   2.089   4.028   7.342  1.0124  0.1733  1.2530
 5199SOL    HW227057   2.203   3.970   7.271  2.5195  3.2634  3.1159
 5200SOL     OW27058   3.840   2.335  13.201  0.1612  0.2009 -0.5505
 5200SOL    HW127059   3.866   2.250  13.237 -0.1944  1.0315  1.6770
 5200SOL    HW227060   3.745   2.333  13.212  0.1629 -2.1783 -1.0176
 5201SOL     OW27061   1.979   1.829   4.128  0.6913  0.0834 -0.4274
 5201SOL    HW127062   2.069   1.848   4.101  0.1369  2.7422 -0.4969
 5201SOL    HW227063   1.926   1.881   4.068 -1.8376 -3.4208 -1.2191
 5202SOL     OW27064   4.296   1.099   3.236 -0.1140 -0.1253  0.1543
 5202SOL    HW127065   4.235   1.166   3.205  0.7460  0.6948  0.2206
 5202SOL    HW227066   4.257   1.055   3.311  0.2495  1.7429  1.4439
 5203SOL     OW27067   2.188   3.390  11.212  0.2092 -0.3215 -0.0271
 5203SOL    HW127068   2.208   3.416  11.122 -1.1964  0.6326 -0.0478
 5203SOL    HW227069   2.268   3.342  11.237  0.8165  1.3949  1.2853
 5204SOL     OW27070   1.500   4.477   0.264  0.2296 -0.3608  0.4043
 5204SOL    HW127071   1.455   4.559   0.244  2.5514  0.1131 -2.8531
 5204SOL    HW227072   1.561   4.479   0.190  0.4399 -0.9407  0.5669
 5205SOL     OW27073   3.538   3.013   8.652 -0.0434 -0.2454 -0.1646
 5205SOL    HW127074   3.563   3.102   8.679  2.9708 -0.9037 -0.7581
 5205SOL    HW227075   3.619   2.972   8.621  1.0683  0.1494  2.2441
 5206SOL     OW27076   2.995   1.616   4.096 -0.0841  0.6670  0.0067
 5206SOL    HW127077   2.992   1.664   4.013  0.0943  1.2570  0.3503
 5206SOL    HW227078   2.977   1.523   4.077  1.8065  0.2194  0.4796
 5207SOL     OW27079   4.573   1.305   2.680  0.1099  0.1844  0.1646
 5207SOL    HW127080   4.612   1.285   2.595 -0.6466  2.4992 -0.7290
 5207SOL    HW227081   4.584   1.400   2.684  1.2008  0.1152 -1.0035
 5208SOL     OW27082   3.578   2.350  17.526 -0.6532  0.4015  0.0926
 5208SOL    HW127083   3.487   2.377  17.540 -0.6214  0.5593 -0.0017
 5208SOL    HW227084   3.565   2.260  17.495  1.8167 -0.4618  1.5282
 5209SOL     OW27085   1.915   0.296  12.129 -0.4512 -0.4353 -0.0498
 5209SOL    HW127086   1.854   0.370  12.130  0.2470  0.1103  1.9260
 5209SOL    HW227087   1.958   0.311  12.045  2.7395  0.6966  1.7942
 5210SOL     OW27088   3.465   0.448  17.218 -0.1263  0.0052  0.2394
 5210SOL    HW127089   3.520   0.463  17.295 -2.2830  0.5992  1.6526
 5210SOL    HW227090   3.436   0.357  17.221 -0.2341  0.0097 -0.7972
 5211SOL     OW27091   3.304   4.045   6.765  0.7575  0.3808 -0.0962
 5211SOL    HW127092   3.292   3.970   6.708 -1.4225  0.4640  0.2406
 5211SOL    HW227093   3.296   4.121   6.707  1.9615  0.7684  0.2396
 5212SOL     OW27094   2.047   4.173   6.714  0.3571  0.4950 -0.9873
 5212SOL    HW127095   2.069   4.082   6.735 -1.6902 -0.2473 -2.0837
 5212SOL    HW227096   1.965   4.195   6.759  0.6181  0.1177 -0.3265
 5213SOL     OW27097   3.901   2.971   6.817  0.4411 -0.0446  0.2289
 5213SOL    HW127098   3.893   3.048   6.872  0.1728 -1.1737  1.7681
 5213SOL    HW227099   3.987   2.997   6.784  1.1849 -0.7777  1.5728
 5214SOL     OW27100   3.817   1.138   6.324  0.2113  0.0986  0.7293
 5214SOL    HW127101   3.904   1.104   6.303 -0.4027  0.0462 -1.7576
 5214SOL    HW227102   3.852   1.212   6.373 -0.1490 -0.3716  1.6926
 5215SOL     OW27103   2.189   0.968   0.213  0.4067 -0.4808 -0.4186
 5215SOL    HW127104   2.117   0.959   0.150 -1.3115  2.9754  1.0513
 5215SOL    HW227105   2.234   0.883   0.205  2.2897  0.5448 -0.7953
 5216SOL     OW27106   0.355   4.012   5.805 -0.1117  0.3949 -0.0003
 5216SOL    HW127107   0.404   3.930   5.799 -1.5311 -0.6457  3.2859
 5216SOL    HW227108   0.431   4.069   5.821 -1.4668  2.4192 -0.7633
 5217SOL     OW27109   0.044   0.915   6.642 -0.1331  0.3177  0.5047
 5217SOL    HW127110   4.705   0.985   6.669 -1.1963  0.1581 -1.4634
 5217SOL    HW227111   4.705   0.841   6.635 -1.1832  1.3812 -1.5735
 5218SOL     OW27112   2.831   1.149   2.711 -0.3160  0.3929 -0.5147
 5218SOL    HW127113   2.808   1.094   2.636  0.8339  1.3773 -1.6068
 5218SOL    HW227114   2.831   1.230   2.659  3.0597  0.0109 -1.1273
 5219SOL     OW27115   1.274   2.331   8.039 -0.4679  0.0503 -0.1474
 5219SOL    HW127116   1.326   2.296   7.967  1.1878 -0.2658  1.1821
 5219SOL    HW227117   1.341   2.362   8.100  0.8148 -1.5406 -0.7474
 5220SOL     OW27118   1.368   4.625   3.051  0.4280  0.1678 -0.4723
 5220SOL    HW127119   1.338   4.647   2.963  1.2618 -0.8654 -1.0127
 5220SOL    HW227120   1.289   4.638   3.105  0.4742  0.7778 -0.5479
 5221SOL     OW27121   1.429   3.725   2.650  0.1296  0.3327  0.5374
 5221SOL    HW127122   1.414   3.770   2.567  0.7980  3.8379  2.3199
 5221SOL    HW227123   1.423   3.800   2.710 -2.3235  0.6381 -0.0902
 5222SOL     OW27124   1.557   2.936   5.504  0.0621 -0.0463 -0.2011
 5222SOL    HW127125   1.582   2.955   5.413  0.1621  1.4262  0.1206
 5222SOL    HW227126   1.467   2.907   5.491  0.5292 -3.1338  3.7806
 5223SOL     OW27127   2.987   1.974   2.890  0.0251  0.9011  0.0801
 5223SOL    HW127128   2.982   1.967   2.985 -0.2702  1.7807  0.1309
 5223SOL    HW227129   3.080   1.956   2.879 -0.0775  1.0905 -1.1067
 5224SOL     OW27130   0.206   3.059   4.547 -0.3797  0.6890  0.0218
 5224SOL    HW127131   0.139   3.115   4.587 -1.6345 -1.3512  0.7442
 5224SOL    HW227132   0.147   2.988   4.522 -0.0615  0.6216 -0.5379
 5225SOL     OW27133   4.200   1.135   5.160  0.6616 -0.2199 -0.5014
 5225SOL    HW127134   4.222   1.047   5.130  0.2251  0.2493 -2.2254
 5225SOL    HW227135   4.283   1.174   5.132  0.6693  0.3292  0.2904
 5226SOL     OW27136   1.445   3.468   8.676 -0.2442 -0.5605 -0.1875
 5226SOL    HW127137   1.514   3.473   8.609  0.5539 -1.2069  0.5864
 5226SOL    HW227138   1.502   3.457   8.752 -1.4922 -2.1290  0.5255
 5227SOL     OW27139   3.497   2.781   7.117  0.0591  0.2960 -0.1239
 5227SOL    HW127140   3.480   2.862   7.069 -0.5929 -0.2167 -0.7621
 5227SOL    HW227141   3.423   2.778   7.177  2.1669 -1.4083  2.4049
 5228SOL     OW27142   4.018   1.553   8.393  0.0697 -0.1725 -0.4569
 5228SOL    HW127143   3.942   1.502   8.423 -0.1913  1.5723  1.8902
 5228SOL    HW227144   4.096   1.502   8.413 -1.1395 -1.0913  1.8690
 5229SOL     OW27145   1.321   2.815   8.122 -0.1415 -0.6600 -0.0513
 5229SOL    HW127146   1.342   2.739   8.176  2.3645  1.0173  1.3445
 5229SOL    HW227147   1.406   2.852   8.099  0.4095 -2.0251 -0.2113
 5230SOL     OW27148   1.877   3.996   9.146 -0.8784  0.0691 -0.0788
 5230SOL    HW127149   1.938   4.039   9.086 -0.6940 -0.5095 -0.3097
 5230SOL    HW227150   1.922   4.005   9.230 -2.3328  1.2106  0.5821
 5231SOL     OW27151   1.845   4.444   2.267  0.2355  0.4945 -0.6497
 5231SOL    HW127152   1.884   4.530   2.284  2.2478 -0.6858  0.6795
 5231SOL    HW227153   1.818   4.420   2.356  1.1482  1.9974  0.0332
 5232SOL     OW27154   1.443   0.403  12.347 -0.1688  0.0467  0.3880
 5232SOL    HW127155   1.468   0.384  12.257 -0.4594  1.0945  0.0798
 5232SOL    HW227156   1.530   0.422  12.383  0.9135 -0.9173 -1.7989
 5233SOL     OW27157   0.038   2.242   5.228 -0.6551  0.1856 -0.5406
 5233SOL    HW127158   0.004   2.195   5.304 -2.3149  1.1979 -0.6750
 5233SOL    HW227159   0.081   2.172   5.179 -1.3737 -0.1083 -0.7491
 5234SOL     OW27160   2.261   1.741   4.031 -0.2410 -0.8744  0.9319
 5234SOL    HW127161   2.273   1.681   4.104 -1.1273 -0.5176  1.3680
 5234SOL    HW227162   2.332   1.711   3.974 -0.6571 -0.1029 -0.0020
 5235SOL     OW27163   2.663   3.920   9.280 -1.0746  0.2139  0.2754
 5235SOL    HW127164   2.757   3.905   9.288 -1.1069 -0.2757 -0.2936
 5235SOL    HW227165   2.656   4.015   9.276  1.2863  0.2994 -1.6685
 5236SOL     OW27166   4.047   1.751   5.796 -0.0613 -0.2489 -0.1620
 5236SOL    HW127167   4.057   1.816   5.865  1.7171  0.6862 -1.2850
 5236SOL    HW227168   4.137   1.719   5.803 -0.0737 -0.6319 -1.7320
 5237SOL     OW27169   2.286   2.394   6.850  0.3461 -0.8029  0.5424
 5237SOL    HW127170   2.344   2.334   6.803 -1.5108 -2.1011 -0.0651
 5237SOL    HW227171   2.339   2.473   6.847  0.9050 -1.0796  2.7258
 5238SOL     OW27172   3.575   4.248   9.333  0.1690  0.0898  0.2643
 5238SOL    HW127173   3.597   4.246   9.240  0.2545 -1.0565  0.3125
 5238SOL    HW227174   3.496   4.195   9.347 -0.0216 -0.2543 -2.0807
 5239SOL     OW27175   3.393   2.373   1.772  0.0315 -0.3672  0.2409
 5239SOL    HW127176   3.353   2.380   1.859 -1.7078 -0.0498 -0.5772
 5239SOL    HW227177   3.416   2.280   1.772 -1.6173 -0.7905  3.1657
 5240SOL     OW27178   1.562   3.353  11.178 -0.1172 -0.2919 -0.2274
 5240SOL    HW127179   1.620   3.381  11.249  0.3652  0.6594 -1.0012
 5240SOL    HW227180   1.624   3.362  11.106  1.3767 -3.4376  0.6711
 5241SOL     OW27181   4.462   3.378   4.552 -0.8828 -0.0477 -0.2311
 5241SOL    HW127182   4.510   3.351   4.474  0.2641  1.4630 -0.0361
 5241SOL    HW227183   4.505   3.460   4.575  3.3548 -2.4454  0.5209
 5242SOL     OW27184   1.189   2.869  11.326 -0.1703  0.5476  0.2194
 5242SOL    HW127185   1.185   2.782  11.366  0.7265  0.8585  0.9777
 5242SOL    HW227186   1.177   2.857  11.231 -1.6458 -1.9410  0.7163
 5243SOL     OW27187   1.996   0.036   8.844 -0.5034 -0.2644  0.3438
 5243SOL    HW127188   1.964   4.705   8.917 -1.3321  1.2868  1.1145
 5243SOL    HW227189   2.079   0.074   8.872 -1.3300  1.3188  0.6650
 5244SOL     OW27190   0.707   4.390   7.782 -0.0910 -0.4214 -0.0436
 5244SOL    HW127191   0.734   4.319   7.841  1.7367  0.6712  0.4391
 5244SOL    HW227192   0.763   4.465   7.802 -1.4462  0.6298 -0.2500
 5245SOL     OW27193   2.429   1.158   8.492 -0.2218 -0.1003 -0.2333
 5245SOL    HW127194   2.421   1.102   8.569  2.3068  1.8217  1.4270
 5245SOL    HW227195   2.501   1.217   8.516  0.1279  0.0666 -1.6673
 5246SOL     OW27196   4.053   2.002   6.422 -0.6193  0.1268 -0.2837
 5246SOL    HW127197   4.066   2.045   6.338  0.2268 -0.1422 -0.2920
 5246SOL    HW227198   4.053   2.082   6.473 -1.7568 -1.2894  1.9181
 5247SOL     OW27199   1.974   4.434   4.355 -0.0950 -0.0330 -0.2641
 5247SOL    HW127200   1.981   4.376   4.431 -0.1081 -1.2667 -1.2050
 5247SOL    HW227201   1.896   4.487   4.373 -0.7523 -1.1249  0.0828
 5248SOL     OW27202   0.736   4.359   8.286  0.4499 -0.3887 -0.2997
 5248SOL    HW127203   0.760   4.303   8.212  0.8121 -0.1188 -0.3834
 5248SOL    HW227204   0.805   4.421   8.264 -0.0885 -0.1754 -1.4046
 5249SOL     OW27205   3.497   4.692  15.853 -0.3785 -0.1462  0.0488
 5249SOL    HW127206   3.538   4.609  15.878  0.7008  0.1660 -0.6921
 5249SOL    HW227207   3.475   4.687  15.760 -1.5649  1.1900  0.2659
 5250SOL     OW27208   1.074   3.817   9.408  0.1525  0.0610  0.2285
 5250SOL    HW127209   1.111   3.859   9.330  0.5917 -0.9211 -0.0934
 5250SOL    HW227210   1.051   3.736   9.362  1.4519  0.8719 -1.8511
 5251SOL     OW27211   2.197   0.515   7.272 -0.3858  0.0145 -0.1942
 5251SOL    HW127212   2.225   0.465   7.196  2.1503 -0.5783  1.1416
 5251SOL    HW227213   2.153   0.593   7.239  2.8035  1.2608 -1.4438
 5252SOL     OW27214   1.785   3.378  11.018 -0.5779  0.2367 -0.1416
 5252SOL    HW127215   1.851   3.447  11.010 -1.5316  1.2444  0.7129
 5252SOL    HW227216   1.835   3.297  11.032  0.3396  0.7306 -0.5611
 5253SOL     OW27217   0.922   0.657  12.413 -0.0724  0.2390 -0.1061
 5253SOL    HW127218   1.014   0.640  12.434 -0.8414 -4.1685 -0.2005
 5253SOL    HW227219   0.877   0.642  12.496 -0.5217  1.9050 -0.0606
 5254SOL     OW27220   2.946   3.422   4.478  0.5050  0.6470  0.0012
 5254SOL    HW127221   2.995   3.425   4.396 -1.5004  0.8233 -1.1767
 5254SOL    HW227222   2.935   3.328   4.495  3.3084  0.0162 -1.7513
 5255SOL     OW27223   3.464   0.445   8.505 -0.1679 -0.8977 -0.3908
 5255SOL    HW127224   3.470   0.380   8.436 -2.1380  1.8444 -3.1260
 5255SOL    HW227225   3.517   0.398   8.570 -1.2691 -1.6795 -0.0655
 5256SOL     OW27226   1.602   0.348  10.292  0.2707 -0.7594  0.0621
 5256SOL    HW127227   1.650   0.409  10.236 -0.5427  0.5332  0.7356
 5256SOL    HW227228   1.644   0.355  10.378 -0.3168 -3.4397  0.5708
 5257SOL     OW27229   2.380   0.056  10.122  0.5858  0.2572 -0.3828
 5257SOL    HW127230   2.450   0.117  10.148 -1.2799  1.5556  1.5704
 5257SOL    HW227231   2.426   0.012  10.051  0.8754  0.7238 -0.4886
 5258SOL     OW27232   4.117   3.851   5.094  0.8165  0.4322 -0.5113
 5258SOL    HW127233   4.142   3.886   5.008  0.8930  0.8398 -0.3251
 5258SOL    HW227234   4.164   3.914   5.149 -1.8225  2.1544 -0.1954
 5259SOL     OW27235   1.811   2.210  15.925  0.7556  0.1793 -0.4358
 5259SOL    HW127236   1.837   2.295  15.888  1.2809 -0.2399 -1.0336
 5259SOL    HW227237   1.723   2.235  15.952  0.5990 -1.9987  1.0507
 5260SOL     OW27238   0.592   1.827  17.294  0.1067  0.0184  0.5920
 5260SOL    HW127239   0.663   1.763  17.304 -0.7102 -1.0162 -0.1255
 5260SOL    HW227240   0.538   1.805  17.370  1.5761  1.0433  1.9219
 5261SOL     OW27241   3.340   2.205   8.923 -0.2677  0.2366 -0.0077
 5261SOL    HW127242   3.414   2.223   8.982  0.3486  0.7109 -0.9114
 5261SOL    HW227243   3.341   2.284   8.868 -1.0818 -0.3294 -0.8117
 5262SOL     OW27244   2.731   1.034  16.965  0.0757  0.0587  0.5299
 5262SOL    HW127245   2.675   1.095  16.917  1.2379 -0.3791 -1.3821
 5262SOL    HW227246   2.680   1.030  17.045 -0.7193 -0.2940  0.0103
 5263SOL     OW27247   1.375   1.521   5.213  0.1292 -0.0727  0.2098
 5263SOL    HW127248   1.312   1.588   5.188 -0.4723 -0.0089  1.8707
 5263SOL    HW227249   1.456   1.569   5.202 -0.0146  0.3111  0.8264
 5264SOL     OW27250   2.062   4.237   2.236  0.0314  0.5357  0.3890
 5264SOL    HW127251   2.005   4.307   2.205  0.2017 -0.8233 -2.9267
 5264SOL    HW227252   2.078   4.253   2.329 -2.4828 -1.1327  1.0919
 5265SOL     OW27253   4.156   4.376  17.262 -0.3312  0.2320  0.4328
 5265SOL    HW127254   4.172   4.284  17.282 -3.9541 -0.4854  0.1712
 5265SOL    HW227255   4.070   4.390  17.301 -0.9164 -2.0078 -0.0505
 5266SOL     OW27256   0.703   0.397  10.874  0.2882  0.2601 -0.5897
 5266SOL    HW127257   0.723   0.319  10.925 -0.4584  1.2242  1.1569
 5266SOL    HW227258   0.758   0.375  10.799 -0.8586  0.1796 -1.4111
 5267SOL     OW27259   1.733   2.768   9.023 -0.8442 -0.2534 -0.1863
 5267SOL    HW127260   1.770   2.801   9.105  1.9717  0.7612 -1.8532
 5267SOL    HW227261   1.649   2.739   9.059  0.1684 -1.3357  1.3404
 5268SOL     OW27262   2.513   0.088   3.100  0.1271 -0.0468 -0.2084
 5268SOL    HW127263   2.534   4.716   3.090  1.0824  0.1761 -0.2499
 5268SOL    HW227264   2.584   0.127   3.050 -0.4658  2.3223  0.8038
 5269SOL     OW27265   2.569   0.801   7.436 -0.2594  0.7724 -0.1082
 5269SOL    HW127266   2.553   0.868   7.503 -1.6020  0.6178 -0.2674
 5269SOL    HW227267   2.615   0.739   7.493  0.0465  2.4465  1.4861
 5270SOL     OW27268   1.481   2.528   4.881 -0.1044 -0.2735  0.0543
 5270SOL    HW127269   1.482   2.449   4.936 -0.9805 -0.8790 -0.7985
 5270SOL    HW227270   1.406   2.506   4.825  0.0165  0.1394 -0.2634
 5271SOL     OW27271   3.992   2.413   8.886 -1.1117 -0.0968  0.8735
 5271SOL    HW127272   4.064   2.358   8.858  0.0605  0.7132  2.2842
 5271SOL    HW227273   3.928   2.349   8.917 -1.2492 -1.3648 -2.0663
 5272SOL     OW27274   0.725   3.662   4.994 -0.1568 -0.5527 -0.1118
 5272SOL    HW127275   0.664   3.649   4.922  0.1226 -0.9355 -0.2737
 5272SOL    HW227276   0.656   3.658   5.060  0.1044 -2.2317  0.0581
 5273SOL     OW27277   1.757   0.283  10.819  0.3141 -0.0964 -0.7145
 5273SOL    HW127278   1.757   0.377  10.836  1.0305 -0.3691  0.7438
 5273SOL    HW227279   1.849   0.275  10.792  0.9468  0.8294  1.1641
 5274SOL     OW27280   4.276   2.733   4.017  0.3240 -0.1317 -0.2352
 5274SOL    HW127281   4.352   2.677   3.997  1.0103  0.8752 -0.4348
 5274SOL    HW227282   4.203   2.673   4.002 -1.4735  1.7963  0.8389
 5275SOL     OW27283   0.885   4.263  12.223 -0.6055  0.1633  0.0778
 5275SOL    HW127284   0.847   4.214  12.296  1.8419 -1.5417  0.2009
 5275SOL    HW227285   0.945   4.319  12.272 -0.5408  0.7925 -0.7358
 5276SOL     OW27286   0.830   2.084   2.586  0.0495 -0.0908 -0.8612
 5276SOL    HW127287   0.744   2.092   2.628  1.0497  0.3810  1.0884
 5276SOL    HW227288   0.886   2.092   2.663  0.9669  1.2544 -1.6707
 5277SOL     OW27289   3.347   3.113   9.300  0.9738 -0.1106 -0.0715
 5277SOL    HW127290   3.299   3.035   9.272 -2.6660  1.6975  1.1019
 5277SOL    HW227291   3.366   3.139   9.211 -0.6952  1.1518 -0.0640
 5278SOL     OW27292   0.236   4.343   9.182 -0.2234  0.3573 -0.2940
 5278SOL    HW127293   0.218   4.347   9.276 -0.9986  0.6833 -0.4528
 5278SOL    HW227294   0.309   4.282   9.190 -0.7804 -0.4021 -0.8983
 5279SOL     OW27295   3.514   0.245   2.301  0.7910 -0.3344 -0.1183
 5279SOL    HW127296   3.450   0.309   2.332  1.5879 -0.1707  1.2037
 5279SOL    HW227297   3.478   0.246   2.212  1.6209 -0.2007 -0.4607
 5280SOL     OW27298   3.707   3.120   3.965  0.3865 -0.2331 -0.3761
 5280SOL    HW127299   3.636   3.057   3.953  1.0367 -0.7903 -1.2715
 5280SOL    HW227300   3.776   3.061   3.995 -0.4682 -0.1692  1.7677
 5281SOL     OW27301   1.076   0.019   4.955 -0.0896 -0.4031  0.1808
 5281SOL    HW127302   1.099   0.015   5.048  1.5000  2.5424 -0.0805
 5281SOL    HW227303   1.166   0.026   4.925  0.2116 -0.9490  0.9678
 5282SOL     OW27304   4.048   2.745   8.848  0.1525  0.0718 -0.4242
 5282SOL    HW127305   4.025   2.695   8.769  1.0005 -0.8560 -0.0921
 5282SOL    HW227306   4.128   2.788   8.820 -0.7497  1.0401 -1.5353
 5283SOL     OW27307   1.695   0.564   7.706  0.6942 -0.1302  0.5727
 5283SOL    HW127308   1.673   0.516   7.626 -1.2915  2.8304 -0.6446
 5283SOL    HW227309   1.789   0.547   7.717  0.7371 -0.3226 -0.0944
 5284SOL     OW27310   0.695   0.331   9.105 -0.2951  0.1043 -0.2873
 5284SOL    HW127311   0.763   0.270   9.075 -0.4237 -0.5687  0.7838
 5284SOL    HW227312   0.687   0.315   9.199 -0.4837 -0.9973 -0.4799
 5285SOL     OW27313   2.412   0.989   1.605  0.1560 -0.0546 -0.2532
 5285SOL    HW127314   2.422   1.046   1.529 -0.5697 -0.0160 -0.3259
 5285SOL    HW227315   2.403   1.058   1.671  0.2381  1.6216 -2.0006
 5286SOL     OW27316   2.161   1.923   5.680 -0.1210 -0.0078  0.4999
 5286SOL    HW127317   2.116   1.882   5.607  0.7881  0.7741 -0.5083
 5286SOL    HW227318   2.187   1.843   5.726  2.6138  0.3036 -0.5046
 5287SOL     OW27319   2.383   0.058  16.754  0.6208 -0.3922 -0.1210
 5287SOL    HW127320   2.425   0.100  16.680 -0.9554 -0.3731 -1.0075
 5287SOL    HW227321   2.294   0.094  16.753  0.7708  0.0167  0.7142
 5288SOL     OW27322   0.078   1.001  15.144 -0.4437  0.3438  0.4425
 5288SOL    HW127323   0.010   0.956  15.095 -0.9186  1.6722 -0.1426
 5288SOL    HW227324   0.036   1.041  15.220 -2.9660 -1.4108 -0.0446
 5289SOL     OW27325   3.697   1.980  12.523  0.1512 -0.4403 -0.0947
 5289SOL    HW127326   3.745   1.962  12.442 -1.4805 -0.6623 -1.0176
 5289SOL    HW227327   3.695   1.892  12.559 -0.6293 -0.2327  0.3670
 5290SOL     OW27328   4.560   2.041   0.627 -0.2457 -0.1221  0.2406
 5290SOL    HW127329   4.605   2.125   0.639  0.4417 -0.5042  0.2599
 5290SOL    HW227330   4.606   1.984   0.688  0.2932 -1.5584 -1.5367
 5291SOL     OW27331   4.273   4.129  14.179 -0.5114  0.3310  0.4700
 5291SOL    HW127332   4.321   4.200  14.136 -0.2875 -0.0808  0.0456
 5291SOL    HW227333   4.311   4.138  14.266  0.8205 -0.0068 -0.0717
 5292SOL     OW27334   0.903   4.556   2.094 -0.8697  0.3126 -0.0080
 5292SOL    HW127335   0.986   4.510   2.110 -1.1858  0.0794  0.9696
 5292SOL    HW227336   0.853   4.475   2.086  1.1174 -1.4074  4.8784
 5293SOL     OW27337   4.715   1.123   6.934  0.2673 -0.2739  0.4372
 5293SOL    HW127338   4.646   1.101   6.871  0.2955 -1.8482  0.9609
 5293SOL    HW227339   4.683   1.209   6.960 -5.0697 -1.3470 -2.5101
 5294SOL     OW27340   2.807   4.179   4.605  0.2144  0.0975  0.2524
 5294SOL    HW127341   2.826   4.234   4.529  2.7383 -0.3344  0.5782
 5294SOL    HW227342   2.883   4.176   4.663  0.6709 -0.5814 -0.3703
 5295SOL     OW27343   1.103   2.284   4.444  0.3383 -0.0373 -0.6431
 5295SOL    HW127344   1.052   2.357   4.479 -0.7562 -0.4288 -1.4351
 5295SOL    HW227345   1.111   2.324   4.358 -0.0067  1.9177  0.2257
 5296SOL     OW27346   0.787   0.416  13.157 -0.0327 -0.0059  0.7937
 5296SOL    HW127347   0.848   0.437  13.228 -1.7240  0.3126  2.1536
 5296SOL    HW227348   0.833   0.338  13.128 -0.4715  0.8046 -2.0509
 5297SOL     OW27349   0.164   0.030   9.617  0.3143 -0.6556  0.3322
 5297SOL    HW127350   0.156   0.087   9.693  3.7278 -1.6098  1.4072
 5297SOL    HW227351   0.084   4.700   9.627 -0.1450 -0.2607 -1.3378
 5298SOL     OW27352   0.282   1.835   5.752  0.3452  0.1998  0.1237
 5298SOL    HW127353   0.328   1.783   5.687  0.5102 -0.4073  0.7304
 5298SOL    HW227354   0.192   1.838   5.717  0.4765 -0.0379 -0.2302
 5299SOL     OW27355   2.070   0.619   8.933  0.0815  0.2869 -0.2131
 5299SOL    HW127356   2.094   0.537   8.890 -0.0866  1.3687 -2.3616
 5299SOL    HW227357   2.032   0.593   9.016  1.3105 -1.6036 -0.2479
 5300SOL     OW27358   4.482   2.606   7.340  0.0528  0.1146  0.4756
 5300SOL    HW127359   4.432   2.534   7.380 -0.5132 -0.3443 -1.0647
 5300SOL    HW227360   4.551   2.626   7.403 -0.1998 -4.0642  2.0691
 5301SOL     OW27361   3.233   3.330  10.639 -0.0827 -0.1846 -0.2082
 5301SOL    HW127362   3.151   3.359  10.598 -0.0125 -1.2298 -1.0693
 5301SOL    HW227363   3.205   3.269  10.707  2.3217 -1.7913 -0.6729
 5302SOL     OW27364   4.173   2.580   6.302  0.2716  0.4126  1.2716
 5302SOL    HW127365   4.194   2.497   6.259  0.4597  0.9212  0.3874
 5302SOL    HW227366   4.235   2.625   6.245  0.0855 -2.0855 -0.8906
 5303SOL     OW27367   0.564   2.026   3.304  0.0215  0.7816 -0.0895
 5303SOL    HW127368   0.654   2.039   3.274 -0.7260  0.8333 -2.3582
 5303SOL    HW227369   0.567   2.086   3.378 -2.4691  0.6121  0.1546
 5304SOL     OW27370   0.556   4.294   5.849  0.0511 -0.3916  0.0713
 5304SOL    HW127371   0.468   4.310   5.882 -0.7682 -1.9435 -1.3933
 5304SOL    HW227372   0.605   4.368   5.885 -1.0355  0.8621 -1.0357
 5305SOL     OW27373   1.188   2.589   4.035  0.5388  0.1757 -0.4692
 5305SOL    HW127374   1.185   2.666   3.978 -0.8547 -0.4553 -1.2639
 5305SOL    HW227375   1.243   2.608   4.110 -0.3758 -0.1564  0.2833
 5306SOL     OW27376   0.212   2.113   8.605  0.2149 -0.2162 -0.9537
 5306SOL    HW127377   0.133   2.152   8.567 -1.7626 -1.8587  1.4589
 5306SOL    HW227378   0.274   2.183   8.585  0.1295  0.2015  0.2308
 5307SOL     OW27379   0.931   3.563   8.662  0.4176 -0.0733 -0.2412
 5307SOL    HW127380   0.983   3.497   8.616 -0.1652 -0.3658 -0.4804
 5307SOL    HW227381   0.911   3.526   8.748 -0.0649 -0.2973 -0.4505
 5308SOL     OW27382   0.650   2.094   3.005 -0.5020 -0.5195 -0.0233
 5308SOL    HW127383   0.658   2.012   2.955 -0.3795 -0.0839 -0.7275
 5308SOL    HW227384   0.726   2.074   3.060  0.7525 -1.4628 -2.0704
 5309SOL     OW27385   2.435   4.677   5.279  0.3130  0.3276 -0.5803
 5309SOL    HW127386   2.373   0.016   5.237 -0.5445 -1.0671 -1.3111
 5309SOL    HW227387   2.520   4.707   5.247 -0.8400  0.8755 -3.1263
 5310SOL     OW27388   2.807   0.089   3.657 -0.6215  0.2445 -0.0397
 5310SOL    HW127389   2.772   0.169   3.618  2.7936  1.9562  0.3539
 5310SOL    HW227390   2.756   0.035   3.597 -0.2808  0.6583 -0.7061
 5311SOL     OW27391   2.190   2.909  13.790 -0.1247  0.2924 -0.6224
 5311SOL    HW127392   2.231   2.890  13.705 -0.9591 -3.0368 -0.2866
 5311SOL    HW227393   2.106   2.870  13.768 -0.2141 -0.3995  0.9371
 5312SOL     OW27394   0.169   3.539   2.493  0.2724  0.2972  0.0513
 5312SOL    HW127395   0.114   3.473   2.534 -0.0616 -0.0442 -0.9449
 5312SOL    HW227396   0.240   3.561   2.554 -0.5161  1.5691  0.5129
 5313SOL     OW27397   1.718   0.498   3.936 -0.5299 -0.0631  0.0261
 5313SOL    HW127398   1.683   0.409   3.937 -1.8243  0.4431 -0.3154
 5313SOL    HW227399   1.739   0.510   4.029  2.3902  2.7937 -0.9867
 5314SOL     OW27400   1.778   2.318   3.514  0.6635  0.0328  0.2374
 5314SOL    HW127401   1.803   2.406   3.487  1.2087  0.1852  1.2300
 5314SOL    HW227402   1.820   2.268   3.445 -1.1709 -2.6792  1.0633
 5315SOL     OW27403   1.843   0.615  10.374  0.1656 -0.3259  0.4508
 5315SOL    HW127404   1.812   0.578  10.291  3.4597  0.5280 -1.1209
 5315SOL    HW227405   1.832   0.537  10.429  1.0368  0.5364  1.8291
 5316SOL     OW27406   1.535   3.578  10.606 -0.0814  0.6130 -0.0872
 5316SOL    HW127407   1.468   3.614  10.548  0.4144 -0.5085 -1.3526
 5316SOL    HW227408   1.623   3.588  10.568 -0.5702 -1.0352 -1.6555
 5317SOL     OW27409   2.387   1.279   5.991  0.3164  0.8968  0.4927
 5317SOL    HW127410   2.383   1.280   6.087  0.8300 -0.5923  0.5356
 5317SOL    HW227411   2.465   1.226   5.977 -1.5403 -1.6825 -0.2072
 5318SOL     OW27412   2.554   3.507   6.394 -0.2049  0.3158  0.3823
 5318SOL    HW127413   2.540   3.424   6.440  0.8969  0.5762  1.1851
 5318SOL    HW227414   2.624   3.486   6.332  0.9718  1.7992  1.2173
 5319SOL     OW27415   3.638   3.868   8.182 -0.5160  0.8998  0.0081
 5319SOL    HW127416   3.636   3.907   8.270  1.4274  1.5805 -0.2691
 5319SOL    HW227417   3.553   3.823   8.185 -0.0421  0.2177  3.8586
 5320SOL     OW27418   1.304   3.704   8.776 -0.0798 -0.2312 -0.5086
 5320SOL    HW127419   1.357   3.661   8.708  0.5303  1.0374 -0.8388
 5320SOL    HW227420   1.279   3.630   8.831 -1.3450  1.5878  1.3681
 5321SOL     OW27421   2.287   0.077   7.189  0.2065  0.2881  0.1910
 5321SOL    HW127422   2.256   0.013   7.254 -0.0781 -1.0489 -1.2611
 5321SOL    HW227423   2.307   0.146   7.253  3.1290 -0.1619 -0.2362
 5322SOL     OW27424   3.732   1.189   7.474  0.5142 -0.2048 -0.3623
 5322SOL    HW127425   3.811   1.206   7.526  0.7063  0.5936 -0.9067
 5322SOL    HW227426   3.762   1.106   7.436 -2.0434 -0.5812 -1.5444
 5323SOL     OW27427   0.848   3.185  10.901 -0.4250  0.5164 -0.2143
 5323SOL    HW127428   0.880   3.236  10.975 -1.4429 -0.7585  1.0975
 5323SOL    HW227429   0.885   3.098  10.911  0.5082  0.9120 -0.2319
 5324SOL     OW27430   3.067   0.085   3.760 -0.0682  0.2506  0.6298
 5324SOL    HW127431   2.986   0.121   3.724 -0.2436  0.2500  1.0233
 5324SOL    HW227432   3.057   0.136   3.841 -1.5238 -2.0436  1.8817
 5325SOL     OW27433   3.157   4.357  13.798 -0.1398  0.0627 -0.1215
 5325SOL    HW127434   3.234   4.332  13.848 -1.4996 -1.8321  1.0215
 5325SOL    HW227435   3.160   4.296  13.725 -1.0371 -0.1179 -0.0118
 5326SOL     OW27436   2.183   0.277   3.760  0.1511 -0.1329 -0.0042
 5326SOL    HW127437   2.099   0.240   3.733 -1.4455  2.8179  0.8247
 5326SOL    HW227438   2.217   0.205   3.813  2.3351  0.1307 -1.0543
 5327SOL     OW27439   1.707   2.850   7.329 -0.2413 -0.7982  0.0749
 5327SOL    HW127440   1.660   2.844   7.411  0.1631  1.5021  0.4747
 5327SOL    HW227441   1.775   2.785   7.346 -1.4678 -1.8103  1.0291
 5328SOL     OW27442   1.132   1.619  10.017  0.3179 -0.0929  0.3354
 5328SOL    HW127443   1.040   1.593  10.021 -0.3532  2.2089  0.0046
 5328SOL    HW227444   1.139   1.714  10.026  1.4424 -0.1924  0.6127
 5329SOL     OW27445   2.499   2.732  10.779 -0.6197 -0.4386  0.3045
 5329SOL    HW127446   2.448   2.661  10.740 -0.2466 -1.2231  1.2285
 5329SOL    HW227447   2.548   2.677  10.841  0.6603 -0.0466 -0.3601
 5330SOL     OW27448   0.622   0.164  14.079  0.3528 -0.6922 -0.1419
 5330SOL    HW127449   0.698   0.168  14.137  0.8016 -0.8594 -0.7202
 5330SOL    HW227450   0.665   0.190  13.997 -1.6544  1.5746 -0.4913
 5331SOL     OW27451   0.598   2.050  16.931 -0.1784  0.3401  0.1650
 5331SOL    HW127452   0.649   2.068  17.011 -0.4696  0.3081  0.3577
 5331SOL    HW227453   0.660   2.062  16.859  0.9670 -1.9274  0.7575
 5332SOL     OW27454   0.972   0.729   3.880  0.5128 -0.3390  0.3316
 5332SOL    HW127455   1.006   0.718   3.791  2.2929 -1.4680  1.1567
 5332SOL    HW227456   0.878   0.712   3.879  0.7531 -1.7462  1.6246
 5333SOL     OW27457   2.177   3.002   0.006  0.3914 -0.0812  0.4102
 5333SOL    HW127458   2.146   3.038   0.089  0.9658  1.0326  0.1412
 5333SOL    HW227459   2.215   2.916   0.025  0.6195 -0.0113  0.2679
 5334SOL     OW27460   2.801   3.777   9.609 -0.2021 -0.2387  0.6479
 5334SOL    HW127461   2.862   3.705   9.624 -0.4572 -0.9532 -1.7995
 5334SOL    HW227462   2.761   3.781   9.696 -0.6378  1.1126  0.3897
 5335SOL     OW27463   3.325   1.219   7.766  0.3049 -0.1420 -0.4246
 5335SOL    HW127464   3.304   1.130   7.794 -0.0526  0.2007  0.3762
 5335SOL    HW227465   3.366   1.198   7.682  2.1462  0.4132  0.3305
 5336SOL     OW27466   3.222   4.528   4.051 -0.1000 -0.0952 -0.1680
 5336SOL    HW127467   3.300   4.473   4.057 -1.0150 -1.2333  1.1329
 5336SOL    HW227468   3.251   4.576   3.973 -2.0647  0.0727 -0.7830
 5337SOL     OW27469   1.451   1.665   4.388  0.1768 -0.2788 -0.0163
 5337SOL    HW127470   1.443   1.758   4.408  1.9070 -0.0098 -0.5367
 5337SOL    HW227471   1.543   1.660   4.413  0.5982 -0.6751 -1.6552
 5338SOL     OW27472   3.802   0.565   7.096  0.2471 -0.2869 -0.7461
 5338SOL    HW127473   3.792   0.470   7.093  0.8408 -0.4126  0.9395
 5338SOL    HW227474   3.844   0.574   7.182  0.9559 -2.0001 -0.9176
 5339SOL     OW27475   2.364   3.982   8.621  0.4658 -0.0028 -0.7034
 5339SOL    HW127476   2.446   3.962   8.576  0.2850  1.0802 -1.5454
 5339SOL    HW227477   2.387   4.021   8.705 -3.1803 -1.3983  0.9432
 5340SOL     OW27478   3.938   2.951  15.238  0.7974  0.2405 -0.2312
 5340SOL    HW127479   3.860   3.003  15.218 -0.5344 -2.5632 -2.5506
 5340SOL    HW227480   3.894   2.888  15.296  0.9905 -1.1307 -1.5426
 5341SOL     OW27481   0.799   0.431   4.654  0.6628 -0.5536 -0.1387
 5341SOL    HW127482   0.821   0.514   4.613  1.1694 -1.4081 -1.5893
 5341SOL    HW227483   0.755   0.371   4.593  0.3719  0.4588 -0.9325
 5342SOL     OW27484   2.619   0.804   1.000 -0.5657  0.8970  0.5954
 5342SOL    HW127485   2.649   0.894   1.014  0.2853  0.2108  3.1267
 5342SOL    HW227486   2.665   0.766   1.075 -0.8413 -0.9165 -0.1628
 5343SOL     OW27487   4.477   0.024   0.103  0.4334 -0.0540 -0.3224
 5343SOL    HW127488   4.494   4.660   0.065 -0.4535 -0.9760  1.3315
 5343SOL    HW227489   4.384   0.018   0.124  0.1620  1.1862 -1.1654
 5344SOL     OW27490   1.112   0.427   3.667  0.2278  0.3284 -0.4635
 5344SOL    HW127491   1.086   0.519   3.658 -2.3885 -0.3459  0.2216
 5344SOL    HW227492   1.031   0.376   3.667  0.2883  0.2286 -1.3947
 5345SOL     OW27493   1.932   2.002   3.058  0.8913  0.3508  0.0919
 5345SOL    HW127494   1.870   1.937   3.090  3.4355 -1.8127  0.6120
 5345SOL    HW227495   2.016   1.959   3.043  0.9473 -0.1127  1.7361
 5346SOL     OW27496   2.452   4.252  15.379  0.3849 -0.1025 -0.3567
 5346SOL    HW127497   2.483   4.230  15.468 -0.7912 -0.0711  0.0615
 5346SOL    HW227498   2.474   4.345  15.373 -2.0757  0.5304  0.5224
 5347SOL     OW27499   2.329   2.766   9.807  0.8301 -0.2454 -0.0000
 5347SOL    HW127500   2.302   2.822   9.879  2.7375  1.3046 -0.4932
 5347SOL    HW227501   2.363   2.689   9.854 -0.7052 -1.1288 -0.3378
 5348SOL     OW27502   4.318   0.946   4.994  0.1836  0.3957 -0.3752
 5348SOL    HW127503   4.400   0.978   4.955  0.4027 -1.8534 -1.7415
 5348SOL    HW227504   4.262   0.930   4.918 -1.2408  0.6069  0.6412
 5349SOL     OW27505   1.100   3.908   4.055 -0.9898 -0.3652 -0.2881
 5349SOL    HW127506   1.147   3.920   3.972  1.4422 -1.9995  0.8978
 5349SOL    HW227507   1.169   3.898   4.120 -1.4453 -0.0490  0.2453
 5350SOL     OW27508   0.724   3.223  13.752  0.2162  0.5557  0.1125
 5350SOL    HW127509   0.711   3.272  13.672  1.8976  2.2997  0.9213
 5350SOL    HW227510   0.636   3.230  13.791 -0.6282  1.8025 -1.9919
 5351SOL     OW27511   3.893   2.175  11.419  0.0622  0.2332  0.3361
 5351SOL    HW127512   3.872   2.250  11.364 -0.0966 -0.9544 -1.2268
 5351SOL    HW227513   3.839   2.106  11.379 -1.9443  2.5097 -0.8409
 5352SOL     OW27514   4.688   1.613  11.281  0.0139 -0.3242 -0.2641
 5352SOL    HW127515   0.042   1.673  11.276  1.8299 -2.7653 -2.0395
 5352SOL    HW227516   4.663   1.603  11.189 -0.2686 -1.4600 -0.0584
 5353SOL     OW27517   0.009   3.315  13.529  0.1887 -0.0917 -0.6291
 5353SOL    HW127518   0.050   3.372  13.594  0.2864 -0.4028 -0.4193
 5353SOL    HW227519   4.650   3.358  13.501  0.7486  1.2211 -0.2110
 5354SOL     OW27520   3.267   4.665   9.204 -0.3121 -0.4901 -0.4262
 5354SOL    HW127521   3.315   0.021   9.172 -1.2901 -0.7972 -2.6878
 5354SOL    HW227522   3.203   4.662   9.133 -1.2396 -1.6756  0.4754
 5355SOL     OW27523   3.664   0.799   8.044  0.0678  0.0925  0.0870
 5355SOL    HW127524   3.629   0.841   7.966  0.0547  0.7897  0.4663
 5355SOL    HW227525   3.690   0.710   8.019 -1.7029 -0.3470 -0.1705
 5356SOL     OW27526   3.074   3.010   9.431  0.1160  0.3630 -0.0548
 5356SOL    HW127527   2.992   3.034   9.388  1.1129  0.9239 -1.6659
 5356SOL    HW227528   3.131   3.014   9.354 -0.6272 -1.3433 -0.6983
 5357SOL     OW27529   1.392   0.377   6.930 -0.0968 -0.6292 -0.0480
 5357SOL    HW127530   1.332   0.303   6.933  0.5096 -1.3090 -3.8966
 5357SOL    HW227531   1.469   0.333   6.966  0.7541  0.1646 -0.8891
 5358SOL     OW27532   0.995   0.029   1.081  0.3954 -0.1420 -0.1261
 5358SOL    HW127533   0.942   0.097   1.124  0.2688 -0.3328  0.0221
 5358SOL    HW227534   0.998   0.066   0.993 -3.3163 -1.2173 -0.7300
 5359SOL     OW27535   4.559   0.056  14.925  0.2010  0.8796  0.0901
 5359SOL    HW127536   4.515   4.700  14.960 -0.6818  1.5727  0.4899
 5359SOL    HW227537   4.481   0.109  14.911 -0.4464  0.3692  1.7934
 5360SOL     OW27538   2.137   2.449   2.430 -0.1617  0.0660 -0.7370
 5360SOL    HW127539   2.148   2.542   2.408  1.1253 -0.3777 -2.0230
 5360SOL    HW227540   2.229   2.425   2.434 -0.2411 -0.1126 -0.1196
 5361SOL     OW27541   3.764   4.550   4.131 -1.0062  0.1325 -0.1649
 5361SOL    HW127542   3.782   4.625   4.075 -0.0122  2.1588  2.9021
 5361SOL    HW227543   3.813   4.482   4.085  0.9837  0.7866  0.9792
 5362SOL     OW27544   3.639   4.175   8.612 -0.2423  0.2765  0.0571
 5362SOL    HW127545   3.721   4.221   8.594  0.1068 -0.5969 -0.5747
 5362SOL    HW227546   3.657   4.131   8.695 -0.9536  0.0396  0.0917
 5363SOL     OW27547   3.187   2.936   9.200  0.1990 -0.6522 -0.2061
 5363SOL    HW127548   3.158   2.925   9.109  1.9617 -1.1368 -0.7054
 5363SOL    HW227549   3.173   2.849   9.238  1.2718 -0.7337  0.0079
 5364SOL     OW27550   2.772   4.138   8.304  0.1400  0.8311  0.0972
 5364SOL    HW127551   2.734   4.086   8.375  1.0577 -0.9347 -0.7060
 5364SOL    HW227552   2.867   4.138   8.321  0.4156  0.5701 -1.4484
 5365SOL     OW27553   1.545   2.651   5.590 -0.2477  0.0798 -0.3631
 5365SOL    HW127554   1.574   2.739   5.569  0.5737 -0.1527 -0.2049
 5365SOL    HW227555   1.456   2.660   5.624 -0.7422 -2.4096 -0.9622
 5366SOL     OW27556   3.911   0.612  16.832  0.1457  0.4716  0.4468
 5366SOL    HW127557   3.863   0.543  16.877  1.9080 -0.4510  0.8948
 5366SOL    HW227558   3.981   0.567  16.785 -1.0570 -0.1468 -0.7471
 5367SOL     OW27559   0.197   2.202   2.566  0.2442 -0.3667 -0.1598
 5367SOL    HW127560   0.141   2.125   2.560 -0.0115 -0.2108  0.2113
 5367SOL    HW227561   0.208   2.213   2.472 -1.4261  3.2198  0.0613
 5368SOL     OW27562   1.704   3.645   7.347 -0.1129 -0.0194  0.5777
 5368SOL    HW127563   1.659   3.634   7.431 -0.1590 -0.2702  0.5192
 5368SOL    HW227564   1.689   3.739   7.336 -0.0060 -0.0189  0.4388
 5369SOL     OW27565   4.616   0.161  12.495 -0.2968  0.0501  0.9588
 5369SOL    HW127566   4.670   0.107  12.438 -1.5869 -0.0514 -0.1601
 5369SOL    HW227567   4.616   0.249  12.458  0.1257 -0.7718 -0.9816
 5370SOL     OW27568   2.929   1.241   3.223 -0.4955  0.7013 -0.0833
 5370SOL    HW127569   2.856   1.251   3.284  1.3921 -1.9126  2.6469
 5370SOL    HW227570   2.889   1.192   3.152  2.3923 -1.5922 -0.1119
 5371SOL     OW27571   0.832   3.847  14.041 -0.3223  0.8704  0.3839
 5371SOL    HW127572   0.899   3.848  14.110 -0.0258 -1.0717  0.1168
 5371SOL    HW227573   0.766   3.828  14.108  0.1536  1.2708  0.9717
 5372SOL     OW27574   0.329   2.233  12.780 -0.4106 -0.0539 -0.3276
 5372SOL    HW127575   0.414   2.192  12.761  0.7215  1.8758  0.6140
 5372SOL    HW227576   0.307   2.279  12.699  1.0047 -1.1440 -1.3340
 5373SOL     OW27577   4.152   1.663  11.226 -0.0333 -0.2816 -0.1354
 5373SOL    HW127578   4.149   1.737  11.166 -2.1916  0.4290  0.8408
 5373SOL    HW227579   4.210   1.690  11.297 -1.3542  1.5113  0.2625
 5374SOL     OW27580   1.071   4.698   8.708 -0.0900  0.0059  0.1877
 5374SOL    HW127581   1.122   0.048   8.746  0.1106 -1.0202  1.8362
 5374SOL    HW227582   1.114   4.617   8.736  0.1137 -0.8975 -2.6476
 5375SOL     OW27583   1.388   3.494   5.254 -0.2049 -0.2308  0.1776
 5375SOL    HW127584   1.324   3.564   5.241  1.0965  0.9749  0.2956
 5375SOL    HW227585   1.450   3.508   5.183  0.0529  2.1987  0.8869
 5376SOL     OW27586   3.499   1.905   5.761 -0.0893  0.7545 -0.0452
 5376SOL    HW127587   3.422   1.922   5.708 -0.0535 -1.2279 -0.6954
 5376SOL    HW227588   3.560   1.872   5.695 -1.0978 -0.7086 -0.2327
 5377SOL     OW27589   4.529   1.748   3.397 -0.1840  0.6552 -0.6482
 5377SOL    HW127590   4.479   1.669   3.417  0.5101  0.2434 -0.5073
 5377SOL    HW227591   4.465   1.811   3.428  0.4102  0.5745  0.7336
 5378SOL     OW27592   1.344   2.197   9.857 -0.2232 -0.7921  0.1220
 5378SOL    HW127593   1.315   2.114   9.819 -3.4786  1.0737 -1.4494
 5378SOL    HW227594   1.424   2.209   9.805  0.3671 -0.7434  1.0465
 5379SOL     OW27595   3.430   0.294   7.761  0.0027  1.1039  0.1877
 5379SOL    HW127596   3.360   0.301   7.696 -0.5110  1.3017  0.7582
 5379SOL    HW227597   3.511   0.317   7.715  0.4765 -0.3961  0.2649
 5380SOL     OW27598   2.776   4.018   2.799  0.2979 -0.3917 -0.2849
 5380SOL    HW127599   2.843   3.998   2.865  1.3482 -0.7272 -1.4588
 5380SOL    HW227600   2.735   3.931   2.792  1.1098 -0.8174  0.2283
 5381SOL     OW27601   0.111   3.599  13.885  0.4293  0.0543 -0.2002
 5381SOL    HW127602   0.198   3.636  13.870  0.3251  0.0867 -0.7081
 5381SOL    HW227603   0.066   3.639  13.811 -0.0996 -1.6753 -0.8169
 5382SOL     OW27604   2.279   2.011  10.233  0.1940  0.2518 -0.4094
 5382SOL    HW127605   2.369   1.983  10.249 -0.7909 -2.2609  0.8122
 5382SOL    HW227606   2.271   2.086  10.292 -2.2660 -0.2006 -0.1630
 5383SOL     OW27607   2.099   2.613  11.210  0.0548  0.3679  0.0842
 5383SOL    HW127608   2.112   2.523  11.239 -0.1665  0.6446  1.0395
 5383SOL    HW227609   2.015   2.637  11.248  0.3445 -0.5932  1.3134
 5384SOL     OW27610   1.044   1.793   7.045 -0.0555 -0.0705 -0.5071
 5384SOL    HW127611   0.972   1.855   7.047  2.2465  2.6124 -0.1774
 5384SOL    HW227612   1.116   1.852   7.021  1.2520 -1.2058  0.5643
 5385SOL     OW27613   2.867   0.734   8.590 -0.5182 -0.1157 -0.0370
 5385SOL    HW127614   2.909   0.738   8.504 -0.1553 -0.6021  0.1183
 5385SOL    HW227615   2.933   0.778   8.643  0.4447 -0.9063 -0.5895
 5386SOL     OW27616   2.285   0.568  11.352  0.5381  0.3174 -0.3371
 5386SOL    HW127617   2.236   0.557  11.270  2.8286 -0.0658 -1.6467
 5386SOL    HW227618   2.375   0.555  11.322  0.5519 -2.5264  0.9005
 5387SOL     OW27619   3.976   3.969  14.684  0.2149 -0.1445  0.1455
 5387SOL    HW127620   3.914   3.938  14.749  0.3185 -1.7952 -0.5318
 5387SOL    HW227621   3.917   4.012  14.621  0.5502 -1.5572 -1.1419
 5388SOL     OW27622   3.038   1.660   5.629 -0.3193  0.4656  0.0968
 5388SOL    HW127623   3.122   1.614   5.623 -1.5452 -1.6850 -0.7108
 5388SOL    HW227624   3.039   1.701   5.715 -0.5289  0.8503 -0.0827
 5389SOL     OW27625   2.059   1.906  12.499  0.1219 -0.2059 -0.6849
 5389SOL    HW127626   2.044   1.902  12.593 -0.6587 -1.2284 -0.8566
 5389SOL    HW227627   2.074   2.001  12.495  2.6290 -0.5934 -0.3762
 5390SOL     OW27628   2.182   1.346   0.749 -0.1077  0.3456 -0.0065
 5390SOL    HW127629   2.135   1.270   0.785  3.6032 -1.8039  0.2886
 5390SOL    HW227630   2.254   1.308   0.699 -0.0342  2.0993 -1.2357
 5391SOL     OW27631   3.918   0.042  11.259  0.2261 -0.2268 -0.2237
 5391SOL    HW127632   3.992   4.709  11.285  0.3329  0.4011  0.7767
 5391SOL    HW227633   3.936   0.050  11.165  1.3347  0.9367  0.0883
 5392SOL     OW27634   1.475   3.957   2.773 -0.3694 -0.2836 -0.8583
 5392SOL    HW127635   1.540   3.951   2.843 -2.1408 -0.6064  0.7560
 5392SOL    HW227636   1.520   4.027   2.726  1.3864 -0.2032  0.9500
 5393SOL     OW27637   4.395   2.217  17.044  0.8365 -0.4234  0.3886
 5393SOL    HW127638   4.411   2.297  16.995  2.6107  1.3583  3.9031
 5393SOL    HW227639   4.477   2.174  17.022 -0.7188 -2.8570 -0.7625
 5394SOL     OW27640   0.498   1.850  10.665  0.7154  0.0541 -0.0619
 5394SOL    HW127641   0.559   1.862  10.738 -0.2858  1.0898  0.5985
 5394SOL    HW227642   0.555   1.887  10.598 -0.9816  2.1507 -0.3318
 5395SOL     OW27643   1.244   1.727  15.414 -0.2616 -0.1275 -0.2700
 5395SOL    HW127644   1.182   1.726  15.341 -0.2490  0.3306 -0.2884
 5395SOL    HW227645   1.293   1.647  15.395 -1.7814 -1.3472  0.9198
 5396SOL     OW27646   3.442   1.819   9.088  0.2590  0.5349 -0.3035
 5396SOL    HW127647   3.418   1.883   9.021 -0.5962  0.2678 -0.2569
 5396SOL    HW227648   3.454   1.741   9.034 -0.0421  0.4193 -0.2048
 5397SOL     OW27649   3.266   4.416  13.115  0.7569  0.3696  0.3759
 5397SOL    HW127650   3.248   4.323  13.118 -0.9568  0.6934 -0.1657
 5397SOL    HW227651   3.348   4.415  13.065  1.8907 -0.1848  2.2416
 5398SOL     OW27652   2.194   0.838   6.255 -0.4314 -0.0423  0.2335
 5398SOL    HW127653   2.240   0.768   6.209  0.7987  0.3438  0.8674
 5398SOL    HW227654   2.115   0.851   6.203 -0.1605  0.0873 -0.1467
 5399SOL     OW27655   1.920   0.174  11.473  0.0196 -0.8987  0.4323
 5399SOL    HW127656   1.875   0.252  11.442  1.7845  0.6861  1.8352
 5399SOL    HW227657   1.840   0.122  11.478 -0.1804 -0.6970 -0.6982
 5400SOL     OW27658   0.914   2.104   9.176 -0.3879 -0.5955 -0.2229
 5400SOL    HW127659   0.869   2.114   9.260  1.1724 -0.1352  0.5599
 5400SOL    HW227660   0.997   2.068   9.206 -0.1855  0.0756  0.0275
 5401SOL     OW27661   4.295   2.049   7.378  0.3859 -0.0833 -0.2998
 5401SOL    HW127662   4.247   2.110   7.434  3.5037  1.2660  0.8874
 5401SOL    HW227663   4.358   2.108   7.337 -1.0739  0.9054 -1.1373
 5402SOL     OW27664   2.198   2.532   5.134 -0.1134  0.1696 -0.5245
 5402SOL    HW127665   2.243   2.477   5.198  2.6738  2.8546 -0.1572
 5402SOL    HW227666   2.243   2.503   5.054 -0.4442 -1.5604 -0.0761
 5403SOL     OW27667   0.690   0.448   1.886  0.3149  0.7163 -0.5933
 5403SOL    HW127668   0.704   0.528   1.835  2.2276  1.8526  1.6737
 5403SOL    HW227669   0.647   0.388   1.826 -2.7353  1.6754  0.6469
 5404SOL     OW27670   0.540   1.871   4.718  0.2658  0.1873  0.0028
 5404SOL    HW127671   0.468   1.809   4.727  0.1863  0.1852 -0.6811
 5404SOL    HW227672   0.598   1.854   4.793 -0.5403 -0.0978  0.5600
 5405SOL     OW27673   0.944   2.257  12.283 -0.1307  0.1308  0.1596
 5405SOL    HW127674   0.975   2.250  12.373  0.2377  2.3916  0.2006
 5405SOL    HW227675   0.946   2.352  12.276  2.8312 -0.0648 -1.3892
 5406SOL     OW27676   0.646   3.352  13.515  0.4277  0.1630 -0.5150
 5406SOL    HW127677   0.573   3.297  13.487  0.9439 -1.0930  0.6049
 5406SOL    HW227678   0.705   3.356  13.440 -1.5337 -0.9738 -2.1292
 5407SOL     OW27679   3.677   3.128   9.426 -0.0014 -0.5516  0.0499
 5407SOL    HW127680   3.633   3.213   9.433  0.0659 -0.5308  0.2481
 5407SOL    HW227681   3.766   3.162   9.438 -0.4231  0.6254 -0.1376
 5408SOL     OW27682   3.830   1.345   7.206  0.4978  0.2171 -0.1028
 5408SOL    HW127683   3.807   1.390   7.124  1.4293 -1.7276 -1.4260
 5408SOL    HW227684   3.770   1.271   7.202  0.5679  0.0112  2.9560
 5409SOL     OW27685   0.190   2.405   5.562  0.0869 -0.9935  0.5897
 5409SOL    HW127686   0.228   2.323   5.531 -1.2660 -2.3381  2.4968
 5409SOL    HW227687   0.119   2.369   5.615 -1.0311 -1.5177 -1.2347
 5410SOL     OW27688   3.854   2.426   6.617  0.4072 -0.6083 -0.4175
 5410SOL    HW127689   3.886   2.516   6.608  0.7860 -0.8248 -1.2351
 5410SOL    HW227690   3.760   2.435   6.598  0.2046 -0.8867  0.4542
 5411SOL     OW27691   2.293   2.471   4.889 -0.4230  0.0754 -0.3521
 5411SOL    HW127692   2.205   2.461   4.854 -0.0150 -0.1641 -1.3099
 5411SOL    HW227693   2.354   2.481   4.816  0.3554  3.5765  0.7989
 5412SOL     OW27694   1.921   0.920  13.055  0.0537  0.5927  0.1384
 5412SOL    HW127695   1.879   0.903  13.139  1.6015  2.3308  1.2449
 5412SOL    HW227696   1.908   0.830  13.025  2.9573  0.4712 -0.7199
 5413SOL     OW27697   1.966   0.926   1.163 -0.3484  0.4902 -0.0330
 5413SOL    HW127698   2.034   0.992   1.178  1.3112 -1.4618  0.8577
 5413SOL    HW227699   1.989   0.881   1.082  0.3910 -2.8919  2.0878
 5414SOL     OW27700   2.588   1.842   8.136  0.4545  0.0115  0.0465
 5414SOL    HW127701   2.611   1.772   8.074  2.9029  0.0986  0.8494
 5414SOL    HW227702   2.628   1.917   8.092  0.2786 -0.0891 -0.2849
 5415SOL     OW27703   4.568   3.400   4.305  0.1118  0.3188 -0.4039
 5415SOL    HW127704   4.555   3.346   4.228 -1.0338  0.9824 -0.6892
 5415SOL    HW227705   4.511   3.471   4.274  0.9221  1.8322  1.5663
 5416SOL     OW27706   4.622   2.053   7.618  0.2867 -0.3517 -0.2886
 5416SOL    HW127707   4.621   2.139   7.575  0.6128 -0.7845 -1.1638
 5416SOL    HW227708   4.589   1.995   7.549 -0.6744  1.1051 -1.0637
 5417SOL     OW27709   0.926   2.164  17.023 -0.2654 -0.2690  0.0166
 5417SOL    HW127710   0.853   2.131  17.075  0.1888  0.7276  1.2951
 5417SOL    HW227711   1.003   2.139  17.075  0.1040  0.8130 -0.0134
 5418SOL     OW27712   2.724   3.508   3.424 -0.7700  0.8893  0.4327
 5418SOL    HW127713   2.649   3.510   3.365 -0.6433 -0.7726  0.2150
 5418SOL    HW227714   2.734   3.600   3.448 -0.8816  0.4515  2.2197
 5419SOL     OW27715   3.491   2.794   5.128 -0.1260 -0.0299 -0.0544
 5419SOL    HW127716   3.404   2.830   5.115 -0.7472 -1.1125  1.0671
 5419SOL    HW227717   3.479   2.713   5.078  0.2433  0.6154 -1.1882
 5420SOL     OW27718   2.725   2.376  15.246 -0.2379 -0.1715 -0.4307
 5420SOL    HW127719   2.773   2.436  15.302 -0.4556  1.6883 -2.2560
 5420SOL    HW227720   2.663   2.434  15.202 -1.6856 -0.9669  0.5406
 5421SOL     OW27721   2.712   3.000   2.692 -0.5793  0.0042 -0.1921
 5421SOL    HW127722   2.663   3.039   2.765 -0.0701  0.3745 -0.0515
 5421SOL    HW227723   2.720   2.908   2.717  0.8767  0.5187  1.1920
 5422SOL     OW27724   3.780   2.756  16.396 -0.5651 -0.2925  0.1658
 5422SOL    HW127725   3.763   2.849  16.413 -1.2036 -0.5714  1.0654
 5422SOL    HW227726   3.736   2.743  16.312 -1.3826  2.4729  0.1626
 5423SOL     OW27727   1.834   0.815   2.854  0.3021  0.0069 -0.7319
 5423SOL    HW127728   1.916   0.788   2.895 -0.1009  3.6467  2.4775
 5423SOL    HW227729   1.877   0.826   2.769  1.0241  0.9786 -0.2438
 5424SOL     OW27730   1.728   1.356   7.460  0.6720 -0.3480 -0.2748
 5424SOL    HW127731   1.685   1.355   7.375 -0.8671  1.0925  0.5033
 5424SOL    HW227732   1.784   1.277   7.458  1.0592 -0.0862  0.2790
 5425SOL     OW27733   3.191   3.236   4.943 -0.1420  0.2405 -0.0583
 5425SOL    HW127734   3.168   3.265   4.855  0.2691 -0.9774 -0.5734
 5425SOL    HW227735   3.158   3.148   4.925 -1.8703  0.9512 -0.3454
 5426SOL     OW27736   2.019   0.792   0.926 -0.0549  0.2698  0.6446
 5426SOL    HW127737   2.073   0.829   0.855 -2.7973  1.5165 -0.7734
 5426SOL    HW227738   1.989   0.710   0.889 -0.3593 -0.1883  1.9027
 5427SOL     OW27739   1.330   1.098   3.475  0.8288 -0.1925 -0.9485
 5427SOL    HW127740   1.347   1.023   3.532  1.1218 -1.2209 -2.3694
 5427SOL    HW227741   1.367   1.169   3.527 -0.5990 -0.2553  0.1544
 5428SOL     OW27742   4.413   2.429   6.811  0.1175 -0.1881  1.1981
 5428SOL    HW127743   4.388   2.517   6.784  0.7473 -0.8614 -1.5634
 5428SOL    HW227744   4.338   2.385   6.771  1.7631 -0.5881 -1.4267
 5429SOL     OW27745   0.950   0.720   4.199 -0.2682  0.4426 -0.2540
 5429SOL    HW127746   0.930   0.634   4.162 -0.1823  0.0355  0.6352
 5429SOL    HW227747   1.045   0.724   4.204 -0.1569 -1.5776 -0.6490
 5430SOL     OW27748   3.092   3.601   7.630  0.1561  0.3052  0.3302
 5430SOL    HW127749   3.060   3.522   7.673  1.3813 -0.8159 -0.7931
 5430SOL    HW227750   3.182   3.615   7.661 -1.1669  1.7452  3.4615
 5431SOL     OW27751   2.157   3.131  15.222 -0.1428  0.1820  0.2258
 5431SOL    HW127752   2.109   3.135  15.305  1.4237 -1.8144  1.2015
 5431SOL    HW227753   2.118   3.208  15.179 -0.4694  0.1591  0.4805
 5432SOL     OW27754   3.296   1.855  16.527 -0.6671 -0.1288 -0.1991
 5432SOL    HW127755   3.317   1.899  16.609 -3.8244  2.0420 -0.5892
 5432SOL    HW227756   3.205   1.829  16.542 -0.1717 -1.1078  1.1314
 5433SOL     OW27757   3.021   2.629   0.294 -0.1491 -0.0531 -0.2546
 5433SOL    HW127758   2.995   2.537   0.296 -1.8075  0.4365  0.5810
 5433SOL    HW227759   2.938   2.677   0.289 -0.7640 -1.2237 -1.3604
 5434SOL     OW27760   4.650   1.139  16.360  0.1731  0.3672 -0.0304
 5434SOL    HW127761   4.649   1.068  16.425  0.0081 -0.5251 -1.0157
 5434SOL    HW227762   4.613   1.207  16.416  1.0369 -1.0985  2.3258
 5435SOL     OW27763   2.597   1.090  13.409 -0.3056 -0.0233 -0.4389
 5435SOL    HW127764   2.556   1.069  13.325  0.4617 -0.8552 -0.5986
 5435SOL    HW227765   2.678   1.041  13.405 -0.3509 -0.1852  0.5522
 5436SOL     OW27766   1.844   1.993   7.795 -0.3875 -0.2707  0.0040
 5436SOL    HW127767   1.758   1.974   7.832 -1.4684  1.4332 -1.7038
 5436SOL    HW227768   1.833   2.086   7.779  0.2484  0.0140  1.1872
 5437SOL     OW27769   1.478   3.204   7.445  0.1679  0.3799  0.4810
 5437SOL    HW127770   1.547   3.230   7.506  0.1671 -0.7327  0.9701
 5437SOL    HW227771   1.399   3.228   7.492 -0.2769  0.1004 -0.1248
 5438SOL     OW27772   1.357   2.233   7.793 -0.0792  0.2050  0.0130
 5438SOL    HW127773   1.296   2.161   7.805  0.2742  0.1263  1.3764
 5438SOL    HW227774   1.319   2.278   7.718  2.3097 -2.7227 -2.9695
 5439SOL     OW27775   4.247   1.090   4.170  0.2274 -0.1484 -0.8354
 5439SOL    HW127776   4.253   1.176   4.127  3.0599 -0.1850 -0.5062
 5439SOL    HW227777   4.314   1.042   4.121  1.7018  0.8782  0.1715
 5440SOL     OW27778   1.073   0.261   7.636 -0.7115 -0.0795 -0.1411
 5440SOL    HW127779   1.005   0.213   7.683 -3.4602  0.4579 -3.5295
 5440SOL    HW227780   1.079   0.346   7.680  0.2168 -1.2070  1.9095
 5441SOL     OW27781   4.699   1.135   5.568 -0.2165 -0.3638 -0.5750
 5441SOL    HW127782   0.036   1.069   5.530  1.5816 -0.2278  1.9122
 5441SOL    HW227783   0.041   1.172   5.629  1.5067 -1.6265 -1.6036
 5442SOL     OW27784   2.073   1.762   3.079  0.3036  0.4177 -0.0368
 5442SOL    HW127785   2.110   1.750   2.992  0.7482 -1.5426  0.4295
 5442SOL    HW227786   2.004   1.696   3.090  1.0228 -0.8237 -3.0827
 5443SOL     OW27787   0.624   4.293   1.298  0.1982 -0.3652 -0.5032
 5443SOL    HW127788   0.573   4.368   1.269 -0.5027 -1.0707 -1.0557
 5443SOL    HW227789   0.558   4.245   1.348  0.2927 -0.0401 -0.0634
 5444SOL     OW27790   4.211   2.641  16.610  0.2969 -0.8326  0.1650
 5444SOL    HW127791   4.235   2.555  16.644 -2.5006 -0.1121  3.8625
 5444SOL    HW227792   4.140   2.614  16.551  0.7207 -0.1622 -0.6664
 5445SOL     OW27793   3.483   1.105   4.571 -0.5230  0.0870  0.0191
 5445SOL    HW127794   3.402   1.064   4.541 -2.2576  2.5918  1.3025
 5445SOL    HW227795   3.474   1.093   4.666  3.5034 -1.2331  0.2515
 5446SOL     OW27796   2.801   2.216   3.168 -0.1810 -0.8461 -0.3003
 5446SOL    HW127797   2.795   2.310   3.182  1.7179 -0.6599 -0.7449
 5446SOL    HW227798   2.864   2.223   3.096  0.4413  1.4163  0.4567
 5447SOL     OW27799   0.499   1.903  15.192  0.0698  0.0276 -0.0122
 5447SOL    HW127800   0.509   1.845  15.116  1.1524 -0.6597  0.6544
 5447SOL    HW227801   0.477   1.842  15.262  3.3214 -1.7621 -0.5272
 5448SOL     OW27802   0.527   0.072   6.488 -0.6778  0.3620 -0.0730
 5448SOL    HW127803   0.470   0.088   6.563  1.0394 -0.0139  1.3132
 5448SOL    HW227804   0.455   0.033   6.439  0.3044 -1.7501  0.1676
 5449SOL     OW27805   3.295   2.818   3.272 -0.4639  0.9878  0.1165
 5449SOL    HW127806   3.311   2.809   3.366  2.2342  0.1825 -0.4467
 5449SOL    HW227807   3.339   2.738   3.243 -0.5889  0.3361  1.7185
 5450SOL     OW27808   1.314   2.248   9.088 -0.0579 -0.4689  0.1888
 5450SOL    HW127809   1.251   2.296   9.034  0.7902 -0.4830 -0.8141
 5450SOL    HW227810   1.398   2.283   9.058 -0.9724  0.0168 -1.7912
 5451SOL     OW27811   4.095   1.625   4.580  0.1884 -0.0831  0.1255
 5451SOL    HW127812   4.176   1.660   4.619  0.2279 -0.5468  0.4653
 5451SOL    HW227813   4.044   1.604   4.658  0.4972 -2.4488 -0.2905
 5452SOL     OW27814   3.150   4.568  10.978 -0.0591  0.1436 -0.4164
 5452SOL    HW127815   3.154   4.540  10.886 -1.2438 -2.7231  0.3971
 5452SOL    HW227816   3.243   4.569  10.998 -0.4229  0.7327  1.2199
 5453SOL     OW27817   1.883   1.596  11.262 -0.3600  0.2740  0.0697
 5453SOL    HW127818   1.898   1.515  11.213  0.2797 -0.6280  1.7448
 5453SOL    HW227819   1.880   1.557  11.349 -0.4639  2.0504  0.8623
 5454SOL     OW27820   3.500   3.512   8.973 -0.2015 -0.3571  0.7944
 5454SOL    HW127821   3.559   3.473   9.038  0.4283  0.7070  0.8527
 5454SOL    HW227822   3.419   3.515   9.025 -0.8816  1.5293 -0.3897
 5455SOL     OW27823   3.400   2.700   7.913 -0.3530  0.0934 -0.3075
 5455SOL    HW127824   3.372   2.774   7.966  0.3709  1.8136 -2.3395
 5455SOL    HW227825   3.385   2.633   7.981  0.1595  0.0837 -0.2040
 5456SOL     OW27826   4.010   4.460  16.786  0.0231 -0.2655  0.5149
 5456SOL    HW127827   3.994   4.534  16.846  0.8005  0.4674 -0.1743
 5456SOL    HW227828   4.001   4.502  16.700  1.3382  1.6748  1.3233
 5457SOL     OW27829   2.040   4.491   1.939 -0.2772  0.1797  0.3960
 5457SOL    HW127830   1.997   4.421   1.889 -0.9504 -0.4671  1.9063
 5457SOL    HW227831   2.098   4.517   1.867 -0.3146  0.0605  0.3228
 5458SOL     OW27832   4.540   0.954   0.059 -0.3146  0.2302 -0.5253
 5458SOL    HW127833   4.582   0.933   0.142  0.3958 -0.4007 -1.0511
 5458SOL    HW227834   4.457   0.907   0.069  0.0075 -0.1927  0.0858
 5459SOL     OW27835   3.969   0.535  14.593  0.2777 -0.4544 -0.1747
 5459SOL    HW127836   3.896   0.535  14.532 -0.6579 -1.1054  0.9488
 5459SOL    HW227837   3.925   0.526  14.677  1.0748 -0.6012  0.2327
 5460SOL     OW27838   2.569   3.352  16.513 -0.7299 -0.3897  0.2906
 5460SOL    HW127839   2.543   3.289  16.445 -0.6951 -1.3324  1.1648
 5460SOL    HW227840   2.484   3.395  16.527 -0.5962  0.1082 -0.3789
 5461SOL     OW27841   2.643   3.982   6.645 -0.5448  0.0706  0.1474
 5461SOL    HW127842   2.582   3.917   6.609 -2.0122  1.4661  0.1085
 5461SOL    HW227843   2.715   3.923   6.667 -1.6775 -1.6928 -0.7874
 5462SOL     OW27844   3.416   0.702   4.451  0.6394  0.1304  0.5044
 5462SOL    HW127845   3.420   0.777   4.510 -0.7881  0.6986 -0.1231
 5462SOL    HW227846   3.482   0.642   4.486  1.3581  1.2238  1.0500
 5463SOL     OW27847   0.231   2.888   9.361  0.3295 -0.2470  0.8598
 5463SOL    HW127848   0.223   2.962   9.422  2.0104 -2.3714  3.6577
 5463SOL    HW227849   0.320   2.867   9.391  0.6476  1.6494  1.2316
 5464SOL     OW27850   3.216   2.494   4.342 -0.0844 -0.0895 -0.0039
 5464SOL    HW127851   3.159   2.438   4.289  0.2146 -0.5896  0.1968
 5464SOL    HW227852   3.207   2.461   4.432  1.0652 -0.7225 -0.1185
 5465SOL     OW27853   1.307   0.909   8.288  0.1559 -0.1645 -0.0814
 5465SOL    HW127854   1.348   0.955   8.214 -0.0012 -1.8849 -1.2347
 5465SOL    HW227855   1.359   0.829   8.294  2.2133  0.9884 -2.2998
 5466SOL     OW27856   3.318   3.983   7.839  0.0261  0.2730  0.1286
 5466SOL    HW127857   3.230   4.008   7.812 -0.1707 -0.7985 -0.2371
 5466SOL    HW227858   3.346   4.060   7.889 -2.1571  1.2967 -0.2538
 5467SOL     OW27859   0.485   3.135   8.195  0.3944 -0.0428  0.7511
 5467SOL    HW127860   0.456   3.049   8.165  0.4727 -0.1961  1.1193
 5467SOL    HW227861   0.575   3.146   8.165  0.5220 -3.0558  0.0654
 5468SOL     OW27862   3.779   3.238  14.290 -0.1924 -0.6150 -0.2737
 5468SOL    HW127863   3.694   3.280  14.298  0.4622  0.5019  0.8758
 5468SOL    HW227864   3.751   3.149  14.268 -2.1987  0.4529 -2.0114
 5469SOL     OW27865   4.007   3.806  11.356 -0.1133 -0.4812  0.2788
 5469SOL    HW127866   3.981   3.869  11.289  0.2329 -1.5470 -0.8658
 5469SOL    HW227867   3.956   3.727  11.334 -0.2241 -1.1035  2.7800
 5470SOL     OW27868   1.363   3.128  13.087  0.5095  0.4129  0.5052
 5470SOL    HW127869   1.354   3.193  13.016 -1.4136  1.6771  1.8798
 5470SOL    HW227870   1.455   3.128  13.111  0.7189  0.5230 -0.2783
 5471SOL     OW27871   3.791   1.906   6.419  0.1553  1.1023 -0.5793
 5471SOL    HW127872   3.769   1.999   6.430 -2.3305  0.7061 -1.9366
 5471SOL    HW227873   3.885   1.921   6.412  0.5791 -1.5384 -0.3036
 5472SOL     OW27874   1.742   2.544  12.187 -0.0628  0.0663  0.0777
 5472SOL    HW127875   1.727   2.574  12.097  3.8327 -0.8430 -0.8866
 5472SOL    HW227876   1.664   2.494  12.210 -0.3012  0.5659  0.3704
 5473SOL     OW27877   1.360   3.520   6.686 -0.0491  0.0937  0.7831
 5473SOL    HW127878   1.383   3.427   6.680  0.3350  0.0825  2.2730
 5473SOL    HW227879   1.423   3.569   6.739 -0.7668  2.3751 -0.4859
 5474SOL     OW27880   0.728   1.579   3.401  0.2018 -0.6459 -0.5138
 5474SOL    HW127881   0.657   1.635   3.367  0.3242  0.8367  1.6395
 5474SOL    HW227882   0.677   1.499   3.416 -1.8948  0.5222 -1.3387
 5475SOL     OW27883   2.877   3.520   7.920 -0.2295 -0.1512  0.3416
 5475SOL    HW127884   2.890   3.432   7.884 -0.3843 -0.7457  1.7432
 5475SOL    HW227885   2.790   3.510   7.958 -0.8817  2.6443 -0.4281
 5476SOL     OW27886   4.110   1.337   8.692  0.0052 -0.3718 -0.1911
 5476SOL    HW127887   4.150   1.253   8.710 -0.9502 -1.0989 -1.4549
 5476SOL    HW227888   4.119   1.324   8.597 -0.0646 -1.7627 -0.0058
 5477SOL     OW27889   3.301   3.345  13.613 -0.4679  0.1378 -0.8412
 5477SOL    HW127890   3.289   3.283  13.685 -1.8335  0.1836 -1.0396
 5477SOL    HW227891   3.230   3.405  13.635 -0.7483 -0.4853 -0.0552
 5478SOL     OW27892   2.095   0.938   2.567  0.3101  0.1134  0.2113
 5478SOL    HW127893   2.183   0.906   2.545  0.8751  0.8335  1.4310
 5478SOL    HW227894   2.063   0.861   2.615  0.6991  1.4136  2.5747
 5479SOL     OW27895   4.330   0.125  14.751  0.2323  0.0235  0.2054
 5479SOL    HW127896   4.295   0.145  14.838  1.2936  0.0393  0.6306
 5479SOL    HW227897   4.320   0.212  14.712  2.1683 -0.4977 -1.4709
 5480SOL     OW27898   2.156   0.558   5.649  0.1301  0.6549 -0.4017
 5480SOL    HW127899   2.070   0.551   5.608 -0.5032  2.8219  0.5871
 5480SOL    HW227900   2.205   0.532   5.571  1.8464  0.0225  0.8933
 5481SOL     OW27901   0.418   0.941   8.311 -0.0369  0.3634 -0.3679
 5481SOL    HW127902   0.509   0.933   8.280 -0.0980 -0.7150 -0.2545
 5481SOL    HW227903   0.428   0.894   8.394 -1.2234 -2.1172 -1.6555
 5482SOL     OW27904   2.147   3.238   7.896 -0.3729 -0.2401 -0.0959
 5482SOL    HW127905   2.090   3.305   7.859  0.4395 -0.2113 -1.2973
 5482SOL    HW227906   2.107   3.213   7.980 -0.8064 -3.4859 -1.2756
 5483SOL     OW27907   0.101   1.210   6.091 -0.0960  0.3711 -0.7678
 5483SOL    HW127908   0.024   1.163   6.058 -0.5106  0.4150  0.1397
 5483SOL    HW227909   0.161   1.207   6.017 -0.1932 -0.2476 -0.8248
 5484SOL     OW27910   2.172   3.928   6.704  0.1379 -0.2808 -0.4920
 5484SOL    HW127911   2.260   3.964   6.715  1.3295 -3.0033 -1.1654
 5484SOL    HW227912   2.151   3.923   6.611 -0.8905 -2.0306 -0.1741
 5485SOL     OW27913   0.550   1.064  17.512 -0.2017 -0.0696  0.0939
 5485SOL    HW127914   0.633   1.063  17.561 -0.4436  1.3015  0.5352
 5485SOL    HW227915   0.530   1.158  17.515  0.9376  0.1547  0.7823
 5486SOL     OW27916   2.602   1.767   0.013  0.0974  0.3763  0.0481
 5486SOL    HW127917   2.524   1.721   0.044  0.6703 -1.1976 -0.8830
 5486SOL    HW227918   2.640   1.802   0.094 -0.7679  0.4495  0.4222
 5487SOL     OW27919   3.284   0.789   5.876  0.0484  0.4263  0.0693
 5487SOL    HW127920   3.288   0.693   5.882  1.7692  0.5704  1.1421
 5487SOL    HW227921   3.370   0.803   5.915  1.7430 -0.4070 -3.3554
 5488SOL     OW27922   4.231   4.351   3.638 -0.2032 -0.3260  0.3625
 5488SOL    HW127923   4.319   4.320   3.616  0.7195  0.7982  2.5541
 5488SOL    HW227924   4.225   4.352   3.733 -0.7285  0.6283  0.3141
 5489SOL     OW27925   1.619   2.872   1.529  0.6909 -0.1901 -0.4100
 5489SOL    HW127926   1.630   2.881   1.623 -2.8493  1.2532 -0.1200
 5489SOL    HW227927   1.590   2.782   1.536  0.2949 -0.1006 -0.9029
 5490SOL     OW27928   0.463   4.500   1.227  0.0729  0.1838 -0.0187
 5490SOL    HW127929   0.388   4.469   1.176 -1.5928 -0.6848  2.9638
 5490SOL    HW227930   0.423   4.572   1.276  1.6540  1.2730 -0.3189
 5491SOL     OW27931   4.444   3.130   8.378  0.5546 -0.2736 -0.1862
 5491SOL    HW127932   4.456   3.219   8.344  1.6809 -0.7751 -1.1073
 5491SOL    HW227933   4.496   3.099   8.304 -1.7794  0.3252 -2.0665
 5492SOL     OW27934   2.573   1.345   6.746  0.2887 -0.2474  0.0941
 5492SOL    HW127935   2.533   1.429   6.770 -0.7547 -0.3046 -1.4884
 5492SOL    HW227936   2.511   1.315   6.680  0.1764  1.5168 -0.6079
 5493SOL     OW27937   3.521   3.035   8.231  0.0937 -0.6887  0.7894
 5493SOL    HW127938   3.606   3.024   8.187 -0.0403 -1.3060  0.6800
 5493SOL    HW227939   3.533   3.113   8.284 -2.5425 -0.6233  1.2832
 5494SOL     OW27940   0.750   2.730   1.517  0.4779  0.7778  0.0704
 5494SOL    HW127941   0.812   2.700   1.451  1.1261 -0.9892  1.4718
 5494SOL    HW227942   0.673   2.680   1.493  0.3725  1.9965 -2.0760
 5495SOL     OW27943   4.712   1.281  11.445 -0.9057 -0.4908 -0.2068
 5495SOL    HW127944   4.689   1.371  11.471 -0.1047  0.5189 -3.0017
 5495SOL    HW227945   0.058   1.260  11.510  1.1433 -1.5614 -2.7046
 5496SOL     OW27946   3.440   4.709   6.995 -0.2409 -0.4337 -0.1149
 5496SOL    HW127947   3.400   4.647   6.935  0.0923  0.3608 -1.1441
 5496SOL    HW227948   3.408   4.685   7.082  1.2654  1.8868  1.0815
 5497SOL     OW27949   0.866   2.590   7.050 -0.2857 -0.6307  0.1178
 5497SOL    HW127950   0.797   2.644   7.090  0.0814 -1.2272  1.5333
 5497SOL    HW227951   0.850   2.618   6.960 -0.0097  3.1350  1.2389
 5498SOL     OW27952   1.452   2.477   1.359 -1.0937  0.1687  0.1185
 5498SOL    HW127953   1.413   2.444   1.277  0.1820 -0.6948 -0.1537
 5498SOL    HW227954   1.403   2.428   1.425 -1.5379 -0.1221 -0.4227
 5499SOL     OW27955   1.323   0.563   1.991  0.0838  0.2281  0.2082
 5499SOL    HW127956   1.336   0.636   2.052 -1.2004 -0.1147  0.8898
 5499SOL    HW227957   1.412   0.528   1.985  0.9853  2.3738  0.9842
 5500SOL     OW27958   2.339   0.601   8.750  0.4000 -0.2130  0.0001
 5500SOL    HW127959   2.341   0.511   8.718  2.4534  0.3032 -1.3521
 5500SOL    HW227960   2.335   0.646   8.665 -0.8480 -1.5402 -0.6486
 5501SOL     OW27961   2.187   1.824  17.514 -1.0718 -0.3855 -0.5243
 5501SOL    HW127962   2.201   1.870  17.597 -3.6224 -1.2421  0.3647
 5501SOL    HW227963   2.103   1.779  17.522 -1.6020  0.5399 -0.9727
 5502SOL     OW27964   1.266   1.334   4.242 -0.8966 -0.3290 -0.0849
 5502SOL    HW127965   1.258   1.355   4.335  0.5136 -0.4488  0.0643
 5502SOL    HW227966   1.361   1.332   4.232 -1.1461 -2.2871 -2.1073
 5503SOL     OW27967   3.639   0.399  15.051 -0.2628 -0.8359 -0.5336
 5503SOL    HW127968   3.623   0.487  15.016 -1.2509 -0.3237  1.1908
 5503SOL    HW227969   3.573   0.341  15.013 -1.8232  1.6886 -1.7228
 5504SOL     OW27970   3.695   1.044   6.885 -0.4492 -0.3956 -0.5063
 5504SOL    HW127971   3.751   1.028   6.809  0.7940 -0.0471  0.3504
 5504SOL    HW227972   3.737   0.990   6.952 -0.0509  0.8152  0.2122
 5505SOL     OW27973   3.873   1.352   2.821 -0.4807 -0.0312  0.3847
 5505SOL    HW127974   3.942   1.286   2.828  1.4787  2.0040  0.7213
 5505SOL    HW227975   3.910   1.415   2.759 -2.7478  0.2743 -0.6442
 5506SOL     OW27976   2.009   4.397   6.957  0.0302 -0.1724 -0.3992
 5506SOL    HW127977   1.962   4.395   7.040 -1.8804 -0.9264 -1.5076
 5506SOL    HW227978   2.062   4.474   6.978 -0.0672  0.2932 -1.8135
 5507SOL     OW27979   1.402   1.360   8.482 -0.6433 -0.3155  0.2219
 5507SOL    HW127980   1.360   1.274   8.484 -1.5315  0.0794 -0.8954
 5507SOL    HW227981   1.492   1.337   8.459 -0.4551  0.4106  0.2424
 5508SOL     OW27982   1.935   2.239   3.219  0.0568 -0.2004 -0.0529
 5508SOL    HW127983   1.889   2.297   3.158  0.0781  1.7774  1.7937
 5508SOL    HW227984   1.947   2.161   3.166  0.6160 -0.6725  0.7730
 5509SOL     OW27985   1.288   4.681   0.508 -0.4426  1.0671 -0.2893
 5509SOL    HW127986   1.348   0.019   0.463  0.8174  2.9706  3.8689
 5509SOL    HW227987   1.203   4.712   0.478 -1.3609 -0.6878  0.5333
 5510SOL     OW27988   0.793   2.648   4.868 -0.2125  0.9880 -0.3104
 5510SOL    HW127989   0.846   2.711   4.917 -0.9675  0.3018  1.3760
 5510SOL    HW227990   0.783   2.698   4.786  1.4082 -2.6389 -2.6862
 5511SOL     OW27991   1.260   3.569  13.726 -0.2436  0.5789  0.0521
 5511SOL    HW127992   1.279   3.487  13.773 -0.2273  2.0666  2.6477
 5511SOL    HW227993   1.223   3.531  13.647  1.2377 -1.6973  0.4431
 5512SOL     OW27994   3.068   0.120   7.101  0.3579  0.1459  0.1079
 5512SOL    HW127995   3.151   0.078   7.123 -0.7036 -1.1225  1.6953
 5512SOL    HW227996   3.074   0.132   7.006 -1.2877  0.8175  0.0816
 5513SOL     OW27997   3.178   3.601   3.994 -0.2929  0.2322 -0.4976
 5513SOL    HW127998   3.182   3.637   3.906  2.9394 -0.9589 -0.8061
 5513SOL    HW227999   3.216   3.672   4.046 -0.2076 -0.9786  1.1016
 5514SOL     OW28000   3.927   3.642   1.176 -0.5518 -0.0708 -0.1116
 5514SOL    HW128001   3.921   3.717   1.117 -1.2886 -0.4500 -0.5204
 5514SOL    HW228002   3.856   3.584   1.150 -0.2331 -0.7573  0.5784
 5515SOL     OW28003   4.149   0.179   6.599 -0.4632 -0.4496  0.2149
 5515SOL    HW128004   4.228   0.126   6.587  0.4850  0.7970  0.9878
 5515SOL    HW228005   4.151   0.196   6.693  1.6322  1.5323 -0.1878
 5516SOL     OW28006   3.322   3.556   8.414  0.1653 -0.2412  0.0838
 5516SOL    HW128007   3.242   3.595   8.378 -0.8213 -0.2698  2.2793
 5516SOL    HW228008   3.368   3.634   8.444 -0.1681 -0.6324  1.5870
 5517SOL     OW28009   2.514   0.481   6.954  0.4988 -0.5086 -0.2953
 5517SOL    HW128010   2.511   0.502   7.047  0.0988  0.1128 -0.4473
 5517SOL    HW228011   2.496   0.568   6.918  1.5936 -1.0869 -2.2363
 5518SOL     OW28012   0.041   4.345  11.079  0.0153 -0.5686  0.0471
 5518SOL    HW128013   0.056   4.305  10.994 -1.8984 -0.3986 -0.3864
 5518SOL    HW228014   0.014   4.274  11.138  1.9430 -1.3542 -0.0156
 5519SOL     OW28015   0.240   2.016  16.137  0.0993 -0.5348 -0.3370
 5519SOL    HW128016   0.229   2.043  16.045 -2.1413  0.9343  0.3615
 5519SOL    HW228017   0.238   2.094  16.192  1.5555  0.0853 -1.1583
 5520SOL     OW28018   3.627   2.595   0.376  0.6074  0.8865 -0.5678
 5520SOL    HW128019   3.701   2.538   0.358 -0.4480 -1.0020  1.0647
 5520SOL    HW228020   3.583   2.558   0.453 -0.7810  1.0257 -1.2985
 5521SOL     OW28021   1.540   4.227   5.453 -0.3108  0.0368 -0.0260
 5521SOL    HW128022   1.448   4.203   5.464 -1.5120  4.5494 -0.2091
 5521SOL    HW228023   1.526   4.320   5.468 -1.7165 -0.0543 -0.7166
 5522SOL     OW28024   1.125   4.432  13.665 -0.3117 -0.6311 -0.8981
 5522SOL    HW128025   1.153   4.457  13.577 -1.5218  2.9974 -0.2684
 5522SOL    HW228026   1.095   4.343  13.648 -3.8965  0.0695  1.6867
 5523SOL     OW28027   0.459   2.509   3.146  0.5236 -0.6247 -1.1333
 5523SOL    HW128028   0.519   2.499   3.219 -0.1268 -0.8201 -0.6287
 5523SOL    HW228029   0.377   2.507   3.195  1.6007 -1.9358  0.6071
 5524SOL     OW28030   4.383   2.470   4.477  0.0220 -0.1545  0.1149
 5524SOL    HW128031   4.373   2.444   4.385  1.3626 -1.3329  0.2969
 5524SOL    HW228032   4.475   2.497   4.477  0.1311 -0.4836  2.0580
 5525SOL     OW28033   0.860   0.277   6.784  0.2160 -0.4500 -0.3524
 5525SOL    HW128034   0.778   0.301   6.741 -0.4059 -0.8412  0.6090
 5525SOL    HW228035   0.876   0.194   6.739 -0.7251  0.2821 -2.0586
 5526SOL     OW28036   2.816   3.093  16.793  0.1055 -0.2532  0.1066
 5526SOL    HW128037   2.850   3.011  16.758  0.7283 -0.6031  1.5371
 5526SOL    HW228038   2.789   3.066  16.881 -0.8155 -0.3802 -0.2105
 5527SOL     OW28039   4.293   1.221   7.320  0.2151  0.3963  0.0603
 5527SOL    HW128040   4.293   1.316   7.328 -0.9849  0.5038 -1.1572
 5527SOL    HW228041   4.383   1.197   7.300 -0.7665 -3.0325 -0.2206
 5528SOL     OW28042   4.532   1.381  14.981 -0.3972  0.1391 -0.1798
 5528SOL    HW128043   4.589   1.304  14.986 -0.3181  0.1477 -0.9138
 5528SOL    HW228044   4.564   1.419  14.899  1.0649  0.4225  0.5050
 5529SOL     OW28045   3.164   2.940   7.452  0.8537 -0.2591 -0.6007
 5529SOL    HW128046   3.211   2.875   7.504 -0.8497 -1.1408 -0.1964
 5529SOL    HW228047   3.226   3.012   7.447  1.1256 -0.6021 -2.2679
 5530SOL     OW28048   2.722   4.236  15.903  0.1189 -0.3695 -0.6729
 5530SOL    HW128049   2.762   4.156  15.869  0.1668 -1.0459  0.9708
 5530SOL    HW228050   2.800   4.283  15.933 -0.1440 -1.1682  1.2441
 5531SOL     OW28051   0.980   2.309   2.473  0.3361  0.2891 -0.3101
 5531SOL    HW128052   0.948   2.383   2.525 -0.7119 -1.9343  2.2347
 5531SOL    HW228053   0.937   2.234   2.514 -1.6581  0.8580 -1.3710
 5532SOL     OW28054   2.241   2.790   7.971 -0.3378  0.4436  0.0370
 5532SOL    HW128055   2.243   2.878   7.933 -1.6040  1.2266  1.8073
 5532SOL    HW228056   2.152   2.782   8.005 -0.4050  1.0510 -0.0021
 5533SOL     OW28057   4.211   1.817   7.969 -0.0527 -0.0852 -0.1724
 5533SOL    HW128058   4.246   1.838   8.056 -0.5553 -1.6770  0.4245
 5533SOL    HW228059   4.119   1.797   7.986 -0.4495  1.2783 -0.7053
 5534SOL     OW28060   0.051   4.529   6.241 -0.3436 -0.3198 -0.1917
 5534SOL    HW128061   0.091   4.527   6.154  0.9857 -0.9139  0.4351
 5534SOL    HW228062   4.706   4.460   6.233 -0.6146  0.1634 -2.1373
 5535SOL     OW28063   2.255   4.330   6.848  0.1866  0.1644  0.1285
 5535SOL    HW128064   2.160   4.328   6.840  0.0762  2.2732  0.7870
 5535SOL    HW228065   2.281   4.244   6.816  0.6698  0.7921 -1.1741
 5536SOL     OW28066   1.036   4.536   7.101  0.4742  0.1551  0.2999
 5536SOL    HW128067   1.132   4.535   7.097  0.3379 -1.6962 -2.0587
 5536SOL    HW228068   1.020   4.603   7.034 -0.9402  1.3039  1.7813
 5537SOL     OW28069   3.388   1.659   0.008  0.0585  0.7821 -0.3636
 5537SOL    HW128070   3.305   1.691  17.661 -0.7671  2.3456  3.1339
 5537SOL    HW228071   3.429   1.738   0.043  0.2951  0.6724 -0.3907
 5538SOL     OW28072   1.338   3.616  16.807  0.3146  0.1197 -0.0321
 5538SOL    HW128073   1.379   3.654  16.885  1.4115 -2.4012  0.6130
 5538SOL    HW228074   1.273   3.561  16.851 -0.3420  0.9000 -0.0208
 5539SOL     OW28075   2.795   1.344   2.514 -0.0486  0.2474 -0.1830
 5539SOL    HW128076   2.800   1.325   2.420 -0.0333  1.6142 -0.4608
 5539SOL    HW228077   2.790   1.440   2.507  2.5124  0.5229  1.7903
 5540SOL     OW28078   0.285   2.044  15.342  0.3347  0.2083 -0.4311
 5540SOL    HW128079   0.356   2.021  15.281  0.1442  0.3265 -0.6996
 5540SOL    HW228080   0.295   1.972  15.404 -0.3756  1.0508  0.6538
 5541SOL     OW28081   4.269   3.897  17.508  0.2002  0.2171 -0.5697
 5541SOL    HW128082   4.270   3.985  17.546  0.7778 -0.5213  1.1479
 5541SOL    HW228083   4.201   3.859  17.564  0.4203  0.0001 -0.4483
 5542SOL     OW28084   3.676   3.539   5.122  0.2847  0.1697 -0.6627
 5542SOL    HW128085   3.622   3.561   5.046 -0.6446  0.3916  0.0608
 5542SOL    HW228086   3.632   3.463   5.159 -0.0186  0.7174  0.1189
 5543SOL     OW28087   0.603   4.537   3.202  0.1569  0.2879  0.7708
 5543SOL    HW128088   0.658   4.459   3.212  0.3616  0.6150  2.2457
 5543SOL    HW228089   0.542   4.515   3.132 -0.6746 -0.6087  1.7834
 5544SOL     OW28090   1.234   2.547   2.858  0.2400 -0.2415 -0.4531
 5544SOL    HW128091   1.273   2.460   2.849  0.7230  0.0584 -1.2689
 5544SOL    HW228092   1.315   2.599   2.862  0.2084 -0.3378  1.9402
 5545SOL     OW28093   1.099   0.185   2.681  0.3307 -0.1017 -0.0933
 5545SOL    HW128094   1.035   0.140   2.626  0.3884  1.7339 -1.6568
 5545SOL    HW228095   1.041   0.229   2.743  0.6985 -1.7955  1.4391
 5546SOL     OW28096   1.636   2.481   2.666  0.2463  0.4417  0.0137
 5546SOL    HW128097   1.576   2.471   2.592 -0.4271 -1.2489  0.7945
 5546SOL    HW228098   1.718   2.448   2.628 -0.6299 -1.3681 -0.3031
 5547SOL     OW28099   3.224   0.824   3.625  0.3140  0.1680 -0.5278
 5547SOL    HW128100   3.310   0.807   3.662  0.5241 -0.9091 -1.4947
 5547SOL    HW228101   3.220   0.918   3.609 -0.5393 -0.0350 -1.5642
 5548SOL     OW28102   3.278   3.789   9.358  0.0739 -0.6061  0.3927
 5548SOL    HW128103   3.228   3.826   9.431 -1.9307 -0.4202 -1.0794
 5548SOL    HW228104   3.228   3.711   9.336 -2.1390  0.7290  0.7179
 5549SOL     OW28105   0.246   3.089  13.628 -0.4374 -0.1809  0.0163
 5549SOL    HW128106   0.324   3.057  13.582 -0.0913 -1.3938  1.4489
 5549SOL    HW228107   0.219   3.019  13.687  1.3776 -1.8093 -1.0704
 5550SOL     OW28108   0.050   3.734  12.842  0.0961  0.4620 -0.0989
 5550SOL    HW128109   4.721   3.815  12.831 -0.1041  0.1916 -1.1575
 5550SOL    HW228110   4.708   3.662  12.831  0.8563  0.0504 -1.7338
 5551SOL     OW28111   3.205   1.086   3.546 -0.1090 -0.0893 -0.2606
 5551SOL    HW128112   3.297   1.108   3.531 -0.3350  0.8520 -0.3030
 5551SOL    HW228113   3.170   1.161   3.497 -1.7006 -0.9729 -0.4764
 5552SOL     OW28114   0.128   3.287  11.955 -0.5795 -1.1184  0.4944
 5552SOL    HW128115   0.060   3.313  12.017  0.9352 -0.3733  1.8566
 5552SOL    HW228116   0.075   3.245  11.887 -3.1383  0.3659  1.5594
 5553SOL     OW28117   4.562   3.643   7.069 -0.6056 -0.2612  0.1564
 5553SOL    HW128118   4.638   3.701   7.077 -0.4079 -0.3631 -0.9432
 5553SOL    HW228119   4.601   3.573   7.016  2.5220  0.4139  1.5150
 5554SOL     OW28120   3.788   1.362   6.883  0.4106 -1.0509  0.1969
 5554SOL    HW128121   3.762   1.435   6.826  1.7559  0.7863  1.9759
 5554SOL    HW228122   3.872   1.336   6.846  0.0014  0.8287 -2.0447
 5555SOL     OW28123   1.797   2.990   6.481 -0.0068  0.4292  0.3399
 5555SOL    HW128124   1.874   2.934   6.485 -0.2463 -0.0881 -2.1458
 5555SOL    HW228125   1.727   2.930   6.505  1.6410 -1.1205  1.2436
 5556SOL     OW28126   4.294   0.504   3.239 -0.7801 -0.0141  0.1874
 5556SOL    HW128127   4.246   0.586   3.228 -2.4113 -0.8054  1.2617
 5556SOL    HW228128   4.380   0.529   3.271 -0.7397 -1.1597  1.0019
 5557SOL     OW28129   3.238   4.687   8.914  0.5625 -0.1893 -0.1044
 5557SOL    HW128130   3.321   4.715   8.876 -1.3982  3.1782 -1.8906
 5557SOL    HW228131   3.182   0.040   8.891  0.1886 -0.5452 -0.3453
 5558SOL     OW28132   1.550   2.465   8.111 -0.4559  0.1585  0.0539
 5558SOL    HW128133   1.604   2.397   8.152 -2.6369 -1.6477 -0.0473
 5558SOL    HW228134   1.560   2.454   8.017 -1.2546 -1.6567  0.1692
 5559SOL     OW28135   3.248   3.410   1.275 -0.1239 -0.2271  0.1911
 5559SOL    HW128136   3.341   3.427   1.287 -0.2588  0.2401  0.5720
 5559SOL    HW228137   3.219   3.492   1.234  0.7581  0.9865  2.0085
 5560SOL     OW28138   1.834   3.920  15.161  0.5177 -0.2401  0.5383
 5560SOL    HW128139   1.829   3.861  15.235 -1.0883  0.9652  1.4021
 5560SOL    HW228140   1.918   3.964  15.176  0.6103 -0.2603  0.1007
 5561SOL     OW28141   0.421   3.739   5.577  0.3101 -0.2212  0.1519
 5561SOL    HW128142   0.401   3.724   5.670 -0.1166 -2.5230 -0.3186
 5561SOL    HW228143   0.425   3.834   5.568 -0.3558 -0.4973 -2.8681
 5562SOL     OW28144   3.184   0.087   2.593  0.0819 -0.7100 -0.3392
 5562SOL    HW128145   3.176   0.005   2.545 -0.9238  0.4191 -2.1221
 5562SOL    HW228146   3.166   0.151   2.523 -0.5863  0.8535  1.2430
 5563SOL     OW28147   1.626   1.229  11.135  0.1713  0.2257  0.0811
 5563SOL    HW128148   1.572   1.250  11.212  2.0628 -0.9606  1.7255
 5563SOL    HW228149   1.577   1.268  11.063  0.4271 -1.1255 -0.8128
 5564SOL     OW28150   3.280   4.449   3.581 -0.2201 -0.3720 -0.6418
 5564SOL    HW128151   3.189   4.477   3.576  1.1184  4.0903 -0.0087
 5564SOL    HW228152   3.304   4.491   3.663 -0.1364 -0.6692 -0.5118
 5565SOL     OW28153   3.992   3.740  14.264  0.2443  0.0425  0.4914
 5565SOL    HW128154   3.935   3.680  14.312 -0.2774 -0.3322 -0.6002
 5565SOL    HW228155   3.968   3.824  14.303 -1.9638 -0.0898 -0.5864
 5566SOL     OW28156   4.255   2.344  10.069 -0.0908 -0.0796 -0.1114
 5566SOL    HW128157   4.264   2.438  10.055  0.2471 -0.1088 -0.0970
 5566SOL    HW228158   4.321   2.315  10.132  0.3938  3.1183  0.8461
 5567SOL     OW28159   4.061   4.519  16.024 -0.1942 -0.1552  0.3375
 5567SOL    HW128160   4.124   4.502  15.953 -2.0790 -1.9439 -0.9054
 5567SOL    HW228161   4.057   4.428  16.054  3.4199 -0.0233  1.2749
 5568SOL     OW28162   3.911   0.943   0.702  0.5589  0.1221  0.0260
 5568SOL    HW128163   3.831   0.926   0.752  1.5832  1.1597  2.0100
 5568SOL    HW228164   3.922   0.858   0.660  2.2550  0.3528  0.0143
 5569SOL     OW28165   3.383   4.006  11.688 -0.2130  0.3022  0.1824
 5569SOL    HW128166   3.429   3.926  11.710 -1.0570 -0.3652 -0.4953
 5569SOL    HW228167   3.458   4.064  11.674 -1.8521  2.5826  0.7973
 5570SOL     OW28168   3.780   0.294   7.174 -0.7821  0.2207 -0.0579
 5570SOL    HW128169   3.778   0.227   7.106  1.5855 -0.9626  1.0565
 5570SOL    HW228170   3.866   0.289   7.214 -0.2694  0.3578 -1.1304
 5571SOL     OW28171   3.098   2.272   6.729  0.6572 -0.1872  0.0205
 5571SOL    HW128172   3.141   2.189   6.750  0.6298 -0.2710 -0.2565
 5571SOL    HW228173   3.071   2.262   6.638 -2.4492  0.5562  0.8653
 5572SOL     OW28174   4.499   2.936  10.008 -0.4829  0.0792 -0.4208
 5572SOL    HW128175   4.524   3.018   9.965  0.5243 -0.1132 -0.1803
 5572SOL    HW228176   4.561   2.942  10.080 -1.5686 -0.6222  0.5801
 5573SOL     OW28177   2.615   1.659   4.172  0.6886  0.8275  0.5791
 5573SOL    HW128178   2.589   1.568   4.158 -2.2860  1.5443  1.4502
 5573SOL    HW228179   2.612   1.681   4.079  2.0291 -2.4128 -0.2280
 5574SOL     OW28180   4.363   4.128   6.088 -0.1015  0.1861 -0.3921
 5574SOL    HW128181   4.379   4.130   6.182  2.0172  0.8881 -0.7722
 5574SOL    HW228182   4.293   4.062   6.087 -1.9444  2.1384 -0.0711
 5575SOL     OW28183   4.304   3.252   2.788  0.0604  0.2548  0.1829
 5575SOL    HW128184   4.244   3.320   2.758  1.6909  1.9779  0.8229
 5575SOL    HW228185   4.387   3.290   2.819  1.1461 -1.0990 -1.0758
 5576SOL     OW28186   3.945   2.931   8.140 -0.1762 -0.1175  0.5765
 5576SOL    HW128187   4.022   2.982   8.164  0.2314 -0.2268 -0.4744
 5576SOL    HW228188   3.981   2.853   8.098  0.5487 -0.3001  1.5519
 5577SOL     OW28189   1.131   0.957   1.272 -0.1400 -0.6508 -0.0533
 5577SOL    HW128190   1.208   1.006   1.300 -1.9236  1.4100  1.1925
 5577SOL    HW228191   1.129   0.898   1.348 -0.6958 -0.9665 -0.3136
 5578SOL     OW28192   2.023   4.058  11.952 -0.4880  0.4084 -0.0627
 5578SOL    HW128193   1.948   4.117  11.962 -0.4139  0.7073 -1.3031
 5578SOL    HW228194   1.982   3.985  11.905  3.5170 -0.1536 -2.6390
 5579SOL     OW28195   3.528   4.692   2.433 -0.1616  0.1871 -0.5316
 5579SOL    HW128196   3.534   0.049   2.377 -1.5455  0.9566  0.3876
 5579SOL    HW228197   3.575   0.000   2.511 -1.5171 -1.0366  0.7289
 5580SOL     OW28198   3.776   0.404   1.643  0.7982  0.1496  0.6712
 5580SOL    HW128199   3.704   0.341   1.647 -0.2447  1.4256  1.8469
 5580SOL    HW228200   3.841   0.339   1.617  3.5181  2.2775  2.1639
 5581SOL     OW28201   0.492   1.022   6.835 -0.1023  0.6429 -0.1408
 5581SOL    HW128202   0.429   0.955   6.810 -0.1298  0.6452 -0.0765
 5581SOL    HW228203   0.454   1.056   6.916 -0.3923 -2.7514  1.1208
 5582SOL     OW28204   4.040   4.162  17.052 -0.0964  0.6874 -0.2779
 5582SOL    HW128205   4.015   4.071  17.068  0.5310  0.4717 -0.5064
 5582SOL    HW228206   3.958   4.206  17.074  1.8499  4.0159  0.4390
 5583SOL     OW28207   3.332   4.275  11.835  0.1900  0.9499  0.0901
 5583SOL    HW128208   3.293   4.315  11.757 -1.4332  0.6856  0.7556
 5583SOL    HW228209   3.348   4.185  11.807 -1.0482  0.3428  1.3500
 5584SOL     OW28210   3.317   4.131   8.695  0.1084  0.3352 -0.2710
 5584SOL    HW128211   3.283   4.101   8.611  1.2066 -0.5828 -0.3873
 5584SOL    HW228212   3.386   4.067   8.714 -1.3527 -0.9740  0.6121
 5585SOL     OW28213   3.122   4.440   5.453  0.3004  0.8176 -0.1973
 5585SOL    HW128214   3.191   4.439   5.519 -1.6459 -0.3196  1.8006
 5585SOL    HW228215   3.040   4.425   5.499  1.3038 -1.5581  0.8037
 5586SOL     OW28216   4.142   1.253   4.353 -0.0995 -0.2982 -0.1498
 5586SOL    HW128217   4.184   1.178   4.311  1.8525  1.5087 -1.4007
 5586SOL    HW228218   4.052   1.229   4.331 -0.2876 -0.8795  1.2391
 5587SOL     OW28219   0.563   3.835  13.410  0.4355 -0.0324 -0.3050
 5587SOL    HW128220   0.577   3.907  13.472  0.1514 -0.0647 -0.2011
 5587SOL    HW228221   0.637   3.862  13.355 -0.1598  0.9183 -0.6371
 5588SOL     OW28222   3.766   0.527   3.132  0.5393  0.3768  0.4688
 5588SOL    HW128223   3.780   0.440   3.096 -2.6112 -0.5677  1.5093
 5588SOL    HW228224   3.776   0.580   3.052 -1.1201  0.3622  0.2575
 5589SOL     OW28225   1.187   3.493   9.007 -0.2029 -0.5974  0.2569
 5589SOL    HW128226   1.135   3.572   8.995  0.7694  0.1553  1.0292
 5589SOL    HW228227   1.130   3.420   9.031  0.2798 -0.4568  1.7957
 5590SOL     OW28228   1.463   4.436   3.804 -0.1999  0.3823 -0.1460
 5590SOL    HW128229   1.418   4.435   3.720 -0.7714 -1.8998  0.1967
 5590SOL    HW228230   1.445   4.524   3.836 -0.5091 -0.4564  2.0220
 5591SOL     OW28231   4.494   4.696   4.935  0.4388 -0.0085 -0.8905
 5591SOL    HW128232   4.486   4.608   4.900 -0.5201 -0.1223 -0.3827
 5591SOL    HW228233   4.406   0.006   4.956  1.5273  3.2179 -1.0134
 5592SOL     OW28234   4.643   2.176   4.680  0.0272  0.4665 -0.9127
 5592SOL    HW128235   4.584   2.242   4.645 -0.4844  1.3643  1.6430
 5592SOL    HW228236   4.650   2.201   4.772 -1.2587 -1.7265 -0.2100
 5593SOL     OW28237   2.177   2.468   7.911 -0.4222  0.3466 -0.1802
 5593SOL    HW128238   2.200   2.497   7.999  3.2233  0.4333 -1.1459
 5593SOL    HW228239   2.227   2.524   7.852  1.1855  0.4442  1.2866
 5594SOL     OW28240   4.181   2.503  16.998  0.1290 -0.3858  1.0890
 5594SOL    HW128241   4.150   2.513  17.088  0.3559 -0.4326  1.1711
 5594SOL    HW228242   4.258   2.560  16.997 -1.2102  1.4273  3.5986
 5595SOL     OW28243   0.571   3.380   2.234  0.1793  0.3648  0.1126
 5595SOL    HW128244   0.652   3.331   2.222 -0.5500 -0.4579 -1.5204
 5595SOL    HW228245   0.593   3.444   2.302  1.7846 -1.0148  0.8946
 5596SOL     OW28246   2.038   2.746   8.161  0.1986  0.0244  0.5017
 5596SOL    HW128247   2.018   2.780   8.248 -2.6110  0.7085 -0.3889
 5596SOL    HW228248   1.969   2.679   8.152 -1.6185  1.7774  1.4464
 5597SOL     OW28249   1.145   0.683   0.791 -0.2227  0.3718  0.0674
 5597SOL    HW128250   1.195   0.648   0.865  1.9077  0.6373 -1.2550
 5597SOL    HW228251   1.071   0.710   0.846 -1.3972 -2.3337 -0.2051
 5598SOL     OW28252   2.179   0.446  10.843  0.1422 -0.3691  0.0883
 5598SOL    HW128253   2.258   0.398  10.869  0.7645  0.2069 -0.7601
 5598SOL    HW228254   2.210   0.536  10.847 -0.9519  0.0525 -1.0762
 5599SOL     OW28255   2.092   3.817   3.802 -0.4328 -0.3105 -0.3616
 5599SOL    HW128256   2.177   3.835   3.762  0.4844 -1.1196  1.2376
 5599SOL    HW228257   2.103   3.822   3.897  1.6357  1.7530 -0.7275
 5600SOL     OW28258   1.643   1.580   8.079 -0.3316 -0.0388 -0.1858
 5600SOL    HW128259   1.570   1.624   8.035 -0.7672 -0.9826 -0.3978
 5600SOL    HW228260   1.685   1.661   8.108  3.4997 -2.9163  2.3014
 5601SOL     OW28261   2.938   3.946  14.303  0.1410 -0.3495 -0.0882
 5601SOL    HW128262   3.003   4.015  14.284  0.7222 -1.3696 -1.7959
 5601SOL    HW228263   2.860   3.995  14.329 -0.2494 -0.7568 -0.4895
 5602SOL     OW28264   1.996   3.427   5.379  0.2698  0.1333 -0.0836
 5602SOL    HW128265   1.937   3.388   5.444  1.8986  0.7742  1.7734
 5602SOL    HW228266   2.006   3.355   5.318  1.0050 -0.1959  0.4310
 5603SOL     OW28267   3.800   2.946   4.985 -0.0752  0.4269  0.1223
 5603SOL    HW128268   3.730   2.880   4.985  1.9034 -1.6713 -0.2460
 5603SOL    HW228269   3.777   3.011   4.918  1.7907 -0.4104 -1.3267
 5604SOL     OW28270   0.533   2.184  11.251 -0.3277 -0.1154 -0.4797
 5604SOL    HW128271   0.519   2.268  11.209  0.4309 -0.2504 -1.0145
 5604SOL    HW228272   0.497   2.197  11.339 -1.5679  0.0696 -1.0228
 5605SOL     OW28273   2.896   2.443  16.993  0.3897 -0.6918 -0.4234
 5605SOL    HW128274   2.916   2.516  17.053 -2.0642 -0.8521  0.6016
 5605SOL    HW228275   2.988   2.428  16.971  0.6268 -0.1062  0.1578
 5606SOL     OW28276   1.612   1.645   3.530 -0.1765  0.0382 -0.2673
 5606SOL    HW128277   1.588   1.663   3.621 -1.3930 -1.0632 -0.3673
 5606SOL    HW228278   1.646   1.728   3.497  1.7948 -0.9391 -0.7054
 5607SOL     OW28279   2.817   4.059   9.613  0.8852 -0.8214  0.6640
 5607SOL    HW128280   2.736   4.062   9.664  0.2102  1.3507 -0.5591
 5607SOL    HW228281   2.827   3.970   9.577  0.0880 -0.7641  0.2897
 5608SOL     OW28282   3.259   0.946   4.554  0.2029 -0.1835 -0.1844
 5608SOL    HW128283   3.174   0.925   4.515  0.6209 -0.0412 -1.1857
 5608SOL    HW228284   3.252   0.897   4.636  2.2057  0.3960  0.3526
 5609SOL     OW28285   1.962   3.461   7.916  0.0640  0.1392  0.3741
 5609SOL    HW128286   1.977   3.519   7.990  1.4875  1.5655 -1.0413
 5609SOL    HW228287   1.998   3.506   7.840  0.1580  0.5811  0.6824
 5610SOL     OW28288   3.650   1.124   2.586 -0.3395  0.3994  0.1777
 5610SOL    HW128289   3.676   1.056   2.524  2.1713  0.4898  1.1048
 5610SOL    HW228290   3.561   1.137   2.554 -0.8755 -2.0711  0.6951
 5611SOL     OW28291   3.732   1.209   8.261 -0.3000 -0.4802  0.0654
 5611SOL    HW128292   3.801   1.230   8.324  0.4427  2.8267 -1.8408
 5611SOL    HW228293   3.743   1.272   8.189  2.3123 -0.7469  0.2326
 5612SOL     OW28294   1.160   0.055   8.077  0.1630 -0.0624 -0.3945
 5612SOL    HW128295   1.210   0.111   8.016 -2.5514 -1.2768 -3.7487
 5612SOL    HW228296   1.145   0.120   8.146  2.7474  2.4100 -2.1344
 5613SOL     OW28297   2.850   2.729   9.540  0.4403  0.1938  0.2322
 5613SOL    HW128298   2.761   2.713   9.573  0.3658 -1.7630 -0.9522
 5613SOL    HW228299   2.908   2.708   9.614 -0.2671 -0.8025  0.5111
 5614SOL     OW28300   4.266   2.689   4.361 -0.1490 -0.0929  0.2136
 5614SOL    HW128301   4.288   2.611   4.414  3.4119 -1.0607 -2.6658
 5614SOL    HW228302   4.224   2.647   4.286 -0.1480  0.0746  0.1214
 5615SOL     OW28303   3.827   4.576  12.443  0.3238 -0.3778 -0.3644
 5615SOL    HW128304   3.862   4.487  12.447 -1.0100 -0.8123  1.8996
 5615SOL    HW228305   3.738   4.563  12.410  1.1934 -0.7795 -2.5230
 5616SOL     OW28306   4.708   1.697   4.105  0.2129 -0.1946  0.5381
 5616SOL    HW128307   4.624   1.672   4.144 -0.8370  2.9339  0.3606
 5616SOL    HW228308   4.707   1.645   4.025  1.5408  1.7853 -0.7524
 5617SOL     OW28309   2.361   3.394  17.437  0.5574  0.0127 -0.1065
 5617SOL    HW128310   2.432   3.335  17.411  0.7546  0.5337 -0.7286
 5617SOL    HW228311   2.329   3.350  17.517  0.5470  0.9412  0.4025
 5618SOL     OW28312   0.786   0.750  16.848  0.1185 -0.5199 -0.6780
 5618SOL    HW128313   0.816   0.781  16.934 -0.7460 -0.9829 -0.2044
 5618SOL    HW228314   0.715   0.804  16.813 -0.7399 -1.3965 -0.3068
 5619SOL     OW28315   0.022   3.775  13.135 -0.1815 -0.3491 -0.1069
 5619SOL    HW128316   4.714   3.741  13.050  1.0215 -0.4203 -0.4949
 5619SOL    HW228317   0.093   3.837  13.118 -0.0948 -0.3768  0.1507
 5620SOL     OW28318   1.437   3.821  11.309 -0.7486 -0.3558 -0.0208
 5620SOL    HW128319   1.527   3.807  11.340 -0.9551 -2.7138 -0.4717
 5620SOL    HW228320   1.432   3.764  11.232 -2.8011  0.5216 -0.5168
 5621SOL     OW28321   1.875   1.258   1.856  0.2821  0.4060 -0.5762
 5621SOL    HW128322   1.820   1.185   1.828 -0.3173  0.2863  0.8743
 5621SOL    HW228323   1.821   1.291   1.928  0.8997  1.9029 -0.7928
 5622SOL     OW28324   4.341   1.629   9.299  0.6337 -0.1055  0.3031
 5622SOL    HW128325   4.389   1.564   9.249  0.2757  0.5885 -0.9358
 5622SOL    HW228326   4.272   1.654   9.236  0.5372 -2.0380 -0.3380
 5623SOL     OW28327   4.524   1.030   6.756  0.0673  0.3113 -0.5168
 5623SOL    HW128328   4.449   1.089   6.746  1.1920  1.8524  0.1658
 5623SOL    HW228329   4.472   0.950   6.756 -0.1022  0.4134  1.7217
 5624SOL     OW28330   0.742   4.286   3.476 -0.1974 -0.0327 -0.1640
 5624SOL    HW128331   0.764   4.204   3.433  1.1921  0.9562 -1.3457
 5624SOL    HW228332   0.656   4.268   3.512  0.4315 -0.6695  1.0404
 5625SOL     OW28333   4.043   4.167   2.615 -0.7315 -0.3734 -0.1205
 5625SOL    HW128334   4.136   4.143   2.613  0.0026  2.2760  1.5678
 5625SOL    HW228335   4.053   4.260   2.638  0.0722  0.2810 -3.1877
 5626SOL     OW28336   4.491   1.092   2.164  0.6270 -0.8088  0.0897
 5626SOL    HW128337   4.544   1.046   2.229  0.5138  0.1466  0.8700
 5626SOL    HW228338   4.408   1.045   2.174  0.3264 -0.7305 -2.1431
 5627SOL     OW28339   2.141   2.358  11.705  0.2449 -0.4902 -0.6744
 5627SOL    HW128340   2.136   2.369  11.610 -0.5758 -0.4453 -0.6269
 5627SOL    HW228341   2.050   2.339  11.729  0.3586 -1.5564 -1.0805
 5628SOL     OW28342   2.876   4.103  12.580  0.3579  0.3031 -0.4978
 5628SOL    HW128343   2.873   4.151  12.663 -1.5969  0.3181 -0.5790
 5628SOL    HW228344   2.843   4.175  12.527  2.2478  2.1267  0.8113
 5629SOL     OW28345   1.279   1.396   6.851  0.3669 -0.0631  0.1655
 5629SOL    HW128346   1.266   1.349   6.769  1.4747 -0.9511  0.4940
 5629SOL    HW228347   1.229   1.475   6.831 -0.2589 -0.2731  0.8710
 5630SOL     OW28348   1.214   0.399  17.378 -0.0181  0.0816 -0.5184
 5630SOL    HW128349   1.210   0.310  17.344  0.0031  1.2318 -3.4872
 5630SOL    HW228350   1.139   0.410  17.437  0.9678  2.3346  0.3146
 5631SOL     OW28351   3.542   3.002   1.557 -0.1808 -0.1232 -0.1576
 5631SOL    HW128352   3.582   2.928   1.511  2.5675  2.6759 -2.3136
 5631SOL    HW228353   3.599   3.015   1.633 -0.3259  1.3088 -0.2952
 5632SOL     OW28354   0.049   1.976   2.193  0.1477 -0.2212 -0.2359
 5632SOL    HW128355   0.132   1.932   2.212  2.0228  3.6210  0.4873
 5632SOL    HW228356   0.073   2.028   2.117 -0.1230  0.7550  0.3311
 5633SOL     OW28357   0.148   3.573   6.052 -0.4786  0.1043 -0.0998
 5633SOL    HW128358   0.103   3.629   5.989  0.2372  2.8045  1.7845
 5633SOL    HW228359   0.073   3.530   6.093  1.6933 -2.4664  1.1993
 5634SOL     OW28360   0.859   3.825   3.961 -0.5402  0.0580  0.1803
 5634SOL    HW128361   0.933   3.868   4.006 -1.6924  1.1705  1.0224
 5634SOL    HW228362   0.899   3.778   3.888 -1.5378  0.6770 -0.7600
 5635SOL     OW28363   1.267   1.099   8.486  0.0193  0.1974 -0.9069
 5635SOL    HW128364   1.223   1.057   8.560  0.6147  0.0943 -0.6124
 5635SOL    HW228365   1.301   1.035   8.423 -0.6931 -0.2376 -0.8484
 5636SOL     OW28366   4.371   2.055   3.273  0.3170  0.6098 -0.0195
 5636SOL    HW128367   4.324   2.009   3.342  0.8416  0.4134  0.2029
 5636SOL    HW228368   4.459   2.057   3.308  0.3264  0.4149 -0.0296
 5637SOL     OW28369   1.043   2.866   4.327 -0.3169 -0.1283  0.8081
 5637SOL    HW128370   1.011   2.934   4.268  0.1165 -1.2409 -0.7216
 5637SOL    HW228371   0.989   2.791   4.302 -0.1391 -0.2573  0.8093
 5638SOL     OW28372   3.813   2.535   3.881 -0.1437 -0.0241 -0.4418
 5638SOL    HW128373   3.801   2.531   3.976 -1.4187  0.4073 -0.5954
 5638SOL    HW228374   3.801   2.444   3.853 -1.6366 -0.0946  0.4573
 5639SOL     OW28375   2.189   2.390  15.718 -0.3329  0.0066 -0.6243
 5639SOL    HW128376   2.155   2.443  15.790 -0.1408  0.9512 -1.2287
 5639SOL    HW228377   2.264   2.347  15.759  0.1185  0.3478 -1.0839
 5640SOL     OW28378   4.671   3.078   9.726  0.2030  0.2406  0.2902
 5640SOL    HW128379   0.007   3.098   9.800 -0.0934 -1.7172  1.0413
 5640SOL    HW228380   4.704   3.141   9.661 -0.5124 -1.6797 -1.9110
 5641SOL     OW28381   2.168   1.077   1.171 -0.1288  0.4442 -0.0138
 5641SOL    HW128382   2.161   1.172   1.180 -0.0182  0.1526  3.3081
 5641SOL    HW228383   2.260   1.053   1.162 -0.4663 -1.5839  1.9732
 5642SOL     OW28384   0.552   3.769   4.131 -0.1965  0.2198 -0.2431
 5642SOL    HW128385   0.565   3.778   4.036 -1.8281 -1.5917 -0.6386
 5642SOL    HW228386   0.640   3.741   4.157 -1.1199  0.1104  2.7061
 5643SOL     OW28387   4.232   3.645  14.164  0.2893 -0.1136 -0.4396
 5643SOL    HW128388   4.139   3.656  14.186  0.5768  0.1427  0.6332
 5643SOL    HW228389   4.264   3.734  14.158  1.4818 -0.5637 -0.6672
 5644SOL     OW28390   2.223   4.047   2.622 -0.9251 -0.7895  0.2303
 5644SOL    HW128391   2.302   4.099   2.625  0.5337 -2.7981 -2.8199
 5644SOL    HW228392   2.249   4.003   2.541  3.1156  1.6970  0.1797
 5645SOL     OW28393   4.390   1.725   2.927  0.4492  0.7735 -0.0930
 5645SOL    HW128394   4.346   1.810   2.927  1.5359  1.3416 -0.1055
 5645SOL    HW228395   4.452   1.739   2.855  0.7347  1.6775  0.3304
 5646SOL     OW28396   0.163   3.399   2.257  0.2337  0.3545  0.1788
 5646SOL    HW128397   0.130   3.443   2.336 -0.3696 -1.7241  1.0961
 5646SOL    HW228398   0.129   3.446   2.181  0.3889  0.4370  0.1604
 5647SOL     OW28399   1.348   0.481   5.211  0.3103 -0.8949 -0.1491
 5647SOL    HW128400   1.357   0.575   5.221 -0.6080 -0.9207  0.9163
 5647SOL    HW228401   1.360   0.457   5.303  2.2410 -2.2128 -0.7436
 5648SOL     OW28402   4.528   0.776   6.387 -0.3904 -0.5538  0.2227
 5648SOL    HW128403   4.566   0.755   6.302 -1.5365  0.9862 -0.6480
 5648SOL    HW228404   4.461   0.840   6.365  0.1931  1.3000  3.8988
 5649SOL     OW28405   4.372   3.811  14.662  0.4714  0.4568 -0.3137
 5649SOL    HW128406   4.309   3.829  14.592 -0.8085 -1.4365  0.3575
 5649SOL    HW228407   4.341   3.860  14.738  2.5480 -1.0140  1.4677
 5650SOL     OW28408   0.235   0.241   8.005 -0.1710  0.2112  0.3973
 5650SOL    HW128409   0.205   0.300   7.935  1.4211 -0.8257 -1.1416
 5650SOL    HW228410   0.328   0.259   8.021 -0.1349  0.4675 -0.0816
 5651SOL     OW28411   3.661   4.398   3.382  0.6778  0.4351  0.4249
 5651SOL    HW128412   3.716   4.380   3.459  1.6533 -0.7227 -0.5342
 5651SOL    HW228413   3.723   4.402   3.309  1.4676 -0.5076  1.0274
 5652SOL     OW28414   1.681   3.803   4.647  0.2683 -0.0323 -0.1561
 5652SOL    HW128415   1.766   3.847   4.656  1.2935 -1.3831 -3.4272
 5652SOL    HW228416   1.693   3.779   4.555  1.5822  1.0058 -0.2580
 5653SOL     OW28417   0.278   4.389   8.736 -0.2194  0.2405  0.2885
 5653SOL    HW128418   0.210   4.349   8.790  0.2880 -2.0641 -0.7588
 5653SOL    HW228419   0.238   4.476   8.733 -0.0972  0.2305 -1.7060
 5654SOL     OW28420   1.835   2.978   4.070  0.4636 -0.2852 -0.4395
 5654SOL    HW128421   1.783   2.907   4.105  0.7353  0.4134  1.3702
 5654SOL    HW228422   1.804   2.975   3.979  1.1286 -0.4896 -0.6627
 5655SOL     OW28423   3.234   4.163  10.275 -0.6738 -0.0583 -0.0522
 5655SOL    HW128424   3.318   4.123  10.254 -2.5851 -3.2241 -1.7713
 5655SOL    HW228425   3.201   4.174  10.186  1.3339 -2.1880 -1.0549
 5656SOL     OW28426   2.006   2.823   8.423 -0.1161  0.0974  0.0912
 5656SOL    HW128427   2.020   2.805   8.515 -1.9318 -1.9538 -0.0221
 5656SOL    HW228428   1.940   2.892   8.431 -0.5572 -0.0562 -2.2119
 5657SOL     OW28429   0.489   4.420   6.810 -0.3471 -0.1522 -0.5188
 5657SOL    HW128430   0.440   4.434   6.729  0.3551  0.7341 -0.7880
 5657SOL    HW228431   0.444   4.342   6.844  0.6103 -0.7241 -0.5660
 5658SOL     OW28432   0.431   4.135   9.254  0.3007 -0.5678  0.0085
 5658SOL    HW128433   0.506   4.176   9.299 -0.8894  2.3563 -0.6763
 5658SOL    HW228434   0.407   4.065   9.314 -2.3986  1.1015  0.8643
 5659SOL     OW28435   2.503   3.263   7.953  0.2128  0.1886 -0.2847
 5659SOL    HW128436   2.502   3.311   7.870 -0.5810 -1.3427 -1.1671
 5659SOL    HW228437   2.570   3.196   7.940  1.3859  1.5119 -1.0129
 5660SOL     OW28438   0.616   0.358   4.442  0.3082  0.5146 -0.0336
 5660SOL    HW128439   0.541   0.376   4.385 -0.4689 -1.5553  0.3416
 5660SOL    HW228440   0.599   0.418   4.515 -1.6396 -0.7316  0.5233
 5661SOL     OW28441   2.465   4.212   9.382  0.4284  1.1004 -0.1267
 5661SOL    HW128442   2.545   4.189   9.334 -0.1603  0.5087 -0.8281
 5661SOL    HW228443   2.449   4.290   9.329 -1.7823 -0.1686 -1.3338
 5662SOL     OW28444   2.548   2.598  16.702 -0.0055 -0.4899 -0.1295
 5662SOL    HW128445   2.599   2.531  16.748  0.8347  0.2298 -0.0240
 5662SOL    HW228446   2.538   2.661  16.773 -2.1383  0.5382 -1.3586
 5663SOL     OW28447   2.739   1.037   2.459 -0.6726 -0.2273  0.0656
 5663SOL    HW128448   2.755   1.084   2.377 -1.5150 -1.8729 -1.0374
 5663SOL    HW228449   2.775   0.951   2.436 -0.7946  0.2706 -2.0067
 5664SOL     OW28450   3.714   4.155  14.720  0.2199  0.0386 -0.2046
 5664SOL    HW128451   3.715   4.087  14.787 -2.1218 -0.3830 -0.5739
 5664SOL    HW228452   3.734   4.102  14.643 -2.2486  0.4203 -1.1398
 5665SOL     OW28453   3.948   2.082   5.584 -0.0065 -0.1477 -0.0389
 5665SOL    HW128454   3.974   2.168   5.617  0.1009  0.4419 -1.6704
 5665SOL    HW228455   3.868   2.091   5.533 -0.0583 -1.1509 -0.1305
 5666SOL     OW28456   0.910   3.466   4.048  0.0065  0.4638 -0.2367
 5666SOL    HW128457   0.990   3.433   4.007 -0.3376  1.1872 -1.4881
 5666SOL    HW228458   0.866   3.497   3.970  1.8712  1.0729 -1.0415
 5667SOL     OW28459   1.439   2.643   3.051 -0.0851  0.1948 -0.1160
 5667SOL    HW128460   1.523   2.685   3.073  0.4554 -0.7464 -0.3742
 5667SOL    HW228461   1.387   2.695   3.112  1.1389 -0.7644  1.7605
 5668SOL     OW28462   0.146   3.500  13.110 -0.2075 -0.2038 -0.3672
 5668SOL    HW128463   0.058   3.538  13.114  0.5936  1.1894  3.2258
 5668SOL    HW228464   0.168   3.469  13.198  0.4108 -0.4178 -0.5959
 5669SOL     OW28465   2.117   0.455   8.039  0.4052 -0.2300 -0.2739
 5669SOL    HW128466   2.159   0.540   8.052  0.1817  0.4644 -4.1980
 5669SOL    HW228467   2.177   0.405   8.094 -1.2677  0.7254  2.4653
 5670SOL     OW28468   2.532   1.594  16.556  0.3504 -0.2862 -0.0930
 5670SOL    HW128469   2.506   1.523  16.615  1.2793 -1.0331 -0.5824
 5670SOL    HW228470   2.454   1.648  16.568  0.6948  0.6174 -1.9260
 5671SOL     OW28471   3.824   3.185   3.092  0.9203  0.0323  0.0283
 5671SOL    HW128472   3.765   3.247   3.136  0.5557  0.2803 -0.8105
 5671SOL    HW228473   3.908   3.192   3.137  0.9243 -0.6071  0.1236
 5672SOL     OW28474   0.304   2.050   4.705 -0.3032 -0.3394  0.2159
 5672SOL    HW128475   0.256   1.969   4.686 -0.4116  0.0452 -1.1655
 5672SOL    HW228476   0.287   2.095   4.623 -1.7440  0.2508  0.8321
 5673SOL     OW28477   0.142   1.408   2.261  0.1485 -0.2624 -0.2414
 5673SOL    HW128478   0.207   1.402   2.191  0.5816 -0.1795  0.1507
 5673SOL    HW228479   0.115   1.499   2.250  2.4559  0.4399 -0.0745
 5674SOL     OW28480   1.685   2.785   3.045  0.4925 -0.1214  0.2193
 5674SOL    HW128481   1.720   2.722   2.981 -0.7757 -0.6691  0.0666
 5674SOL    HW228482   1.646   2.851   2.987  0.1561 -0.3962  0.1348
 5675SOL     OW28483   3.921   4.081  15.381  0.1072 -0.0888 -0.1179
 5675SOL    HW128484   3.835   4.077  15.423  0.1378  0.1827 -0.0285
 5675SOL    HW228485   3.936   4.175  15.379 -0.1640 -0.0332  0.3175
 5676SOL     OW28486   2.013   4.425   3.419 -0.1589 -0.4138 -0.3908
 5676SOL    HW128487   1.922   4.426   3.388 -0.0431 -0.3656 -0.7276
 5676SOL    HW228488   2.046   4.340   3.392  0.7483 -0.7010  1.6193
 5677SOL     OW28489   4.049   0.131   7.785 -0.5299  0.2190  0.7973
 5677SOL    HW128490   4.002   0.054   7.752  0.0447 -0.2351  1.0339
 5677SOL    HW228491   4.140   0.105   7.773 -0.1592  2.6527 -1.7141
 5678SOL     OW28492   1.408   2.609   8.328  0.2743  0.7992  0.2191
 5678SOL    HW128493   1.427   2.578   8.416  0.2228  0.6198  0.1688
 5678SOL    HW228494   1.465   2.557   8.271 -1.6777 -0.8857 -0.2243
 5679SOL     OW28495   2.433   2.922   7.538  0.0682  0.2796 -0.1177
 5679SOL    HW128496   2.375   2.886   7.604 -0.6662 -0.4693 -1.1822
 5679SOL    HW228497   2.371   2.932   7.467 -2.0311  1.1608  1.8358
 5680SOL     OW28498   4.094   0.087  16.699 -0.4569 -0.0369 -0.4095
 5680SOL    HW128499   4.091   0.122  16.610 -3.4039 -0.0646 -0.3162
 5680SOL    HW228500   4.162   0.137  16.744  0.0177 -0.3480 -0.7859
 5681SOL     OW28501   0.569   2.335   8.019  0.2259 -0.4085  0.3360
 5681SOL    HW128502   0.502   2.355   7.954  3.6792  0.9412 -2.7687
 5681SOL    HW228503   0.652   2.330   7.973  0.4466 -1.3382  0.8208
 5682SOL     OW28504   1.147   3.213  16.888  0.2905 -0.5004 -0.2900
 5682SOL    HW128505   1.174   3.305  16.897 -2.4857  0.3697 -0.7709
 5682SOL    HW228506   1.086   3.203  16.960  0.0751 -1.9562 -0.6835
 5683SOL     OW28507   4.469   1.292  16.477 -0.0938 -0.3149 -0.0842
 5683SOL    HW128508   4.393   1.253  16.435 -1.0147 -0.4322  1.6985
 5683SOL    HW228509   4.468   1.383  16.448 -0.1236  0.1095  1.2893
 5684SOL     OW28510   3.938   3.752   3.586  0.2236 -0.4565  0.0751
 5684SOL    HW128511   3.899   3.668   3.562 -0.3215 -0.0909 -0.3290
 5684SOL    HW228512   4.030   3.726   3.587  0.8171  1.7137  1.7040
 5685SOL     OW28513   3.214   2.041   3.544  0.1550  0.8293  0.5750
 5685SOL    HW128514   3.307   2.051   3.561  0.2741 -0.5139  0.7517
 5685SOL    HW228515   3.213   2.093   3.463 -1.0164 -1.2860 -0.7717
 5686SOL     OW28516   0.246   1.303   4.085  0.5728  0.0074  0.5046
 5686SOL    HW128517   0.155   1.325   4.065  0.3204 -0.9981  0.5395
 5686SOL    HW228518   0.295   1.302   4.002  1.0479  0.0915  0.7819
 5687SOL     OW28519   2.033   4.526  17.577 -0.5046  0.1426  0.4130
 5687SOL    HW128520   2.008   4.435  17.597  0.2459  0.5726  3.3137
 5687SOL    HW228521   2.028   4.527  17.482  0.0020  0.6267  0.3931
 5688SOL     OW28522   1.487   0.512   3.487  0.0529  0.5625  0.1560
 5688SOL    HW128523   1.582   0.513   3.503 -0.2121 -1.6735  1.9120
 5688SOL    HW228524   1.458   0.513   3.578  1.6142  0.9103  0.6483
 5689SOL     OW28525   0.274   0.548   3.841  0.1335  0.0425  0.3475
 5689SOL    HW128526   0.275   0.480   3.774 -0.9905 -0.9223  1.3111
 5689SOL    HW228527   0.256   0.497   3.920 -0.3830  0.5811  0.5720
 5690SOL     OW28528   2.437   3.820  14.846  0.4053 -0.3211  0.2217
 5690SOL    HW128529   2.396   3.808  14.760  1.7475  2.7350 -0.8630
 5690SOL    HW228530   2.369   3.856  14.903 -0.1858 -3.1590  1.3150
 5691SOL     OW28531   0.754   3.639  12.988  0.3193  0.3527  0.1564
 5691SOL    HW128532   0.792   3.667  12.905  0.3410 -2.5112 -0.7866
 5691SOL    HW228533   0.757   3.727  13.027  0.3605  0.2786  0.3203
 5692SOL     OW28534   3.619   0.747   3.240  0.5798  0.1672 -0.2435
 5692SOL    HW128535   3.540   0.699   3.263  0.4495  0.1857 -0.6683
 5692SOL    HW228536   3.648   0.708   3.158 -0.5552  0.5457 -0.8116
 5693SOL     OW28537   1.163   3.129   5.892 -0.0580 -0.3810  0.1004
 5693SOL    HW128538   1.088   3.179   5.862  0.5380 -1.0261 -2.4241
 5693SOL    HW228539   1.127   3.062   5.951 -0.8193 -0.6143 -0.6460
 5694SOL     OW28540   2.482   0.621   5.201 -0.1410 -0.0934  0.1934
 5694SOL    HW128541   2.559   0.563   5.208 -0.0568 -0.2325 -1.8690
 5694SOL    HW228542   2.445   0.592   5.117 -0.9071  1.3635  0.0302
 5695SOL     OW28543   3.067   1.153   6.068  0.4317  0.3562 -0.0632
 5695SOL    HW128544   3.134   1.093   6.102  0.7787  1.8336  1.7990
 5695SOL    HW228545   3.035   1.107   5.990  2.1957 -0.7616 -0.1435
 5696SOL     OW28546   2.778   2.909   4.818 -0.5597 -0.0590  0.1082
 5696SOL    HW128547   2.843   2.871   4.758  0.0816  1.4070 -0.1146
 5696SOL    HW228548   2.828   2.924   4.898  1.8620 -2.6755 -0.8916
 5697SOL     OW28549   4.288   0.391   7.496 -0.2425  0.6971 -0.2484
 5697SOL    HW128550   4.213   0.430   7.452 -0.9337  0.4415  0.7136
 5697SOL    HW228551   4.354   0.427   7.437 -0.4540 -0.1183 -0.9826
 5698SOL     OW28552   1.706   0.065   5.615  0.0895  0.0118 -0.6024
 5698SOL    HW128553   1.778   0.007   5.637  0.1295 -0.1728 -1.2241
 5698SOL    HW228554   1.754   0.139   5.577  0.7695  0.7261  1.6417
 5699SOL     OW28555   2.172   4.605  14.863  0.0239 -0.5567  0.4571
 5699SOL    HW128556   2.133   4.571  14.783 -1.1058  0.4859  0.5664
 5699SOL    HW228557   2.257   4.634  14.830 -0.2233 -0.3716 -0.0151
 5700SOL     OW28558   2.735   3.509   4.039  0.8223 -0.4123  0.3082
 5700SOL    HW128559   2.716   3.467   3.955  0.9324 -1.4389  0.8092
 5700SOL    HW228560   2.746   3.437   4.101 -1.4601  1.5128  2.9558
 5701SOL     OW28561   4.322   2.376   7.887  0.1912  0.0537  0.0173
 5701SOL    HW128562   4.400   2.416   7.848 -0.0202 -0.3888 -0.8499
 5701SOL    HW228563   4.333   2.281   7.884  0.7058  0.1403 -1.0348
 5702SOL     OW28564   3.041   0.798   3.437  0.5194  0.1915 -0.5486
 5702SOL    HW128565   3.114   0.822   3.494 -0.1201  2.0698 -0.5057
 5702SOL    HW228566   2.999   0.725   3.483  1.6116 -0.1569 -0.1199
 5703SOL     OW28567   2.100   2.228   7.836  0.1095  0.3174  0.0651
 5703SOL    HW128568   2.171   2.195   7.781 -0.9477  1.5459 -2.0192
 5703SOL    HW228569   2.143   2.298   7.885 -0.7085 -0.6106  2.1284
 5704SOL     OW28570   2.830   4.306   0.213 -0.0226  0.1140 -0.1026
 5704SOL    HW128571   2.805   4.213   0.216 -0.5444  0.2202 -1.1238
 5704SOL    HW228572   2.742   4.335   0.189  0.6754  0.3627 -2.3577
 5705SOL     OW28573   2.718   0.656   3.357  0.7972 -0.0184  0.3012
 5705SOL    HW128574   2.778   0.652   3.432  1.5564  2.0507 -0.1888
 5705SOL    HW228575   2.780   0.669   3.285  1.2928  0.5389  0.8231
 5706SOL     OW28576   0.133   2.908   2.778 -0.1495  0.1673  0.3091
 5706SOL    HW128577   0.044   2.926   2.747 -0.0495  1.2250  0.6209
 5706SOL    HW228578   0.162   2.829   2.732 -1.1091  0.6694 -1.1840
 5707SOL     OW28579   3.738   2.695  12.928  0.5569  0.4209 -0.4541
 5707SOL    HW128580   3.812   2.636  12.940 -0.7614 -1.2425 -0.6610
 5707SOL    HW228581   3.786   2.778  12.926  1.1485  0.0554 -1.3347
 5708SOL     OW28582   4.073   3.607   8.434 -0.3062 -0.5767 -0.4730
 5708SOL    HW128583   4.144   3.671   8.426 -0.6729 -0.0489  0.4928
 5708SOL    HW228584   4.045   3.626   8.523  0.4821  0.5253 -0.4608
 5709SOL     OW28585   0.071   2.424   8.680  0.3492 -0.2945 -0.1566
 5709SOL    HW128586   4.717   2.478   8.704  0.8659  0.4690 -0.2617
 5709SOL    HW228587   0.129   2.495   8.654 -0.8808  0.9009  0.3616
 5710SOL     OW28588   4.562   3.325   7.445 -0.4106  0.4870  0.1090
 5710SOL    HW128589   4.546   3.246   7.496 -0.0242  0.1379 -0.3005
 5710SOL    HW228590   4.503   3.308   7.372 -1.4416  0.7369  0.8990
 5711SOL     OW28591   1.989   3.621   7.650 -0.6274 -0.2383 -0.4949
 5711SOL    HW128592   2.063   3.681   7.655 -1.5343  0.9131 -0.6348
 5711SOL    HW228593   1.915   3.676   7.677  1.2817  0.5344  3.2653
 5712SOL     OW28594   4.273   1.572   8.600 -0.6036  0.1328 -0.3910
 5712SOL    HW128595   4.202   1.508   8.601 -1.1775  0.7952  0.8584
 5712SOL    HW228596   4.271   1.605   8.689  0.0019  0.3799 -0.4722
 5713SOL     OW28597   1.286   4.273   2.205 -0.4493  0.3119  0.3104
 5713SOL    HW128598   1.317   4.353   2.163 -0.6111 -0.0504 -0.4880
 5713SOL    HW228599   1.193   4.293   2.217 -0.2631  1.0817  0.4758
 5714SOL     OW28600   2.843   4.065   3.995  0.0221  0.0358  0.1851
 5714SOL    HW128601   2.929   4.089   4.030  1.2204  0.3041 -2.8970
 5714SOL    HW228602   2.797   4.014   4.062 -0.6898  0.5656  0.0965
 5715SOL     OW28603   1.146   2.697   6.976  0.3835  0.2637 -0.0325
 5715SOL    HW128604   1.147   2.716   7.070 -0.0407  1.5369 -0.2864
 5715SOL    HW228605   1.111   2.779   6.941 -0.8559 -0.1287  0.2775
 5716SOL     OW28606   0.595   4.120   3.668 -0.4476  0.1140  0.4785
 5716SOL    HW128607   0.500   4.128   3.664 -0.6261 -3.0095 -1.7377
 5716SOL    HW228608   0.623   4.182   3.735 -1.4131  1.7214 -0.5975
 5717SOL     OW28609   2.756   4.684  17.652  0.1451 -0.0693  0.4371
 5717SOL    HW128610   2.793   4.714  17.570 -3.5260 -0.1909 -1.2556
 5717SOL    HW228611   2.671   4.657  17.617 -0.0920 -1.7440  2.3036
 5718SOL     OW28612   1.853   1.850   1.187 -0.6573  0.0297 -0.3357
 5718SOL    HW128613   1.844   1.772   1.133  0.7577 -1.8736  2.1795
 5718SOL    HW228614   1.861   1.810   1.274 -2.1229 -1.5967 -0.9500
 5719SOL     OW28615   0.344   4.645   3.851  0.4079  0.2610  0.3685
 5719SOL    HW128616   0.426   4.629   3.806 -1.1080 -1.8015 -1.6597
 5719SOL    HW228617   0.284   4.605   3.787  0.3460  1.1116 -0.1078
 5720SOL     OW28618   4.379   3.478   8.456  0.7992  0.0278 -0.3531
 5720SOL    HW128619   4.405   3.515   8.372  2.0846  0.0640  0.0577
 5720SOL    HW228620   4.380   3.554   8.514 -1.2403 -1.5984  1.8097
 5721SOL     OW28621   3.443   4.636   3.422  0.2134  0.5043  0.0072
 5721SOL    HW128622   3.352   4.665   3.421 -0.6712 -2.3099  1.2019
 5721SOL    HW228623   3.430   4.544   3.442 -0.5752  0.9462  1.4802
 5722SOL     OW28624   4.689   2.127  16.685 -0.3899  0.7480 -0.6572
 5722SOL    HW128625   4.643   2.087  16.759  1.6308  0.5491  0.4642
 5722SOL    HW228626   0.049   2.144  16.731  0.1618  0.5228 -1.5439
 5723SOL     OW28627   0.185   0.670  16.880  0.4276 -0.1649 -0.1926
 5723SOL    HW128628   0.222   0.582  16.875  3.2954  1.0124  0.0642
 5723SOL    HW228629   0.112   0.652  16.940 -1.7975 -1.0028 -3.1436
 5724SOL     OW28630   2.706   2.406  16.801 -0.1883 -0.7785 -0.3016
 5724SOL    HW128631   2.681   2.314  16.810 -1.9359 -0.0165  2.6407
 5724SOL    HW228632   2.777   2.414  16.865 -0.1644  0.8335 -0.5322
 5725SOL     OW28633   2.145   2.428  16.461 -0.1571 -0.2297  0.5147
 5725SOL    HW128634   2.089   2.448  16.535 -0.5705  1.7136 -0.3231
 5725SOL    HW228635   2.096   2.368  16.405 -0.9761  0.6143  0.3302
 5726SOL     OW28636   3.744   0.120   8.349  0.0963 -0.1380  0.4114
 5726SOL    HW128637   3.719   0.057   8.416 -0.1642 -1.4503 -0.9309
 5726SOL    HW228638   3.679   0.190   8.352  0.5310  0.3617 -1.4209
 5727SOL     OW28639   2.388   1.484   3.858  0.0950 -0.2008 -0.4955
 5727SOL    HW128640   2.396   1.480   3.763  3.7298 -2.4316 -0.0888
 5727SOL    HW228641   2.304   1.439   3.868  0.2841 -0.5161 -0.3047
 5728SOL     OW28642   2.417   1.568   7.770  0.2002  0.1269  0.2133
 5728SOL    HW128643   2.494   1.615   7.737  0.0606  0.8306  0.9016
 5728SOL    HW228644   2.455   1.480   7.774  3.3459  1.5832  2.1110
 5729SOL     OW28645   3.656   2.695   0.843 -0.3820  0.0676 -0.1332
 5729SOL    HW128646   3.727   2.638   0.874  0.8636  1.3544 -0.6116
 5729SOL    HW228647   3.584   2.678   0.904 -1.2077  2.8591 -0.3337
 5730SOL     OW28648   1.283   2.942  12.518  0.1501  0.1094  0.3376
 5730SOL    HW128649   1.355   3.000  12.494  0.6929 -0.6780  0.0712
 5730SOL    HW228650   1.255   2.988  12.597  1.5200 -0.3054  1.0600
 5731SOL     OW28651   0.317   4.476   6.624  0.0008 -0.2360  0.4094
 5731SOL    HW128652   0.244   4.525   6.661 -1.7568 -1.0791 -1.9183
 5731SOL    HW228653   0.280   4.388   6.630 -0.5563 -0.1265 -1.4866
 5732SOL     OW28654   0.565   2.443   9.713  0.4306 -0.2584  0.0102
 5732SOL    HW128655   0.649   2.399   9.718  1.2920  1.1846 -1.7386
 5732SOL    HW228656   0.550   2.449   9.808  0.2599 -1.3136  0.0483
 5733SOL     OW28657   0.148   0.325   3.523 -0.1164  0.0900 -0.2746
 5733SOL    HW128658   0.195   0.301   3.603 -0.0872  1.5281  0.1583
 5733SOL    HW228659   0.146   0.420   3.540  0.7697  0.1784 -0.6599
 5734SOL     OW28660   1.402   1.888  10.482 -0.5512  0.0445  0.0751
 5734SOL    HW128661   1.338   1.942  10.528 -0.1324  1.0372 -0.5062
 5734SOL    HW228662   1.481   1.907  10.532 -1.0966  0.8002  0.6593
 5735SOL     OW28663   2.153   1.834   5.189  0.0156  0.0953  0.2024
 5735SOL    HW128664   2.076   1.837   5.245 -0.3526 -1.4719 -0.2347
 5735SOL    HW228665   2.180   1.926   5.197 -1.2843  0.2502  2.6334
 5736SOL     OW28666   4.641   3.015  17.207  0.1206  0.4674  0.3158
 5736SOL    HW128667   4.702   3.023  17.133 -1.8132 -1.8763 -1.5180
 5736SOL    HW228668   4.641   3.096  17.258  0.5957 -1.1814  2.9015
 5737SOL     OW28669   2.098   2.452   5.974 -0.1077 -0.4528 -0.7072
 5737SOL    HW128670   2.076   2.512   6.045 -1.6557 -1.5118 -0.3159
 5737SOL    HW228671   2.010   2.417   5.961 -0.3870 -1.4891  4.0970
 5738SOL     OW28672   1.533   1.870  17.149  0.2366 -0.4580  0.1286
 5738SOL    HW128673   1.485   1.883  17.068  0.5678  0.0209  0.0060
 5738SOL    HW228674   1.589   1.794  17.135  0.1719 -0.1990 -1.4416
 5739SOL     OW28675   0.148   4.521   3.156  0.7185  0.0861  0.2778
 5739SOL    HW128676   0.205   4.553   3.086 -1.4060  0.1737 -1.3970
 5739SOL    HW228677   0.190   4.568   3.228 -1.3745  1.0640  0.8467
 5740SOL     OW28678   3.876   1.803  10.292 -0.0489 -0.2235  0.0213
 5740SOL    HW128679   3.803   1.865  10.286  0.5537  0.3271 -1.8047
 5740SOL    HW228680   3.944   1.869  10.279 -0.1111 -0.0835  0.4073
 5741SOL     OW28681   0.381   0.321   6.521  0.5317  0.0105  0.1563
 5741SOL    HW128682   0.327   0.296   6.596  2.3374 -2.8993  0.4647
 5741SOL    HW228683   0.352   0.262   6.452 -1.4511 -0.2930  1.2635
 5742SOL     OW28684   1.135   2.612   1.161  0.3109  0.1773  0.5121
 5742SOL    HW128685   1.062   2.673   1.150 -0.5467 -0.7375  1.1977
 5742SOL    HW228686   1.189   2.616   1.082  0.8765  0.0418  0.8945
 5743SOL     OW28687   0.862   1.046   4.812  0.1454 -0.1434 -0.4772
 5743SOL    HW128688   0.882   0.958   4.779  3.3786 -0.3195  2.0448
 5743SOL    HW228689   0.950   1.075   4.834  0.3808  0.3572 -2.1359
 5744SOL     OW28690   2.970   2.595   8.080  0.1589 -0.0711  0.6110
 5744SOL    HW128691   2.911   2.521   8.093 -0.8660  0.3421 -1.6744
 5744SOL    HW228692   2.997   2.585   7.989 -0.5810  1.0912  0.2677
 5745SOL     OW28693   2.483   3.587   7.881  0.4410 -0.1161  0.3009
 5745SOL    HW128694   2.429   3.530   7.827 -0.1173  2.7180 -2.1432
 5745SOL    HW228695   2.487   3.666   7.828 -0.7421  0.9568  1.8302
 5746SOL     OW28696   2.593   1.675  17.336 -0.1168 -0.2874  0.7136
 5746SOL    HW128697   2.519   1.641  17.387 -1.2236  1.4807  0.2829
 5746SOL    HW228698   2.666   1.669  17.398 -0.9820 -0.9963  1.6723
 5747SOL     OW28699   2.421   3.687   6.039 -0.1803  0.1071  0.0711
 5747SOL    HW128700   2.407   3.775   6.004 -0.3695 -0.0183 -0.1716
 5747SOL    HW228701   2.498   3.693   6.095  1.7492 -2.9182 -2.2513
 5748SOL     OW28702   2.749   1.746   1.151  0.5086 -0.0476  0.5137
 5748SOL    HW128703   2.681   1.712   1.209  1.0527  0.4040  1.4301
 5748SOL    HW228704   2.750   1.673   1.089 -1.3643  0.1212  0.2944
 5749SOL     OW28705   3.176   4.356  11.220  0.2945 -0.2989 -0.8578
 5749SOL    HW128706   3.214   4.276  11.256 -0.2167  0.6738  1.8274
 5749SOL    HW228707   3.237   4.425  11.248  0.7735 -0.3343 -1.8073
 5750SOL     OW28708   4.266   0.538   7.029  1.1156 -0.9496 -0.3095
 5750SOL    HW128709   4.217   0.566   6.951  0.2156 -0.2827  0.5071
 5750SOL    HW228710   4.354   0.547   6.991  0.1385 -0.4530 -2.4542
 5751SOL     OW28711   0.601   3.506   7.367  0.5211 -0.5825  0.5658
 5751SOL    HW128712   0.543   3.432   7.385  1.7438 -1.1215  2.3782
 5751SOL    HW228713   0.531   3.571   7.368  2.1957  1.2296  2.0864
 5752SOL     OW28714   0.445   2.634   8.024  0.5058  0.2482  0.8245
 5752SOL    HW128715   0.404   2.554   8.057 -0.4521  0.9386  1.3183
 5752SOL    HW228716   0.513   2.607   7.962  0.9988  0.3267  1.3346
 5753SOL     OW28717   0.868   1.745  17.031  0.5011  0.0345  0.4178
 5753SOL    HW128718   0.831   1.713  17.113 -0.5108  2.5860  0.9469
 5753SOL    HW228719   0.947   1.790  17.060  0.9163  0.6201 -1.6472
 5754SOL     OW28720   1.629   0.315   0.264  0.1018 -0.0586  0.0222
 5754SOL    HW128721   1.681   0.307   0.345 -1.4951  3.3256  1.4170
 5754SOL    HW228722   1.542   0.329   0.302 -0.4177 -2.0017 -0.4634
 5755SOL     OW28723   3.730   1.796   7.328 -0.1781 -0.1262 -0.4347
 5755SOL    HW128724   3.718   1.889   7.345 -1.7391 -0.4879  0.4935
 5755SOL    HW228725   3.794   1.801   7.258 -0.4235  0.6901 -0.5968
 5756SOL     OW28726   4.081   1.003   7.697 -0.0204  0.1528 -0.1918
 5756SOL    HW128727   4.094   1.056   7.775 -0.5637 -1.1350  0.7636
 5756SOL    HW228728   3.990   0.976   7.704  0.4965 -1.3999  0.4581
 5757SOL     OW28729   2.995   0.749   6.440  0.2360 -0.0410 -0.5257
 5757SOL    HW128730   2.936   0.683   6.403  1.5665 -1.3091 -0.3976
 5757SOL    HW228731   2.998   0.707   6.526  3.5699 -0.8909 -1.0496
 5758SOL     OW28732   3.733   0.906  13.149 -0.5684  0.1467 -0.0070
 5758SOL    HW128733   3.795   0.835  13.165 -1.2881 -0.6734 -0.8809
 5758SOL    HW228734   3.715   0.927  13.241 -1.1612 -2.4370  0.4605
 5759SOL     OW28735   1.158   4.250   8.567 -0.2378  0.1396  0.1737
 5759SOL    HW128736   1.253   4.247   8.568 -0.2587  0.0324  1.3292
 5759SOL    HW228737   1.141   4.215   8.479 -0.4880  0.0736  0.2478
 5760SOL     OW28738   0.833   0.951  10.373 -0.0492  0.6685  0.0293
 5760SOL    HW128739   0.890   1.017  10.414  0.9860  0.3743 -0.9381
 5760SOL    HW228740   0.877   0.919  10.294 -0.4626 -0.5092  0.2691
 5761SOL     OW28741   4.428   3.642   6.701  0.5086  0.1975  0.3906
 5761SOL    HW128742   4.512   3.686   6.711  0.0872  1.1894 -0.5357
 5761SOL    HW228743   4.458   3.568   6.647  1.3239  1.0966 -0.3793
 5762SOL     OW28744   4.115   1.803   5.118 -0.1111  0.2428  0.1012
 5762SOL    HW128745   4.189   1.851   5.156 -0.8123 -0.4042  2.3244
 5762SOL    HW228746   4.132   1.808   5.024 -0.0137 -1.9041 -0.0084
 5763SOL     OW28747   3.427   1.150   2.175  0.0916 -0.4396 -0.2364
 5763SOL    HW128748   3.362   1.200   2.126  2.4210  1.0001 -1.8745
 5763SOL    HW228749   3.506   1.205   2.171  1.0413 -2.0453 -3.6285
 5764SOL     OW28750   1.440   4.408   4.642  0.2348 -0.0249 -0.0769
 5764SOL    HW128751   1.455   4.451   4.726 -1.0480  0.4127 -0.0787
 5764SOL    HW228752   1.531   4.400   4.613 -0.1993 -0.2546 -1.3898
 5765SOL     OW28753   0.589   2.301   6.788 -0.0414  0.1704  0.4753
 5765SOL    HW128754   0.494   2.303   6.785 -0.0383 -2.1192 -1.6116
 5765SOL    HW228755   0.611   2.302   6.694  0.2197 -0.1696  0.5300
 5766SOL     OW28756   2.242   4.290   5.767 -0.0942  0.1351  0.0765
 5766SOL    HW128757   2.327   4.248   5.784  0.7103  0.7024 -2.4884
 5766SOL    HW228758   2.244   4.369   5.821 -3.3923 -0.0993  0.5330
 5767SOL     OW28759   2.160   4.635   7.358  0.4092 -0.4513 -0.0734
 5767SOL    HW128760   2.224   4.672   7.419  1.9715  0.0497 -2.0254
 5767SOL    HW228761   2.153   4.545   7.389 -0.2387  0.3272  2.0186
 5768SOL     OW28762   2.115   3.510   3.746 -0.2789 -0.1327  0.1668
 5768SOL    HW128763   2.091   3.600   3.764  0.4043 -0.0313  0.5503
 5768SOL    HW228764   2.043   3.460   3.784  1.1231 -1.1260  1.4960
 5769SOL     OW28765   1.550   0.065   3.641 -0.5714  0.3734  0.0882
 5769SOL    HW128766   1.621   0.001   3.643 -1.0178 -0.1428 -0.9379
 5769SOL    HW228767   1.489   0.021   3.700 -0.7843 -0.6838 -0.9493
 5770SOL     OW28768   2.036   1.586   6.387 -0.2071 -0.4467 -0.1951
 5770SOL    HW128769   2.069   1.550   6.470 -1.5395 -1.4829 -0.1181
 5770SOL    HW228770   2.058   1.679   6.398  0.9169 -0.9160  1.7345
 5771SOL     OW28771   0.389   1.050   7.501  0.3487 -0.2843  0.2202
 5771SOL    HW128772   0.440   1.113   7.449 -1.2082  2.1722  1.6692
 5771SOL    HW228773   0.443   0.973   7.482  1.3743  0.8085 -1.3524
 5772SOL     OW28774   0.050   2.725  16.856  0.6586  0.2128 -0.0782
 5772SOL    HW128775   4.693   2.766  16.819 -0.4417 -1.3601  0.4580
 5772SOL    HW228776   0.114   2.732  16.785  0.5482 -0.1839 -0.2216
 5773SOL     OW28777   2.271   2.839   9.556 -0.1652  0.1987  0.0748
 5773SOL    HW128778   2.258   2.746   9.536  0.2265  0.1900 -0.1355
 5773SOL    HW228779   2.299   2.834   9.647 -0.3598 -0.2819  0.1083
 5774SOL     OW28780   3.501   1.053   8.918 -0.5043  0.0251 -0.3140
 5774SOL    HW128781   3.501   0.968   8.874  0.0737  0.3875 -1.0012
 5774SOL    HW228782   3.435   1.102   8.868 -1.0231 -2.0716 -1.6982
 5775SOL     OW28783   4.173   3.983  13.715  0.1865  0.4698  0.4130
 5775SOL    HW128784   4.210   4.047  13.655 -0.0893  0.5586  0.3406
 5775SOL    HW228785   4.226   3.906  13.693  0.1737 -0.6514  4.3508
 5776SOL     OW28786   4.031   1.363   3.378 -0.1336 -0.0029  0.3680
 5776SOL    HW128787   3.973   1.436   3.356  0.2273  0.0927 -0.2652
 5776SOL    HW228788   4.060   1.345   3.289 -1.6987  0.5666 -0.2604
 5777SOL     OW28789   2.154   0.491   1.159 -0.1382  0.4325  0.2882
 5777SOL    HW128790   2.112   0.574   1.179  1.8647  1.5146 -0.0748
 5777SOL    HW228791   2.082   0.430   1.176 -0.9242  0.4958 -2.8172
 5778SOL     OW28792   3.337   4.110   4.216  0.3395 -0.2392  0.2487
 5778SOL    HW128793   3.325   4.044   4.147  0.1121 -0.7148  0.7469
 5778SOL    HW228794   3.306   4.190   4.172 -1.3371 -2.1031 -2.0078
 5779SOL     OW28795   3.007   0.715  13.642 -0.0431 -0.1526 -0.3431
 5779SOL    HW128796   3.021   0.763  13.561  0.7688  0.5702  0.2291
 5779SOL    HW228797   2.952   0.781  13.685 -0.0265  0.8689 -1.9102
 5780SOL     OW28798   0.228   3.505   3.064  0.8264 -0.4233 -0.9000
 5780SOL    HW128799   0.185   3.567   3.123 -0.6904 -1.5783 -0.7649
 5780SOL    HW228800   0.211   3.550   2.981  1.2030  0.7853 -0.3109
 5781SOL     OW28801   4.217   3.418   8.886  0.7173  0.0800 -0.0730
 5781SOL    HW128802   4.189   3.375   8.967 -0.6276 -1.4335 -1.3518
 5781SOL    HW228803   4.172   3.500   8.907 -1.7436 -1.0746 -0.8203
 5782SOL     OW28804   3.256   4.365   9.403  1.0046 -0.3114  0.0753
 5782SOL    HW128805   3.170   4.396   9.432  0.6931  0.1414 -1.3574
 5782SOL    HW228806   3.231   4.320   9.323 -1.9474 -0.1027  0.8790
 5783SOL     OW28807   3.188   0.395   3.356  0.3391  0.4184 -0.5386
 5783SOL    HW128808   3.283   0.387   3.352  0.3488 -0.1141  0.6978
 5783SOL    HW228809   3.170   0.454   3.283  0.9549 -0.0979 -1.0972
 5784SOL     OW28810   1.644   1.686   6.065 -0.0751 -0.2880 -0.3389
 5784SOL    HW128811   1.684   1.623   6.005  1.6802 -1.2343  1.8169
 5784SOL    HW228812   1.625   1.634   6.143 -1.0239  1.1549  0.3905
 5785SOL     OW28813   0.609   1.016   5.039 -0.3831 -0.2707  0.6252
 5785SOL    HW128814   0.669   1.047   5.107  0.3977 -1.2300  0.3768
 5785SOL    HW228815   0.656   1.042   4.960 -1.2049 -1.3261 -0.1945
 5786SOL     OW28816   1.484   1.306   0.574  0.0035  0.3078  0.4191
 5786SOL    HW128817   1.450   1.218   0.562  1.5972 -0.9945  5.6287
 5786SOL    HW228818   1.432   1.345   0.503  1.1755  1.1616  0.0153
 5787SOL     OW28819   1.639   3.674  13.479 -0.5067 -0.6626  0.1621
 5787SOL    HW128820   1.622   3.744  13.416  2.8816 -0.7538 -0.8243
 5787SOL    HW228821   1.584   3.699  13.553 -2.2112 -0.8977 -1.0013
 5788SOL     OW28822   3.079   0.387   9.842 -0.2469 -0.4945 -0.4375
 5788SOL    HW128823   3.002   0.433   9.876  1.2025 -2.3854  5.3262
 5788SOL    HW228824   3.096   0.318   9.906 -1.3308 -0.5275 -0.1743
 5789SOL     OW28825   2.536   2.802   1.644 -0.2888  0.4597  0.4739
 5789SOL    HW128826   2.492   2.876   1.604 -0.7616  0.1501  0.4275
 5789SOL    HW228827   2.526   2.736   1.575 -2.4447  0.7560  0.5254
 5790SOL     OW28828   2.805   0.098   4.557  0.6196  0.4389 -0.1501
 5790SOL    HW128829   2.734   0.120   4.497 -0.7790  0.3975  1.5144
 5790SOL    HW228830   2.772   0.018   4.596  0.8347  0.7092  0.5874
 5791SOL     OW28831   2.879   4.385  13.091 -0.1142  0.2105  0.6184
 5791SOL    HW128832   2.925   4.351  13.014 -2.4060  1.8669 -1.4545
 5791SOL    HW228833   2.794   4.417  13.061  0.1147 -0.5176 -0.7977
 5792SOL     OW28834   4.133   2.467   4.216 -0.7182  0.4579 -0.0599
 5792SOL    HW128835   4.095   2.406   4.278 -0.9585 -1.6442 -2.2534
 5792SOL    HW228836   4.210   2.422   4.182  0.2155 -0.0659  2.7525
 5793SOL     OW28837   1.162   2.390   8.926 -0.2066  0.2166  0.9375
 5793SOL    HW128838   1.143   2.453   8.857 -0.9965 -1.7038 -0.5953
 5793SOL    HW228839   1.107   2.420   8.999  0.5339 -1.4265  2.1642
 5794SOL     OW28840   1.827   0.953   4.206 -0.1638 -0.5907  0.4380
 5794SOL    HW128841   1.905   0.920   4.253  0.1999 -0.3919 -0.0295
 5794SOL    HW228842   1.755   0.904   4.247 -1.3500  0.6075 -0.2493
 5795SOL     OW28843   1.605   1.023   3.854  0.1920  0.5443  0.6061
 5795SOL    HW128844   1.517   1.031   3.817  1.6843  0.1416 -3.1047
 5795SOL    HW228845   1.635   0.938   3.822 -0.5644  0.2410  0.6929
 5796SOL     OW28846   3.586   0.336   4.827  0.7812 -0.3234 -0.3937
 5796SOL    HW128847   3.592   0.289   4.744  1.0599 -0.9194 -0.0322
 5796SOL    HW228848   3.493   0.322   4.845  1.1114  1.3687  2.7993
 5797SOL     OW28849   3.084   0.934   3.181 -0.0859 -0.5653 -0.5025
 5797SOL    HW128850   3.006   0.912   3.130 -1.2524  0.7669  0.7500
 5797SOL    HW228851   3.075   0.898   3.269 -0.9768 -0.1188 -0.4188
 5798SOL     OW28852   3.585   4.334  11.062  0.2537 -0.0237 -0.9833
 5798SOL    HW128853   3.581   4.271  10.990 -2.0809 -0.1684 -0.7305
 5798SOL    HW228854   3.615   4.275  11.131  0.4801  1.4501  0.1752
 5799SOL     OW28855   1.856   4.292   9.347 -0.8583  0.0274  0.3160
 5799SOL    HW128856   1.780   4.241   9.319  1.1927 -1.7599 -1.9570
 5799SOL    HW228857   1.900   4.329   9.270 -2.9347  1.5122 -0.1496
 5800SOL     OW28858   4.424   0.862  16.849 -0.0618 -0.3552 -0.1956
 5800SOL    HW128859   4.416   0.935  16.789  1.1262 -0.0590  0.0141
 5800SOL    HW228860   4.349   0.810  16.820 -2.3055  2.1777  1.0893
 5801SOL     OW28861   3.452   4.498   9.613  0.4780 -0.1065  0.6792
 5801SOL    HW128862   3.382   4.438   9.589  1.8183 -1.9161  1.2153
 5801SOL    HW228863   3.432   4.577   9.563  0.2243 -0.2378  0.5762
 5802SOL     OW28864   0.736   1.133  12.146  0.3115 -0.1541  0.5245
 5802SOL    HW128865   0.641   1.129  12.140  0.4266  0.5918 -1.9339
 5802SOL    HW228866   0.755   1.152  12.054  1.7313 -0.6217  0.7050
 5803SOL     OW28867   3.676   0.442  17.517  0.2804  0.3713  0.1745
 5803SOL    HW128868   3.731   0.400  17.583  1.2539  1.8665  0.3246
 5803SOL    HW228869   3.700   0.390  17.440  0.1903  1.9305 -0.9321
 5804SOL     OW28870   3.918   1.213   6.683  0.0151 -0.5869 -0.3328
 5804SOL    HW128871   3.862   1.145   6.645 -0.2721 -0.7241  0.3402
 5804SOL    HW228872   3.968   1.157   6.743  2.0921 -1.4902 -2.9070
 5805SOL     OW28873   2.107   0.338   9.737 -0.9596  0.5823  0.1167
 5805SOL    HW128874   2.070   0.312   9.821 -0.9755 -2.9010 -0.9808
 5805SOL    HW228875   2.031   0.374   9.692 -1.2976  0.3601  0.5147
 5806SOL     OW28876   0.553   2.430   0.398 -0.5320 -0.2192 -0.0689
 5806SOL    HW128877   0.592   2.347   0.426 -0.8234 -1.2146 -2.5523
 5806SOL    HW228878   0.545   2.477   0.481 -0.3598  0.9749 -0.7289
 5807SOL     OW28879   2.198   0.029   9.445 -0.3428 -0.1428  0.4909
 5807SOL    HW128880   2.109   4.716   9.448 -0.2348 -0.3712  1.1735
 5807SOL    HW228881   2.246   4.686   9.499 -1.8154 -0.8141  1.0086
 5808SOL     OW28882   3.699   4.359   2.706  0.1726  0.2535 -0.0947
 5808SOL    HW128883   3.630   4.321   2.760  0.2571  0.2964  0.0449
 5808SOL    HW228884   3.648   4.387   2.630  1.4162 -1.0055 -1.4088
 5809SOL     OW28885   1.135   0.436   1.785  0.1013  0.2499  0.0072
 5809SOL    HW128886   1.205   0.493   1.751  0.8798 -0.7004  0.0328
 5809SOL    HW228887   1.066   0.459   1.723  0.7044 -1.2018 -1.1920
 5810SOL     OW28888   3.123   3.950  12.190  0.2601 -0.2104  0.4936
 5810SOL    HW128889   3.153   4.008  12.260  0.6397  0.1658  0.0210
 5810SOL    HW228890   3.033   3.940  12.221  0.0516 -0.8577 -0.3177
 5811SOL     OW28891   1.404   1.221   5.649 -0.4404  0.4495 -1.4849
 5811SOL    HW128892   1.321   1.237   5.603 -1.1927 -1.5872 -0.8259
 5811SOL    HW228893   1.427   1.303   5.691  1.0259 -1.3070  1.1031
 5812SOL     OW28894   4.070   1.907   0.798  0.2565  0.4448  0.1637
 5812SOL    HW128895   3.977   1.888   0.788  0.1490  1.3023 -0.4623
 5812SOL    HW228896   4.094   1.816   0.780  0.4923  0.6471 -0.5536
 5813SOL     OW28897   4.162   0.110   3.177  0.1255  0.2808  0.0838
 5813SOL    HW128898   4.106   0.099   3.254  1.1205  1.3288  0.9599
 5813SOL    HW228899   4.120   0.055   3.110  2.6959 -0.9917 -0.4795
 5814SOL     OW28900   0.380   1.663  11.286 -0.3410 -0.2200  0.0460
 5814SOL    HW128901   0.310   1.691  11.228 -0.3343 -1.6887 -0.6934
 5814SOL    HW228902   0.445   1.731  11.267 -1.1686  0.4173 -0.4675
 5815SOL     OW28903   3.781   4.580   0.743  0.0341 -0.2533  0.1556
 5815SOL    HW128904   3.867   4.621   0.745 -0.4370  0.6508  1.8322
 5815SOL    HW228905   3.783   4.541   0.656  0.6499 -0.1781  0.1392
 5816SOL     OW28906   1.068   4.126  12.921 -0.1760  0.5646 -0.6862
 5816SOL    HW128907   0.989   4.171  12.891 -0.9169 -1.6659 -2.1257
 5816SOL    HW228908   1.129   4.160  12.855 -0.5062 -0.9397 -1.7686
 5817SOL     OW28909   3.623   3.412   1.729  0.5682  0.1411 -0.3494
 5817SOL    HW128910   3.573   3.468   1.789  0.6467 -1.2324  1.0102
 5817SOL    HW228911   3.597   3.327   1.765 -0.8224  1.4705  1.8108
 5818SOL     OW28912   3.254   2.417   2.366  0.0916  0.5323  0.4044
 5818SOL    HW128913   3.227   2.394   2.277  0.1914 -0.9442  0.7662
 5818SOL    HW228914   3.179   2.405   2.424 -1.0105 -0.4426 -1.1897
 5819SOL     OW28915   3.182   1.831   6.510  0.3156  0.0625 -0.7401
 5819SOL    HW128916   3.179   1.877   6.426  2.3261  2.8376  0.7257
 5819SOL    HW228917   3.269   1.865   6.532  0.2857  1.2742 -2.4964
 5820SOL     OW28918   0.905   2.164   4.628 -0.2137  0.4736  0.2471
 5820SOL    HW128919   0.981   2.191   4.577 -1.1138 -0.1717 -1.4384
 5820SOL    HW228920   0.920   2.069   4.630 -3.0560  0.0141 -0.4869
 5821SOL     OW28921   0.055   3.874   4.183 -0.1228  0.0061  0.1071
 5821SOL    HW128922   0.020   3.809   4.244 -0.7554  0.3866  0.1491
 5821SOL    HW228923   0.132   3.822   4.161 -1.0362 -1.3697  0.1795
 5822SOL     OW28924   0.460   4.205   3.930 -0.1569 -0.1731  0.2383
 5822SOL    HW128925   0.534   4.204   3.991  1.0344 -2.6849 -1.2832
 5822SOL    HW228926   0.422   4.118   3.923  0.4027 -0.1197 -3.4937
 5823SOL     OW28927   2.453   4.680   9.551 -0.5646  0.3848  0.1328
 5823SOL    HW128928   2.514   4.615   9.585 -0.8596 -0.5747 -1.1781
 5823SOL    HW228929   2.482   0.028   9.611  2.8065 -1.5398  0.7635
 5824SOL     OW28930   3.065   3.533   8.696  0.0738 -0.0740 -0.3295
 5824SOL    HW128931   3.012   3.484   8.759 -0.7208  1.5645  0.2665
 5824SOL    HW228932   3.141   3.474   8.697  1.3930  1.6497  1.2406
 5825SOL     OW28933   2.964   4.252  11.000 -0.9936 -0.1404 -0.2390
 5825SOL    HW128934   3.043   4.199  10.989 -0.1590  0.5885  2.2325
 5825SOL    HW228935   2.904   4.200  10.947  0.4651 -1.5692 -0.4797
 5826SOL     OW28936   2.871   1.961   9.245 -0.7137  0.1302 -0.6424
 5826SOL    HW128937   2.824   1.983   9.325  1.2093 -1.0469  0.7809
 5826SOL    HW228938   2.931   1.900   9.287  1.2612  1.2263 -1.8847
 5827SOL     OW28939   2.913   0.292  10.164 -0.5519 -0.2351  0.2858
 5827SOL    HW128940   2.874   0.282  10.077  0.0603 -2.7951  0.3237
 5827SOL    HW228941   2.838   0.329  10.211 -1.0350  2.8733 -2.9339
 5828SOL     OW28942   2.470   2.429   4.699 -0.1837  0.7642 -0.3093
 5828SOL    HW128943   2.500   2.383   4.621  1.8010 -0.1415  0.9772
 5828SOL    HW228944   2.516   2.512   4.683  0.7582  0.7681  2.4540
 5829SOL     OW28945   0.301   0.414  16.847  0.1141  0.0627  0.0644
 5829SOL    HW128946   0.335   0.408  16.937 -0.2613 -0.0623  0.1991
 5829SOL    HW228947   0.339   0.340  16.801 -2.2590  0.0872 -1.9140
 5830SOL     OW28948   3.664   1.644   3.154 -0.2796 -0.1134 -0.4845
 5830SOL    HW128949   3.593   1.598   3.109  0.2324  0.3574 -1.7773
 5830SOL    HW228950   3.708   1.562   3.180 -1.3737 -1.0670 -1.6631
 5831SOL     OW28951   2.942   4.659   4.136  0.1359  0.4491  0.6572
 5831SOL    HW128952   2.863   4.682   4.087 -0.2359  1.1070  1.5577
 5831SOL    HW228953   3.000   4.622   4.070 -0.3365  1.2092 -0.1874
 5832SOL     OW28954   1.833   0.424  12.948  0.0694  0.1641 -0.0439
 5832SOL    HW128955   1.811   0.517  12.954 -2.3185 -0.4672  1.5141
 5832SOL    HW228956   1.878   0.422  12.864  2.9716  0.2119  1.5338
 5833SOL     OW28957   1.549   3.545   1.889 -0.1103 -0.3002 -0.7483
 5833SOL    HW128958   1.471   3.577   1.843 -0.5899  0.5808  0.6696
 5833SOL    HW228959   1.519   3.551   1.979  0.0759 -1.0099 -0.6423
 5834SOL     OW28960   3.950   1.101   4.244  0.3054  0.6214  0.4385
 5834SOL    HW128961   3.868   1.090   4.291  0.4365 -1.5110  0.1861
 5834SOL    HW228962   3.950   1.012   4.208 -0.9331  1.3528 -1.3594
 5835SOL     OW28963   3.329   1.227   6.916 -0.1175 -0.6264 -0.0255
 5835SOL    HW128964   3.282   1.297   6.961 -0.3203  0.6198 -2.1483
 5835SOL    HW228965   3.288   1.226   6.830 -0.1214 -1.0208 -0.0196
 5836SOL     OW28966   1.016   4.692   4.302  0.0176 -0.0160  0.1854
 5836SOL    HW128967   0.940   4.718   4.249 -1.0032 -0.8325  1.2747
 5836SOL    HW228968   1.003   0.011   4.388 -2.7718  0.6654 -0.5367
 5837SOL     OW28969   2.909   1.760   5.144 -0.3090  0.3579 -0.5225
 5837SOL    HW128970   2.969   1.748   5.217  0.4836  0.0488 -1.2255
 5837SOL    HW228971   2.838   1.796   5.196 -0.4738  0.9098 -1.1318
 5838SOL     OW28972   4.074   1.687   2.256  0.8010 -0.1539 -0.7864
 5838SOL    HW128973   4.049   1.598   2.282  1.9335 -0.5667 -1.1311
 5838SOL    HW228974   3.997   1.737   2.282  0.9258 -0.7525  0.7006
 5839SOL     OW28975   4.322   0.372   3.598 -0.1754  0.6126  0.3570
 5839SOL    HW128976   4.305   0.452   3.647  1.6424  0.2682  1.5466
 5839SOL    HW228977   4.396   0.404   3.547  0.5887 -0.2167  0.9588
 5840SOL     OW28978   1.471   3.553   1.493 -0.1384  0.2076 -0.2804
 5840SOL    HW128979   1.537   3.509   1.439 -0.5311 -0.6997 -0.0172
 5840SOL    HW228980   1.494   3.644   1.474 -0.2726  0.3738  0.3717
 5841SOL     OW28981   4.049   0.173  13.693 -0.3416  0.0478 -0.2467
 5841SOL    HW128982   4.078   0.172  13.784  2.0781 -0.5582 -1.0319
 5841SOL    HW228983   3.957   0.198  13.695 -0.9587 -2.0851 -2.1921
 5842SOL     OW28984   4.649   4.296   4.898  0.3183 -0.1734  0.6202
 5842SOL    HW128985   4.576   4.350   4.868  1.6207  0.0645 -2.0441
 5842SOL    HW228986   4.714   4.303   4.828  0.2395 -0.4976  0.5122
 5843SOL     OW28987   4.576   2.132  16.012 -0.2083  0.3689  0.0259
 5843SOL    HW128988   4.489   2.103  15.985  0.3349 -1.3144  0.0903
 5843SOL    HW228989   4.551   2.162  16.100 -2.0780 -0.8905 -0.0726
 5844SOL     OW28990   0.685   3.562  12.566  0.4414 -0.0844 -0.0118
 5844SOL    HW128991   0.660   3.565  12.659  1.1670  1.3063  0.1341
 5844SOL    HW228992   0.620   3.619  12.526  1.1785  0.6090 -0.2340
 5845SOL     OW28993   3.548   2.291  16.478  0.3135  0.4745  0.7946
 5845SOL    HW128994   3.591   2.317  16.397  0.0317  0.1330  0.5335
 5845SOL    HW228995   3.518   2.205  16.446 -0.1708  1.3885 -1.1866
 5846SOL     OW28996   0.897   1.019   4.518  0.0804 -0.4628 -0.1236
 5846SOL    HW128997   0.844   1.053   4.591  0.1003 -1.0217  0.1543
 5846SOL    HW228998   0.841   0.953   4.476  0.5106  0.5611 -2.2911
 5847SOL     OW28999   1.363   1.935  16.497  0.1223 -0.3701  0.3529
 5847SOL    HW129000   1.394   1.855  16.455 -1.1394 -0.5936 -0.1452
 5847SOL    HW229001   1.383   1.916  16.589  0.9561  0.3112  0.3151
 5848SOL     OW29002   0.726   3.004   2.667 -0.0523 -0.0605 -0.6856
 5848SOL    HW129003   0.795   3.065   2.694 -0.5333  0.3970 -0.4803
 5848SOL    HW229004   0.780   2.933   2.632 -0.4545  0.4848 -2.4024
 5849SOL     OW29005   2.213   3.864   5.896 -0.3060  0.3702 -0.3747
 5849SOL    HW129006   2.191   3.770   5.894 -0.6645  0.5100 -3.0683
 5849SOL    HW229007   2.162   3.899   5.969  0.3913 -0.9184  0.7323
 5850SOL     OW29008   1.545   3.819   5.818  0.1111 -0.0921 -0.5417
 5850SOL    HW129009   1.457   3.838   5.783 -0.0441 -0.6897 -0.4760
 5850SOL    HW229010   1.600   3.886   5.777  0.2829 -0.6810 -1.2923
 5851SOL     OW29011   1.852   1.349   8.359 -0.2739 -0.3092  0.3746
 5851SOL    HW129012   1.909   1.410   8.313  0.7064 -1.2238  0.3650
 5851SOL    HW229013   1.785   1.407   8.395  0.1871  0.4965 -0.0675
 5852SOL     OW29014   3.600   0.047   9.288 -0.2164 -0.4714  0.1456
 5852SOL    HW129015   3.583   0.113   9.355  2.5706 -0.9672  1.3329
 5852SOL    HW229016   3.540   4.698   9.311 -0.3758  0.1277  1.5301
 5853SOL     OW29017   3.178   4.434  10.726  0.0639  0.0380 -0.0901
 5853SOL    HW129018   3.161   4.343  10.752 -0.3797 -0.2819 -1.4850
 5853SOL    HW229019   3.244   4.415  10.659  0.9095 -3.0400  1.6118
 5854SOL     OW29020   0.256   3.749  12.594  0.8146  0.9925  0.6293
 5854SOL    HW129021   0.233   3.709  12.678 -1.8935 -1.1998 -1.1387
 5854SOL    HW229022   0.205   3.829  12.604 -1.0008 -0.1622  0.6351
 5855SOL     OW29023   1.520   4.087   1.952 -0.5550  0.1369 -0.3232
 5855SOL    HW129024   1.577   4.011   1.967 -0.3889  0.5487  1.1518
 5855SOL    HW229025   1.571   4.151   2.002 -0.4421 -0.1588 -0.0572
 5856SOL     OW29026   1.654   1.185  15.201  0.1373 -0.1224  0.0419
 5856SOL    HW129027   1.700   1.262  15.235  1.5132 -0.3536 -1.2917
 5856SOL    HW229028   1.705   1.175  15.120 -0.6472 -2.8789 -0.1189
 5857SOL     OW29029   0.867   2.405   2.142 -0.5705 -0.5322 -0.2932
 5857SOL    HW129030   0.951   2.363   2.123  0.0699  0.5145  0.2319
 5857SOL    HW229031   0.863   2.479   2.081  0.2772 -0.0414  0.2452
 5858SOL     OW29032   4.247   3.819  17.211 -0.1763  0.0102 -0.5863
 5858SOL    HW129033   4.229   3.754  17.143 -3.4476  1.2680 -0.9542
 5858SOL    HW229034   4.174   3.873  17.180  0.2571  1.0513  0.2065
 5859SOL     OW29035   3.776   1.012   3.114 -0.3559 -0.0015  0.4095
 5859SOL    HW129036   3.792   0.918   3.108 -1.6835 -0.1108 -1.4508
 5859SOL    HW229037   3.825   1.056   3.183 -0.3671 -0.7249  0.8764
 5860SOL     OW29038   3.435   2.172   5.338 -0.2186 -0.4910  0.2177
 5860SOL    HW129039   3.374   2.103   5.309  1.5044 -0.6163 -3.0850
 5860SOL    HW229040   3.396   2.233   5.275 -1.6802 -1.3745  0.2562
 5861SOL     OW29041   4.319   2.571   3.375 -0.2285  0.2629 -0.4435
 5861SOL    HW129042   4.342   2.632   3.305 -0.7792  0.7002 -0.2411
 5861SOL    HW229043   4.313   2.633   3.447  2.3791 -1.5671  1.3430
 5862SOL     OW29044   0.886   4.540   5.337  0.1641  0.3979  0.5846
 5862SOL    HW129045   0.799   4.511   5.310  1.2943 -1.8225 -0.6888
 5862SOL    HW229046   0.915   4.449   5.345 -1.3833 -0.0796  0.8960
 5863SOL     OW29047   2.537   0.542   4.861  0.5416 -0.5810  0.2377
 5863SOL    HW129048   2.623   0.527   4.821  0.6541 -0.6590  0.5064
 5863SOL    HW229049   2.545   0.637   4.871 -0.9306 -0.4832  0.4148
 5864SOL     OW29050   4.468   2.368  10.575 -0.0441  0.9076 -0.2259
 5864SOL    HW129051   4.388   2.316  10.562  1.8530 -2.8857  3.1088
 5864SOL    HW229052   4.535   2.314  10.534 -1.3774  0.6208 -1.9998
 5865SOL     OW29053   3.486   4.065   6.309  0.7613 -0.1175 -0.2202
 5865SOL    HW129054   3.538   4.140   6.280 -0.6839  0.3145 -1.6771
 5865SOL    HW229055   3.546   4.017   6.366  0.7102  0.8853  0.6874
 5866SOL     OW29056   0.125   4.312   4.342  0.2660 -0.6736 -1.2477
 5866SOL    HW129057   0.086   4.227   4.358 -2.3949  0.7860  0.0512
 5866SOL    HW229058   0.215   4.280   4.340  0.0459 -1.4160  1.0976
 5867SOL     OW29059   3.305   1.201  15.074  0.2296 -0.8075 -0.6129
 5867SOL    HW129060   3.306   1.126  15.134 -0.6120  0.0701  0.4852
 5867SOL    HW229061   3.387   1.189  15.026 -1.3032 -0.4933 -3.3067
 5868SOL     OW29062   0.803   1.800   4.637  0.1858  0.4710 -0.0960
 5868SOL    HW129063   0.847   1.732   4.689 -0.1098  0.0238 -0.4302
 5868SOL    HW229064   0.712   1.796   4.665  0.6914  0.9330  1.5927
 5869SOL     OW29065   0.260   3.566   6.379  0.3880 -0.1901 -0.1668
 5869SOL    HW129066   0.195   3.633   6.400 -0.8042 -1.2069 -0.5995
 5869SOL    HW229067   0.309   3.609   6.308 -1.7403 -0.7610 -1.9694
 5870SOL     OW29068   2.350   2.452   4.070  0.6496 -0.1424 -0.1480
 5870SOL    HW129069   2.321   2.543   4.076  0.7579 -0.1453  0.4643
 5870SOL    HW229070   2.272   2.403   4.096  1.5739 -1.3412  0.3584
 5871SOL     OW29071   1.534   3.117  15.956  0.2539  0.0891 -0.3005
 5871SOL    HW129072   1.547   3.022  15.954  0.8893  0.2582 -3.1500
 5871SOL    HW229073   1.440   3.110  15.976 -0.0937  0.4549 -1.7923
 5872SOL     OW29074   3.681   2.461   7.393  0.5296 -0.6203 -0.0415
 5872SOL    HW129075   3.671   2.452   7.298  0.6179  0.3980 -0.1475
 5872SOL    HW229076   3.774   2.486   7.388 -0.1166  1.3139 -2.3290
 5873SOL     OW29077   2.780   2.250   6.268 -0.3333  0.3067  0.1260
 5873SOL    HW129078   2.738   2.329   6.235 -1.8103  0.1600  1.6198
 5873SOL    HW229079   2.704   2.200   6.297 -0.2531  0.1857  0.1270
 5874SOL     OW29080   4.172   2.801   0.915 -0.3878  0.2758  0.2044
 5874SOL    HW129081   4.086   2.768   0.942 -1.3356  1.3739 -1.4846
 5874SOL    HW229082   4.235   2.740   0.953 -0.5060  0.8924  1.3954
 5875SOL     OW29083   3.327   4.719  16.318  0.4354  0.1092 -0.1638
 5875SOL    HW129084   3.408   4.710  16.369  0.4425 -1.2613 -0.4193
 5875SOL    HW229085   3.349   0.024  16.229  0.4670  1.6265  0.2765
 5876SOL     OW29086   0.907   3.683   3.529 -0.7158  0.1713  1.3028
 5876SOL    HW129087   0.819   3.709   3.556 -1.6260 -2.5487  0.9574
 5876SOL    HW229088   0.895   3.588   3.524 -0.2175  0.1962 -0.5072
 5877SOL     OW29089   3.193   4.008   5.553 -0.5394 -0.0913  0.3489
 5877SOL    HW129090   3.227   3.940   5.611  0.2510 -1.8064 -2.0886
 5877SOL    HW229091   3.101   4.007   5.580 -0.1110 -0.4036  1.8055
 5878SOL     OW29092   4.014   2.579   9.132 -0.5449 -0.1513  0.5473
 5878SOL    HW129093   4.038   2.573   9.040 -0.2829  1.0760  0.5471
 5878SOL    HW229094   4.002   2.674   9.135  0.7967  0.0178  0.2006
 5879SOL     OW29095   0.724   4.176   5.673 -0.8601 -0.0048 -0.0933
 5879SOL    HW129096   0.796   4.202   5.730 -1.8438 -0.8398  1.5290
 5879SOL    HW229097   0.656   4.233   5.710  0.3288  1.2935  0.1130
 5880SOL     OW29098   3.286   1.224   1.946  0.1724  0.2048 -0.3710
 5880SOL    HW129099   3.350   1.210   1.877  0.4983  0.6058 -0.1531
 5880SOL    HW229100   3.259   1.314   1.931 -2.7334 -0.3458  1.5086
 5881SOL     OW29101   3.917   2.992   1.461  0.1708 -0.1044 -0.6447
 5881SOL    HW129102   3.826   2.966   1.476  0.2086  0.8347  1.2809
 5881SOL    HW229103   3.969   2.917   1.490 -0.3006 -0.6783 -1.3032
 5882SOL     OW29104   4.601   1.269  16.719 -0.1274  0.2396  0.1198
 5882SOL    HW129105   4.584   1.280  16.626 -1.1666 -0.8362  0.1743
 5882SOL    HW229106   4.648   1.186  16.727  2.3968  1.6398 -0.5146
 5883SOL     OW29107   3.031   0.439   8.223 -1.2309 -0.4060  0.2471
 5883SOL    HW129108   2.938   0.417   8.218 -1.0146 -1.3703  0.5232
 5883SOL    HW229109   3.071   0.353   8.233 -1.2269 -0.2149  1.9583
 5884SOL     OW29110   3.025   1.056  15.313  0.0529  0.5348 -0.8808
 5884SOL    HW129111   2.986   1.042  15.227 -2.0906  0.7006  0.0668
 5884SOL    HW229112   2.984   1.135  15.347  2.2922  1.2465  0.1691
 5885SOL     OW29113   2.775   0.461   9.160 -0.3877  0.1065  0.5412
 5885SOL    HW129114   2.763   0.395   9.228 -0.8081  0.2154  0.5748
 5885SOL    HW229115   2.715   0.529   9.190  1.8838  1.2124  2.4973
 5886SOL     OW29116   1.330   0.393   2.430 -0.5500  0.5556  0.2498
 5886SOL    HW129117   1.325   0.374   2.524  3.1102 -0.2891  0.2604
 5886SOL    HW229118   1.422   0.417   2.416 -0.2792 -0.3783  0.4817
 5887SOL     OW29119   0.476   2.141   4.873  0.9497  0.5816  0.3572
 5887SOL    HW129120   0.415   2.102   4.811  2.2076  0.2043 -0.6295
 5887SOL    HW229121   0.525   2.190   4.807  0.6320  1.3150  0.6600
 5888SOL     OW29122   1.035   0.967   3.615 -0.3367 -0.2491  0.0464
 5888SOL    HW129123   0.967   1.017   3.662 -0.2050  0.8735 -0.9794
 5888SOL    HW229124   1.037   1.012   3.531  0.5495  1.4568  0.9744
 5889SOL     OW29125   0.140   1.312  16.261  0.3841  0.0848  0.3782
 5889SOL    HW129126   0.119   1.302  16.354  1.9428 -1.7245  0.5384
 5889SOL    HW229127   0.072   1.257  16.222 -0.3920  0.4785  1.1816
 5890SOL     OW29128   0.898   1.516   5.022 -0.6183  0.0335  0.2372
 5890SOL    HW129129   0.988   1.491   5.001 -0.9838 -0.5619 -0.6635
 5890SOL    HW229130   0.848   1.453   4.968 -2.3712  2.8149 -1.3786
 5891SOL     OW29131   2.388   2.412   1.003 -0.6243 -0.2028 -0.4053
 5891SOL    HW129132   2.300   2.396   1.038 -0.3558 -0.0328  0.3441
 5891SOL    HW229133   2.440   2.379   1.076 -1.0143 -1.9075 -0.9098
 5892SOL     OW29134   4.387   4.606   8.259 -0.0576 -0.1811  0.3929
 5892SOL    HW129135   4.344   4.659   8.192  0.4413  1.0546  1.0467
 5892SOL    HW229136   4.475   4.643   8.259  0.0394 -0.4401 -2.2164
 5893SOL     OW29137   1.500   1.971  10.236  0.3687  0.3147  0.5849
 5893SOL    HW129138   1.438   1.947  10.305 -0.5291 -0.5678 -0.5259
 5893SOL    HW229139   1.586   1.952  10.274 -0.0107  0.2711  1.4184
 5894SOL     OW29140   2.935   0.119   8.677 -0.2798 -0.0542 -0.3902
 5894SOL    HW129141   2.964   0.171   8.752  0.8751 -2.5278  0.8894
 5894SOL    HW229142   2.842   0.113   8.700 -0.2190  1.6866  0.2778
 5895SOL     OW29143   2.638   4.002   8.504 -0.0333  0.0193  0.3017
 5895SOL    HW129144   2.702   4.005   8.576  0.2511 -1.6781  0.1105
 5895SOL    HW229145   2.658   3.916   8.468 -1.4091 -0.5760  0.9982
 5896SOL     OW29146   1.873   2.068  17.334  0.7467  0.2691  0.1302
 5896SOL    HW129147   1.909   2.129  17.269  0.4371  2.0666  1.6360
 5896SOL    HW229148   1.918   1.992  17.298  1.8591  2.1060 -2.3899
 5897SOL     OW29149   0.319   3.720   5.833  0.2943 -0.8724  0.0001
 5897SOL    HW129150   0.306   3.750   5.923  1.9581 -0.0922 -0.0114
 5897SOL    HW229151   0.332   3.626   5.844  2.2535 -0.5257  0.5518
 5898SOL     OW29152   1.184   4.235   6.965 -0.4203 -0.2813 -0.4674
 5898SOL    HW129153   1.174   4.141   6.949 -0.2962 -0.4244  0.2874
 5898SOL    HW229154   1.117   4.259   7.029  0.3411 -0.8700  0.5496
 5899SOL     OW29155   1.214   2.375  11.782  0.0208 -0.5565  0.0056
 5899SOL    HW129156   1.125   2.394  11.749 -0.2629  0.2431  1.2320
 5899SOL    HW229157   1.213   2.281  11.800 -0.8337 -0.4381  0.6186
 5900SOL     OW29158   2.252   2.704   1.189 -0.6366 -0.0488 -0.2553
 5900SOL    HW129159   2.293   2.674   1.270 -2.1413  2.5938  1.4986
 5900SOL    HW229160   2.272   2.798   1.186 -0.4756 -0.0883 -0.4312
 5901SOL     OW29161   1.718   3.748   9.915  0.2083 -0.2107  0.1353
 5901SOL    HW129162   1.644   3.748   9.854  0.9886  2.4388 -0.7977
 5901SOL    HW229163   1.738   3.841   9.905  0.7401  0.0320  3.3635
 5902SOL     OW29164   0.459   4.079  16.703  0.1531 -0.8169  0.4414
 5902SOL    HW129165   0.409   4.055  16.625  0.3661 -1.9554  0.6560
 5902SOL    HW229166   0.529   4.013  16.707  0.6970 -0.5277 -3.8490
 5903SOL     OW29167   3.485   1.448   4.072 -0.0401  0.0159 -0.6053
 5903SOL    HW129168   3.431   1.388   4.122 -0.9129 -0.2724 -1.8950
 5903SOL    HW229169   3.545   1.387   4.029 -0.3496  0.6270 -1.8923
 5904SOL     OW29170   3.841   3.346  16.461 -0.0711  0.1024  0.6585
 5904SOL    HW129171   3.868   3.263  16.422 -0.9922  0.2267 -0.2256
 5904SOL    HW229172   3.906   3.407  16.426  1.2586 -0.8862  1.3878
 5905SOL     OW29173   3.028   2.702  13.373  0.0792  0.0071 -0.3823
 5905SOL    HW129174   3.039   2.699  13.468 -0.2815 -0.6899 -0.3634
 5905SOL    HW229175   2.943   2.657  13.369  1.2558 -2.2631 -0.0969
 5906SOL     OW29176   2.372   4.283  14.982 -0.2504 -0.1921 -0.3229
 5906SOL    HW129177   2.398   4.204  15.030  0.2947 -0.4097 -0.9615
 5906SOL    HW229178   2.405   4.253  14.897 -0.8572 -2.2744  0.1783
 5907SOL     OW29179   0.194   4.696   5.823 -0.4117 -0.2445  0.2124
 5907SOL    HW129180   0.174   4.683   5.730  0.9858 -1.2941  0.0620
 5907SOL    HW229181   0.120   0.030   5.850 -2.0613 -1.8444 -1.0281
 5908SOL     OW29182   3.323   1.125  16.748 -0.2572  0.5242 -0.0162
 5908SOL    HW129183   3.405   1.136  16.700  0.1891  1.0271  0.8526
 5908SOL    HW229184   3.343   1.062  16.817 -1.9463  0.8065  0.7228
 5909SOL     OW29185   3.330   3.090  12.998  0.2460  0.1790  0.0498
 5909SOL    HW129186   3.358   3.151  13.067 -4.5303 -0.3293  2.4885
 5909SOL    HW229187   3.241   3.063  13.021  0.8255 -0.7836  1.1645
 5910SOL     OW29188   1.677   3.439   9.719  0.1090 -0.5188  0.1106
 5910SOL    HW129189   1.649   3.381   9.649 -3.2413  0.2508  0.7926
 5910SOL    HW229190   1.617   3.512   9.705  0.5720 -0.0822  0.4140
 5911SOL     OW29191   2.994   0.633   9.449 -0.0991  0.5445 -0.3503
 5911SOL    HW129192   3.055   0.665   9.516  0.5090  0.7770 -1.0125
 5911SOL    HW229193   2.994   0.541   9.474  2.7809  0.3309 -1.0999
 5912SOL     OW29194   3.002   3.211   8.192  0.0846  0.2451 -0.4230
 5912SOL    HW129195   2.937   3.164   8.245  1.8127  0.1596  1.6124
 5912SOL    HW229196   3.085   3.168   8.214 -0.3773  0.5470  1.9065
 5913SOL     OW29197   4.721   1.904   8.739  0.8519 -0.5377  0.4010
 5913SOL    HW129198   0.023   1.902   8.646  2.0777 -1.2769  0.7161
 5913SOL    HW229199   4.720   2.000   8.747  0.0220 -0.4353 -0.9513
 5914SOL     OW29200   0.559   2.468   8.617  0.3325  0.1542 -0.1991
 5914SOL    HW129201   0.593   2.556   8.599 -0.5328  0.8735  1.8222
 5914SOL    HW229202   0.642   2.422   8.605 -0.1700 -0.7550 -0.1356
 5915SOL     OW29203   3.253   0.328   7.570  0.5622  0.3242  0.4986
 5915SOL    HW129204   3.234   0.330   7.476  2.0424  0.9818  0.2159
 5915SOL    HW229205   3.180   0.272   7.596  0.2804  0.8878  0.9170
 5916SOL     OW29206   0.267   0.090   3.111  0.0028 -0.2114  0.4899
 5916SOL    HW129207   0.248   0.044   3.193  0.8037 -4.4644 -1.7199
 5916SOL    HW229208   0.362   0.096   3.111 -0.0377  0.4556  0.4276
 5917SOL     OW29209   3.942   1.270   4.782 -0.1225 -0.3130 -0.2968
 5917SOL    HW129210   3.926   1.235   4.869 -1.9865 -1.0588 -0.9435
 5917SOL    HW229211   3.946   1.360   4.815  4.2714 -0.5549 -0.1888
 5918SOL     OW29212   0.261   3.433   5.099 -0.0477 -0.7335  0.4116
 5918SOL    HW129213   0.250   3.419   5.193  1.6697  0.6385  0.8046
 5918SOL    HW229214   0.170   3.440   5.068 -0.0211  0.4561  0.5847
 5919SOL     OW29215   3.416   4.569  11.008  0.3434  0.0497  0.0664
 5919SOL    HW129216   3.480   4.639  10.997  1.7877 -1.0152  1.6376
 5919SOL    HW229217   3.475   4.493  11.001 -2.0598 -1.8195  0.1353
 5920SOL     OW29218   0.874   0.518  15.921 -0.0965  0.1947 -0.6317
 5920SOL    HW129219   0.828   0.601  15.936 -1.5434 -0.4820 -1.4133
 5920SOL    HW229220   0.951   0.544  15.870 -1.0798 -2.6794 -3.5957
 5921SOL     OW29221   1.492   2.666   9.096 -0.0624  0.2010  0.3675
 5921SOL    HW129222   1.401   2.696   9.095  0.1303  0.7931  0.4683
 5921SOL    HW229223   1.482   2.620   9.179 -0.6508  1.9223  1.2628
 5922SOL     OW29224   1.826   1.487  14.385 -0.0542 -0.2096  0.7944
 5922SOL    HW129225   1.806   1.430  14.311 -0.9477  0.9279  0.1629
 5922SOL    HW229226   1.739   1.479  14.424 -0.8180 -2.8267 -1.4668
 5923SOL     OW29227   4.618   3.060  10.805 -0.2218  0.2861 -0.3016
 5923SOL    HW129228   4.655   2.972  10.809 -0.3443  0.2408 -0.1737
 5923SOL    HW229229   4.524   3.043  10.792 -0.9309  3.7886  0.3223
 5924SOL     OW29230   3.855   2.484   2.677 -0.7015 -0.1864  0.5762
 5924SOL    HW129231   3.926   2.548   2.668  0.0146 -1.3738 -2.0309
 5924SOL    HW229232   3.887   2.404   2.635  0.1842  0.8587 -0.7347
 5925SOL     OW29233   1.735   3.421  11.395  0.3488 -0.0052  0.2274
 5925SOL    HW129234   1.821   3.459  11.379  0.8633 -1.8393 -1.4782
 5925SOL    HW229235   1.751   3.327  11.407 -1.4842 -0.4093 -0.4804
 5926SOL     OW29236   3.852   1.546   1.243  0.7225  0.1726 -0.0695
 5926SOL    HW129237   3.892   1.459   1.239 -1.6242 -0.9181  0.2944
 5926SOL    HW229238   3.863   1.577   1.153  1.3964  0.2606  0.0452
 5927SOL     OW29239   4.670   2.106  15.621  0.5558 -0.0935  0.2647
 5927SOL    HW129240   4.677   2.166  15.695 -0.0102 -1.0320  1.0624
 5927SOL    HW229241   0.024   2.134  15.567 -0.3587  2.0880  0.1190
 5928SOL     OW29242   0.227   3.863   4.436 -0.3738  0.4494 -0.1075
 5928SOL    HW129243   0.283   3.803   4.387  0.6757  1.0391  0.3753
 5928SOL    HW229244   0.194   3.797   4.497  0.4024  1.1645  1.0752
 5929SOL     OW29245   2.957   2.797   3.859 -0.1435 -0.3430 -0.4256
 5929SOL    HW129246   2.868   2.782   3.892 -0.5084  0.7308 -0.9139
 5929SOL    HW229247   2.942   2.887   3.832  0.9734  0.1988  0.7937
 5930SOL     OW29248   1.785   2.132  14.082  0.4840 -0.0573  0.1389
 5930SOL    HW129249   1.725   2.138  14.156  0.8442  2.5432  0.2104
 5930SOL    HW229250   1.795   2.222  14.053 -1.7870  0.2538  0.3471
 5931SOL     OW29251   3.521   1.479   8.430  0.5792  0.1846  0.3962
 5931SOL    HW129252   3.521   1.426   8.510 -1.2736 -0.3673  0.0438
 5931SOL    HW229253   3.459   1.546   8.458  1.8891  1.0601  1.1630
 5932SOL     OW29254   2.240   3.257   8.762  0.5459  0.3168 -0.1254
 5932SOL    HW129255   2.171   3.302   8.811 -0.5725 -0.4932 -0.9643
 5932SOL    HW229256   2.211   3.248   8.671  0.8029 -4.0176  0.2048
 5933SOL     OW29257   2.722   3.888   5.128  0.0017 -0.1110  0.2419
 5933SOL    HW129258   2.768   3.876   5.045 -1.0172  0.0771 -0.3493
 5933SOL    HW229259   2.691   3.799   5.145  1.2736 -0.6672 -0.3339
 5934SOL     OW29260   3.111   1.403   2.293  0.0123 -0.1650 -0.0459
 5934SOL    HW129261   3.032   1.370   2.251  0.2628  0.1120 -0.7353
 5934SOL    HW229262   3.130   1.474   2.231  0.4918  0.1878  0.5087
 5935SOL     OW29263   4.552   1.827  14.209 -0.7076 -0.5554  0.2330
 5935SOL    HW129264   4.613   1.754  14.220 -0.2054  0.1729  2.4054
 5935SOL    HW229265   4.566   1.856  14.119 -0.7437  0.4432  0.5519
 5936SOL     OW29266   0.873   2.095   7.999  0.0124 -0.0405  0.5712
 5936SOL    HW129267   0.893   2.021   8.057  0.9750 -1.0677 -1.0577
 5936SOL    HW229268   0.818   2.046   7.939  0.3967 -0.7428  0.7875
 5937SOL     OW29269   1.339   1.811   5.754  0.5093 -0.5123 -0.1834
 5937SOL    HW129270   1.358   1.801   5.848 -0.9742  0.9522  0.2715
 5937SOL    HW229271   1.432   1.802   5.730  0.9782  0.9608  1.0431
 5938SOL     OW29272   0.815   2.659   3.011 -0.0455  0.5401 -0.4476
 5938SOL    HW129273   0.788   2.590   3.071 -0.0583  1.8700  1.0824
 5938SOL    HW229274   0.774   2.735   3.052  2.4250  2.3962 -1.4512
 5939SOL     OW29275   0.830   3.993   9.433  0.1694  0.3920 -0.0474
 5939SOL    HW129276   0.900   4.046   9.471 -0.5703  1.5532 -0.3114
 5939SOL    HW229277   0.878   3.912   9.415  0.7354  0.9917 -1.2574
 5940SOL     OW29278   0.817   3.644  15.032 -0.2115  0.0278  0.6333
 5940SOL    HW129279   0.739   3.633  15.086 -1.1741 -1.0964 -0.9838
 5940SOL    HW229280   0.844   3.553  15.016 -0.3605 -0.0622  0.8966
 5941SOL     OW29281   2.834   1.166   1.182  0.2172 -0.0910  0.6336
 5941SOL    HW129282   2.768   1.136   1.119  1.7956 -3.2582  0.4934
 5941SOL    HW229283   2.795   1.143   1.266 -1.3794 -0.0307 -0.0792
 5942SOL     OW29284   1.850   4.222  10.732 -0.4527  0.3636  0.0492
 5942SOL    HW129285   1.874   4.265  10.814  1.2843 -0.1823 -0.1822
 5942SOL    HW229286   1.763   4.262  10.726 -0.1138  1.2380  1.0054
 5943SOL     OW29287   1.624   2.264  13.387  0.9212 -0.6751  0.3648
 5943SOL    HW129288   1.658   2.309  13.464 -0.8152 -0.9732  1.3085
 5943SOL    HW229289   1.621   2.178  13.429 -0.8452 -0.2241  1.1676
 5944SOL     OW29290   2.562   1.691   3.921  0.8813  0.3918  0.3090
 5944SOL    HW129291   2.539   1.731   3.838  1.2977  0.0168  0.0119
 5944SOL    HW229292   2.528   1.603   3.903  0.3235  0.5733  0.4797
 5945SOL     OW29293   0.425   3.577   3.932  0.2143 -0.5688 -0.5818
 5945SOL    HW129294   0.510   3.622   3.928 -0.6865  1.1224 -0.8048
 5945SOL    HW229295   0.375   3.609   3.857  0.4139 -0.6184 -0.7346
 5946SOL     OW29296   1.038   3.804  17.404  0.2680 -0.3531  0.1332
 5946SOL    HW129297   0.966   3.853  17.364  1.3595  1.3085  0.2156
 5946SOL    HW229298   1.003   3.780  17.490 -0.7946  0.8472  0.0367
 5947SOL     OW29299   4.224   4.339  16.855  0.1139  0.7281 -0.3168
 5947SOL    HW129300   4.134   4.362  16.830 -1.3648 -2.2853  2.1359
 5947SOL    HW229301   4.242   4.404  16.923  4.2777  0.9366 -1.6276
 5948SOL     OW29302   1.755   4.565   1.101  0.1893  0.4494 -0.0925
 5948SOL    HW129303   1.807   4.581   1.022 -0.1524  0.1210 -0.3851
 5948SOL    HW229304   1.808   4.493   1.135 -0.2759  0.5434  0.8451
 5949SOL     OW29305   0.456   2.531   2.628  0.4072  0.5409  0.1431
 5949SOL    HW129306   0.467   2.480   2.547  3.2489 -2.1423  2.2724
 5949SOL    HW229307   0.537   2.509   2.673 -0.7276 -1.5317  1.1417
 5950SOL     OW29308   3.170   0.546   3.580 -0.5238 -0.3896 -0.2799
 5950SOL    HW129309   3.201   0.635   3.564  0.7177 -0.6167  0.8465
 5950SOL    HW229310   3.170   0.508   3.493  0.2541 -0.4617 -0.2447
 5951SOL     OW29311   4.609   2.750   3.261  0.0792 -0.3187 -0.2127
 5951SOL    HW129312   4.650   2.666   3.240 -0.7357 -0.5623 -0.8185
 5951SOL    HW229313   4.688   2.802   3.270 -0.5143  0.5214  0.0681
 5952SOL     OW29314   3.347   4.051   3.572  0.1504  0.7268  0.0131
 5952SOL    HW129315   3.379   3.962   3.586 -2.0204 -0.4710 -2.5584
 5952SOL    HW229316   3.268   4.027   3.524  0.9130 -0.0581 -0.8443
 5953SOL     OW29317   1.462   1.867   6.000 -0.1834 -0.0733  0.3964
 5953SOL    HW129318   1.529   1.825   6.053  0.3073 -1.9095 -1.6769
 5953SOL    HW229319   1.381   1.855   6.051  0.0018  2.3385  1.2414
 5954SOL     OW29320   1.232   3.315  13.842  0.2357  0.7543 -0.3581
 5954SOL    HW129321   1.259   3.286  13.929  1.7045 -0.0770 -1.0869
 5954SOL    HW229322   1.145   3.349  13.861  0.1018 -0.6997  1.5348
 5955SOL     OW29323   3.743   0.118   4.282  0.1740 -0.6077 -0.2652
 5955SOL    HW129324   3.769   0.032   4.316 -2.0553 -0.9888  0.4422
 5955SOL    HW229325   3.658   0.126   4.325  0.9818 -2.0073  1.5663
 5956SOL     OW29326   0.657   0.239   7.300  1.1097 -0.6483 -0.5515
 5956SOL    HW129327   0.605   0.160   7.309  0.3856 -0.0597  0.4977
 5956SOL    HW229328   0.708   0.208   7.226  0.9279 -0.4945 -0.7413
 5957SOL     OW29329   2.895   4.567   7.260  0.5347 -0.5240  0.3315
 5957SOL    HW129330   2.844   4.548   7.182 -1.7697  1.8990  1.2396
 5957SOL    HW229331   2.930   4.651   7.231  1.7605 -1.4245 -0.7788
 5958SOL     OW29332   0.450   4.507   2.962  0.3108  0.0394 -0.3329
 5958SOL    HW129333   0.402   4.539   2.886  1.8221 -1.4902 -1.9421
 5958SOL    HW229334   0.409   4.420   2.957  0.4492 -0.0673  0.3780
 5959SOL     OW29335   2.321   2.730  13.276  0.4335 -0.2886  0.1678
 5959SOL    HW129336   2.348   2.820  13.257 -1.6134  0.2868 -0.0095
 5959SOL    HW229337   2.291   2.701  13.190 -0.5104  1.1284  0.0159
 5960SOL     OW29338   0.185   0.001  12.470  0.2831  0.2836  0.1315
 5960SOL    HW129339   0.269   0.024  12.431 -0.6462  0.9689 -1.5109
 5960SOL    HW229340   0.138   0.052  12.403 -0.9681 -1.4258 -0.2813
 5961SOL     OW29341   3.985   4.437   2.671 -0.5078  0.2448  0.4315
 5961SOL    HW129342   3.896   4.462   2.693 -1.0679 -0.7159 -0.7052
 5961SOL    HW229343   4.004   4.492   2.595 -1.2919  1.8666  1.4242
 5962SOL     OW29344   0.215   1.239   1.032 -0.5643 -0.1800 -0.9228
 5962SOL    HW129345   0.288   1.184   1.007 -1.6653 -2.4405  0.8742
 5962SOL    HW229346   0.164   1.183   1.090  0.9610  2.4700  2.9321
 5963SOL     OW29347   3.067   4.069   0.021 -0.1832  0.9393  0.3555
 5963SOL    HW129348   3.107   4.154   0.038  1.5240 -0.1463  1.6414
 5963SOL    HW229349   3.142   4.031  17.663  1.7073  0.0676  4.2938
 5964SOL     OW29350   0.518   4.201   6.562 -0.3928 -0.1785  0.0452
 5964SOL    HW129351   0.550   4.117   6.595 -0.9805  0.1193  1.3763
 5964SOL    HW229352   0.431   4.213   6.599 -1.3411  0.4224 -2.3747
 5965SOL     OW29353   1.472   1.327   7.783 -0.7382  0.3865  0.1184
 5965SOL    HW129354   1.439   1.334   7.872 -0.8727 -1.1597  0.1957
 5965SOL    HW229355   1.504   1.238   7.796  2.0245  1.1204 -1.6831
 5966SOL     OW29356   3.435   2.189   4.821 -0.4313  0.3622 -0.0456
 5966SOL    HW129357   3.449   2.126   4.892 -1.3327  0.2104 -0.0057
 5966SOL    HW229358   3.495   2.259   4.846 -0.2893  0.0100  0.5921
 5967SOL     OW29359   4.534   3.101   7.258 -0.2636  0.4617 -0.4939
 5967SOL    HW129360   4.578   3.022   7.228  1.5328  1.6709 -1.0501
 5967SOL    HW229361   4.470   3.065   7.320  1.3228  0.7917  1.3451
 5968SOL     OW29362   2.887   0.226   7.368 -0.2552 -0.3664 -0.1683
 5968SOL    HW129363   2.842   0.146   7.395 -1.7031  0.0447 -1.3580
 5968SOL    HW229364   2.848   0.293   7.424 -0.1682 -0.1622 -0.3527
 5969SOL     OW29365   1.093   3.694   2.127 -0.1952 -0.3180 -0.4230
 5969SOL    HW129366   1.132   3.668   2.211 -0.0892  2.0132  0.2526
 5969SOL    HW229367   1.010   3.648   2.137  0.4992 -1.9828 -2.2423
 5970SOL     OW29368   2.030   0.691  10.799 -0.2870  0.0931 -0.2176
 5970SOL    HW129369   2.027   0.599  10.773 -0.5445  0.2297 -0.6647
 5970SOL    HW229370   1.977   0.734  10.732  2.6154  0.2051 -2.4234
 5971SOL     OW29371   2.691   0.816   1.325 -0.1509 -0.6031  0.2920
 5971SOL    HW129372   2.630   0.873   1.279  0.8856  1.0391  0.9475
 5971SOL    HW229373   2.682   0.830   1.419 -0.4811  1.4368 -0.0517
 5972SOL     OW29374   4.254   3.668  10.980  0.2384  0.1760  0.4543
 5972SOL    HW129375   4.306   3.746  10.964  1.9668 -0.5312  2.6333
 5972SOL    HW229376   4.242   3.641  10.889  0.4698  0.0082  0.4721
 5973SOL     OW29377   0.531   4.185   8.248  0.0634  0.3487  0.2392
 5973SOL    HW129378   0.477   4.264   8.255  0.4479  0.6985 -0.7289
 5973SOL    HW229379   0.605   4.215   8.300 -0.2427 -1.2783  1.5774
 5974SOL     OW29380   3.311   2.532   5.956 -0.2723  0.0522  0.0636
 5974SOL    HW129381   3.313   2.442   5.924 -0.3609  0.9940 -2.6435
 5974SOL    HW229382   3.373   2.519   6.027 -1.0806 -0.0600  0.7402
 5975SOL     OW29383   1.330   0.925   7.713 -0.2121  0.7148 -0.2174
 5975SOL    HW129384   1.381   0.979   7.653  0.9459  2.3170  2.2072
 5975SOL    HW229385   1.391   0.852   7.722  0.3956  1.5002  2.1100
 5976SOL     OW29386   3.367   2.476   3.500  0.3983 -0.0801  1.0098
 5976SOL    HW129387   3.294   2.534   3.522 -1.8449 -1.7062 -2.0439
 5976SOL    HW229388   3.361   2.415   3.573  0.9993  1.7235  2.5521
 5977SOL     OW29389   3.011   3.083  11.003  0.2319 -0.0255  0.9217
 5977SOL    HW129390   3.037   2.998  11.040 -1.1585 -1.0852 -0.5356
 5977SOL    HW229391   3.009   3.124  11.090 -0.5155 -0.4475  1.1017
 5978SOL     OW29392   2.558   0.022   6.172 -0.2350 -0.0247 -0.0342
 5978SOL    HW129393   2.484   4.705   6.219  1.1106 -0.3667  1.8258
 5978SOL    HW229394   2.517   0.094   6.125 -0.3717 -0.4423 -0.5456
 5979SOL     OW29395   0.813   1.288   6.327  0.6002 -0.1501 -0.6763
 5979SOL    HW129396   0.759   1.287   6.248 -0.0879 -0.3679 -0.2003
 5979SOL    HW229397   0.799   1.378   6.356 -2.9514 -0.5308 -1.1878
 5980SOL     OW29398   2.048   3.931  12.220 -0.1249  0.3326 -0.3577
 5980SOL    HW129399   2.014   3.849  12.257  2.7236 -0.4036  0.6427
 5980SOL    HW229400   1.985   3.957  12.153 -0.0723  1.3967  0.0191
 5981SOL     OW29401   1.530   2.602   1.624  0.3126 -0.0715 -0.0258
 5981SOL    HW129402   1.621   2.577   1.639  0.3689 -1.4253 -2.6027
 5981SOL    HW229403   1.492   2.543   1.559 -2.0213  1.3124  0.0632
 5982SOL     OW29404   4.672   0.323   5.623 -0.1474  0.0979  0.3617
 5982SOL    HW129405   4.618   0.400   5.635  1.2317  1.3736 -1.6310
 5982SOL    HW229406   0.038   0.360   5.607 -0.5089  0.0884 -1.6769
 5983SOL     OW29407   1.544   1.970   7.085  0.3952  0.3859 -0.2186
 5983SOL    HW129408   1.517   2.050   7.039 -0.8555  0.5679  0.8259
 5983SOL    HW229409   1.486   1.902   7.049  0.0376  0.5194  0.1068
 5984SOL     OW29410   3.331   3.654   7.762  0.4595 -0.7152  0.0293
 5984SOL    HW129411   3.344   3.744   7.793 -3.1612 -0.9116  2.0642
 5984SOL    HW229412   3.298   3.609   7.839 -0.6517 -0.0650 -0.0525
 5985SOL     OW29413   4.701   3.691   2.721  0.3288  0.1466  0.4627
 5985SOL    HW129414   4.641   3.765   2.711  0.7520  0.2687 -1.1580
 5985SOL    HW229415   4.695   3.651   2.634 -1.9342  1.3335  0.0865
 5986SOL     OW29416   3.537   1.825   3.353  0.3420 -0.5520  0.4708
 5986SOL    HW129417   3.558   1.897   3.293 -2.3603  0.3143  0.5766
 5986SOL    HW229418   3.577   1.759   3.296  0.9336  1.1671 -1.1338
 5987SOL     OW29419   0.603   3.287   2.586 -0.2204 -0.4687 -0.1011
 5987SOL    HW129420   0.614   3.201   2.545  4.5046 -0.7541  1.7061
 5987SOL    HW229421   0.572   3.259   2.672 -1.9874 -1.2482 -1.0058
 5988SOL     OW29422   3.220   0.845  13.800 -0.2927  0.2053 -0.3877
 5988SOL    HW129423   3.216   0.915  13.734 -0.0243  0.3451 -0.2539
 5988SOL    HW229424   3.227   0.892  13.883 -0.2342  0.0369 -0.2978
 5989SOL     OW29425   2.100   1.290  17.450 -0.0034  0.5764 -0.1673
 5989SOL    HW129426   2.089   1.196  17.435  0.1657  0.5054  0.1623
 5989SOL    HW229427   2.009   1.319  17.441  0.1722  1.1476 -0.0957
 5990SOL     OW29428   3.966   1.082  14.953 -0.2986 -0.5399  0.2735
 5990SOL    HW129429   3.890   1.065  14.898  1.9306 -1.0610 -2.6102
 5990SOL    HW229430   4.025   1.020  14.910 -1.8641 -0.3517 -2.1352
 5991SOL     OW29431   1.301   3.419   4.079  0.3004  0.1458  0.1065
 5991SOL    HW129432   1.305   3.363   4.157  0.4988  1.0760  0.7790
 5991SOL    HW229433   1.288   3.502   4.126  0.6994  1.5119 -2.2166
 5992SOL     OW29434   3.480   2.921   7.640  0.1630 -0.1287 -0.3576
 5992SOL    HW129435   3.552   2.943   7.581  0.3885  0.0398 -0.0184
 5992SOL    HW229436   3.526   2.866   7.703 -3.7282 -0.1032  2.5536
 5993SOL     OW29437   0.489   0.323   8.007 -0.4331  0.1619 -0.8100
 5993SOL    HW129438   0.462   0.402   7.959  0.1941  0.4937 -0.6251
 5993SOL    HW229439   0.535   0.281   7.934  0.2105 -0.8296  0.1626
 5994SOL     OW29440   1.542   1.425   9.918  0.0258 -0.4239 -0.0457
 5994SOL    HW129441   1.558   1.370   9.841  1.0637 -0.8183  0.4565
 5994SOL    HW229442   1.464   1.384   9.955 -0.4317  0.6033  0.1149
 5995SOL     OW29443   0.378   3.655   8.358 -0.0984  0.6694 -0.6273
 5995SOL    HW129444   0.338   3.739   8.336  1.0563  1.3514 -0.1555
 5995SOL    HW229445   0.355   3.608   8.278  0.9539  0.4325 -0.7991
 5996SOL     OW29446   0.692   0.040   8.644  0.2162 -0.4429 -1.0371
 5996SOL    HW129447   0.606   4.720   8.643  0.2877 -0.5978 -0.4248
 5996SOL    HW229448   0.669   0.129   8.615 -0.7473 -0.9432 -1.8209
 5997SOL     OW29449   0.797   3.443   7.605  0.0458  0.3757 -0.0796
 5997SOL    HW129450   0.768   3.359   7.641  0.5026  0.6307  0.8882
 5997SOL    HW229451   0.728   3.472   7.545  1.0241  1.4486 -0.6816
 5998SOL     OW29452   2.792   1.211   2.255  0.0361 -0.3210  0.3569
 5998SOL    HW129453   2.715   1.249   2.212  1.5744 -0.0200 -2.1560
 5998SOL    HW229454   2.840   1.176   2.180 -1.0300  0.1730 -0.5601
 5999SOL     OW29455   3.690   0.706  14.977  0.2029  0.0095  0.0468
 5999SOL    HW129456   3.595   0.693  14.978 -0.0737  2.1999  1.9482
 5999SOL    HW229457   3.684   0.801  14.976 -2.0051 -0.1036  2.0677
 6000SOL     OW29458   3.310   0.625   3.982 -0.3276 -0.3368  0.2119
 6000SOL    HW129459   3.395   0.623   4.025  0.1716 -0.6566 -0.7877
 6000SOL    HW229460   3.333   0.646   3.891  1.7575 -0.9958  0.5971
 6001SOL     OW29461   2.296   4.610  10.346 -0.5186  0.0279  0.0973
 6001SOL    HW129462   2.299   4.680  10.281 -2.0179  0.2741  0.2936
 6001SOL    HW229463   2.248   4.534  10.311  1.4628 -1.4047  0.4977
 6002SOL     OW29464   0.560   4.588  16.736 -0.3305 -0.2301  0.3804
 6002SOL    HW129465   0.485   4.558  16.685  0.1555 -1.5062  0.4190
 6002SOL    HW229466   0.575   4.670  16.688 -3.1409  0.1063  0.0829
 6003SOL     OW29467   2.457   1.032   1.169 -0.5565 -0.2442 -0.3166
 6003SOL    HW129468   2.449   0.938   1.185 -0.5738  0.1603  2.0751
 6003SOL    HW229469   2.454   1.065   1.259 -0.2501 -0.1060 -0.3574
 6004SOL     OW29470   2.540   1.878   7.180 -0.6195 -0.0832  0.2672
 6004SOL    HW129471   2.552   1.973   7.183  1.3597 -0.2875 -0.7979
 6004SOL    HW229472   2.631   1.848   7.180 -0.6120 -0.0773  1.2785
 6005SOL     OW29473   3.150   1.327   4.060 -0.3152 -0.2324 -0.6451
 6005SOL    HW129474   3.222   1.274   4.026  1.6776  0.4089  2.5787
 6005SOL    HW229475   3.097   1.324   3.980 -0.3779 -1.4756 -0.5483
 6006SOL     OW29476   1.263   0.077  11.170 -0.4077 -0.1765  0.2798
 6006SOL    HW129477   1.330   0.053  11.234 -1.6788 -0.4164  1.5121
 6006SOL    HW229478   1.287   0.168  11.154  2.0459 -0.3178  3.1662
 6007SOL     OW29479   0.293   4.391   3.638  0.2171  0.0736 -0.1367
 6007SOL    HW129480   0.228   4.447   3.595 -1.8781 -0.1777  2.7366
 6007SOL    HW229481   0.375   4.423   3.600  0.8986 -0.7180  0.6724
 6008SOL     OW29482   3.899   2.423   8.281  0.0781 -0.2297 -0.3485
 6008SOL    HW129483   3.924   2.390   8.367  2.2392  0.2567 -0.7833
 6008SOL    HW229484   3.903   2.341   8.231 -4.9158  0.1946 -1.4152
 6009SOL     OW29485   2.015   2.724   1.741  0.4738 -0.4014  0.1581
 6009SOL    HW129486   2.075   2.672   1.687 -1.2019  0.6129 -2.7171
 6009SOL    HW229487   2.052   2.812   1.731  0.9756 -0.6959 -0.6099
 6010SOL     OW29488   2.855   0.034   9.443 -0.2977 -0.3563  0.2797
 6010SOL    HW129489   2.876   0.046   9.536  1.4145  0.4746 -0.2158
 6010SOL    HW229490   2.825   4.664   9.442  0.9797 -0.7815  0.8565
 6011SOL     OW29491   3.301   0.002  17.523 -0.1071  0.4725  0.3284
 6011SOL    HW129492   3.296   4.703  17.429 -1.1768 -2.6761  1.0404
 6011SOL    HW229493   3.218   0.045  17.544  0.4330  1.8936 -0.4825
 6012SOL     OW29494   0.438   3.719  11.498 -0.0793 -0.0450  0.2758
 6012SOL    HW129495   0.515   3.684  11.542 -0.1809  0.2016  0.6453
 6012SOL    HW229496   0.435   3.667  11.417  0.4532 -2.2427  1.6485
 6013SOL     OW29497   0.338   0.096  12.157 -0.4104 -0.4690 -0.6797
 6013SOL    HW129498   0.389   0.087  12.238  1.3041  0.2163 -1.6831
 6013SOL    HW229499   0.290   0.015  12.142  1.5031 -1.6485 -0.4888
 6014SOL     OW29500   0.608   1.190  14.391 -0.3363 -0.0944 -0.3461
 6014SOL    HW129501   0.680   1.175  14.330 -1.7303 -1.5778 -1.6639
 6014SOL    HW229502   0.625   1.270  14.439 -1.8484 -1.0858  1.8604
 6015SOL     OW29503   2.735   0.229   6.818  0.2678 -0.1878  0.1798
 6015SOL    HW129504   2.733   0.166   6.746 -0.5517 -1.7842  1.5844
 6015SOL    HW229505   2.680   0.176   6.877 -0.5341 -0.5477 -0.8923
 6016SOL     OW29506   1.197   4.695   3.249 -0.2069  0.0823  0.0834
 6016SOL    HW129507   1.213   4.682   3.342  0.5753  0.0642 -0.0493
 6016SOL    HW229508   1.102   4.684   3.245 -0.7012  3.9369  0.9216
 6017SOL     OW29509   1.183   2.083   9.255  0.0436  0.6907 -0.4141
 6017SOL    HW129510   1.225   2.135   9.186  1.5681  2.8712  2.1127
 6017SOL    HW229511   1.249   2.014   9.258  0.1743  0.9533  3.4037
 6018SOL     OW29512   0.785   3.407   7.195  0.4678 -0.2999 -0.0982
 6018SOL    HW129513   0.729   3.444   7.262 -1.7165 -3.1286 -0.3465
 6018SOL    HW229514   0.765   3.461   7.118  0.6410 -0.8986 -0.5671
 6019SOL     OW29515   1.615   4.186   2.702  0.1554 -0.0831  0.5769
 6019SOL    HW129516   1.602   4.212   2.611  0.4687  0.5599  0.7201
 6019SOL    HW229517   1.596   4.267   2.749  1.3475  1.0350 -0.8990
 6020SOL     OW29518   2.670   1.250   7.616  0.2149 -0.0940 -0.3696
 6020SOL    HW129519   2.648   1.322   7.556  1.4516  0.4881 -0.1156
 6020SOL    HW229520   2.730   1.200   7.561 -1.7112 -0.4249 -2.2097
 6021SOL     OW29521   0.861   2.983   6.466  0.0396  0.6943  0.7250
 6021SOL    HW129522   0.835   3.040   6.538  1.2036  0.5415  1.2659
 6021SOL    HW229523   0.925   3.047   6.433 -2.2324  2.6278  0.0974
 6022SOL     OW29524   0.017   0.987   8.067 -0.5575  0.0578 -0.1937
 6022SOL    HW129525   4.683   1.058   8.100  1.1236  1.0004  0.6376
 6022SOL    HW229526   0.099   1.019   8.105  0.7303  0.1844 -3.0025
 6023SOL     OW29527   0.781   3.442   3.499  0.2611  0.1652 -0.3185
 6023SOL    HW129528   0.723   3.450   3.424 -0.4504  0.3832  0.2453
 6023SOL    HW229529   0.816   3.354   3.488 -1.3626 -0.5391  0.0019
 6024SOL     OW29530   0.620   2.849   6.635 -0.7760  0.0513 -0.4219
 6024SOL    HW129531   0.688   2.858   6.568  1.1825  0.9325  1.6835
 6024SOL    HW229532   0.560   2.915   6.599 -1.3557  0.0241  0.4900
 6025SOL     OW29533   0.767   4.222   6.922  0.2380  0.4232 -0.2118
 6025SOL    HW129534   0.829   4.177   6.863  1.0294  0.8494  0.2910
 6025SOL    HW229535   0.723   4.276   6.856 -0.2699 -0.4779 -0.6029
 6026SOL     OW29536   1.065   0.624  16.807 -0.4399 -0.5794 -0.0654
 6026SOL    HW129537   1.021   0.629  16.892 -0.6795  0.0184 -0.2272
 6026SOL    HW229538   0.989   0.609  16.750 -0.7883 -1.9576  0.7711
 6027SOL     OW29539   2.063   1.644   9.311 -0.5841 -0.1636  0.4145
 6027SOL    HW129540   1.988   1.608   9.264 -0.9662  0.6246  0.4041
 6027SOL    HW229541   2.135   1.599   9.268 -0.3358  0.1866  0.4582
 6028SOL     OW29542   1.507   0.425   5.729  0.6813  0.0632  0.2838
 6028SOL    HW129543   1.552   0.493   5.780 -0.9178  0.1529  1.5723
 6028SOL    HW229544   1.459   0.378   5.797 -1.0504  1.0330 -0.2589
 6029SOL     OW29545   1.721   2.431  14.060 -0.6638  0.0465 -0.3744
 6029SOL    HW129546   1.650   2.435  14.124  1.5157  0.2628  2.0153
 6029SOL    HW229547   1.679   2.482  13.991  2.2245  2.4206 -0.4226
 6030SOL     OW29548   3.808   1.403   3.094 -0.4123 -0.6379  0.1890
 6030SOL    HW129549   3.842   1.396   3.005 -0.0020  2.0197  0.1500
 6030SOL    HW229550   3.842   1.325   3.139  1.1855 -0.5509 -0.8831
 6031SOL     OW29551   0.408   3.630  10.760  0.2520  0.0144  0.1216
 6031SOL    HW129552   0.362   3.705  10.723 -0.0614 -0.4752 -0.4782
 6031SOL    HW229553   0.498   3.663  10.766  0.3096 -0.2592  0.7314
 6032SOL     OW29554   1.863   2.470  11.893 -0.2198  0.0323 -0.0252
 6032SOL    HW129555   1.923   2.414  11.942  1.0712  1.2992 -0.1449
 6032SOL    HW229556   1.842   2.426  11.811  0.3145  0.8963 -0.6326
 6033SOL     OW29557   0.523   1.422  11.326  0.2660 -0.0329 -0.4756
 6033SOL    HW129558   0.458   1.492  11.332 -2.0686 -2.0791 -1.9856
 6033SOL    HW229559   0.593   1.460  11.379  0.5894  0.5602 -1.3246
 6034SOL     OW29560   1.601   2.184  10.836  0.2917 -0.3943 -0.0331
 6034SOL    HW129561   1.543   2.243  10.884  1.4454  0.0945  0.7557
 6034SOL    HW229562   1.661   2.169  10.909 -1.0968  3.3566  1.8463
 6035SOL     OW29563   3.655   2.413  15.313 -0.2231  0.4164 -0.0786
 6035SOL    HW129564   3.604   2.407  15.232 -0.3466  0.3401  0.0066
 6035SOL    HW229565   3.743   2.403  15.275 -0.4115 -1.8518  0.0876
 6036SOL     OW29566   4.290   3.690   4.697  0.3378 -0.0969 -0.1277
 6036SOL    HW129567   4.384   3.703   4.687  0.7692 -3.3032 -0.2550
 6036SOL    HW229568   4.290   3.718   4.788  1.9269  0.8522 -0.4279
 6037SOL     OW29569   4.319   0.279   0.142 -0.0112  0.3025 -0.1400
 6037SOL    HW129570   4.375   0.347   0.104 -0.1957  1.0912  1.0013
 6037SOL    HW229571   4.389   0.219   0.169  0.8290 -0.0314 -3.0155
 6038SOL     OW29572   1.531   2.314  11.271  0.7552  0.0154 -0.0849
 6038SOL    HW129573   1.618   2.347  11.248  0.2806  1.9948  0.9603
 6038SOL    HW229574   1.496   2.279  11.189  2.7327 -1.2114 -0.3947
 6039SOL     OW29575   2.954   1.237   4.227 -0.8706  0.7675 -0.4439
 6039SOL    HW129576   3.023   1.288   4.183  0.8314 -2.0949 -1.1428
 6039SOL    HW229577   2.940   1.164   4.167 -2.3034  2.1540 -1.7884
 6040SOL     OW29578   2.252   3.468   4.445  0.0920  0.6772 -0.0448
 6040SOL    HW129579   2.297   3.400   4.394 -0.1600  1.2732 -1.0584
 6040SOL    HW229580   2.315   3.493   4.513  0.3385  0.9014 -0.3517
 6041SOL     OW29581   1.104   2.233   1.642  0.0800  0.4308  0.3870
 6041SOL    HW129582   1.023   2.283   1.631 -0.6342 -1.2382 -2.1140
 6041SOL    HW229583   1.069   2.147   1.662 -0.6963  0.9254  1.1524
 6042SOL     OW29584   3.895   3.476   3.533 -0.2579  0.1907 -0.3912
 6042SOL    HW129585   3.977   3.435   3.504 -1.1156 -1.3300 -0.6657
 6042SOL    HW229586   3.825   3.420   3.500 -0.2871 -0.5309  0.9114
 6043SOL     OW29587   1.198   1.898   8.111  0.8005 -0.1405 -0.5780
 6043SOL    HW129588   1.125   1.943   8.068 -1.0628 -0.8287  1.8308
 6043SOL    HW229589   1.211   1.821   8.056  0.7544  0.0481 -0.8518
 6044SOL     OW29590   4.459   2.023   5.669  0.0087 -0.3552 -0.1285
 6044SOL    HW129591   4.529   2.054   5.727 -0.7936 -2.1422  1.7791
 6044SOL    HW229592   4.381   2.053   5.716 -0.8985 -1.9021 -0.6554
 6045SOL     OW29593   0.641   4.552   1.508  0.2264 -0.0155 -0.5647
 6045SOL    HW129594   0.717   4.605   1.482 -2.4990  3.7733 -0.7878
 6045SOL    HW229595   0.640   4.493   1.433  0.8161  2.0876 -2.2392
 6046SOL     OW29596   2.117   2.126   4.819  0.4022  0.1414 -0.7234
 6046SOL    HW129597   2.164   2.054   4.776  2.4668  0.6396  0.6979
 6046SOL    HW229598   2.106   2.187   4.745 -1.5840  1.1188  0.3842
 6047SOL     OW29599   2.292   0.893  16.754 -0.0151 -0.9442 -0.5539
 6047SOL    HW129600   2.300   0.805  16.791 -1.4260 -0.5687  0.6400
 6047SOL    HW229601   2.205   0.899  16.715  0.4437  3.0220 -0.9545
 6048SOL     OW29602   4.177   3.764   4.252 -0.1194  0.2037 -0.0307
 6048SOL    HW129603   4.177   3.785   4.345 -1.3524 -2.5802  0.5945
 6048SOL    HW229604   4.121   3.827   4.207  0.4631  2.0600  1.8283
 6049SOL     OW29605   3.935   1.648   4.383 -0.5327  0.2123  0.2649
 6049SOL    HW129606   3.999   1.658   4.454  0.0073 -0.1430 -0.1719
 6049SOL    HW229607   3.908   1.558   4.402  0.1260  0.1702  1.0263
 6050SOL     OW29608   4.114   3.809   0.052  0.0359 -0.3080  0.0665
 6050SOL    HW129609   4.058   3.810   0.130 -0.9654  1.8087 -0.6953
 6050SOL    HW229610   4.058   3.759  17.679 -2.1199  1.4174  0.6548
 6051SOL     OW29611   1.757   2.540   3.319 -0.1809  0.6822  0.2992
 6051SOL    HW129612   1.741   2.495   3.236  0.9137  2.3033 -0.8095
 6051SOL    HW229613   1.675   2.528   3.366 -0.5812 -0.5825 -0.7225
 6052SOL     OW29614   2.282   1.622   0.009 -0.0745 -1.0457 -0.0062
 6052SOL    HW129615   2.278   1.667  17.611 -0.6231 -0.1058  0.5082
 6052SOL    HW229616   2.213   1.556   0.009  0.6618 -1.8105 -0.1407
 6053SOL     OW29617   2.747   0.513  14.713  0.2581 -0.0789 -0.1864
 6053SOL    HW129618   2.689   0.504  14.637 -1.9299  0.5570  1.3932
 6053SOL    HW229619   2.762   0.425  14.747 -1.0070  0.2891  1.3090
 6054SOL     OW29620   1.392   4.372   3.188  0.5893  0.0481  0.0471
 6054SOL    HW129621   1.421   4.412   3.270  2.3761 -0.1707 -0.4647
 6054SOL    HW229622   1.374   4.451   3.137 -0.5874 -0.8045 -0.8484
 6055SOL     OW29623   0.585   3.574   6.483 -0.2653 -0.1796 -0.1035
 6055SOL    HW129624   0.563   3.494   6.435 -0.8345 -0.7178  1.0681
 6055SOL    HW229625   0.642   3.621   6.422  1.5159 -1.6177  0.4617
 6056SOL     OW29626   2.284   1.607   5.422  0.5641 -0.1105 -0.8573
 6056SOL    HW129627   2.362   1.656   5.447 -0.3362 -0.1922  2.1280
 6056SOL    HW229628   2.212   1.669   5.436  2.2594  1.8262 -0.7458
 6057SOL     OW29629   3.164   0.536   6.797  0.5187 -0.2752 -0.3855
 6057SOL    HW129630   3.225   0.586   6.743 -0.6933  0.9268 -0.6490
 6057SOL    HW229631   3.081   0.578   6.776  0.4954 -0.4121 -0.5669
 6058SOL     OW29632   2.560   0.112   4.780 -0.5408  0.0408  0.0217
 6058SOL    HW129633   2.565   0.018   4.765  1.0134  0.4127 -1.7939
 6058SOL    HW229634   2.501   0.131   4.706 -0.4078  1.6066  0.3261
 6059SOL     OW29635   1.041   2.187   8.730  0.0541  0.1272 -0.2174
 6059SOL    HW129636   1.048   2.231   8.815  2.4866 -0.8633  0.0972
 6059SOL    HW229637   1.096   2.111   8.744  4.5729  3.0779 -1.9341
 6060SOL     OW29638   2.355   0.745   0.189  0.3422  0.1275  0.0291
 6060SOL    HW129639   2.443   0.721   0.159  0.3120  0.2324 -0.1376
 6060SOL    HW229640   2.367   0.706   0.276 -0.1460 -0.3294 -0.1033
 6061SOL     OW29641   2.669   2.140  11.277  0.0331 -0.2502  0.3474
 6061SOL    HW129642   2.740   2.176  11.330  1.4326 -0.6449 -1.2666
 6061SOL    HW229643   2.692   2.048  11.280 -0.9277 -0.4938  0.2675
 6062SOL     OW29644   2.344   1.234  13.468  0.5659 -0.1373  0.1120
 6062SOL    HW129645   2.428   1.195  13.445  1.0718 -0.3971  2.4589
 6062SOL    HW229646   2.305   1.153  13.499  1.0416 -0.3753  0.0821
 6063SOL     OW29647   4.501   3.611   0.647 -0.0279  0.5752  0.2060
 6063SOL    HW129648   4.460   3.638   0.729 -1.8372 -2.2530  0.2161
 6063SOL    HW229649   4.510   3.698   0.607  0.7649  0.3430 -0.1223
 6064SOL     OW29650   0.240   1.928  12.713  0.8934  0.2146  0.1366
 6064SOL    HW129651   0.207   2.005  12.760  0.7252  0.4229 -0.3315
 6064SOL    HW229652   0.326   1.925  12.755  0.9188  1.8045  0.2282
 6065SOL     OW29653   1.403   3.617   3.161  0.9444 -0.0848 -0.1773
 6065SOL    HW129654   1.418   3.712   3.155 -0.1484  0.0841 -0.3634
 6065SOL    HW229655   1.480   3.574   3.125  1.1240  0.4494 -0.4388
 6066SOL     OW29656   3.042   1.673   0.955  0.6533  0.7845 -0.1512
 6066SOL    HW129657   2.953   1.647   0.982  1.5866 -0.3273  1.8918
 6066SOL    HW229658   3.038   1.763   0.924 -0.4650  0.9922  0.6005
 6067SOL     OW29659   3.556   2.007   6.254  0.0298  0.1428  0.2711
 6067SOL    HW129660   3.627   1.973   6.310  0.4179  0.3018 -0.1209
 6067SOL    HW229661   3.571   1.963   6.171  1.7249 -2.3942  1.8866
 6068SOL     OW29662   0.488   3.589   7.928 -0.3804  0.2231  0.0942
 6068SOL    HW129663   0.469   3.512   7.983  1.1012  1.3068  2.1370
 6068SOL    HW229664   0.462   3.552   7.844 -2.5870  0.1523  0.8029
 6069SOL     OW29665   0.624   2.628  13.121  0.0971 -0.1322 -0.0807
 6069SOL    HW129666   0.562   2.668  13.060  1.4349  0.5997 -0.9684
 6069SOL    HW229667   0.609   2.535  13.102 -0.6633  0.1376 -0.7981
 6070SOL     OW29668   4.513   3.445  16.920  0.3050 -0.3486 -0.0965
 6070SOL    HW129669   4.508   3.434  16.825  0.7337  0.6442 -0.2320
 6070SOL    HW229670   4.565   3.367  16.942  1.8624  0.9564  0.8065
 6071SOL     OW29671   3.374   0.928  17.320 -0.0940 -0.2808  0.1265
 6071SOL    HW129672   3.419   0.879  17.251 -1.4499 -1.2311 -0.0883
 6071SOL    HW229673   3.293   0.959  17.280  0.4981  1.2506  0.1232
 6072SOL     OW29674   4.196   4.447   3.909 -0.0266  0.2858 -0.3106
 6072SOL    HW129675   4.173   4.430   4.001 -0.5306  2.1248 -0.0811
 6072SOL    HW229676   4.291   4.445   3.917 -0.0182  1.4121 -0.0779
 6073SOL     OW29677   4.683   3.764   6.755  0.3399 -0.3317  0.1407
 6073SOL    HW129678   0.041   3.815   6.775 -1.3537  2.5656 -0.5527
 6073SOL    HW229679   0.003   3.679   6.770  2.3520  0.4022 -1.2412
 6074SOL     OW29680   1.175   1.338   6.121 -0.0979  0.0699  0.0960
 6074SOL    HW129681   1.118   1.365   6.048  0.3109 -0.0981 -0.2790
 6074SOL    HW229682   1.136   1.399   6.185 -3.7971 -1.7074 -0.4342
 6075SOL     OW29683   0.471   2.312  11.480 -0.2168  0.0545  0.1087
 6075SOL    HW129684   0.540   2.287  11.543 -0.9753 -1.3776  0.3701
 6075SOL    HW229685   0.400   2.305  11.543 -2.1883  0.8352 -2.0354
 6076SOL     OW29686   1.685   3.653   8.056 -0.1583  0.0144  0.3019
 6076SOL    HW129687   1.775   3.672   8.080 -0.7853  2.3704  0.7980
 6076SOL    HW229688   1.634   3.731   8.077  0.5103  0.7587 -0.8979
 6077SOL     OW29689   1.663   1.602  17.668 -0.6515 -0.9072  0.2554
 6077SOL    HW129690   1.645   1.530  17.609 -1.2189 -1.1594  0.7377
 6077SOL    HW229691   1.602   1.580   0.052  0.0450  0.8606  1.4330
 6078SOL     OW29692   2.778   0.277   8.214  0.2296 -0.0474  0.1064
 6078SOL    HW129693   2.751   0.195   8.257  2.0331 -1.4837 -1.5201
 6078SOL    HW229694   2.788   0.252   8.123  1.9045  2.1887 -0.3147
 6079SOL     OW29695   4.333   2.078   8.364 -0.5892  0.1192 -0.1993
 6079SOL    HW129696   4.357   2.027   8.442  2.2826  0.3444 -0.9503
 6079SOL    HW229697   4.238   2.086   8.376 -0.3179  0.5602  1.6285
 6080SOL     OW29698   1.169   2.660   6.361 -0.6463 -0.5387 -0.0328
 6080SOL    HW129699   1.133   2.635   6.276 -0.8119  0.6579 -0.3065
 6080SOL    HW229700   1.247   2.605   6.364  1.3927  2.4518  0.6574
 6081SOL     OW29701   2.168   0.230   4.781 -0.2350 -0.0882  0.0978
 6081SOL    HW129702   2.133   0.306   4.734  0.9870  1.7233  2.1587
 6081SOL    HW229703   2.092   0.172   4.793 -1.1095  1.1163  0.4280
 6082SOL     OW29704   4.085   1.829   3.596  0.0794  0.0101  0.0278
 6082SOL    HW129705   4.025   1.763   3.630 -0.0422 -0.6012 -1.3710
 6082SOL    HW229706   4.032   1.905   3.620  0.6759  0.0143  1.3261
 6083SOL     OW29707   2.571   2.368   1.707  0.2722 -0.6293 -0.1083
 6083SOL    HW129708   2.564   2.381   1.612  0.2406 -0.4914 -0.0865
 6083SOL    HW229709   2.651   2.416   1.730 -0.7680  0.1145  1.8737
 6084SOL     OW29710   4.351   1.915   5.204  0.4672 -0.2985 -0.4394
 6084SOL    HW129711   4.412   1.938   5.133  2.4569 -0.2355  1.3125
 6084SOL    HW229712   4.388   1.836   5.241 -2.5645 -0.1744  2.7693
 6085SOL     OW29713   0.087   1.764  17.622  0.3286  0.2176  0.1998
 6085SOL    HW129714   0.144   1.693  17.591 -1.7386 -0.6332 -1.6755
 6085SOL    HW229715   0.038   1.725   0.007  1.4677 -2.4474 -0.4501
 6086SOL     OW29716   1.679   3.515   2.376  0.5201 -0.5985  0.5858
 6086SOL    HW129717   1.765   3.558   2.384 -0.9398  1.9472  2.5117
 6086SOL    HW229718   1.695   3.431   2.418  0.1108 -1.4660 -1.0104
 6087SOL     OW29719   3.264   0.909   1.770 -0.4521 -0.4785  0.3449
 6087SOL    HW129720   3.293   0.928   1.681  3.5769 -1.3046  1.5114
 6087SOL    HW229721   3.339   0.860   1.803 -0.1604 -0.5659 -0.4325
 6088SOL     OW29722   2.318   3.452  16.526 -0.3246  0.6110  0.4760
 6088SOL    HW129723   2.364   3.513  16.468  0.5084  0.7779  1.3197
 6088SOL    HW229724   2.234   3.438  16.482  0.0501  2.8520 -0.9514
 6089SOL     OW29725   2.960   3.685   5.739  0.4403 -0.1631  0.1303
 6089SOL    HW129726   2.988   3.641   5.820 -1.2372  0.3754  0.9997
 6089SOL    HW229727   2.887   3.741   5.766 -1.6805 -3.5578  1.4187
 6090SOL     OW29728   3.231   2.758  12.991 -0.3738  0.2289 -0.0244
 6090SOL    HW129729   3.326   2.744  12.994 -0.6681 -1.5532  0.6283
 6090SOL    HW229730   3.213   2.790  13.079  0.4969 -1.5789  0.8012
 6091SOL     OW29731   1.485   4.198   8.521 -0.4556  0.0514 -0.4317
 6091SOL    HW129732   1.558   4.233   8.471  0.5512 -1.1381  0.2000
 6091SOL    HW229733   1.471   4.112   8.481  2.9051  0.2076 -1.9090
 6092SOL     OW29734   3.709   3.268  14.905 -0.1833 -0.0732 -0.3330
 6092SOL    HW129735   3.732   3.356  14.876  0.4061 -0.1636 -0.1416
 6092SOL    HW229736   3.744   3.275  14.994  1.4610 -2.2410 -0.7979
 6093SOL     OW29737   1.483   3.497  11.544  0.3905 -0.0116 -0.1329
 6093SOL    HW129738   1.550   3.479  11.477  1.7747 -1.0443  1.5314
 6093SOL    HW229739   1.529   3.471  11.623  0.1094  0.7036  0.2591
 6094SOL     OW29740   2.155   3.264  14.186  0.5485  0.6204 -0.5581
 6094SOL    HW129741   2.148   3.360  14.183  1.9884  0.6985 -1.4186
 6094SOL    HW229742   2.181   3.247  14.276 -2.2954 -0.8535 -0.0345
 6095SOL     OW29743   2.944   3.645   4.138  0.1719 -0.2394 -0.0543
 6095SOL    HW129744   3.023   3.612   4.094  3.4457  2.3475  3.8108
 6095SOL    HW229745   2.867   3.604   4.099  0.6783 -2.5587  1.4000
 6096SOL     OW29746   0.385   2.351   7.812  0.1175  0.1064  0.3906
 6096SOL    HW129747   0.308   2.302   7.840 -0.4945  1.1407  0.4853
 6096SOL    HW229748   0.444   2.285   7.775  0.8564  1.3401 -0.6468
 6097SOL     OW29749   2.841   1.324   8.161  0.0716  0.0639 -0.4966
 6097SOL    HW129750   2.803   1.265   8.226  0.2727  1.6568  1.0478
 6097SOL    HW229751   2.831   1.409   8.202  2.0807  1.1742 -2.2991
 6098SOL     OW29752   3.496   1.541   2.932  0.1516  0.2446 -0.0057
 6098SOL    HW129753   3.453   1.509   2.853 -2.7080 -0.8715  2.0157
 6098SOL    HW229754   3.501   1.629   2.894 -3.6868  0.5158  0.1589
 6099SOL     OW29755   1.313   0.168   7.842  0.1222 -0.7299 -0.5907
 6099SOL    HW129756   1.274   0.246   7.803 -0.1449 -0.9600 -0.7861
 6099SOL    HW229757   1.376   0.204   7.905 -2.2564 -0.4302  1.6601
 6100SOL     OW29758   2.703   2.739   7.631 -0.1601  0.1357  0.0115
 6100SOL    HW129759   2.704   2.759   7.725  0.1527  0.3985 -0.0471
 6100SOL    HW229760   2.757   2.812   7.600  0.6111 -1.5845 -2.6213
 6101SOL     OW29761   3.539   4.385   6.577 -0.3100 -0.0625  0.6728
 6101SOL    HW129762   3.588   4.333   6.514  0.7903 -1.5529  2.7487
 6101SOL    HW229763   3.464   4.327   6.588 -0.2727  0.0985  1.8070
 6102SOL     OW29764   3.490   1.053   4.826 -0.0923  0.0645 -0.1724
 6102SOL    HW129765   3.456   1.125   4.880 -2.7598 -0.9225 -0.5448
 6102SOL    HW229766   3.573   1.029   4.867  0.6813  0.5758 -1.4245
 6103SOL     OW29767   4.388   1.580   7.080 -1.0852  0.3875 -0.3359
 6103SOL    HW129768   4.348   1.539   7.004  1.1117 -3.9615  0.8412
 6103SOL    HW229769   4.443   1.641   7.032 -2.6548  1.4191 -0.8134
 6104SOL     OW29770   0.035   2.710   6.792  0.5001 -0.1273  0.0067
 6104SOL    HW129771   4.685   2.761   6.833  1.4231  0.5800  0.7254
 6104SOL    HW229772   4.703   2.651   6.739  0.0766  0.5981 -0.3818
 6105SOL     OW29773   1.168   0.718   1.759 -0.0137 -0.0651  0.3624
 6105SOL    HW129774   1.084   0.761   1.776  0.3584  0.5261  0.7059
 6105SOL    HW229775   1.207   0.699   1.845 -0.3970 -0.8046  0.3802
 6106SOL     OW29776   2.919   1.116   2.968  0.6854  0.2948  0.3362
 6106SOL    HW129777   2.873   1.124   2.885 -0.2002 -0.2124  0.7711
 6106SOL    HW229778   3.004   1.161   2.964  0.4526  0.6541 -0.4717
 6107SOL     OW29779   4.033   1.796   8.224 -0.1538  0.2119  0.4271
 6107SOL    HW129780   4.007   1.725   8.283  0.1227  0.2782  0.6312
 6107SOL    HW229781   4.128   1.804   8.236  0.3013 -3.4671 -0.5140
 6108SOL     OW29782   2.692   0.384   7.529  0.8070  0.0200 -0.1017
 6108SOL    HW129783   2.635   0.411   7.457 -0.8205  0.9990  1.5734
 6108SOL    HW229784   2.722   0.469   7.560 -0.2162 -0.1026  1.2134
 6109SOL     OW29785   1.430   3.568   9.895  0.1931 -0.8811  0.2427
 6109SOL    HW129786   1.420   3.561   9.800  0.8720 -1.9321  0.2460
 6109SOL    HW229787   1.342   3.585   9.928 -0.1391  0.7355 -1.4514
 6110SOL     OW29788   0.754   0.918  11.081 -0.5105 -0.0178 -0.6349
 6110SOL    HW129789   0.795   0.961  11.005  0.7070 -0.3367 -0.1521
 6110SOL    HW229790   0.673   0.968  11.093  0.2681  0.8501  0.9212
 6111SOL     OW29791   2.905   0.556   2.202  0.3237  0.0140  0.1230
 6111SOL    HW129792   2.897   0.600   2.118  1.6091  0.0935  0.0364
 6111SOL    HW229793   2.825   0.503   2.209  0.0913  0.5360  1.5252
 6112SOL     OW29794   1.368   1.800  12.315  0.3214 -0.4538  0.8952
 6112SOL    HW129795   1.310   1.728  12.337 -1.6197  0.4221 -1.3143
 6112SOL    HW229796   1.419   1.761  12.244 -2.3126 -0.1796 -1.1646
 6113SOL     OW29797   3.278   0.766   0.091  0.9139 -0.0943  0.3650
 6113SOL    HW129798   3.293   0.846   0.040  1.2996  0.3923  1.2367
 6113SOL    HW229799   3.244   0.798   0.174  1.3991 -2.8506  1.6118
 6114SOL     OW29800   4.174   3.919  14.500 -0.0824  0.1933  0.1188
 6114SOL    HW129801   4.104   3.938  14.437 -0.3349 -0.7260  0.1270
 6114SOL    HW229802   4.136   3.953  14.581 -0.3924  0.7102 -0.2406
 6115SOL     OW29803   3.106   1.330   6.705  0.1260  0.1240  0.4896
 6115SOL    HW129804   3.016   1.296   6.699  0.7832 -1.2232 -1.8084
 6115SOL    HW229805   3.118   1.391   6.633 -1.6327  0.3383  0.3837
 6116SOL     OW29806   2.854   3.424   7.236  0.1221  0.0379  0.1064
 6116SOL    HW129807   2.804   3.482   7.179  0.2429 -1.0772 -1.1439
 6116SOL    HW229808   2.895   3.489   7.292 -0.2147  0.2476  0.1098
 6117SOL     OW29809   2.869   2.387   6.911 -0.5130  0.4170  0.8154
 6117SOL    HW129810   2.877   2.295   6.885 -0.4864  0.5134  0.4882
 6117SOL    HW229811   2.831   2.381   6.999 -0.2531 -0.8534  0.8437
 6118SOL     OW29812   4.459   3.770   2.269 -0.9429 -0.0368  0.3841
 6118SOL    HW129813   4.366   3.772   2.247 -0.6963  0.4715 -0.5971
 6118SOL    HW229814   4.491   3.740   2.184 -1.1714 -2.8660  1.3189
 6119SOL     OW29815   0.096   0.678   8.747 -0.1833 -0.2893 -0.5590
 6119SOL    HW129816   0.132   0.693   8.660 -0.5008 -1.0721 -0.8238
 6119SOL    HW229817   0.159   0.733   8.794 -2.2097  1.4145  0.1975
 6120SOL     OW29818   4.265   4.016   7.261 -0.2689 -0.9960  0.0649
 6120SOL    HW129819   4.356   4.037   7.283 -0.7078  0.9163  0.1078
 6120SOL    HW229820   4.234   4.096   7.218  2.3092 -0.8894 -1.6398
 6121SOL     OW29821   4.230   1.970   7.125  0.1495 -0.2164 -0.4453
 6121SOL    HW129822   4.283   2.018   7.061 -1.4178  0.7244 -1.0191
 6121SOL    HW229823   4.272   1.990   7.209  0.6848  0.0436 -0.7716
 6122SOL     OW29824   0.765   0.909   1.238 -0.4185  0.3300 -0.2618
 6122SOL    HW129825   0.815   0.975   1.190 -0.4924 -0.6015 -1.5943
 6122SOL    HW229826   0.833   0.845   1.260  0.8074  2.0216  0.9049
 6123SOL     OW29827   0.343   4.509   1.928  0.3927 -0.1392 -0.2779
 6123SOL    HW129828   0.261   4.558   1.919 -0.3177 -1.4012 -0.6309
 6123SOL    HW229829   0.346   4.462   1.845 -2.2559 -0.6305 -0.1093
 6124SOL     OW29830   3.617   3.710   0.944  0.3629 -0.6899  0.0120
 6124SOL    HW129831   3.646   3.799   0.962 -0.1266 -0.6803  0.7611
 6124SOL    HW229832   3.568   3.696   1.025  1.8285  1.4620  1.2628
 6125SOL     OW29833   2.233   2.744   5.723  0.0882 -0.8111  0.5579
 6125SOL    HW129834   2.158   2.723   5.667  1.0253 -0.7877 -0.6935
 6125SOL    HW229835   2.198   2.816   5.775 -0.2556  0.3698 -1.3367
 6126SOL     OW29836   2.106   4.442   7.736 -0.5419  0.4838  0.8798
 6126SOL    HW129837   2.030   4.414   7.685 -0.9507  0.3493  1.5648
 6126SOL    HW229838   2.120   4.370   7.798 -0.5581 -0.0364  0.2754
 6127SOL     OW29839   2.383   3.193   5.135 -0.2672 -0.1341  0.3540
 6127SOL    HW129840   2.338   3.164   5.214  0.9476 -4.6819 -0.6360
 6127SOL    HW229841   2.349   3.281   5.121  1.3539  0.5025  0.4447
 6128SOL     OW29842   4.012   3.522   0.757 -0.0891 -0.2053  0.3648
 6128SOL    HW129843   3.934   3.575   0.743 -0.3852 -0.5252  0.8181
 6128SOL    HW229844   3.971   3.437   0.742 -0.0902  0.0186 -0.8981
 6129SOL     OW29845   3.557   4.403  11.600 -0.4196 -0.5831  0.0951
 6129SOL    HW129846   3.601   4.437  11.677 -0.2949 -0.0640 -0.2034
 6129SOL    HW229847   3.570   4.470  11.532  2.3743 -0.8686  0.3432
 6130SOL     OW29848   4.367   3.881   3.507 -0.1659  0.0531 -0.6288
 6130SOL    HW129849   4.323   3.798   3.490  0.2352  0.0047 -1.4480
 6130SOL    HW229850   4.399   3.874   3.597 -0.7595  1.0194 -0.3318
 6131SOL     OW29851   1.650   2.652   5.160 -0.3434 -0.0758 -0.0794
 6131SOL    HW129852   1.670   2.602   5.239 -0.7268 -1.3233 -0.7780
 6131SOL    HW229853   1.740   2.656   5.126  0.4102  0.0815  1.9573
 6132SOL     OW29854   1.292   3.600   1.790  0.6217 -0.0708 -0.0342
 6132SOL    HW129855   1.267   3.619   1.700  3.5831  0.5102 -0.7477
 6132SOL    HW229856   1.217   3.547   1.816 -0.2433  0.6882 -0.9811
 6133SOL     OW29857   0.400   2.951   5.286  0.5233  0.3551  0.2055
 6133SOL    HW129858   0.329   2.889   5.299  1.7292 -1.4512 -1.7724
 6133SOL    HW229859   0.471   2.886   5.280  0.3543 -0.2125  4.3642
 6134SOL     OW29860   4.596   1.069  10.621 -0.4029  0.5548  0.0269
 6134SOL    HW129861   4.589   1.035  10.532 -1.4249  1.3697 -0.2121
 6134SOL    HW229862   4.509   1.048  10.655 -0.4863  0.0763 -0.4842
 6135SOL     OW29863   2.356   0.379  15.274 -0.2435 -0.2958 -0.5065
 6135SOL    HW129864   2.417   0.317  15.315  0.5311  2.3870  2.4160
 6135SOL    HW229865   2.386   0.459  15.318  0.2114 -1.2335  0.9020
 6136SOL     OW29866   2.498   3.675   5.593 -0.0644 -0.2647 -0.2275
 6136SOL    HW129867   2.431   3.736   5.564 -0.6512  0.0788  1.8569
 6136SOL    HW229868   2.559   3.732   5.640  0.0091 -1.2011  0.8167
 6137SOL     OW29869   3.905   1.439   8.847  0.1197  0.0474  0.0202
 6137SOL    HW129870   3.977   1.411   8.791  0.1801 -1.7000  0.9453
 6137SOL    HW229871   3.861   1.497   8.785  1.8441 -0.2562 -1.4857
 6138SOL     OW29872   0.177   3.193   9.196  0.3158  0.0062  0.0502
 6138SOL    HW129873   0.224   3.180   9.279  1.2291 -1.0712 -0.6304
 6138SOL    HW229874   0.126   3.265   9.232 -0.8366 -0.6214 -0.3384
 6139SOL     OW29875   1.013   2.352  10.754 -0.0490  0.6193  0.8146
 6139SOL    HW129876   0.962   2.273  10.740  1.0902 -0.0723  0.6025
 6139SOL    HW229877   0.949   2.419  10.728  0.2890  1.4754  2.1666
 6140SOL     OW29878   0.818   4.496   4.764 -0.3523 -0.0071 -0.1902
 6140SOL    HW129879   0.769   4.510   4.683  0.2815  2.9295 -0.0657
 6140SOL    HW229880   0.752   4.471   4.829  1.0141  0.1640  1.2666
 6141SOL     OW29881   2.158   4.495   2.733 -0.2337 -0.4718  0.1554
 6141SOL    HW129882   2.091   4.442   2.690 -0.3998 -1.9636  2.2484
 6141SOL    HW229883   2.158   4.572   2.676 -3.0397  1.0727  2.2350
 6142SOL     OW29884   0.875   0.217   8.860 -0.0945  0.3393  0.1235
 6142SOL    HW129885   0.827   0.149   8.812 -0.4224  0.0367  0.8885
 6142SOL    HW229886   0.962   0.180   8.848  0.4062  2.2517 -2.1460
 6143SOL     OW29887   2.821   0.350   8.858 -0.4027  0.3232 -0.1421
 6143SOL    HW129888   2.780   0.414   8.915 -0.7389  1.0873 -1.2415
 6143SOL    HW229889   2.913   0.379   8.859  0.4908 -2.4209 -1.0359
 6144SOL     OW29890   3.061   2.116   7.959  0.0439 -0.1305 -0.0236
 6144SOL    HW129891   3.007   2.110   8.037  0.4719  0.8001  0.3459
 6144SOL    HW229892   3.133   2.055   7.978 -1.3865 -1.5267  0.8659
 6145SOL     OW29893   2.736   3.608  16.497 -0.6643 -0.0789 -0.1833
 6145SOL    HW129894   2.749   3.514  16.506  1.9265  0.3251  0.1966
 6145SOL    HW229895   2.717   3.614  16.591  0.4583  0.4316  0.0086
 6146SOL     OW29896   4.478   3.708   9.081 -0.2125  0.4932 -0.1111
 6146SOL    HW129897   4.455   3.721   8.989  1.0505  0.8313 -0.3840
 6146SOL    HW229898   4.554   3.650   9.083  0.2302  1.0542 -0.4907
 6147SOL     OW29899   3.846   0.876   4.049 -0.7976 -0.4655 -0.3292
 6147SOL    HW129900   3.754   0.851   4.052 -1.0822  0.5526 -0.8511
 6147SOL    HW229901   3.874   0.793   4.010  0.0747  0.4896 -1.7732
 6148SOL     OW29902   1.894   2.811   4.553 -0.2932 -0.2226 -0.0743
 6148SOL    HW129903   1.935   2.809   4.639  0.0173  1.6438 -0.1845
 6148SOL    HW229904   1.824   2.745   4.555  0.0813 -0.6584 -1.1458
 6149SOL     OW29905   2.415   4.533   6.904 -0.1771 -0.8928  0.2691
 6149SOL    HW129906   2.487   4.491   6.952  0.9618  0.1853 -0.4950
 6149SOL    HW229907   2.359   4.458   6.883 -0.1867 -0.8682  0.2059
 6150SOL     OW29908   4.414   3.191   1.253  0.2453  0.6477  0.6102
 6150SOL    HW129909   4.431   3.207   1.160 -1.2485  0.1412  0.2493
 6150SOL    HW229910   4.467   3.260   1.293 -1.0181  1.3235  1.1381
 6151SOL     OW29911   1.481   3.071  12.105  0.4633  0.1287  0.4273
 6151SOL    HW129912   1.481   3.053  12.199 -0.3157 -1.4289  0.1101
 6151SOL    HW229913   1.389   3.055  12.086  0.7122 -2.1616  1.2636
 6152SOL     OW29914   2.391   0.998   3.232 -0.3543 -0.2311 -0.6862
 6152SOL    HW129915   2.349   0.938   3.170 -0.3203  0.5617 -1.4703
 6152SOL    HW229916   2.484   0.989   3.214 -0.3034 -0.1023 -0.4837
 6153SOL     OW29917   2.821   3.286   4.212  0.2823 -0.2786  0.4182
 6153SOL    HW129918   2.788   3.289   4.302 -0.4041 -0.6899  0.1887
 6153SOL    HW229919   2.829   3.192   4.194 -0.3339 -0.5249  1.4072
 6154SOL     OW29920   2.379   0.507   4.036 -0.0418  0.4631  0.9888
 6154SOL    HW129921   2.395   0.424   3.992  1.3793  0.8487  0.7881
 6154SOL    HW229922   2.299   0.536   3.991  0.2151 -0.6220 -0.1654
 6155SOL     OW29923   2.622   0.762  14.356  0.1033 -0.0685 -0.4703
 6155SOL    HW129924   2.569   0.689  14.389 -0.8641  1.0522  0.4536
 6155SOL    HW229925   2.684   0.714  14.301 -0.6076 -1.6749  0.1369
 6156SOL     OW29926   2.926   1.401  17.061  0.3070  0.5654 -1.0675
 6156SOL    HW129927   3.000   1.357  17.103 -1.5666 -0.7311  0.8725
 6156SOL    HW229928   2.913   1.472  17.124  0.9646  0.0982 -0.4055
 6157SOL     OW29929   0.990   3.798   3.288 -0.1400  0.5021 -0.2321
 6157SOL    HW129930   0.951   3.753   3.214 -0.3776 -0.8141  0.6840
 6157SOL    HW229931   0.957   3.749   3.363 -0.5495  1.6320  0.3252
 6158SOL     OW29932   2.655   3.471   8.073 -0.6742  0.5013 -0.2508
 6158SOL    HW129933   2.593   3.526   8.026  2.0655  1.7976 -2.3141
 6158SOL    HW229934   2.610   3.388   8.056 -2.9043  1.4624  0.9988
 6159SOL     OW29935   1.775   3.971   8.401  0.1633 -0.4767 -0.0686
 6159SOL    HW129936   1.767   4.055   8.356 -3.3435 -0.1161  1.2313
 6159SOL    HW229937   1.822   3.994   8.481 -0.3102 -0.4381  0.1991
 6160SOL     OW29938   2.144   1.688   6.986 -0.6512  0.0990 -0.3029
 6160SOL    HW129939   2.225   1.659   7.028 -1.4673  0.0340  1.2123
 6160SOL    HW229940   2.147   1.781   7.006 -2.2057  0.0390  0.1776
 6161SOL     OW29941   0.338   1.762   3.536 -0.1817 -0.7237  0.1115
 6161SOL    HW129942   0.353   1.754   3.630  1.2273  2.7893  0.2053
 6161SOL    HW229943   0.243   1.764   3.530 -0.1981  0.2643  0.5718
 6162SOL     OW29944   4.112   0.970   8.259  0.2232  0.0850 -0.2202
 6162SOL    HW129945   4.065   0.997   8.180 -0.5551 -0.4608  0.0562
 6162SOL    HW229946   4.042   0.937   8.315 -0.9509 -0.1226 -1.8127
 6163SOL     OW29947   1.181   3.085   3.947  0.2245 -0.0013  0.3156
 6163SOL    HW129948   1.232   3.126   4.017  0.3638 -0.3238  0.4013
 6163SOL    HW229949   1.258   3.036   3.917  0.1686  0.0032  0.1619
 6164SOL     OW29950   3.117   1.240   0.881  0.0302  0.3343  0.0798
 6164SOL    HW129951   3.098   1.269   0.791  0.7731 -0.8493 -0.4646
 6164SOL    HW229952   3.180   1.307   0.905 -0.9141  0.7697  1.3261
 6165SOL     OW29953   0.328   3.411   8.931  0.1907  0.5315 -0.3578
 6165SOL    HW129954   0.275   3.332   8.933 -1.7059  1.7955 -0.4333
 6165SOL    HW229955   0.399   3.389   8.991  0.6461  0.7523 -0.8129
 6166SOL     OW29956   2.794   1.091   7.411  0.0823  0.8634  0.2467
 6166SOL    HW129957   2.734   1.087   7.337 -2.0562  1.7558  1.9073
 6166SOL    HW229958   2.790   1.002   7.447  1.8780  0.1764 -1.3005
 6167SOL     OW29959   0.530   2.534  12.488  0.3271  0.1305  0.1221
 6167SOL    HW129960   0.581   2.466  12.446  3.7890  1.5144  2.1206
 6167SOL    HW229961   0.569   2.532  12.575 -0.0938 -0.1743  0.3065
 6168SOL     OW29962   0.805   1.187   9.988  0.0743  0.3325 -0.1836
 6168SOL    HW129963   0.862   1.198  10.063  0.7285  3.0529 -1.0740
 6168SOL    HW229964   0.833   1.096   9.974 -1.1736 -0.1072  0.2342
 6169SOL     OW29965   1.129   3.669  11.538 -0.0888 -0.2920 -0.2359
 6169SOL    HW129966   1.179   3.702  11.464  0.8831  0.0200  0.5690
 6169SOL    HW229967   1.107   3.751  11.583 -0.0320 -0.2427 -0.2985
 6170SOL     OW29968   2.291   0.770   8.977  0.0794  0.2313  0.1639
 6170SOL    HW129969   2.333   0.715   8.911  1.0105 -0.6605  1.5078
 6170SOL    HW229970   2.218   0.716   9.004  0.0922 -0.3765 -1.0366
 6171SOL     OW29971   0.169   1.927   3.978 -0.3556  0.4650  0.2456
 6171SOL    HW129972   0.131   1.877   4.050 -1.9448  0.9639 -0.2480
 6171SOL    HW229973   0.162   2.007   4.030 -0.9242  0.1497  0.6525
 6172SOL     OW29974   3.464   2.177   7.432 -0.2721 -0.0443 -0.1337
 6172SOL    HW129975   3.396   2.245   7.430  0.2687  0.5087  0.5100
 6172SOL    HW229976   3.519   2.215   7.500 -4.4273  1.1254  2.5649
 6173SOL     OW29977   3.107   1.746   8.298 -0.2953  0.3755 -0.0846
 6173SOL    HW129978   3.018   1.750   8.264  0.1610 -1.5319 -1.4911
 6173SOL    HW229979   3.150   1.826   8.266  2.6295 -0.9718  0.4812
 6174SOL     OW29980   0.131   3.563   8.909  0.3823 -0.1238 -0.1425
 6174SOL    HW129981   0.205   3.509   8.937  0.2285  1.0922  2.5987
 6174SOL    HW229982   0.073   3.570   8.985  3.1957  3.5153  1.6766
 6175SOL     OW29983   0.090   2.484   2.550  0.1670  0.0806 -1.2593
 6175SOL    HW129984   0.113   2.394   2.572  1.3117  0.9042  0.8379
 6175SOL    HW229985   0.067   2.464   2.459 -1.3916  1.0851 -1.0823
 6176SOL     OW29986   2.082   0.384  15.302  0.4063 -0.2221  0.2622
 6176SOL    HW129987   2.177   0.400  15.301  0.5218 -0.8367  0.8755
 6176SOL    HW229988   2.068   0.409  15.211  0.2682 -0.5114  0.2018
 6177SOL     OW29989   2.769   0.734  10.117  0.4478 -0.0520  0.0649
 6177SOL    HW129990   2.806   0.820  10.139 -0.3320  0.1122  0.7357
 6177SOL    HW229991   2.676   0.739  10.138  0.6258 -0.2560  0.9317
 6178SOL     OW29992   1.691   2.127   4.858 -1.2453  0.1947 -0.4439
 6178SOL    HW129993   1.691   2.221   4.875  0.9673  0.0615  0.2936
 6178SOL    HW229994   1.701   2.132   4.763  2.7835 -1.7669 -0.1450
 6179SOL     OW29995   4.015   1.538   5.511  0.0182  0.3939  0.1935
 6179SOL    HW129996   3.957   1.587   5.570 -1.6222 -1.3400  0.0295
 6179SOL    HW229997   3.974   1.568   5.430  1.2666  0.9462 -0.2159
 6180SOL     OW29998   0.791   4.078   0.816  0.1744 -0.6930  0.0210
 6180SOL    HW129999   0.799   4.119   0.902  0.1755  0.5657 -0.5773
 6180SOL    HW230000   0.833   4.149   0.767 -1.4323 -0.3581 -0.8806
 6181SOL     OW30001   1.683   1.830  13.681  0.2772  0.4194  0.1950
 6181SOL    HW130002   1.778   1.818  13.677  0.0212 -1.3412 -0.5189
 6181SOL    HW230003   1.669   1.815  13.775 -2.1601  1.7654  0.0213
 6182SOL     OW30004   0.474   1.300  12.868  0.2580 -0.1927  0.0944
 6182SOL    HW130005   0.379   1.306  12.871  0.3701  1.5379  0.0937
 6182SOL    HW230006   0.488   1.205  12.870 -3.9521 -0.8269 -0.2667
 6183SOL     OW30007   2.656   3.545   0.032  0.5132  0.0315  0.6909
 6183SOL    HW130008   2.676   3.457   0.000 -1.5731 -0.1144 -0.2649
 6183SOL    HW230009   2.746   3.570   0.050  1.3915 -1.5596 -1.4479
 6184SOL     OW30010   4.275   1.586   8.892  0.6519  0.5754 -0.1474
 6184SOL    HW130011   4.193   1.576   8.941  1.1156  0.4896  0.5996
 6184SOL    HW230012   4.306   1.677   8.900  1.7495  0.3492 -1.8002
 6185SOL     OW30013   3.728   2.907   0.685  0.0006 -0.4259 -0.2506
 6185SOL    HW130014   3.764   2.843   0.624  0.1068  0.4675 -1.1318
 6185SOL    HW230015   3.686   2.845   0.744  1.9179 -0.1822  1.3645
 6186SOL     OW30016   0.193   2.743   6.091  0.3799  0.2681 -0.2747
 6186SOL    HW130017   0.261   2.716   6.028  1.4435 -0.0649  1.0070
 6186SOL    HW230018   0.155   2.820   6.049  1.9176  1.4098  0.4387
 6187SOL     OW30019   2.108   1.860  10.103 -0.3458 -0.2719  0.1697
 6187SOL    HW130020   2.078   1.778  10.143  1.9742 -0.1790  2.1342
 6187SOL    HW230021   2.181   1.890  10.157  0.5996  2.4126 -2.6212
 6188SOL     OW30022   0.656   1.884   4.142  0.4062  0.4169  0.1136
 6188SOL    HW130023   0.597   1.922   4.078 -1.1255  0.9988  1.8793
 6188SOL    HW230024   0.605   1.806   4.163  3.9788 -1.3667  2.2891
 6189SOL     OW30025   0.006   0.260   7.143  0.1133  0.3109  0.2432
 6189SOL    HW130026   0.025   0.353   7.131  1.7063 -0.1183 -0.5803
 6189SOL    HW230027   0.077   0.240   7.205  0.4407  2.6525  0.6221
 6190SOL     OW30028   3.931   2.163  11.682 -0.0782 -0.3351  0.0204
 6190SOL    HW130029   3.916   2.176  11.589  1.1068 -0.0797 -0.1340
 6190SOL    HW230030   3.863   2.100  11.709  1.9404 -3.0649 -1.2574
 6191SOL     OW30031   2.845   3.952   7.533  0.0123 -0.2974 -0.4215
 6191SOL    HW130032   2.883   3.882   7.587  1.3918  0.1878 -0.7449
 6191SOL    HW230033   2.903   4.026   7.551 -2.1934  1.4675 -0.6134
 6192SOL     OW30034   0.604   2.482   5.528  0.2288 -0.6192  0.4258
 6192SOL    HW130035   0.563   2.531   5.599  0.3309 -0.7229  0.5584
 6192SOL    HW230036   0.581   2.394   5.559  0.6859 -0.5333  1.0006
 6193SOL     OW30037   2.498   0.870   9.109  0.1815 -0.3421  0.0451
 6193SOL    HW130038   2.504   0.797   9.171  1.4404 -2.4405 -2.5094
 6193SOL    HW230039   2.414   0.855   9.067 -0.5300  0.9716  1.0126
 6194SOL     OW30040   0.176   3.250   1.343  0.2089  0.2280  0.4106
 6194SOL    HW130041   0.130   3.324   1.382 -0.0038 -0.3483  1.2598
 6194SOL    HW230042   0.122   3.180   1.381 -1.3598  1.6349  0.7905
 6195SOL     OW30043   0.524   3.356  13.885  0.5748  0.2652 -0.5613
 6195SOL    HW130044   0.500   3.442  13.851  1.0555  0.4106 -0.5269
 6195SOL    HW230045   0.600   3.370  13.942  0.8696  0.6647 -1.0565
 6196SOL     OW30046   3.427   4.359   4.759  0.1958 -0.4181  0.9168
 6196SOL    HW130047   3.381   4.303   4.822 -1.3882  0.1347  0.2448
 6196SOL    HW230048   3.352   4.413   4.735  0.1299 -0.7043  0.4812
 6197SOL     OW30049   4.171   3.569   1.079  0.2297 -0.0734  0.5127
 6197SOL    HW130050   4.147   3.490   1.030  0.2421  0.3248 -0.1267
 6197SOL    HW230051   4.087   3.575   1.124 -0.0168  0.2085  0.0141
 6198SOL     OW30052   0.115   1.228   3.780  0.1016  0.0101 -0.1850
 6198SOL    HW130053   0.200   1.196   3.751  0.6055  2.0734 -0.9634
 6198SOL    HW230054   0.054   1.164   3.744  1.4142 -0.4847 -1.5260
 6199SOL     OW30055   0.329   3.497  14.172 -0.2512 -0.2151 -0.7921
 6199SOL    HW130056   0.333   3.575  14.117  1.7107  1.3614  1.6159
 6199SOL    HW230057   0.402   3.518  14.230 -0.7128  2.0212 -1.0279
 6200SOL     OW30058   2.340   0.064  15.065  0.1538 -0.4212  0.6048
 6200SOL    HW130059   2.319   4.691  15.065 -1.6878 -0.0076 -0.2838
 6200SOL    HW230060   2.289   0.099  15.137 -0.7909  2.3137 -1.3997
 6201SOL     OW30061   4.627   2.902   0.977 -0.2652 -0.5165 -0.3383
 6201SOL    HW130062   4.639   2.807   0.978  0.3487 -0.4422  0.1822
 6201SOL    HW230063   4.637   2.919   1.071 -0.7944 -1.9854 -0.0290
 6202SOL     OW30064   0.354   1.929   8.425  0.2495 -0.0756  0.0164
 6202SOL    HW130065   0.281   1.991   8.415  0.3435 -0.2492 -1.7547
 6202SOL    HW230066   0.323   1.860   8.484  1.6583 -1.5081 -0.9148
 6203SOL     OW30067   2.359   1.291   5.003 -0.3013 -0.3427  0.6668
 6203SOL    HW130068   2.440   1.306   5.051 -1.6703  4.4621  1.4454
 6203SOL    HW230069   2.374   1.203   4.968  1.0395  0.7773 -1.6247
 6204SOL     OW30070   1.717   3.114   6.754 -0.0733 -0.3900 -0.0995
 6204SOL    HW130071   1.622   3.125   6.742  0.1809  0.0615 -1.7362
 6204SOL    HW230072   1.734   3.079   6.667  0.8282 -2.1782  0.7946
 6205SOL     OW30073   0.323   2.676   5.626  0.2087 -0.0953 -0.1715
 6205SOL    HW130074   0.305   2.582   5.626  1.5846 -0.3756 -2.8807
 6205SOL    HW230075   0.292   2.707   5.541  0.6768 -0.9498 -0.6613
 6206SOL     OW30076   3.165   1.779   9.622 -0.2444  0.5142 -0.4711
 6206SOL    HW130077   3.217   1.856   9.648  0.6753 -1.3928  3.3267
 6206SOL    HW230078   3.115   1.812   9.547 -1.8210  2.1332  1.2755
 6207SOL     OW30079   3.735   2.096   5.049  0.0599 -0.3351 -0.6071
 6207SOL    HW130080   3.790   2.103   5.126 -2.1063  2.7564  0.6797
 6207SOL    HW230081   3.804   2.092   4.983 -0.0648 -1.3324 -0.6712
 6208SOL     OW30082   1.598   1.699   5.174 -0.2537 -0.4885  0.1896
 6208SOL    HW130083   1.561   1.760   5.110  2.1965 -0.9178 -1.6503
 6208SOL    HW230084   1.671   1.656   5.129 -0.4842 -1.1215  0.4179
 6209SOL     OW30085   0.148   2.950   0.753 -0.4327  0.4210 -0.3727
 6209SOL    HW130086   0.061   2.922   0.783  0.0081  1.1114  1.5402
 6209SOL    HW230087   0.160   3.035   0.796 -0.8150 -0.4722  1.5281
 6210SOL     OW30088   1.391   1.006   2.859  0.3594  0.2373 -0.7852
 6210SOL    HW130089   1.356   0.981   2.945  2.0192  1.6340  0.3241
 6210SOL    HW230090   1.334   1.076   2.828  1.3539  0.5057 -2.0147
 6211SOL     OW30091   4.478   4.260   1.792 -0.4839  0.0932 -0.2005
 6211SOL    HW130092   4.541   4.237   1.724 -1.9180  0.3711 -1.6424
 6211SOL    HW230093   4.472   4.355   1.791  2.4241  0.2776  0.4108
 6212SOL     OW30094   3.630   2.986   6.775  0.2823 -0.0465 -0.1807
 6212SOL    HW130095   3.613   2.908   6.829  1.8877 -1.4392 -1.6832
 6212SOL    HW230096   3.725   2.980   6.765  0.0845 -2.6659 -0.6393
 6213SOL     OW30097   2.983   1.641  16.884  0.3209  0.3233 -0.0669
 6213SOL    HW130098   3.073   1.608  16.891 -0.9834 -2.8602  1.4802
 6213SOL    HW230099   2.952   1.562  16.840 -0.9904  1.0101 -0.3817
 6214SOL     OW30100   3.950   4.318   4.983  0.2485  0.2857 -0.4776
 6214SOL    HW130101   3.954   4.255   5.055  0.0959 -0.1681 -0.8627
 6214SOL    HW230102   3.855   4.328   4.982  0.3408  1.2149  0.4272
 6215SOL     OW30103   1.773   0.479  11.846  0.1386 -0.8865  0.0794
 6215SOL    HW130104   1.786   0.505  11.937  1.2322  0.1746 -0.3736
 6215SOL    HW230105   1.677   0.481  11.845  0.2040  1.9579  0.8648
 6216SOL     OW30106   0.874   2.232  11.749 -0.3566  0.0615  0.0588
 6216SOL    HW130107   0.798   2.187  11.712 -0.5941  1.2989 -0.9945
 6216SOL    HW230108   0.866   2.226  11.844 -0.2375 -0.4773  0.0342
 6217SOL     OW30109   0.906   3.264   5.856 -0.4734  0.3320  0.1991
 6217SOL    HW130110   0.863   3.255   5.771 -0.0718 -0.3745  0.0733
 6217SOL    HW230111   0.948   3.348   5.836  3.0213 -1.6797 -0.7137
 6218SOL     OW30112   0.458   2.602   4.994 -0.0625 -0.1979  0.3708
 6218SOL    HW130113   0.535   2.629   5.044 -0.2852  3.2536 -1.1819
 6218SOL    HW230114   0.446   2.510   5.020 -2.2892  0.3560  1.2561
 6219SOL     OW30115   1.635   3.282   9.480  0.2207 -0.1528  0.1040
 6219SOL    HW130116   1.550   3.316   9.452  0.9896  1.3093 -0.4530
 6219SOL    HW230117   1.642   3.195   9.440  4.0977 -0.5512  1.6556
 6220SOL     OW30118   2.646   4.712   1.751  0.0551 -0.0660 -0.2100
 6220SOL    HW130119   2.733   4.713   1.790  0.5954 -2.4028 -1.3192
 6220SOL    HW230120   2.626   0.083   1.767  0.5161  0.2159 -1.2315
 6221SOL     OW30121   0.095   4.511   3.517 -0.0233  0.0952  0.2090
 6221SOL    HW130122   0.000   4.502   3.525 -0.2572 -1.5219 -3.8917
 6221SOL    HW230123   0.102   4.603   3.492 -2.0027  0.1584 -0.0929
 6222SOL     OW30124   2.851   2.526   5.624  0.4205 -0.1893 -0.0801
 6222SOL    HW130125   2.918   2.583   5.587 -0.1108  1.4567  1.5645
 6222SOL    HW230126   2.903   2.458   5.666  0.1152  0.2397  0.9707
 6223SOL     OW30127   3.497   2.122   9.404 -0.3123 -0.2418  0.5619
 6223SOL    HW130128   3.553   2.200   9.409 -0.6744  0.1031 -0.8071
 6223SOL    HW230129   3.410   2.162   9.393 -0.1219 -0.2498 -0.9027
 6224SOL     OW30130   1.732   3.220   9.104 -0.4284  0.2673 -1.1005
 6224SOL    HW130131   1.727   3.177   9.019 -1.0896 -0.7927 -0.5321
 6224SOL    HW230132   1.706   3.147   9.160  1.0388  1.6142  1.3883
 6225SOL     OW30133   1.186   3.573   7.017  0.2850  0.0674 -0.5781
 6225SOL    HW130134   1.237   3.610   7.090 -0.5085 -0.7798  0.4102
 6225SOL    HW230135   1.251   3.513   6.980  0.4216 -0.7497  0.9866
 6226SOL     OW30136   2.200   4.422   8.946  0.2821 -0.8697  0.2306
 6226SOL    HW130137   2.128   4.359   8.944 -1.0983  0.7663 -1.3434
 6226SOL    HW230138   2.180   4.456   9.034  1.3929 -1.2070  0.6042
 6227SOL     OW30139   1.037   4.195   1.993 -0.2886  0.3264  0.5125
 6227SOL    HW130140   0.996   4.109   1.999 -0.9641  0.6292  0.3527
 6227SOL    HW230141   1.015   4.210   1.901 -0.3797 -1.8549  0.1818
 6228SOL     OW30142   2.369   0.979   5.530  0.1082 -0.2443  0.0311
 6228SOL    HW130143   2.456   0.984   5.490 -0.1947  1.8125 -0.3845
 6228SOL    HW230144   2.396   0.991   5.621  2.6699 -1.7061 -0.5360
 6229SOL     OW30145   2.926   1.572   7.323  0.1324 -0.2166 -0.3502
 6229SOL    HW130146   2.970   1.497   7.363  1.6693  0.7722 -0.2300
 6229SOL    HW230147   2.974   1.644   7.363 -0.3586 -0.4262  0.6145
 6230SOL     OW30148   4.084   0.108  13.068 -0.0661  0.4197 -0.2603
 6230SOL    HW130149   4.002   0.090  13.114 -1.0636  1.3412 -1.6857
 6230SOL    HW230150   4.052   0.106  12.978  0.5018  0.8057 -0.4671
 6231SOL     OW30151   2.941   3.411   9.270 -0.6598 -0.2040  0.7482
 6231SOL    HW130152   2.966   3.467   9.344 -0.3060  1.1027 -0.3681
 6231SOL    HW230153   2.956   3.471   9.197  0.3625 -1.4382 -0.0511
 6232SOL     OW30154   3.777   1.669   6.023 -0.7226  0.0261  0.0031
 6232SOL    HW130155   3.779   1.574   6.037 -0.1135  0.0248 -0.0724
 6232SOL    HW230156   3.865   1.689   6.054 -0.9223  1.3201 -0.2689
 6233SOL     OW30157   1.887   0.093   8.256  0.3517  0.0512  0.8783
 6233SOL    HW130158   1.916   0.028   8.320  0.3689  1.2486  2.1044
 6233SOL    HW230159   1.840   0.155   8.313  0.1265 -0.0487  0.8039
 6234SOL     OW30160   0.864   2.595   1.966  0.0555  0.3405  0.3476
 6234SOL    HW130161   0.875   2.622   1.875 -1.1699  0.9475  0.3892
 6234SOL    HW230162   0.839   2.677   2.007 -0.8539 -0.7164  1.8887
 6235SOL     OW30163   0.478   1.348   7.301  0.3613 -0.6827 -0.4998
 6235SOL    HW130164   0.521   1.387   7.377 -0.3417  1.4665 -1.2189
 6235SOL    HW230165   0.557   1.321   7.255  1.3539  1.7150 -0.1938
 6236SOL     OW30166   0.145   1.850  10.860  0.2846 -0.2254  0.5867
 6236SOL    HW130167   0.075   1.866  10.797  1.5692 -0.7706 -0.9711
 6236SOL    HW230168   0.192   1.775  10.823 -0.2319 -0.3919  0.2643
 6237SOL     OW30169   1.859   1.622   7.750  0.0163 -0.7650 -0.2679
 6237SOL    HW130170   1.858   1.565   7.826 -0.4934 -0.5404 -0.1071
 6237SOL    HW230171   1.769   1.610   7.721 -0.5434  0.3061  1.0558
 6238SOL     OW30172   1.099   2.400   3.071 -0.1203  0.0307  0.3385
 6238SOL    HW130173   1.170   2.462   3.053 -0.0016 -0.0149  0.6648
 6238SOL    HW230174   1.085   2.369   2.981  0.5984  1.1066 -0.1512
 6239SOL     OW30175   1.218   3.069  11.918 -0.5000  0.1190 -0.2504
 6239SOL    HW130176   1.127   3.099  11.920 -1.2281 -2.1337  0.7746
 6239SOL    HW230177   1.205   2.974  11.920 -0.1845  0.0927  0.6144
 6240SOL     OW30178   2.015   1.923  17.167 -0.4359 -1.0888  0.5554
 6240SOL    HW130179   2.031   1.930  17.073 -0.1422 -0.0045  0.6887
 6240SOL    HW230180   2.096   1.966  17.194 -0.0865 -0.6638 -1.1452
 6241SOL     OW30181   1.861   2.441   4.159  0.1438 -0.3037 -0.9806
 6241SOL    HW130182   1.905   2.363   4.125 -0.9706 -0.1637 -2.7728
 6241SOL    HW230183   1.773   2.404   4.167 -0.4193  1.4774  1.0553
 6242SOL     OW30184   3.479   4.650   8.776 -0.2456 -0.2329  0.2536
 6242SOL    HW130185   3.436   4.565   8.768 -0.1104 -0.1492 -1.3610
 6242SOL    HW230186   3.525   4.630   8.858 -1.4094 -0.3728  0.8653
 6243SOL     OW30187   1.264   3.120   8.404 -0.1788 -0.2765  0.0533
 6243SOL    HW130188   1.208   3.162   8.468 -1.8531 -1.5336 -0.5791
 6243SOL    HW230189   1.293   3.040   8.448 -2.5879 -1.3855 -0.3674
 6244SOL     OW30190   0.340   3.213   8.548 -0.7079  0.3673 -0.4543
 6244SOL    HW130191   0.381   3.180   8.628 -1.4741  1.1472  0.2587
 6244SOL    HW230192   0.345   3.307   8.565 -0.5015 -0.1195  2.1113
 6245SOL     OW30193   2.855   1.650   0.650  0.1530  0.3064 -0.1499
 6245SOL    HW130194   2.936   1.694   0.677  1.0156 -1.0266 -0.5348
 6245SOL    HW230195   2.816   1.617   0.731  0.3928 -0.7728 -0.4742
 6246SOL     OW30196   3.230   3.648  15.687 -0.3680 -0.2373  0.0159
 6246SOL    HW130197   3.168   3.682  15.751 -3.4298 -0.6388 -2.7215
 6246SOL    HW230198   3.194   3.680  15.605 -0.2326  0.9547  0.4227
 6247SOL     OW30199   3.408   4.000   2.847 -0.5093  0.2076  0.1879
 6247SOL    HW130200   3.427   4.092   2.867 -0.0943  0.9629 -3.7999
 6247SOL    HW230201   3.480   3.965   2.898  0.9399 -0.2780 -2.2091
 6248SOL     OW30202   1.993   3.600   4.681 -0.3319  0.2754  0.6596
 6248SOL    HW130203   2.081   3.635   4.692  0.0316 -0.5200  0.2141
 6248SOL    HW230204   1.938   3.673   4.651  0.4796  1.4997  2.1647
 6249SOL     OW30205   3.060   1.567   6.856  0.2043  0.5234 -0.1520
 6249SOL    HW130206   3.107   1.533   6.932  0.1647  0.5660 -0.1083
 6249SOL    HW230207   3.059   1.492   6.796 -2.7854  0.3479  0.0981
 6250SOL     OW30208   2.640   2.887   7.325 -0.2128  0.0271  0.6423
 6250SOL    HW130209   2.562   2.904   7.377  0.4168  2.1890  0.8652
 6250SOL    HW230210   2.657   2.973   7.285  0.6331 -0.8577 -0.9166
 6251SOL     OW30211   1.473   1.000   2.613 -0.3416 -0.1960  0.1459
 6251SOL    HW130212   1.527   1.078   2.625  1.0925 -1.2179  0.3579
 6251SOL    HW230213   1.456   0.975   2.704  0.3735  0.0488  0.3467
 6252SOL     OW30214   0.350   1.679   4.761  0.4454 -0.0435 -0.3636
 6252SOL    HW130215   0.290   1.675   4.835  1.9465 -0.7898  0.8135
 6252SOL    HW230216   0.289   1.715   4.696  2.2408  0.9012 -1.5299
 6253SOL     OW30217   2.972   3.142   3.084  0.5921 -0.9007 -0.0743
 6253SOL    HW130218   3.028   3.111   3.155  0.6084  1.4340  0.9287
 6253SOL    HW230219   3.037   3.189   3.032  0.4345 -0.5391  0.0536
 6254SOL     OW30220   2.536   3.877   2.630 -0.1671 -0.4666 -0.0882
 6254SOL    HW130221   2.538   3.781   2.629  3.7628 -0.3538 -2.3562
 6254SOL    HW230222   2.527   3.890   2.724  0.2396 -0.7249 -0.0109
 6255SOL     OW30223   4.344   2.286   3.466  0.4120 -0.1139  0.0175
 6255SOL    HW130224   4.252   2.265   3.447  0.3996  0.8750 -1.0186
 6255SOL    HW230225   4.343   2.380   3.449 -1.4048 -0.1979 -0.3088
 6256SOL     OW30226   3.771   1.009  13.418  0.2281  0.4936 -1.2160
 6256SOL    HW130227   3.825   0.957  13.478 -0.0875  2.1066  0.4734
 6256SOL    HW230228   3.788   1.097  13.451  2.2775 -0.6757  0.8312
 6257SOL     OW30229   1.427   0.109   5.314  0.1275  0.1506 -0.0972
 6257SOL    HW130230   1.461   0.177   5.373 -0.1169  0.6765 -0.5639
 6257SOL    HW230231   1.335   0.104   5.339 -0.5205 -1.0984 -2.7050
 6258SOL     OW30232   1.637   0.741   0.837  0.0137 -0.0119 -0.3576
 6258SOL    HW130233   1.693   0.674   0.878  0.7824  0.4259 -0.7059
 6258SOL    HW230234   1.621   0.795   0.915 -3.2390 -0.7791 -0.5062
 6259SOL     OW30235   2.513   0.316   6.614 -0.4424  0.0496 -0.1124
 6259SOL    HW130236   2.504   0.308   6.709 -0.1815  2.6282  0.1138
 6259SOL    HW230237   2.543   0.226   6.597  3.1965  1.1495  0.6336
 6260SOL     OW30238   2.126   1.082   8.896  0.2512  0.0318 -0.4394
 6260SOL    HW130239   2.084   1.107   8.978  0.0362 -0.7583 -0.3138
 6260SOL    HW230240   2.140   0.988   8.905 -3.4415 -0.6010 -1.5650
 6261SOL     OW30241   3.460   2.982   9.545 -0.7414 -0.6099 -0.0157
 6261SOL    HW130242   3.472   3.038   9.468  0.8877  0.5114  1.0296
 6261SOL    HW230243   3.407   2.913   9.507 -1.8202 -0.7662  1.7695
 6262SOL     OW30244   1.334   4.700   4.853 -0.1495  0.0939 -0.3863
 6262SOL    HW130245   1.395   0.050   4.838  1.5101 -1.5865 -1.6414
 6262SOL    HW230246   1.383   4.619   4.839  1.0120  0.1654  3.1983
 6263SOL     OW30247   0.781   2.008   3.659 -0.4138 -0.5545  0.3010
 6263SOL    HW130248   0.873   2.016   3.684 -0.0582 -0.6654 -0.9773
 6263SOL    HW230249   0.769   1.913   3.657  0.7186 -0.7140  2.0641
 6264SOL     OW30250   1.256   1.397   7.353 -0.3111 -1.0300 -0.0611
 6264SOL    HW130251   1.190   1.459   7.323  0.2958  1.0306  2.9283
 6264SOL    HW230252   1.221   1.310   7.332 -1.2279 -0.8902  0.8811
 6265SOL     OW30253   0.164   0.997  16.219  0.0248 -0.3191 -0.1376
 6265SOL    HW130254   0.181   0.947  16.298  2.5494 -1.1203 -1.2077
 6265SOL    HW230255   0.095   1.060  16.243  0.8770 -0.0734  1.6103
 6266SOL     OW30256   2.834   0.714  17.596 -0.4404 -0.3003 -0.3509
 6266SOL    HW130257   2.879   0.767  17.663 -0.3410 -0.9756  0.1208
 6266SOL    HW230258   2.903   0.665  17.551 -0.5074  2.4115 -3.4379
 6267SOL     OW30259   0.464   2.978   4.650  0.4785 -0.5472  0.1398
 6267SOL    HW130260   0.431   3.026   4.573 -0.4319 -1.9695 -0.3597
 6267SOL    HW230261   0.555   3.007   4.638 -0.0081  0.7609 -0.4439
 6268SOL     OW30262   0.643   3.844  16.694  0.2387 -0.6108 -0.5375
 6268SOL    HW130263   0.613   3.806  16.777  0.7953 -1.3283 -0.6646
 6268SOL    HW230264   0.707   3.780  16.664  0.3952  1.0772 -3.8167
 6269SOL     OW30265   3.528   1.475   4.836  0.1541 -0.5568 -0.6933
 6269SOL    HW130266   3.573   1.447   4.757  1.0298 -0.9157 -0.0719
 6269SOL    HW230267   3.485   1.556   4.810  0.0562 -1.3125 -2.8880
 6270SOL     OW30268   1.211   1.309  10.280  0.5595  0.1561  0.1230
 6270SOL    HW130269   1.285   1.291  10.338 -0.7780 -2.0723  1.1636
 6270SOL    HW230270   1.256   1.328  10.198 -0.6103  2.3230 -0.0171
 6271SOL     OW30271   4.318   2.829   7.627 -0.2577 -0.1195  0.4982
 6271SOL    HW130272   4.307   2.854   7.719  3.1817 -0.3150  0.9621
 6271SOL    HW230273   4.413   2.838   7.617 -0.5908  2.8050 -0.1386
 6272SOL     OW30274   4.213   0.957   3.457 -0.0533 -0.2437 -0.1048
 6272SOL    HW130275   4.280   0.889   3.450 -0.0885 -0.2083 -0.7311
 6272SOL    HW230276   4.227   0.985   3.548  2.1859  1.0482 -0.8533
 6273SOL     OW30277   2.378   0.137  11.551  0.2037 -0.1034  0.1502
 6273SOL    HW130278   2.457   0.178  11.585  0.7391  0.2471 -1.5106
 6273SOL    HW230279   2.419   0.084  11.483  1.1511  0.4430  0.3003
 6274SOL     OW30280   0.258   3.550   3.438  0.5822  0.2346  0.1261
 6274SOL    HW130281   0.216   3.585   3.359  0.1562  0.0049  0.2481
 6274SOL    HW230282   0.305   3.476   3.402 -0.2036  0.1394 -0.7124
 6275SOL     OW30283   0.568   0.509  11.932 -0.3435  0.2842  0.7445
 6275SOL    HW130284   0.637   0.464  11.980  1.5253  1.2757 -1.0551
 6275SOL    HW230285   0.498   0.443  11.938 -0.9243  0.7125 -1.2864
 6276SOL     OW30286   3.459   3.692   4.377  0.2186  0.3548  0.1936
 6276SOL    HW130287   3.382   3.636   4.388  0.4417  0.1731  0.7963
 6276SOL    HW230288   3.528   3.631   4.402 -1.4303 -1.1559  1.0372
 6277SOL     OW30289   2.427   0.747   1.720 -0.1500  0.5293  0.1645
 6277SOL    HW130290   2.371   0.781   1.790  0.3821 -0.2287  0.9564
 6277SOL    HW230291   2.444   0.833   1.680 -1.2038  1.1274  1.0109
 6278SOL     OW30292   2.515   1.525   0.855  0.1937 -0.1687  0.2848
 6278SOL    HW130293   2.438   1.517   0.798 -0.8594 -0.0041  1.7020
 6278SOL    HW230294   2.515   1.440   0.898 -0.1142  0.7569  2.0887
 6279SOL     OW30295   1.561   4.058   4.630  0.0425  0.4671 -0.3754
 6279SOL    HW130296   1.619   3.991   4.666  0.3193 -0.6420 -2.8982
 6279SOL    HW230297   1.610   4.135   4.658  3.5749 -2.1360  0.6220
 6280SOL     OW30298   2.438   2.500   6.199  0.4863  0.4654 -0.4217
 6280SOL    HW130299   2.403   2.422   6.155 -1.7814  2.2499 -1.7529
 6280SOL    HW230300   2.394   2.576   6.162 -0.0882  0.9332  1.2014
 6281SOL     OW30301   2.947   0.776   7.396 -0.2240 -0.3865  0.2179
 6281SOL    HW130302   3.039   0.769   7.370 -0.1708  1.5045 -0.1529
 6281SOL    HW230303   2.922   0.809   7.309  0.6928 -1.9583 -0.6403
 6282SOL     OW30304   1.251   2.000   5.560  0.4661 -0.9561  0.2018
 6282SOL    HW130305   1.318   1.984   5.493 -0.3604 -1.3213 -0.5466
 6282SOL    HW230306   1.289   1.956   5.636  0.9593  1.6607  1.4697
 6283SOL     OW30307   3.153   2.633  15.869 -0.5305  0.3171 -0.1015
 6283SOL    HW130308   3.229   2.629  15.926  0.6642  2.3099 -1.5590
 6283SOL    HW230309   3.201   2.688  15.806  0.6750  1.0434  1.4756
 6284SOL     OW30310   1.650   1.156   4.110  0.3656  0.3013 -0.4494
 6284SOL    HW130311   1.611   1.124   4.028  0.0894 -1.3873  0.3352
 6284SOL    HW230312   1.694   1.075   4.135 -0.5907 -0.5842 -1.6339
 6285SOL     OW30313   2.035   3.937   9.364  0.6721  0.3068 -0.5350
 6285SOL    HW130314   1.974   3.965   9.432  1.1703  0.7429 -0.2772
 6285SOL    HW230315   2.119   3.952   9.407  0.2954  2.5809 -0.6061
 6286SOL     OW30316   4.386   4.125   4.147 -0.7018  0.0333 -0.4006
 6286SOL    HW130317   4.290   4.125   4.153 -0.7228 -0.8237 -0.8207
 6286SOL    HW230318   4.406   4.134   4.054  0.1368  1.5873 -0.0704
 6287SOL     OW30319   3.693   3.433   3.990 -0.3941 -0.3486 -0.4367
 6287SOL    HW130320   3.688   3.374   4.065 -0.5960 -0.5460 -0.6028
 6287SOL    HW230321   3.615   3.407   3.941 -1.6286 -0.4739  1.6075
 6288SOL     OW30322   1.613   3.648   2.834  0.2837 -0.0700  0.5426
 6288SOL    HW130323   1.683   3.646   2.769  1.6643 -0.4247  2.0210
 6288SOL    HW230324   1.534   3.667   2.784 -0.4418 -2.5742  0.7495
 6289SOL     OW30325   0.658   3.766   8.249  0.1034  0.4510  0.1440
 6289SOL    HW130326   0.695   3.812   8.173 -2.2668  0.9266 -0.7540
 6289SOL    HW230327   0.563   3.768   8.235  0.0993  1.6158  0.2671
 6290SOL     OW30328   2.290   4.526   3.369  0.5163 -0.0393  0.9830
 6290SOL    HW130329   2.293   4.609   3.416 -3.0403  0.6560 -0.0588
 6290SOL    HW230330   2.203   4.498   3.397 -0.8712  0.7834 -2.6229
 6291SOL     OW30331   3.057   2.265   2.065  0.3076  0.2608  0.1913
 6291SOL    HW130332   2.976   2.274   2.015 -0.8401 -0.6077  1.9219
 6291SOL    HW230333   3.027   2.288   2.153 -0.6412 -0.2792 -0.0012
 6292SOL     OW30334   4.681   3.449   8.729 -0.3347  0.3205  0.1933
 6292SOL    HW130335   4.595   3.488   8.740 -1.2657 -1.1192 -2.1737
 6292SOL    HW230336   0.008   3.482   8.806  0.3326 -1.4658  0.5416
 6293SOL     OW30337   1.892   3.129   3.808  0.2953  0.2228  0.1827
 6293SOL    HW130338   1.821   3.066   3.792 -0.8149  1.5243 -0.0225
 6293SOL    HW230339   1.843   3.189   3.863  1.1908  0.8687  0.2653
 6294SOL     OW30340   3.730   0.458  14.456 -0.3689  0.2708  0.2779
 6294SOL    HW130341   3.641   0.448  14.422 -0.6196 -1.2169  1.3574
 6294SOL    HW230342   3.781   0.400  14.399 -1.9220 -1.4368  0.5971
 6295SOL     OW30343   3.837   0.730   4.298  0.2125  0.4775  0.3262
 6295SOL    HW130344   3.836   0.818   4.260 -0.5992  0.8486  1.1989
 6295SOL    HW230345   3.836   0.752   4.391 -2.8241  1.3265  0.0929
 6296SOL     OW30346   4.284   1.472  11.898 -0.1397  0.1891 -0.2606
 6296SOL    HW130347   4.244   1.506  11.818  2.2751  3.4480 -0.0690
 6296SOL    HW230348   4.250   1.382  11.895 -0.2299  0.2100  0.1144
 6297SOL     OW30349   1.884   0.365   5.215 -0.7166 -0.2024 -0.2695
 6297SOL    HW130350   1.927   0.348   5.132 -0.4455  0.8764 -0.3581
 6297SOL    HW230351   1.961   0.404   5.257  0.4047 -1.0271 -1.5734
 6298SOL     OW30352   2.150   3.464   6.933  0.0318 -0.2463 -0.1524
 6298SOL    HW130353   2.063   3.436   6.904 -0.9205  2.5720 -0.0098
 6298SOL    HW230354   2.172   3.531   6.868 -0.1426  1.4129  1.5012
 6299SOL     OW30355   1.804   2.429  15.766  0.5130 -0.0268  0.1465
 6299SOL    HW130356   1.820   2.510  15.718 -2.8990  0.5202 -0.0544
 6299SOL    HW230357   1.763   2.380  15.694 -0.1875  1.3800 -0.4123
 6300SOL     OW30358   0.740   1.373   4.835 -0.2334 -0.8308 -0.0919
 6300SOL    HW130359   0.649   1.396   4.817 -0.0694  1.7911  2.4022
 6300SOL    HW230360   0.745   1.295   4.780 -0.5165 -0.0898 -1.1736
 6301SOL     OW30361   2.182   1.369  10.108  0.3254  0.5609  0.2811
 6301SOL    HW130362   2.129   1.333  10.179  1.0436 -0.3274  0.3680
 6301SOL    HW230363   2.242   1.422  10.162  0.7675 -0.7564  1.0965
 6302SOL     OW30364   4.673   1.016   3.707 -0.1804 -0.1282 -0.2436
 6302SOL    HW130365   4.683   0.935   3.756 -0.8584 -0.8539 -1.3283
 6302SOL    HW230366   4.694   0.994   3.617  0.4135 -2.3692  0.4559
 6303SOL     OW30367   0.388   3.832   3.054 -0.0616  0.1928 -0.1283
 6303SOL    HW130368   0.315   3.836   2.992  2.3399  0.5404 -2.9241
 6303SOL    HW230369   0.371   3.749   3.099 -0.7426 -0.6783 -1.9657
 6304SOL     OW30370   4.076   4.543  15.674 -0.0906 -0.2056  0.3651
 6304SOL    HW130371   4.026   4.611  15.719 -0.0977  0.1439 -0.1758
 6304SOL    HW230372   4.161   4.562  15.714  0.4183 -2.4500  0.3918
 6305SOL     OW30373   2.777   2.145  16.901  0.2176 -0.5394 -0.4524
 6305SOL    HW130374   2.873   2.140  16.892  0.2412 -0.0880 -0.4674
 6305SOL    HW230375   2.746   2.084  16.834 -0.5487  0.9196 -1.4353
 6306SOL     OW30376   4.586   1.365   1.357 -0.2975 -0.3622 -0.1131
 6306SOL    HW130377   4.645   1.311   1.410  1.7798  0.3478 -1.6994
 6306SOL    HW230378   4.583   1.324   1.271  0.1152 -0.3263 -0.1470
 6307SOL     OW30379   2.549   3.611  17.471 -0.2777  0.0480 -0.2645
 6307SOL    HW130380   2.597   3.574  17.546  2.5253  1.3289 -1.4108
 6307SOL    HW230381   2.483   3.545  17.450 -0.9009  0.1534  1.3331
 6308SOL     OW30382   0.868   2.715   1.026 -0.2536  0.1212 -0.1192
 6308SOL    HW130383   0.813   2.655   1.077  0.4283  0.5063  1.0667
 6308SOL    HW230384   0.883   2.780   1.095  0.4935 -0.1891  0.0111
 6309SOL     OW30385   2.481   3.530   4.582 -0.1959  0.2286  0.1634
 6309SOL    HW130386   2.567   3.516   4.541  1.8681  1.9830  3.8691
 6309SOL    HW230387   2.481   3.624   4.601  3.9216 -0.1397  1.9631
 6310SOL     OW30388   3.014   2.115   0.469  0.0321 -0.1662  0.2104
 6310SOL    HW130389   3.079   2.126   0.539  0.2462 -1.2166  0.1785
 6310SOL    HW230390   2.987   2.205   0.458  1.7561  0.1724 -1.2331
 6311SOL     OW30391   3.289   3.077   1.586 -0.0800  0.5425 -0.5464
 6311SOL    HW130392   3.383   3.074   1.569  0.2935 -1.1436  1.8753
 6311SOL    HW230393   3.280   3.013   1.657  2.3723 -1.2061 -1.8243
 6312SOL     OW30394   3.476   4.621   8.257  0.1208 -0.3492 -0.0078
 6312SOL    HW130395   3.534   4.548   8.278 -0.0494 -0.4174  0.2265
 6312SOL    HW230396   3.414   4.605   8.328 -0.7321 -1.8910 -1.1018
 6313SOL     OW30397   0.487   1.931  12.261  0.4155  0.4682 -0.2345
 6313SOL    HW130398   0.458   2.014  12.222 -0.9229 -0.3618 -1.0213
 6313SOL    HW230399   0.567   1.962  12.302 -0.8821  0.6774  2.1183
 6314SOL     OW30400   1.998   4.043   7.690 -0.1351  0.4087 -0.0117
 6314SOL    HW130401   2.007   3.992   7.770  1.3963  0.5091 -0.1148
 6314SOL    HW230402   1.963   4.118   7.737 -0.4606  0.4694 -0.3487
 6315SOL     OW30403   1.036   0.993   7.015 -0.3930 -0.6447 -0.2060
 6315SOL    HW130404   0.983   1.032   6.945 -1.2578  0.5586  1.1438
 6315SOL    HW230405   1.027   0.900   6.992 -0.0170  0.0006 -3.0533
 6316SOL     OW30406   2.202   0.218   1.360  0.3513 -0.3599  0.2298
 6316SOL    HW130407   2.294   0.231   1.385  0.2597  0.6879  0.0146
 6316SOL    HW230408   2.215   0.156   1.289  1.1085 -0.9949  0.9198
 6317SOL     OW30409   3.509   1.753   4.446  0.2424  0.1814  0.0941
 6317SOL    HW130410   3.503   1.664   4.479  0.0275  0.8593  1.8500
 6317SOL    HW230411   3.483   1.815   4.513 -1.6495  1.2731 -1.6502
 6318SOL     OW30412   2.765   2.543   0.996  0.0599  0.3246  0.5191
 6318SOL    HW130413   2.771   2.625   1.046 -2.5353  1.1329 -0.5183
 6318SOL    HW230414   2.857   2.517   0.986  0.0987  0.4969  0.4129
 6319SOL     OW30415   0.028   2.276   3.631 -0.2211  0.1142  0.3371
 6319SOL    HW130416   0.017   2.360   3.588  2.9580 -0.0518 -0.7954
 6319SOL    HW230417   4.659   2.245   3.637 -0.4466  0.5239 -1.0540
 6320SOL     OW30418   4.716   4.202   0.840  0.2006 -0.0522 -0.2783
 6320SOL    HW130419   4.713   4.201   0.936 -5.2666  0.5687 -0.4135
 6320SOL    HW230420   0.090   4.206   0.833  0.3619 -0.5241  1.5170
 6321SOL     OW30421   4.466   3.434   5.490  0.1168  0.2073  0.2513
 6321SOL    HW130422   4.508   3.392   5.565  2.6055 -0.4789 -1.5107
 6321SOL    HW230423   4.534   3.477   5.438  0.3186 -0.6682 -0.2206
 6322SOL     OW30424   2.178   1.855   3.302  0.2471  0.5426  0.2667
 6322SOL    HW130425   2.184   1.950   3.314  0.1771  0.4941  0.6951
 6322SOL    HW230426   2.148   1.835   3.214 -0.3223 -1.8584  1.0033
 6323SOL     OW30427   3.908   0.177   8.958  0.4065  0.1869  0.4090
 6323SOL    HW130428   3.948   0.133   8.883  1.8382  2.0958  0.0512
 6323SOL    HW230429   3.945   0.119   9.025 -1.6113 -0.3611  1.0413
 6324SOL     OW30430   0.746   2.128   9.417  0.1391 -0.5304 -0.4839
 6324SOL    HW130431   0.681   2.104   9.351 -0.9485 -0.9864  0.7589
 6324SOL    HW230432   0.691   2.104   9.491  0.8189 -0.1301  0.1512
 6325SOL     OW30433   0.480   4.330  14.729 -0.1772 -0.5178 -0.2522
 6325SOL    HW130434   0.461   4.421  14.753  0.4844 -0.7393  1.1324
 6325SOL    HW230435   0.438   4.321  14.644 -0.8362 -0.2148  0.0426
 6326SOL     OW30436   3.234   0.406  12.025  0.0291 -0.0061  0.2405
 6326SOL    HW130437   3.261   0.452  12.105  1.8083  1.1884 -1.0519
 6326SOL    HW230438   3.176   0.475  11.992 -0.9630 -0.4095  1.1403
 6327SOL     OW30439   0.018   3.657   8.488  0.7404 -0.3427 -0.2116
 6327SOL    HW130440   0.059   3.584   8.535 -2.2512 -1.2264  1.0081
 6327SOL    HW230441   4.663   3.650   8.546  0.6328 -0.7634 -0.3990
 6328SOL     OW30442   2.490   4.685  17.584 -0.5399  0.7427  0.1221
 6328SOL    HW130443   2.396   4.687  17.602 -0.7428  0.2062 -0.8517
 6328SOL    HW230444   2.511   0.042  17.634 -1.1978  1.2643 -0.4177
 6329SOL     OW30445   3.057   1.185  12.417  0.3080  0.7046  0.0906
 6329SOL    HW130446   3.098   1.247  12.357  0.1182  1.0044  0.2759
 6329SOL    HW230447   3.130   1.151  12.468 -0.1749 -1.8832 -0.9343
 6330SOL     OW30448   4.366   3.887   9.253  0.0939 -0.1105  0.0667
 6330SOL    HW130449   4.447   3.923   9.290  1.7024 -1.3273 -2.2506
 6330SOL    HW230450   4.400   3.828   9.186 -1.8067 -0.1616 -0.8504
 6331SOL     OW30451   2.972   1.515  16.641  0.6567  0.3727 -0.1113
 6331SOL    HW130452   2.959   1.494  16.548  0.2963  0.3410 -0.0547
 6331SOL    HW230453   3.057   1.474  16.659  0.8337  0.9814  0.4480
 6332SOL     OW30454   1.379   0.737  11.740 -0.0500 -0.1887  0.1873
 6332SOL    HW130455   1.353   0.688  11.818  1.4446 -0.0275  0.7852
 6332SOL    HW230456   1.469   0.758  11.766  0.5179 -3.6406  1.1239
 6333SOL     OW30457   4.422   0.586   3.871 -0.2273 -0.1025  0.9531
 6333SOL    HW130458   4.443   0.585   3.965  1.0774 -0.0546  0.6680
 6333SOL    HW230459   4.340   0.632   3.860 -0.2352 -0.0715  1.1380
 6334SOL     OW30460   0.377   3.978   7.223 -0.4665 -0.1552  0.0579
 6334SOL    HW130461   0.374   4.047   7.290 -0.0422 -1.0228  0.9697
 6334SOL    HW230462   0.448   4.007   7.165 -0.0010 -1.4507 -0.0151
 6335SOL     OW30463   2.403   2.201   6.080  0.2820 -0.1598  0.1735
 6335SOL    HW130464   2.435   2.253   6.006 -0.6296 -0.5490 -0.4985
 6335SOL    HW230465   2.334   2.150   6.036  0.1267 -0.0313  0.2662
 6336SOL     OW30466   3.073   0.165   5.555  0.1523  0.3440  0.3700
 6336SOL    HW130467   3.015   0.137   5.626  1.7476 -0.5819  1.3396
 6336SOL    HW230468   3.054   0.088   5.502  0.4596  1.1181 -0.8537
 6337SOL     OW30469   0.493   1.237   3.180  0.0622 -0.3633  0.3736
 6337SOL    HW130470   0.588   1.228   3.170 -0.0739 -0.5251 -0.7067
 6337SOL    HW230471   0.489   1.326   3.216  0.2210 -0.0393 -0.4142
 6338SOL     OW30472   2.308   0.833   4.378 -0.0805  0.6520 -0.8001
 6338SOL    HW130473   2.351   0.882   4.448  1.0778  0.0468 -1.0744
 6338SOL    HW230474   2.376   0.824   4.310 -0.0381  1.0727 -0.8138
 6339SOL     OW30475   3.543   1.167   4.152 -0.5493  0.0456 -0.1721
 6339SOL    HW130476   3.453   1.185   4.180 -0.7001  1.0098 -1.2694
 6339SOL    HW230477   3.535   1.094   4.092  0.0009  0.1578 -0.3831
 6340SOL     OW30478   0.446   0.548   7.851  0.2908  0.2884 -0.0977
 6340SOL    HW130479   0.365   0.522   7.807  0.4170  0.4572 -0.4348
 6340SOL    HW230480   0.498   0.582   7.777  1.0889 -0.0817  0.2908
 6341SOL     OW30481   2.142   2.700   6.722 -0.3189  0.4899  0.0693
 6341SOL    HW130482   2.228   2.658   6.723 -1.0552 -1.0495 -0.6801
 6341SOL    HW230483   2.164   2.791   6.740  1.3702 -0.2691  1.8217
 6342SOL     OW30484   3.364   2.711   7.467 -0.1706  0.0707  0.4172
 6342SOL    HW130485   3.416   2.791   7.464 -1.3854  0.7850 -1.4907
 6342SOL    HW230486   3.416   2.669   7.535 -0.5725 -1.5442 -0.2665
 6343SOL     OW30487   4.711   0.806   7.643  0.6745  0.3602 -0.0659
 6343SOL    HW130488   0.067   0.810   7.700 -0.2477  0.9514  1.1421
 6343SOL    HW230489   0.003   0.876   7.579  1.5548  0.6883  0.4674
 6344SOL     OW30490   3.488   0.024   5.212 -0.6825  0.2636  0.1318
 6344SOL    HW130491   3.397   0.047   5.231 -1.0594 -0.0131 -1.3145
 6344SOL    HW230492   3.469   4.676   5.147 -3.5762 -0.0943  1.3209
 6345SOL     OW30493   3.654   3.281   7.388 -0.0242  0.4712  0.5938
 6345SOL    HW130494   3.679   3.372   7.400  0.3590  0.3466  0.7102
 6345SOL    HW230495   3.599   3.265   7.465 -1.5345 -0.4353 -0.6605
 6346SOL     OW30496   4.677   3.714   2.437 -0.1900 -0.6021  0.1104
 6346SOL    HW130497   4.666   3.759   2.353  1.5563 -0.8235 -0.2255
 6346SOL    HW230498   0.048   3.688   2.433  0.4796  1.8033 -0.4153
 6347SOL     OW30499   2.995   4.132   4.788 -0.9723  0.0626 -0.2136
 6347SOL    HW130500   2.984   4.049   4.834  0.2393 -0.0609 -0.1515
 6347SOL    HW230501   3.083   4.128   4.750 -1.5698 -1.3793 -1.4596
 6348SOL     OW30502   3.474   4.130  10.120 -0.6173 -0.0589  0.3288
 6348SOL    HW130503   3.489   4.172  10.035 -2.4919 -0.6680 -0.2947
 6348SOL    HW230504   3.480   4.037  10.102 -2.4196 -0.4252  1.6378
 6349SOL     OW30505   0.442   2.108   7.534 -0.8774  0.1739  0.0654
 6349SOL    HW130506   0.355   2.081   7.503 -0.5597 -0.8550  0.0695
 6349SOL    HW230507   0.460   2.049   7.607  0.0834  0.7169  0.2659
 6350SOL     OW30508   3.434   3.863   9.604  0.6040 -0.3561 -0.0746
 6350SOL    HW130509   3.347   3.866   9.643  0.7408  0.4434  0.1684
 6350SOL    HW230510   3.475   3.877   9.689  0.0003  0.8146  0.0244
 6351SOL     OW30511   1.774   3.301   8.647  0.0575  0.4459  0.0226
 6351SOL    HW130512   1.697   3.358   8.647 -0.3178 -0.0684 -1.9622
 6351SOL    HW230513   1.842   3.364   8.624 -0.7105  1.5685  0.8130
 6352SOL     OW30514   2.665   0.747   5.841  0.0512 -0.2864 -0.3626
 6352SOL    HW130515   2.608   0.820   5.861 -0.7823 -0.9509 -0.3298
 6352SOL    HW230516   2.644   0.731   5.749  1.5288  1.9056 -1.0768
 6353SOL     OW30517   2.733   1.177   8.397  0.5613 -0.1134 -0.2699
 6353SOL    HW130518   2.814   1.152   8.442  0.4798 -0.7202 -0.4575
 6353SOL    HW230519   2.694   1.226   8.469 -1.4293  1.7783 -2.6343
 6354SOL     OW30520   0.230   3.500   8.188 -0.0959  0.6401 -0.6353
 6354SOL    HW130521   0.189   3.416   8.208 -0.4066  1.4417  2.1305
 6354SOL    HW230522   0.292   3.470   8.122 -1.1514 -1.7900 -0.5294
 6355SOL     OW30523   3.927   4.312   4.693 -0.1268 -0.1635 -0.2177
 6355SOL    HW130524   3.833   4.292   4.688  0.3992 -2.6795  0.2461
 6355SOL    HW230525   3.939   4.310   4.788 -1.3969 -2.0863 -0.0964
 6356SOL     OW30526   2.373   4.118   6.160 -0.4181  0.0593 -0.1628
 6356SOL    HW130527   2.364   4.074   6.076 -0.4682 -0.8665  0.3165
 6356SOL    HW230528   2.375   4.041   6.217  0.0527 -0.9769 -1.5964
 6357SOL     OW30529   2.147   3.841  14.643 -0.0996 -0.0634  0.7129
 6357SOL    HW130530   2.224   3.800  14.603 -0.7947 -0.7561  0.0646
 6357SOL    HW230531   2.120   3.880  14.560  1.9689  0.5286  0.3328
 6358SOL     OW30532   0.438   2.704  17.315  0.4349  0.3785  0.5108
 6358SOL    HW130533   0.458   2.611  17.316 -1.0563  0.0982  4.6608
 6358SOL    HW230534   0.526   2.741  17.322  0.3326  0.6264  0.5025
 6359SOL     OW30535   2.273   4.596   5.486 -0.7190  0.3352 -0.4882
 6359SOL    HW130536   2.326   4.590   5.566  0.6289 -2.0966 -1.5593
 6359SOL    HW230537   2.337   4.615   5.417 -0.4003  2.5945  0.4457
 6360SOL     OW30538   2.979   1.307   7.423 -0.4496  0.1504 -0.6053
 6360SOL    HW130539   2.911   1.241   7.411  2.3600 -2.8289 -0.2039
 6360SOL    HW230540   2.941   1.331   7.508  0.8897  0.7833 -0.1852
 6361SOL     OW30541   0.246   2.107   3.551 -0.0574  0.2145 -0.0894
 6361SOL    HW130542   0.155   2.080   3.535  0.1449 -0.8007  0.4622
 6361SOL    HW230543   0.239   2.202   3.550 -0.1511  0.2207  0.9957
 6362SOL     OW30544   3.432   1.730  16.182  0.0066  0.3722  0.5376
 6362SOL    HW130545   3.448   1.816  16.145 -1.6288  1.0003  1.2982
 6362SOL    HW230546   3.348   1.746  16.224 -0.3562 -1.3504  0.4873
 6363SOL     OW30547   1.271   4.034  12.666  0.1906  0.0006  0.0962
 6363SOL    HW130548   1.201   4.090  12.630  0.7648  2.2739  2.4970
 6363SOL    HW230549   1.318   4.102  12.714 -0.2865  0.0257  0.5304
 6364SOL     OW30550   0.048   1.766   3.532  0.0399  0.5024 -0.4416
 6364SOL    HW130551   4.700   1.734   3.473 -1.7349 -0.2842  2.0802
 6364SOL    HW230552   0.003   1.835   3.581  1.5510 -0.3999  2.1784
 6365SOL     OW30553   3.714   3.952  14.892 -0.4183 -0.0664  0.3491
 6365SOL    HW130554   3.679   3.866  14.914 -1.0020  0.6629  2.2517
 6365SOL    HW230555   3.733   3.982  14.981  1.6079 -0.7754  0.1735
 6366SOL     OW30556   2.502   2.188   3.137  0.0955 -0.6383  0.7612
 6366SOL    HW130557   2.480   2.167   3.046  0.4436 -2.0048  1.0058
 6366SOL    HW230558   2.596   2.201   3.127  0.1814 -2.2804 -0.5806
 6367SOL     OW30559   4.023   3.927   8.271  0.2939 -0.0408 -0.7821
 6367SOL    HW130560   4.075   3.862   8.316  0.4859  0.3899 -0.3807
 6367SOL    HW230561   4.083   4.002   8.272 -0.2567  0.4072 -1.2457
 6368SOL     OW30562   2.223   1.772   4.465 -0.3075 -0.1635  0.2081
 6368SOL    HW130563   2.227   1.682   4.434  1.1335 -0.0905  0.1942
 6368SOL    HW230564   2.288   1.811   4.407 -1.3236 -0.5466 -1.1832
 6369SOL     OW30565   1.728   2.045  15.680  0.5309  0.3640  0.2889
 6369SOL    HW130566   1.693   2.117  15.628  1.3463  0.5843  0.0462
 6369SOL    HW230567   1.778   2.091  15.748  1.8164  1.9661 -1.7600
 6370SOL     OW30568   1.918   4.221   7.857  0.2231 -0.1725 -0.1520
 6370SOL    HW130569   1.921   4.315   7.837  0.7818  0.0306  0.8727
 6370SOL    HW230570   1.873   4.232   7.941  0.3414 -1.4003  0.0743
 6371SOL     OW30571   3.626   4.347   9.032  0.3544 -0.4331 -0.2852
 6371SOL    HW130572   3.552   4.289   9.012 -0.1478  0.4225 -0.8942
 6371SOL    HW230573   3.606   4.440   9.025  2.9080  0.0598 -1.1964
 6372SOL     OW30574   1.400   1.994  11.180  0.4357 -0.3239 -0.4654
 6372SOL    HW130575   1.458   1.934  11.133 -0.0160 -0.0593 -1.3611
 6372SOL    HW230576   1.411   1.969  11.271  0.3643  2.8552  0.4177
 6373SOL     OW30577   2.279   3.625  11.559  0.2923  0.2609  0.0365
 6373SOL    HW130578   2.338   3.650  11.488 -0.1575 -0.0738 -0.4558
 6373SOL    HW230579   2.206   3.685  11.545 -0.8359 -1.2115 -0.3946
 6374SOL     OW30580   3.183   4.155   7.574 -0.3213  0.8372  0.1460
 6374SOL    HW130581   3.101   4.152   7.624 -0.4328 -1.6260 -0.1922
 6374SOL    HW230582   3.144   4.136   7.489  0.9872  2.3354 -0.7885
 6375SOL     OW30583   2.583   2.293   3.399 -0.5567 -0.3251 -0.9848
 6375SOL    HW130584   2.553   2.383   3.386 -1.2376 -0.3429  0.5804
 6375SOL    HW230585   2.592   2.275   3.305 -0.6407  0.9482 -1.2431
 6376SOL     OW30586   4.448   0.786   5.406 -0.1354 -0.0738 -0.4858
 6376SOL    HW130587   4.436   0.810   5.498  0.3212  0.5283 -0.5803
 6376SOL    HW230588   4.385   0.715   5.404 -0.4318  0.2178 -1.4273
 6377SOL     OW30589   4.599   0.036  13.932 -0.3836 -0.2135  0.5484
 6377SOL    HW130590   4.607   0.064  13.841  0.3208 -0.6107  0.4830
 6377SOL    HW230591   4.690   0.035  13.964 -0.2602  1.1110  0.2359
 6378SOL     OW30592   0.391   3.631  13.839 -0.3150  0.1249 -0.4995
 6378SOL    HW130593   0.455   3.614  13.770 -0.2962  0.6629 -0.6205
 6378SOL    HW230594   0.449   3.672  13.903 -2.4525 -1.6141  2.5527
 6379SOL     OW30595   1.236   1.144   7.871  0.3027  0.1106  0.1642
 6379SOL    HW130596   1.251   1.056   7.907 -1.2103 -0.5442 -0.7903
 6379SOL    HW230597   1.238   1.120   7.778 -2.0336  0.8911 -0.0772
 6380SOL     OW30598   2.198   0.959   7.820 -0.4711 -0.9868 -0.2523
 6380SOL    HW130599   2.167   1.028   7.878  1.2380  0.5472 -1.1684
 6380SOL    HW230600   2.116   0.922   7.785 -0.9137 -0.4021  0.1815
 6381SOL     OW30601   0.317   3.712  10.120  0.0979  0.0772 -0.3496
 6381SOL    HW130602   0.355   3.781  10.066 -2.8429  1.8174 -0.2302
 6381SOL    HW230603   0.326   3.762  10.202  1.9346  2.7692 -2.1986
 6382SOL     OW30604   0.275   0.608   7.335  0.0106  0.2434  0.2975
 6382SOL    HW130605   0.236   0.660   7.265  2.5839  1.7271 -0.0550
 6382SOL    HW230606   0.362   0.576   7.310  0.1797  0.3189  0.7799
 6383SOL     OW30607   1.961   1.694   4.378  0.1774  0.0970 -0.0220
 6383SOL    HW130608   1.961   1.722   4.287  1.7687  2.3908  0.7022
 6383SOL    HW230609   2.040   1.733   4.414 -0.1718  1.5206 -0.8192
 6384SOL     OW30610   4.465   1.328   6.205  0.2648  0.5525  0.0460
 6384SOL    HW130611   4.394   1.387   6.231  1.4363  1.2760  1.5426
 6384SOL    HW230612   4.441   1.309   6.114 -1.8509 -0.5145  0.8271
 6385SOL     OW30613   2.061   2.208  17.463 -0.0892 -0.1800 -0.1342
 6385SOL    HW130614   2.056   2.292  17.417 -1.1196  1.1081  2.2982
 6385SOL    HW230615   2.003   2.149  17.416 -1.3024  1.0087 -0.1158
 6386SOL     OW30616   1.085   4.353  13.143 -0.2483 -0.4138  0.1417
 6386SOL    HW130617   1.130   4.421  13.193 -1.0105  0.4383 -0.3395
 6386SOL    HW230618   0.995   4.386  13.142 -0.0486  0.1324  0.2786
 6387SOL     OW30619   4.389   1.540   3.486  0.2287  0.1364  0.1209
 6387SOL    HW130620   4.416   1.506   3.572 -0.1683  2.7431  1.2681
 6387SOL    HW230621   4.296   1.522   3.491  0.0812  1.6905  2.9486
 6388SOL     OW30622   2.507   2.852  15.661 -0.3387  0.0535  0.6223
 6388SOL    HW130623   2.581   2.908  15.686 -0.0748  0.3552 -0.7905
 6388SOL    HW230624   2.541   2.764  15.675  1.1389  0.9397  2.5444
 6389SOL     OW30625   1.165   0.969   8.700 -0.0722  0.4950  0.2000
 6389SOL    HW130626   1.187   1.022   8.777 -3.6278  1.1507  0.7531
 6389SOL    HW230627   1.211   0.887   8.720 -0.6164  0.3653  0.9084
 6390SOL     OW30628   4.060   1.391   9.701  0.1027  0.1739  0.3813
 6390SOL    HW130629   4.079   1.465   9.758 -0.5759  0.2028  0.5722
 6390SOL    HW230630   4.080   1.321   9.763  0.9311  0.1235  0.0471
 6391SOL     OW30631   3.570   1.949   3.115 -0.6442 -0.2100 -0.7668
 6391SOL    HW130632   3.657   1.909   3.114 -1.1876 -1.3972 -0.5221
 6391SOL    HW230633   3.561   1.989   3.029 -0.0909  1.0759 -0.2240
 6392SOL     OW30634   2.434   2.216  12.387 -0.2348  0.0526  0.3471
 6392SOL    HW130635   2.345   2.229  12.355 -0.2737 -0.5782  0.1923
 6392SOL    HW230636   2.480   2.181  12.310 -0.6239 -2.6231  1.3395
 6393SOL     OW30637   0.272   2.865   8.827  0.3078  0.3432  0.6786
 6393SOL    HW130638   0.223   2.894   8.751  1.2772 -1.4776 -0.6324
 6393SOL    HW230639   0.206   2.828   8.885  0.3278  0.7061  0.9367
 6394SOL     OW30640   1.373   0.197  11.419  0.4208 -0.3484 -0.0279
 6394SOL    HW130641   1.431   0.180  11.345  0.2171 -0.6928 -0.1055
 6394SOL    HW230642   1.422   0.268  11.461  0.4459  0.4692 -1.4417
 6395SOL     OW30643   3.426   0.944   1.496  0.1721 -0.6529 -0.5262
 6395SOL    HW130644   3.338   0.983   1.499  0.9088  0.8591  1.4255
 6395SOL    HW230645   3.488   1.012   1.520 -0.9953  0.4386 -0.6022
 6396SOL     OW30646   3.103   1.620   3.022  0.1881  0.4670  0.0180
 6396SOL    HW130647   3.128   1.643   2.932  1.0377 -0.1722  0.0952
 6396SOL    HW230648   3.175   1.656   3.074 -0.4067  1.0399  0.4544
 6397SOL     OW30649   4.349   2.304   3.898 -0.6166  0.4445  0.0291
 6397SOL    HW130650   4.377   2.383   3.851 -3.8616  0.2991 -2.0839
 6397SOL    HW230651   4.433   2.286   3.941 -0.3241 -1.4932 -1.3704
 6398SOL     OW30652   2.330   4.140  17.144  0.2262 -0.0456  0.2625
 6398SOL    HW130653   2.250   4.088  17.130  1.6280 -2.2848  0.6030
 6398SOL    HW230654   2.322   4.191  17.224  1.2390  0.9900 -0.2829
 6399SOL     OW30655   3.000   2.197   0.971 -0.1973  0.5405 -0.0763
 6399SOL    HW130656   3.008   2.273   1.029 -1.0334 -1.9935  3.3579
 6399SOL    HW230657   2.907   2.209   0.949 -0.5199 -2.8539 -0.5113
 6400SOL     OW30658   2.961   0.258   3.956 -0.2843  0.0890  0.3746
 6400SOL    HW130659   2.912   0.234   4.034 -1.3773 -2.2164 -1.0036
 6400SOL    HW230660   3.042   0.302   3.981  2.0289 -2.2164 -3.0740
 6401SOL     OW30661   0.326   1.703   5.422  0.0138  0.4140 -0.1520
 6401SOL    HW130662   0.338   1.660   5.338  1.0247  0.1983  0.0998
 6401SOL    HW230663   0.230   1.706   5.421 -0.0147 -0.4330 -0.3365
 6402SOL     OW30664   1.459   3.016  11.735  0.2978  0.6525 -0.6383
 6402SOL    HW130665   1.402   3.046  11.806 -0.6176 -1.8833 -0.2996
 6402SOL    HW230666   1.393   3.000  11.668 -3.9607  0.2048  3.6872
 6403SOL     OW30667   0.186   0.510   5.559 -0.1230  0.1753 -0.3073
 6403SOL    HW130668   0.255   0.447   5.578  0.2405  0.5321 -0.4512
 6403SOL    HW230669   0.210   0.580   5.620  1.4739 -1.1472  0.5799
 6404SOL     OW30670   2.565   2.207  14.678  0.6120  0.4681 -0.3141
 6404SOL    HW130671   2.492   2.194  14.737  2.6335 -1.7527  1.7130
 6404SOL    HW230672   2.520   2.258  14.610 -1.0672 -0.4179  0.1370
 6405SOL     OW30673   1.836   2.151   2.835  0.3799  0.0907  0.7689
 6405SOL    HW130674   1.888   2.101   2.898 -2.4435 -1.2238  2.0231
 6405SOL    HW230675   1.754   2.166   2.881 -0.7169  0.7980 -1.4369
 6406SOL     OW30676   4.469   4.720   7.570  0.1553 -0.0811 -0.3104
 6406SOL    HW130677   4.557   4.696   7.600 -1.0316 -1.9559  1.7173
 6406SOL    HW230678   4.428   0.047   7.642  0.0643 -0.2880 -0.2259
 6407SOL     OW30679   2.438   2.907   5.831 -0.1843  0.2941  0.1087
 6407SOL    HW130680   2.351   2.946   5.843 -0.9625 -1.1429 -0.8905
 6407SOL    HW230681   2.488   2.938   5.906 -2.2689  2.2923  0.6445
 6408SOL     OW30682   3.240   3.150  13.779  0.1498  0.0758  0.2285
 6408SOL    HW130683   3.197   3.073  13.816 -1.3080  0.1159 -1.3253
 6408SOL    HW230684   3.263   3.191  13.862 -0.4015  2.1166 -0.6092
 6409SOL     OW30685   4.540   3.008   3.311 -0.3841  0.1703  0.0612
 6409SOL    HW130686   4.453   3.022   3.274 -0.3830 -0.7711 -0.2752
 6409SOL    HW230687   4.548   2.913   3.317  1.4530  0.2437 -1.3637
 6410SOL     OW30688   3.194   4.609   6.432 -0.1165 -0.2621 -0.4108
 6410SOL    HW130689   3.170   4.532   6.483 -1.2963 -0.2967 -1.0207
 6410SOL    HW230690   3.113   4.657   6.451 -0.1806 -0.0525 -1.2190
 6411SOL     OW30691   3.034   0.508  10.311  0.3016  0.3961  0.7921
 6411SOL    HW130692   3.124   0.543  10.311 -0.1160  1.4299 -1.0662
 6411SOL    HW230693   3.055   0.423  10.350 -1.3333 -0.0203  0.7372
 6412SOL     OW30694   1.164   1.631  12.354 -0.6531 -0.6605 -0.3333
 6412SOL    HW130695   1.171   1.535  12.356  0.9023 -0.4593  3.1418
 6412SOL    HW230696   1.125   1.637  12.266 -1.4741  0.2910  0.1072
 6413SOL     OW30697   1.956   0.349   8.303  0.1368 -0.0194  0.3824
 6413SOL    HW130698   1.998   0.392   8.229  0.5948 -1.0008  0.0634
 6413SOL    HW230699   2.004   0.266   8.298  0.1475  0.0173 -0.0864
 6414SOL     OW30700   0.475   4.510   7.908 -0.0021  0.1104  0.4125
 6414SOL    HW130701   0.538   4.446   7.875 -0.1425  2.1435 -3.8732
 6414SOL    HW230702   0.403   4.488   7.849  0.1515  1.5638 -0.3113
 6415SOL     OW30703   3.610   2.356   4.915 -0.1687 -0.1557 -0.6768
 6415SOL    HW130704   3.666   2.420   4.871  1.6015  0.2607  2.1820
 6415SOL    HW230705   3.672   2.283   4.921  3.2927  2.7217 -0.9020
 6416SOL     OW30706   0.634   1.554   1.410 -0.5318 -0.1984  0.3118
 6416SOL    HW130707   0.715   1.528   1.364 -0.4340  1.3209 -0.3832
 6416SOL    HW230708   0.560   1.535   1.352 -0.6013  4.2481 -1.0425
 6417SOL     OW30709   3.494   0.920   6.641 -0.0565  0.1999  0.2954
 6417SOL    HW130710   3.423   0.953   6.696 -1.1809 -0.4228 -0.7833
 6417SOL    HW230711   3.448   0.845   6.603  1.2861 -1.1040  1.2258
 6418SOL     OW30712   0.374   4.594   9.076 -0.1360  0.4455  0.5263
 6418SOL    HW130713   0.463   4.560   9.076 -1.2659 -2.4953 -1.0134
 6418SOL    HW230714   0.319   4.516   9.083 -0.1442  0.4373  0.3613
 6419SOL     OW30715   2.203   0.225  11.292  0.1257  0.2577 -0.1690
 6419SOL    HW130716   2.200   0.313  11.253 -0.1265  0.1485 -0.3994
 6419SOL    HW230717   2.261   0.177  11.234  2.7945  1.5959  1.3961
 6420SOL     OW30718   2.305   4.318  15.621  0.1143 -0.1871  0.2272
 6420SOL    HW130719   2.395   4.295  15.643  0.6182  0.4529 -1.2603
 6420SOL    HW230720   2.261   4.249  15.672 -1.9592  0.7921 -0.2196
 6421SOL     OW30721   4.568   3.964  17.675  0.6548 -0.1768  0.2751
 6421SOL    HW130722   4.581   3.912   0.067  0.9319 -0.4505  0.0469
 6421SOL    HW230723   4.651   3.953  17.629  1.0789 -2.1659  1.5271
 6422SOL     OW30724   0.646   3.085   8.504 -0.5326  0.3412  0.3444
 6422SOL    HW130725   0.570   3.051   8.457 -0.3293  0.5628 -0.1384
 6422SOL    HW230726   0.640   3.181   8.513  0.8546  0.7078 -2.7324
 6423SOL     OW30727   0.110   4.162   6.201  0.3392  0.2305  0.5732
 6423SOL    HW130728   0.076   4.155   6.112  0.5988 -0.7461  0.5444
 6423SOL    HW230729   0.034   4.119   6.241 -0.1062  0.4759 -0.0178
 6424SOL     OW30730   2.962   1.879   9.491 -0.6471 -0.6514  0.0879
 6424SOL    HW130731   2.919   1.810   9.540 -0.0898 -0.5169  0.7572
 6424SOL    HW230732   2.945   1.955   9.546 -0.9656 -1.0549  0.5445
 6425SOL     OW30733   0.532   2.090  13.046  0.2751 -0.1466 -0.1784
 6425SOL    HW130734   0.482   2.100  13.127 -0.0835  0.9783 -0.5311
 6425SOL    HW230735   0.612   2.075  13.096  1.7855  1.0230 -2.2084
 6426SOL     OW30736   3.718   4.020   9.352  0.0823 -0.3364  0.8660
 6426SOL    HW130737   3.676   4.103   9.371 -1.1500 -0.8731  0.5136
 6426SOL    HW230738   3.809   4.051   9.353  0.2059 -0.6957  1.2825
 6427SOL     OW30739   4.199   3.840   6.254  0.3186  0.4648  0.1390
 6427SOL    HW130740   4.184   3.770   6.192 -1.7834  1.9549 -1.0349
 6427SOL    HW230741   4.157   3.916   6.215 -0.9847 -0.3615 -0.0422
 6428SOL     OW30742   1.994   4.029   3.187 -0.5287 -0.2735 -0.0626
 6428SOL    HW130743   1.910   4.064   3.159 -0.6601 -0.8400 -0.3789
 6428SOL    HW230744   1.964   3.960   3.246 -0.6318  1.8257  2.3383
 6429SOL     OW30745   1.531   1.711   5.449  0.6224  0.3745  0.1797
 6429SOL    HW130746   1.575   1.706   5.364 -0.2129  1.0248 -0.2919
 6429SOL    HW230747   1.550   1.803   5.464 -0.8137  0.2525  2.5882
 6430SOL     OW30748   4.639   1.091   5.942  0.6503  0.1483 -0.3117
 6430SOL    HW130749   4.594   1.127   5.866 -0.6722 -0.6228  0.1080
 6430SOL    HW230750   4.584   1.014   5.952 -1.5194  1.5801 -1.2337
 6431SOL     OW30751   1.274   2.363   7.565  0.3232 -0.3223 -0.3450
 6431SOL    HW130752   1.344   2.428   7.575 -0.1431 -0.4686  3.6508
 6431SOL    HW230753   1.305   2.318   7.486 -0.8385  2.6066 -2.4689
 6432SOL     OW30754   1.738   1.813   7.261 -0.3571 -0.3828  0.0493
 6432SOL    HW130755   1.682   1.858   7.198 -0.0739 -0.0866  0.0061
 6432SOL    HW230756   1.673   1.817   7.331  0.5154 -0.3549  0.8561
 6433SOL     OW30757   3.877   1.653  13.459 -0.2115 -0.1470  0.1690
 6433SOL    HW130758   3.841   1.611  13.381  0.7561  0.9405 -0.8709
 6433SOL    HW230759   3.935   1.588  13.497  1.7833  0.6405 -1.5394
 6434SOL     OW30760   3.682   0.086   7.030 -0.1009 -0.1621  0.2701
 6434SOL    HW130761   3.597   0.050   7.007  1.0173 -2.0521 -0.8573
 6434SOL    HW230762   3.735   0.050   6.959  1.0662  0.7125  0.6854
 6435SOL     OW30763   3.862   2.197   8.125 -0.1212 -0.2094  0.1538
 6435SOL    HW130764   3.860   2.105   8.097 -0.7952  0.8943 -3.4718
 6435SOL    HW230765   3.919   2.227   8.054  0.6602 -0.6716  0.5869
 6436SOL     OW30766   0.810   2.428   5.786 -0.6329  0.1270  0.2483
 6436SOL    HW130767   0.904   2.440   5.796 -0.5531  2.6565 -3.2243
 6436SOL    HW230768   0.811   2.343   5.741  2.2416  0.3140 -0.0341
 6437SOL     OW30769   3.466   4.152   7.287 -0.0685  0.0764  0.2733
 6437SOL    HW130770   3.515   4.106   7.218  1.1291 -0.6034  1.5749
 6437SOL    HW230771   3.453   4.234   7.240 -0.7835 -0.5797 -0.6772
 6438SOL     OW30772   4.136   1.102  14.444  0.1129 -0.2288 -0.0078
 6438SOL    HW130773   4.122   1.165  14.514 -0.2732  0.7825 -1.0039
 6438SOL    HW230774   4.121   1.019  14.491  5.1305 -0.8249  0.5029
 6439SOL     OW30775   3.138   0.043  12.166  0.6891 -0.4350 -0.2176
 6439SOL    HW130776   3.125   0.127  12.122 -2.1661 -1.2515 -0.9318
 6439SOL    HW230777   3.189   4.717  12.100  0.1332 -0.0342 -0.9358
 6440SOL     OW30778   4.484   3.591   3.055 -0.2952  0.1166  0.3612
 6440SOL    HW130779   4.438   3.665   3.017  1.0764  0.2595 -1.0249
 6440SOL    HW230780   4.559   3.640   3.089  1.1342 -0.7298 -1.5758
 6441SOL     OW30781   1.662   0.076   2.745 -0.2408 -0.4938 -0.6115
 6441SOL    HW130782   1.633   0.080   2.837 -0.4443 -3.2494 -0.5538
 6441SOL    HW230783   1.638   0.167   2.724 -1.2513 -1.1109 -2.1434
 6442SOL     OW30784   2.296   0.262   7.412  0.1206  0.7147 -0.1685
 6442SOL    HW130785   2.328   0.300   7.493 -1.7840  0.9238  0.4926
 6442SOL    HW230786   2.201   0.263   7.423  0.2765 -0.0524  1.2340
 6443SOL     OW30787   1.433   0.576   2.940  0.0583 -0.5392 -0.0128
 6443SOL    HW130788   1.353   0.524   2.951 -0.4261  0.4101  0.9691
 6443SOL    HW230789   1.494   0.531   2.998  0.4285  0.6808  0.5303
 6444SOL     OW30790   4.570   4.320   0.633  0.0942 -0.4300  0.0630
 6444SOL    HW130791   4.488   4.269   0.637 -1.1958  1.4435 -2.4258
 6444SOL    HW230792   4.611   4.266   0.700  0.4017  1.5912  1.4854
 6445SOL     OW30793   3.538   2.141   2.629 -0.4005  0.1343  0.3358
 6445SOL    HW130794   3.615   2.147   2.572 -0.9845  1.3336 -0.3230
 6445SOL    HW230795   3.537   2.236   2.639 -0.7532  0.1812 -0.1508
 6446SOL     OW30796   1.550   3.052   8.358  0.7612  0.5442  0.2347
 6446SOL    HW130797   1.565   3.035   8.451 -1.2776 -1.1238  0.2513
 6446SOL    HW230798   1.466   3.008   8.348  1.4937 -1.2656  2.0632
 6447SOL     OW30799   4.007   3.049   0.836  0.7416 -0.1670  0.1485
 6447SOL    HW130800   4.083   3.079   0.786  0.9990 -1.4370 -0.2200
 6447SOL    HW230801   4.045   2.992   0.902 -0.6148 -2.0247 -0.6573
 6448SOL     OW30802   4.309   1.840   8.227  0.0735  0.4509 -0.0402
 6448SOL    HW130803   4.319   1.927   8.266 -1.9967  1.4946 -1.8231
 6448SOL    HW230804   4.339   1.785   8.300  1.0166  3.1979  1.6301
 6449SOL     OW30805   1.651   1.757  11.453 -0.0429 -0.2019 -0.0830
 6449SOL    HW130806   1.646   1.661  11.452 -1.2009 -0.1389 -1.1820
 6449SOL    HW230807   1.674   1.770  11.545  1.4818 -0.4550 -0.4230
 6450SOL     OW30808   2.966   3.450   8.942 -0.3065  0.4886 -0.4505
 6450SOL    HW130809   2.976   3.545   8.939 -0.5133  0.5500  0.7391
 6450SOL    HW230810   2.872   3.445   8.959 -0.5762  2.8337 -1.3256
 6451SOL     OW30811   2.517   0.437  17.673  0.1319  0.3218 -0.4124
 6451SOL    HW130812   2.489   0.374   0.052 -0.2781  0.5965 -0.3197
 6451SOL    HW230813   2.518   0.387  17.592  3.1377 -2.3060  1.2827
 6452SOL     OW30814   4.064   3.274   2.092 -0.1913 -0.1657  0.6111
 6452SOL    HW130815   4.120   3.226   2.031  1.2322 -0.9055  2.4806
 6452SOL    HW230816   3.979   3.290   2.053  0.0370  1.5475  0.8182
 6453SOL     OW30817   0.938   0.083   7.923 -0.0611 -0.3659 -0.0357
 6453SOL    HW130818   1.032   0.081   7.939  0.4165  1.4696 -2.4612
 6453SOL    HW230819   0.904   0.123   8.003  2.5126  0.4877  0.6044
 6454SOL     OW30820   2.068   0.841   8.426 -0.2358  0.0346 -0.1305
 6454SOL    HW130821   2.045   0.934   8.426 -3.8964 -0.8935 -2.3339
 6454SOL    HW230822   2.044   0.808   8.513 -2.2919 -0.1737 -0.7989
 6455SOL     OW30823   0.651   4.492   6.168  0.1264 -0.1503  0.4136
 6455SOL    HW130824   0.692   4.483   6.254  1.9902 -0.0396 -0.4652
 6455SOL    HW230825   0.580   4.428   6.170  0.4393 -0.5688 -1.6592
 6456SOL     OW30826   4.573   3.369   1.364 -0.0633  0.5846  0.2970
 6456SOL    HW130827   4.642   3.426   1.332  0.2238  0.4727  0.7181
 6456SOL    HW230828   4.560   3.384   1.458  0.6318  0.4847  0.4128
 6457SOL     OW30829   3.759   1.905   5.303 -0.0050  0.2614 -0.0304
 6457SOL    HW130830   3.813   1.983   5.297 -3.7761  2.9675  0.9172
 6457SOL    HW230831   3.825   1.840   5.328  0.7571  0.9265 -0.3457
 6458SOL     OW30832   2.218   3.695   7.903 -0.5050  0.4331 -0.5566
 6458SOL    HW130833   2.231   3.601   7.915  1.5501  1.0116  1.6854
 6458SOL    HW230834   2.298   3.726   7.860 -0.2647  1.4179  0.5987
 6459SOL     OW30835   3.386   2.491   4.721  0.4665  0.1374  0.4033
 6459SOL    HW130836   3.454   2.537   4.672  0.4263 -0.8674 -0.5924
 6459SOL    HW230837   3.429   2.408   4.742  0.6623  0.2459  0.4308
 6460SOL     OW30838   3.799   3.659   4.073  0.5428  0.2176  0.0278
 6460SOL    HW130839   3.791   3.584   4.015  1.6063 -1.0372  1.5045
 6460SOL    HW230840   3.735   3.717   4.033  0.9959  1.5742  1.2479
 6461SOL     OW30841   2.414   0.515  12.009  0.1394 -0.0944  0.1321
 6461SOL    HW130842   2.382   0.458  11.939 -0.2387  1.9227 -1.3200
 6461SOL    HW230843   2.346   0.582  12.006  0.6669  0.5516  2.6890
 6462SOL     OW30844   4.715   1.223   0.004 -0.4348  0.0457  0.3232
 6462SOL    HW130845   4.679   1.156   0.062  2.1120 -0.1315  1.7193
 6462SOL    HW230846   4.654   1.220  17.617 -0.8938  4.2966  0.5274
 6463SOL     OW30847   2.072   3.218   5.781 -0.1769  0.0100  0.0819
 6463SOL    HW130848   2.033   3.272   5.850  1.0056 -2.0073  2.3363
 6463SOL    HW230849   2.147   3.265   5.744 -1.0156  1.7494  0.5789
 6464SOL     OW30850   0.210   0.847   5.468 -0.3942  0.0381 -0.0316
 6464SOL    HW130851   0.186   0.756   5.449 -0.3778 -0.0297  0.2689
 6464SOL    HW230852   0.166   0.856   5.553 -1.5918 -1.6860 -0.4694
 6465SOL     OW30853   0.283   1.772   6.290 -0.0709  0.3365  0.6088
 6465SOL    HW130854   0.332   1.695   6.262 -0.4472  0.9793 -1.8979
 6465SOL    HW230855   0.268   1.760   6.383  0.2902  1.2467  0.7851
 6466SOL     OW30856   1.851   1.392   6.320 -0.0312  0.0446  0.2851
 6466SOL    HW130857   1.920   1.459   6.329  0.1691 -0.2717  1.0590
 6466SOL    HW230858   1.808   1.404   6.404  0.7320 -0.7740  0.7780
 6467SOL     OW30859   3.641   3.734   5.325 -0.1086  0.1083 -0.0631
 6467SOL    HW130860   3.735   3.739   5.346 -0.1005 -0.7443  0.1023
 6467SOL    HW230861   3.638   3.659   5.265  2.8712  1.4456 -1.9314
 6468SOL     OW30862   3.647   2.648   6.358  0.7287 -0.6804  0.3100
 6468SOL    HW130863   3.735   2.633   6.324  0.5283  0.8172 -0.8571
 6468SOL    HW230864   3.636   2.743   6.356 -2.1299 -1.0277 -0.5690
 6469SOL     OW30865   3.563   3.831   3.994 -0.8663 -0.4130 -0.1846
 6469SOL    HW130866   3.514   3.797   3.919 -1.0341 -0.5231 -0.0243
 6469SOL    HW230867   3.490   3.832   4.055  0.2345 -1.5962  1.1637
 6470SOL     OW30868   4.507   1.868  11.239  0.6270  0.1030 -0.6467
 6470SOL    HW130869   4.464   1.814  11.305  1.3795  0.8028  0.4113
 6470SOL    HW230870   4.594   1.830  11.243 -0.4557 -2.2194  1.0467
 6471SOL     OW30871   2.193   3.912  10.969 -0.4111  0.3764 -0.1805
 6471SOL    HW130872   2.163   3.917  10.879  0.1289  1.3358 -0.2999
 6471SOL    HW230873   2.107   3.921  11.011 -1.4418 -1.5820 -1.8290
 6472SOL     OW30874   3.675   3.188   5.412  0.5602 -0.1869  0.1845
 6472SOL    HW130875   3.748   3.206   5.472  1.2163 -0.1656 -0.6163
 6472SOL    HW230876   3.601   3.206   5.469  1.3525  1.9427  0.5311
 6473SOL     OW30877   0.947   1.930   4.440  0.7577 -0.2583 -0.2231
 6473SOL    HW130878   0.912   1.886   4.362  0.6920 -2.3350  1.0035
 6473SOL    HW230879   0.897   1.882   4.505  0.8295  1.2224  0.9221
 6474SOL     OW30880   3.120   0.850   2.229  0.8078 -0.7022 -0.1771
 6474SOL    HW130881   3.152   0.909   2.161 -1.7368 -1.1188 -1.7634
 6474SOL    HW230882   3.147   0.905   2.303  1.9655 -1.1979 -0.2304
 6475SOL     OW30883   4.720   0.027   3.389  0.0823 -0.2209 -0.0726
 6475SOL    HW130884   0.030   0.106   3.432 -2.5684  1.2536 -0.8649
 6475SOL    HW230885   4.664   0.059   3.318 -0.1122  0.7282  0.5185
 6476SOL     OW30886   0.955   2.294   7.118  0.0493 -0.1279 -0.6145
 6476SOL    HW130887   0.904   2.240   7.057 -2.8783  0.5065  1.2541
 6476SOL    HW230888   0.927   2.384   7.103 -1.7226 -0.9186 -2.1885
 6477SOL     OW30889   4.634   1.633   3.096  0.6064 -0.1594 -0.1509
 6477SOL    HW130890   4.611   1.649   3.187 -1.2558 -1.0655 -0.4564
 6477SOL    HW230891   4.579   1.692   3.045  0.1029 -2.0300 -1.7606
 6478SOL     OW30892   1.523   2.301   5.077 -0.8740 -0.5841  0.1524
 6478SOL    HW130893   1.618   2.292   5.071 -1.1410 -3.4702  0.3412
 6478SOL    HW230894   1.513   2.303   5.172  0.9641 -0.3973  0.3375
 6479SOL     OW30895   2.180   3.038   6.734 -0.0791 -0.0126 -0.7777
 6479SOL    HW130896   2.139   3.105   6.680 -0.7623 -0.3358 -0.6598
 6479SOL    HW230897   2.102   2.998   6.771 -0.1172 -1.1035 -2.0597
 6480SOL     OW30898   1.055   0.268   9.309 -0.0591  0.7067  0.0408
 6480SOL    HW130899   0.999   0.327   9.359 -1.6306 -0.0189 -0.8331
 6480SOL    HW230900   0.990   0.211   9.267 -1.8436  1.7947  1.3029
 6481SOL     OW30901   2.319   3.337   3.083  0.0515 -0.1462  0.0250
 6481SOL    HW130902   2.405   3.352   3.043 -0.6504  1.6520 -0.7920
 6481SOL    HW230903   2.308   3.248   3.048 -0.9851  0.4665 -1.1789
 6482SOL     OW30904   1.617   2.241   6.715 -0.0132 -0.1640 -0.0380
 6482SOL    HW130905   1.567   2.247   6.634 -0.4738  0.9156  0.3295
 6482SOL    HW230906   1.690   2.299   6.696 -0.0861 -0.1512 -0.2716
 6483SOL     OW30907   2.791   3.060   6.911 -0.2779  0.5985 -0.0136
 6483SOL    HW130908   2.745   2.984   6.946  0.8461  0.4164  1.0831
 6483SOL    HW230909   2.853   3.069   6.983  0.9125 -1.1829 -0.7965
 6484SOL     OW30910   2.010   2.640  16.968 -0.4193  0.2564 -0.1549
 6484SOL    HW130911   2.043   2.655  16.879  0.9859 -0.1826  0.2928
 6484SOL    HW230912   1.924   2.681  16.959 -1.3499 -1.6617 -0.0618
 6485SOL     OW30913   3.028   4.261  16.320 -0.4344 -0.0461 -0.3121
 6485SOL    HW130914   3.035   4.170  16.292 -0.1507 -0.7832  2.1690
 6485SOL    HW230915   2.999   4.252  16.411  1.0166 -0.4364  0.1073
 6486SOL     OW30916   1.893   2.105   2.530  0.1657 -0.4604 -0.2536
 6486SOL    HW130917   1.850   2.104   2.616  0.1098  0.2883 -0.2729
 6486SOL    HW230918   1.977   2.061   2.538  0.9921  1.4868  1.6199
 6487SOL     OW30919   3.535   0.061   3.766  0.8261  0.6847  0.3118
 6487SOL    HW130920   3.590   0.091   3.694  3.6857 -2.4441  1.1897
 6487SOL    HW230921   3.536   4.687   3.759 -0.0448  0.6434  0.6920
 6488SOL     OW30922   1.874   0.258   5.530 -0.0489  0.0954 -0.0730
 6488SOL    HW130923   1.968   0.239   5.528  0.2195  1.4556  0.0651
 6488SOL    HW230924   1.848   0.255   5.438  1.0664  0.8149 -0.4043
 6489SOL     OW30925   3.222   1.124   1.526 -0.0176  0.1279  0.2813
 6489SOL    HW130926   3.200   1.117   1.433  0.3478 -2.6157  0.4071
 6489SOL    HW230927   3.136   1.142   1.565  0.6919  2.1439  0.9368
 6490SOL     OW30928   0.000   3.817   5.389 -0.4843  0.1458  0.0942
 6490SOL    HW130929   4.686   3.887   5.444  1.2168  0.4536  0.7888
 6490SOL    HW230930   0.076   3.862   5.353  0.4692 -1.4884  0.0810
 6491SOL     OW30931   3.255   2.965  12.489  0.0480  0.3309  0.3729
 6491SOL    HW130932   3.232   3.049  12.530 -2.3481  0.1224 -0.5297
 6491SOL    HW230933   3.173   2.917  12.496  0.2542 -0.1694 -0.6428
 6492SOL     OW30934   3.177   1.575   7.502  0.3211 -0.4133  0.0689
 6492SOL    HW130935   3.206   1.657   7.542 -2.3539  2.4267 -3.7842
 6492SOL    HW230936   3.153   1.533   7.585  0.3672 -0.4169  0.0804
 6493SOL     OW30937   2.680   1.970   6.390 -0.9461 -0.0972  0.4322
 6493SOL    HW130938   2.671   1.959   6.485  0.0145 -2.2331  0.2674
 6493SOL    HW230939   2.638   2.055   6.379  1.2723  1.1839  1.6541
 6494SOL     OW30940   3.167   2.794   6.121 -0.0284 -0.0531 -0.2949
 6494SOL    HW130941   3.111   2.745   6.181 -1.3731 -0.8866 -2.2512
 6494SOL    HW230942   3.200   2.717   6.077 -0.6621 -0.5320  0.0624
 6495SOL     OW30943   4.457   2.315   8.352 -0.0299 -0.0478  0.4633
 6495SOL    HW130944   4.444   2.224   8.378  0.5809 -0.0538  0.7489
 6495SOL    HW230945   4.378   2.319   8.299  0.8326  2.6011 -0.6125
 6496SOL     OW30946   4.452   0.786   4.768  0.2802 -0.0484 -0.4761
 6496SOL    HW130947   4.462   0.692   4.781  0.8778  0.3481  1.7970
 6496SOL    HW230948   4.537   0.819   4.794 -0.6494  0.5040  1.8581
 6497SOL     OW30949   1.554   3.599   7.785 -0.2394 -0.1445 -0.8574
 6497SOL    HW130950   1.603   3.681   7.782 -0.4884  0.0688  0.6217
 6497SOL    HW230951   1.608   3.541   7.839  0.0193  0.0323 -0.9257
 6498SOL     OW30952   3.089   1.060  10.584  0.3170  0.1337 -0.0217
 6498SOL    HW130953   3.161   1.087  10.528  0.1927  1.3528  0.3938
 6498SOL    HW230954   3.131   1.062  10.670 -2.0841  1.2268  1.1268
 6499SOL     OW30955   3.868   1.206   2.432  0.3770  0.5838  0.4227
 6499SOL    HW130956   3.819   1.155   2.368  0.0432  2.6328 -0.9529
 6499SOL    HW230957   3.814   1.200   2.511  0.1761  1.2441  0.3323
 6500SOL     OW30958   3.195   0.096  11.723 -0.5141  0.0749  0.1263
 6500SOL    HW130959   3.153   0.120  11.806 -1.3430  1.6941 -0.7440
 6500SOL    HW230960   3.209   0.182  11.682 -1.8057  0.2991  0.1438
 6501SOL     OW30961   0.414   1.615   5.653  0.4140  0.2807 -0.1945
 6501SOL    HW130962   0.372   1.628   5.567 -0.4262  0.9868  0.3199
 6501SOL    HW230963   0.464   1.542   5.616  0.8383 -0.2862  1.5377
 6502SOL     OW30964   4.180   4.164   1.773 -0.7490  0.4347 -0.2515
 6502SOL    HW130965   4.184   4.079   1.818 -1.7736  0.2418 -0.5284
 6502SOL    HW230966   4.178   4.224   1.847 -3.0114  0.8526 -0.6629
 6503SOL     OW30967   0.807   3.427   9.238 -0.5057  0.3349  0.3554
 6503SOL    HW130968   0.761   3.461   9.162  2.7785  1.5970 -1.0752
 6503SOL    HW230969   0.743   3.429   9.309  0.1453 -3.5984  1.0706
 6504SOL     OW30970   1.204   0.061   2.265 -0.1159 -0.0203 -0.3898
 6504SOL    HW130971   1.203   0.142   2.215  1.8926 -0.6640 -1.5087
 6504SOL    HW230972   1.254   0.083   2.344 -2.2447 -0.2751  1.0197
 6505SOL     OW30973   4.497   4.294   3.607  0.3382 -0.0456 -0.7957
 6505SOL    HW130974   4.514   4.236   3.533  0.4526  0.7132 -1.3652
 6505SOL    HW230975   4.529   4.247   3.684 -1.0984  0.6626  0.2379
 6506SOL     OW30976   0.199   3.254   3.813  0.1436 -0.2350 -0.4345
 6506SOL    HW130977   0.189   3.316   3.885  0.7485 -1.4017  0.6553
 6506SOL    HW230978   0.116   3.263   3.765  0.6505 -1.2241 -1.5250
 6507SOL     OW30979   4.246   3.862   3.957 -0.1840 -0.2543 -0.3624
 6507SOL    HW130980   4.319   3.924   3.963  0.4762 -0.9086 -1.5194
 6507SOL    HW230981   4.256   3.819   4.042  3.0597 -1.5874 -1.4356
 6508SOL     OW30982   0.789   4.585   3.962 -0.1367 -0.5423  0.2531
 6508SOL    HW130983   0.802   4.618   4.051  1.3321  0.7316 -0.4507
 6508SOL    HW230984   0.785   4.493   3.988  0.3241 -0.6747 -0.1600
 6509SOL     OW30985   3.928   1.613   0.993  0.2323  0.1886 -0.3439
 6509SOL    HW130986   3.977   1.531   0.987 -0.0624  0.1398 -2.0541
 6509SOL    HW230987   3.910   1.628   0.900 -1.0911  0.6464 -0.0146
 6510SOL     OW30988   0.018   4.720   5.025 -0.4172  0.1207 -0.1862
 6510SOL    HW130989   4.655   0.005   4.980 -0.1378 -2.4921 -1.0462
 6510SOL    HW230990   0.070   0.035   4.953 -0.0578 -0.3766 -0.1805
 6511SOL     OW30991   4.473   0.407  15.692 -0.1419 -0.1825 -0.2185
 6511SOL    HW130992   4.452   0.314  15.684  2.1536 -0.5798 -1.3645
 6511SOL    HW230993   4.476   0.412  15.788 -1.0830  1.3215 -0.2688
 6512SOL     OW30994   4.005   2.882  13.539 -0.3743 -0.5688 -0.1829
 6512SOL    HW130995   4.077   2.910  13.481 -1.2570 -0.4824 -1.2363
 6512SOL    HW230996   3.942   2.952  13.523 -0.0138 -0.5463 -1.5422
 6513SOL     OW30997   1.962   4.371   3.015 -0.1610 -0.2074  0.0019
 6513SOL    HW130998   2.027   4.306   2.985 -1.2775 -1.5993  0.6073
 6513SOL    HW230999   2.015   4.448   2.995  1.0080 -0.6445  1.3638
 6514SOL     OW31000   1.113   4.566   7.598 -0.4877 -0.4411  0.1737
 6514SOL    HW131001   1.131   4.479   7.562 -3.5319 -1.3599  0.8039
 6514SOL    HW231002   1.067   4.600   7.521  2.0007 -0.0074 -1.1188
 6515SOL     OW31003   0.460   4.085   2.684 -0.7008 -0.1457  0.8674
 6515SOL    HW131004   0.527   4.027   2.648  0.0935 -0.6378  3.1707
 6515SOL    HW231005   0.496   4.173   2.670  2.0097 -1.2464  0.9493
 6516SOL     OW31006   2.041   4.465  16.033 -0.1044  0.6393  0.0207
 6516SOL    HW131007   1.954   4.429  16.019 -0.4354  0.4421  2.4978
 6516SOL    HW231008   2.101   4.394  16.011 -0.1089  0.6255  0.0517
 6517SOL     OW31009   2.100   2.840   3.041 -0.4245 -0.3410 -0.5329
 6517SOL    HW131010   2.087   2.802   2.954  0.1675  2.1091 -1.6918
 6517SOL    HW231011   2.118   2.765   3.097  1.2833 -0.7474 -1.5882
 6518SOL     OW31012   0.242   2.377  13.405  0.7868 -0.4319  0.0570
 6518SOL    HW131013   0.237   2.410  13.495  2.7294 -0.6227  0.2504
 6518SOL    HW231014   0.163   2.422  13.375  2.3094  1.9940 -0.3360
 6519SOL     OW31015   3.995   4.396   3.490 -0.0154  0.2641  0.1992
 6519SOL    HW131016   4.072   4.379   3.545 -0.4362  3.0120  1.6350
 6519SOL    HW231017   3.928   4.418   3.555 -0.6615 -1.4921  0.1150
 6520SOL     OW31018   2.586   1.088   3.604  0.6196 -0.5659  0.4635
 6520SOL    HW131019   2.499   1.128   3.597  0.3704 -0.8794  1.9293
 6520SOL    HW231020   2.578   1.007   3.553 -0.4241  0.7161 -1.4163
 6521SOL     OW31021   3.818   2.050   2.209  0.3691 -0.0019  0.4177
 6521SOL    HW131022   3.761   2.049   2.132 -1.2594 -0.8603  1.6088
 6521SOL    HW231023   3.866   2.132   2.218 -0.0885  0.2713  0.3901
 6522SOL     OW31024   4.194   3.908   5.857 -0.4978 -0.4453  0.7056
 6522SOL    HW131025   4.168   3.894   5.765  2.4321 -1.2444 -0.0098
 6522SOL    HW231026   4.187   4.003   5.861 -2.1048 -0.5302 -0.0457
 6523SOL     OW31027   1.309   3.280   0.779  0.1920 -0.4161  0.4851
 6523SOL    HW131028   1.394   3.311   0.810 -0.8480  2.5018  0.4668
 6523SOL    HW231029   1.275   3.368   0.760  1.5671 -0.7597 -3.5270
 6524SOL     OW31030   4.541   1.847   6.734 -0.6212 -0.0202  0.2878
 6524SOL    HW131031   4.604   1.815   6.799 -1.1558  1.2865  1.4458
 6524SOL    HW231032   4.546   1.940   6.755  0.7044  0.0803 -0.4631
 6525SOL     OW31033   0.304   0.391   8.737 -0.4449  0.2146 -0.2423
 6525SOL    HW131034   0.362   0.376   8.812 -0.5727 -1.3357 -0.4590
 6525SOL    HW231035   0.363   0.368   8.666 -1.2138 -0.9298 -0.5113
 6526SOL     OW31036   2.109   1.353   3.979  0.2454  1.1025 -0.8889
 6526SOL    HW131037   2.067   1.330   3.896  1.5075 -4.8227  0.1298
 6526SOL    HW231038   2.039   1.330   4.041  2.1812  1.2961  1.3603
 6527SOL     OW31039   2.095   1.477   8.289  0.4783  0.2012 -0.0170
 6527SOL    HW131040   2.142   1.440   8.215  1.7814  0.1508  0.8401
 6527SOL    HW231041   2.073   1.564   8.257  3.5038  0.7402 -0.5601
 6528SOL     OW31042   0.981   0.459  17.538 -0.0450 -0.8847  0.4352
 6528SOL    HW131043   0.920   0.439  17.467  2.9247  0.4286 -2.5142
 6528SOL    HW231044   1.004   0.547  17.506  0.2173 -1.2373 -0.3583
 6529SOL     OW31045   4.635   2.649   6.041 -0.1639  0.1511  0.1441
 6529SOL    HW131046   0.000   2.663   6.078 -0.6573 -1.1115  1.7460
 6529SOL    HW231047   4.669   2.634   5.953  0.3181 -2.4187  0.7471
 6530SOL     OW31048   1.063   3.271   9.099 -0.4278 -0.2060  0.5141
 6530SOL    HW131049   0.982   3.223   9.120  0.6389 -0.9182  3.0525
 6530SOL    HW231050   1.098   3.292   9.186 -0.8646  2.3566  0.0429
 6531SOL     OW31051   2.391   0.112   0.315  0.2485 -0.2779  0.1583
 6531SOL    HW131052   2.398   0.031   0.264  0.0819  1.6679 -2.9431
 6531SOL    HW231053   2.436   0.087   0.395 -0.7281  0.1171  0.8236
 6532SOL     OW31054   0.346   2.125   7.045 -0.3530 -0.4465 -0.3397
 6532SOL    HW131055   0.438   2.120   7.071 -0.1465  2.5081 -0.4614
 6532SOL    HW231056   0.320   2.211   7.079 -1.1908 -0.6030 -0.5991
 6533SOL     OW31057   2.729   1.012  15.086 -0.9649  0.4633  0.2532
 6533SOL    HW131058   2.708   0.919  15.085  0.3740  0.1398  3.3654
 6533SOL    HW231059   2.815   1.018  15.044 -1.8113 -0.1643 -1.5663
 6534SOL     OW31060   0.852   2.114  10.730 -0.0166  0.1996  0.1578
 6534SOL    HW131061   0.766   2.145  10.758 -1.1208 -3.9617  1.3855
 6534SOL    HW231062   0.827   2.023  10.716  0.1290  0.5051 -2.0825
 6535SOL     OW31063   2.577   0.869   7.707 -0.4887  0.1195 -0.3576
 6535SOL    HW131064   2.576   0.779   7.741 -1.0522  0.2569  0.0046
 6535SOL    HW231065   2.654   0.898   7.756 -0.7920  0.6020 -0.1548
 6536SOL     OW31066   2.296   2.473   7.405 -0.4039  0.5881 -0.2351
 6536SOL    HW131067   2.372   2.459   7.349 -0.2158 -3.2285  0.9658
 6536SOL    HW231068   2.338   2.473   7.491  0.5755 -0.0262 -0.7178
 6537SOL     OW31069   2.586   4.655  15.250  0.0122  0.7489  0.2478
 6537SOL    HW131070   2.531   4.615  15.318  0.3732  1.1793  0.7841
 6537SOL    HW231071   2.616   0.001  15.310  1.5061  1.5727 -1.4003
 6538SOL     OW31072   2.632   0.294  15.612  1.0227  0.6221 -0.5634
 6538SOL    HW131073   2.650   0.290  15.706 -0.4124 -0.2853 -0.3375
 6538SOL    HW231074   2.633   0.388  15.592 -0.8311  0.6802 -0.3653
 6539SOL     OW31075   2.306   3.100   4.285  0.2022  0.7936  0.2842
 6539SOL    HW131076   2.216   3.130   4.270  0.9437  1.7451 -2.3527
 6539SOL    HW231077   2.294   3.093   4.379  1.6986 -0.5586  0.3807
 6540SOL     OW31078   4.188   4.376   6.291  0.0437  0.0556 -0.3748
 6540SOL    HW131079   4.230   4.290   6.297 -1.3016 -0.5524  0.1735
 6540SOL    HW231080   4.127   4.378   6.365  0.2170 -0.3093 -0.2236
 6541SOL     OW31081   2.577   4.481   1.618  0.1673  0.2996 -0.0066
 6541SOL    HW131082   2.598   4.547   1.684  0.0259  1.7111 -1.3891
 6541SOL    HW231083   2.649   4.495   1.557  1.3860  2.0771  1.8372
 6542SOL     OW31084   4.530   3.206   5.894 -0.2272 -0.3093 -0.1515
 6542SOL    HW131085   4.580   3.234   5.818  1.7778  0.7116  1.5185
 6542SOL    HW231086   4.543   3.112   5.879  0.9031 -0.0732 -0.6322
 6543SOL     OW31087   4.709   0.825  14.827 -0.5130  0.2348 -0.4158
 6543SOL    HW131088   4.690   0.749  14.772 -2.0557 -0.7333  1.4371
 6543SOL    HW231089   0.083   0.832  14.816 -0.7081 -0.9890 -2.8199
 6544SOL     OW31090   4.378   2.053   2.992 -0.2253 -0.2793  0.1926
 6544SOL    HW131091   4.467   2.073   2.965  0.6560 -2.9153  1.0949
 6544SOL    HW231092   4.391   2.053   3.087  1.0726  3.4429 -0.0030
 6545SOL     OW31093   0.171   2.442   4.489  0.3011 -0.3164 -0.0351
 6545SOL    HW131094   0.246   2.403   4.535  1.2724  0.7766 -0.6845
 6545SOL    HW231095   0.128   2.363   4.458 -1.2476  0.0448  1.1909
 6546SOL     OW31096   3.300   4.411   2.692 -0.3029  0.0363 -0.3123
 6546SOL    HW131097   3.275   4.361   2.614  2.7897  0.4457 -1.5841
 6546SOL    HW231098   3.319   4.493   2.647  2.2643 -0.6102 -0.4270
 6547SOL     OW31099   1.095   3.034   1.955  0.2002  0.8226 -0.2313
 6547SOL    HW131100   1.168   2.972   1.957  0.0320  0.6812  1.4409
 6547SOL    HW231101   1.128   3.107   1.902  1.3864 -1.4537 -2.6464
 6548SOL     OW31102   1.960   0.492   7.834 -0.4647  0.3063  0.5853
 6548SOL    HW131103   2.030   0.474   7.897 -1.4690  0.2836  1.6964
 6548SOL    HW231104   1.991   0.463   7.748  0.9648  1.5312  0.7057
 6549SOL     OW31105   1.433   1.599   3.331 -0.2720 -0.2008  0.0953
 6549SOL    HW131106   1.489   1.599   3.409 -0.1527  0.5182  0.0116
 6549SOL    HW231107   1.467   1.667   3.273 -0.4645 -1.0737 -1.0473
 6550SOL     OW31108   3.184   2.310   1.599 -0.6152 -0.1235  0.1655
 6550SOL    HW131109   3.261   2.336   1.650 -0.5448  3.4232 -1.7574
 6550SOL    HW231110   3.109   2.345   1.649 -2.3407  0.5043 -2.8801
 6551SOL     OW31111   3.099   0.630  17.579 -0.0033 -0.2531 -0.2241
 6551SOL    HW131112   3.120   0.667  17.665 -1.0303 -1.3474  0.5192
 6551SOL    HW231113   3.094   0.707  17.523 -0.1171  1.0661  1.6012
 6552SOL     OW31114   2.461   0.027  17.010 -0.4356 -0.3517  0.3290
 6552SOL    HW131115   2.488   4.657  17.003  0.3917 -0.1511  0.9980
 6552SOL    HW231116   2.418   0.044  16.926  0.1233  0.5121  0.2140
 6553SOL     OW31117   4.109   3.077   2.724 -0.0184  0.0950  0.1383
 6553SOL    HW131118   4.173   3.131   2.770  2.1885 -2.1633 -0.3261
 6553SOL    HW231119   4.037   3.141   2.720 -1.9182 -2.2088 -2.2173
 6554SOL     OW31120   2.447   1.237  16.684 -0.4075 -0.1416  0.0078
 6554SOL    HW131121   2.451   1.214  16.777  1.8962  0.0136 -0.0435
 6554SOL    HW231122   2.382   1.306  16.674 -0.5773 -0.5608 -1.7720
 6555SOL     OW31123   2.703   3.349   2.668 -0.6197  0.7994  0.0292
 6555SOL    HW131124   2.738   3.322   2.753  0.5685  3.2262  0.3155
 6555SOL    HW231125   2.708   3.264   2.624  0.5274  0.2454  1.2038
 6556SOL     OW31126   2.197   4.253  17.637  0.6747 -0.2835  0.0517
 6556SOL    HW131127   2.189   4.188   0.021  1.7081  0.5121  0.9024
 6556SOL    HW231128   2.130   4.315  17.662 -1.3844 -1.5884 -2.2256
 6557SOL     OW31129   0.639   1.979   5.300 -0.0777  0.5563  0.3400
 6557SOL    HW131130   0.657   1.916   5.370 -1.2360 -0.7890 -0.5876
 6557SOL    HW231131   0.721   1.980   5.251 -0.0549 -1.9096  0.3497
 6558SOL     OW31132   4.633   2.480   6.298 -0.0473 -0.1249 -0.3343
 6558SOL    HW131133   4.584   2.494   6.217 -0.4005 -0.4705 -0.1817
 6558SOL    HW231134   4.710   2.443   6.254 -0.3417  0.0443 -0.9888
 6559SOL     OW31135   2.627   0.688   0.058  0.4326  0.0994  0.0092
 6559SOL    HW131136   2.685   0.705  17.671 -0.4488  0.6067 -0.5695
 6559SOL    HW231137   2.586   0.605   0.034  2.9335 -0.6986 -1.3972
 6560SOL     OW31138   3.018   0.279   6.278 -0.2978  0.1923  0.0495
 6560SOL    HW131139   2.973   0.341   6.220 -2.3054  0.5227  1.9750
 6560SOL    HW231140   2.991   0.298   6.368  0.3733  3.3733 -0.4499
 6561SOL     OW31141   4.523   2.974   2.945  0.1019 -0.5413 -0.2962
 6561SOL    HW131142   4.455   3.021   2.992 -1.9106 -0.1916 -3.5349
 6561SOL    HW231143   4.468   2.972   2.867 -0.3646 -1.4824  0.0475
 6562SOL     OW31144   0.613   2.581   7.809  0.5708  0.3640  0.1742
 6562SOL    HW131145   0.680   2.513   7.811 -1.1720 -1.3545  0.7320
 6562SOL    HW231146   0.655   2.649   7.757 -0.8671 -1.0197 -2.8006
 6563SOL     OW31147   2.540   1.083   0.754 -0.5650  0.0547  0.1716
 6563SOL    HW131148   2.509   0.995   0.773 -1.7672  0.2089 -1.1192
 6563SOL    HW231149   2.472   1.117   0.696 -0.5413 -2.5291 -1.3411
 6564SOL     OW31150   4.301   0.870   0.166  0.3690  0.5343  0.4667
 6564SOL    HW131151   4.334   0.904   0.249 -1.9499  1.0126  1.1847
 6564SOL    HW231152   4.207   0.883   0.183 -0.3921 -1.9715 -1.9064
 6565SOL     OW31153   0.666   2.232   7.471  0.6091 -0.2153  0.3443
 6565SOL    HW131154   0.691   2.285   7.548 -1.4219  0.7977  0.3192
 6565SOL    HW231155   0.581   2.206   7.507  0.5293  0.6132  0.7636
 6566SOL     OW31156   1.213   3.930   6.290 -0.0718 -0.1165 -0.1097
 6566SOL    HW131157   1.241   3.986   6.363  1.6056  0.2489 -1.0472
 6566SOL    HW231158   1.131   3.974   6.266 -0.8652 -1.8781 -0.6519
 6567SOL     OW31159   1.336   4.395  12.381 -0.0279 -0.5457  0.1380
 6567SOL    HW131160   1.330   4.463  12.447  0.1153 -1.0908  0.7117
 6567SOL    HW231161   1.408   4.342  12.415  2.2370  2.4476  0.0255
 6568SOL     OW31162   4.248   3.351   9.843  0.4964 -0.0365  0.5883
 6568SOL    HW131163   4.291   3.294   9.906 -0.7430  0.7608  2.1899
 6568SOL    HW231164   4.292   3.434   9.862  0.6313  0.3445 -1.3885
 6569SOL     OW31165   2.683   1.957  16.717  0.6020  0.1137  0.5311
 6569SOL    HW131166   2.723   1.880  16.675  1.0622  1.4417 -1.4593
 6569SOL    HW231167   2.630   2.002  16.651  1.5316 -0.4420 -0.5947
 6570SOL     OW31168   0.240   1.739   3.802  0.8521 -0.1756  0.0293
 6570SOL    HW131169   0.198   1.819   3.834 -1.1395 -1.4079  0.4550
 6570SOL    HW231170   0.177   1.667   3.807  0.6960  0.0144  0.7495
 6571SOL     OW31171   1.619   3.260   2.939 -0.0376 -0.3143 -0.0010
 6571SOL    HW131172   1.592   3.240   3.029 -1.4113 -1.1503 -0.5916
 6571SOL    HW231173   1.616   3.170   2.907 -1.3079  0.0846 -0.9999
 6572SOL     OW31174   2.536   3.219  17.362  0.0953  0.5722 -0.3806
 6572SOL    HW131175   2.578   3.211  17.277  0.1832 -0.9818 -0.2006
 6572SOL    HW231176   2.506   3.129  17.373  0.1351  0.7012  0.8076
 6573SOL     OW31177   2.053   1.829   7.833  0.0455 -0.1230  0.5210
 6573SOL    HW131178   2.000   1.899   7.796 -1.1655 -1.5348 -0.4655
 6573SOL    HW231179   2.002   1.758   7.794 -0.6591  0.3850  0.5173
 6574SOL     OW31180   2.495   2.129  10.416  0.1324  0.1091 -1.0816
 6574SOL    HW131181   2.407   2.152  10.446 -0.1343 -1.1499 -0.9268
 6574SOL    HW231182   2.510   2.048  10.463 -0.8142 -1.5285 -3.5701
 6575SOL     OW31183   3.680   0.682   1.619 -0.6769 -0.6504  0.2529
 6575SOL    HW131184   3.706   0.590   1.613 -1.7027 -0.7764 -2.2050
 6575SOL    HW231185   3.654   0.675   1.711 -3.0930  1.1143 -0.2893
 6576SOL     OW31186   3.402   0.398   6.182 -0.4586 -0.1008 -0.2083
 6576SOL    HW131187   3.483   0.350   6.163 -0.5115 -0.5210  0.6486
 6576SOL    HW231188   3.355   0.334   6.234  0.7342 -1.9068 -1.3539
 6577SOL     OW31189   3.651   0.320   8.660 -0.7317  0.1882  0.3280
 6577SOL    HW131190   3.649   0.314   8.756 -1.6890 -1.9223  0.1723
 6577SOL    HW231191   3.706   0.243   8.643 -0.2807  0.4187  0.7242
 6578SOL     OW31192   2.465   1.817   8.353 -0.3370 -0.3926  0.7242
 6578SOL    HW131193   2.523   1.826   8.278 -2.4919 -1.1344 -1.0468
 6578SOL    HW231194   2.382   1.797   8.308  0.0780 -0.7167  0.1037
 6579SOL     OW31195   4.371   0.951   8.848 -0.2314 -0.1560  0.0001
 6579SOL    HW131196   4.356   1.020   8.913  0.0861 -0.6649  0.6160
 6579SOL    HW231197   4.461   0.925   8.863  0.8651  2.9140 -1.1422
 6580SOL     OW31198   2.689   1.784   4.588  0.0768 -0.3230 -0.2951
 6580SOL    HW131199   2.639   1.865   4.589 -0.2067 -0.4905 -0.8164
 6580SOL    HW231200   2.621   1.730   4.627 -0.5845  0.1533 -0.7951
 6581SOL     OW31201   1.436   2.474   9.283  0.1421 -0.6204  0.9471
 6581SOL    HW131202   1.463   2.410   9.349 -1.7937 -2.0285  0.3623
 6581SOL    HW231203   1.363   2.428   9.244 -2.6064  2.3639  2.5637
 6582SOL     OW31204   2.352   4.517   2.482 -0.1056 -0.4438  0.4105
 6582SOL    HW131205   2.431   4.533   2.431 -0.3309 -0.2857  0.1064
 6582SOL    HW231206   2.317   4.602   2.511 -0.0409  0.1752 -1.3418
 6583SOL     OW31207   3.354   0.828   5.582 -0.0357  0.5430 -0.1841
 6583SOL    HW131208   3.329   0.911   5.623 -0.4135 -0.8460  2.3845
 6583SOL    HW231209   3.275   0.825   5.528  0.9902  0.5915 -1.6660
 6584SOL     OW31210   4.049   3.582   4.105 -0.0920 -0.1957 -0.7312
 6584SOL    HW131211   3.968   3.632   4.099  1.8653  2.8629 -1.8115
 6584SOL    HW231212   4.104   3.638   4.159  1.1500 -0.9222 -1.2330
 6585SOL     OW31213   0.460   3.183   2.838  0.5278  0.3601 -0.1169
 6585SOL    HW131214   0.400   3.162   2.910  1.2342  2.1925  1.0040
 6585SOL    HW231215   0.543   3.206   2.878  1.0574 -2.0097  0.1373
 6586SOL     OW31216   4.488   3.030  11.116  0.2106  0.0566 -0.0119
 6586SOL    HW131217   4.543   2.952  11.130  0.1657 -0.3073 -1.8654
 6586SOL    HW231218   4.478   3.024  11.021 -0.5127 -1.6579  0.1752
 6587SOL     OW31219   0.471   1.423   4.756  0.6143 -0.0816  0.1259
 6587SOL    HW131220   0.451   1.516   4.744  1.8959  0.2891  0.8254
 6587SOL    HW231221   0.425   1.406   4.838 -1.9698  1.4958 -0.9846
 6588SOL     OW31222   2.792   2.300  14.871  0.0760 -0.6156 -0.3141
 6588SOL    HW131223   2.842   2.336  14.944 -1.5401 -0.4409  0.7006
 6588SOL    HW231224   2.787   2.210  14.904  0.1801 -0.2470  0.6893
 6589SOL     OW31225   1.520   1.212   1.223  0.5208 -0.3948 -0.1013
 6589SOL    HW131226   1.582   1.138   1.226 -0.3175 -1.0204  1.6630
 6589SOL    HW231227   1.458   1.177   1.159  0.3003  0.8509 -0.5546
 6590SOL     OW31228   4.677   4.662  16.160  0.4866  0.9577 -0.1343
 6590SOL    HW131229   0.024   4.601  16.131  0.2132  1.3741 -1.6505
 6590SOL    HW231230   4.656   4.704  16.076  1.1451  0.8695 -0.3414
 6591SOL     OW31231   3.813   2.719   7.030  0.4041 -0.2617  0.0836
 6591SOL    HW131232   3.833   2.804   7.069 -2.7211  0.4514  0.1489
 6591SOL    HW231233   3.899   2.697   6.994 -0.0360  0.9637 -1.7488
 6592SOL     OW31234   4.119   4.639   6.060 -0.0026 -0.5179 -0.2209
 6592SOL    HW131235   4.038   4.591   6.075 -0.2270 -0.3621 -0.9404
 6592SOL    HW231236   4.082   4.716   6.018 -0.6113 -0.3275  0.6714
 6593SOL     OW31237   2.959   2.807   9.033 -0.1480  0.6532  0.2976
 6593SOL    HW131238   2.864   2.808   9.044 -0.0750  0.4818  0.9684
 6593SOL    HW231239   2.997   2.772   9.114 -1.3277  0.0735  0.6027
 6594SOL     OW31240   0.082   1.102   1.221  0.4707 -0.0678  0.3227
 6594SOL    HW131241   0.022   1.101   1.295  0.2270 -1.5063  0.0983
 6594SOL    HW231242   0.129   1.022   1.245 -1.1051 -1.2719 -0.6119
 6595SOL     OW31243   2.909   0.599   3.541  0.2752  0.2919 -0.1309
 6595SOL    HW131244   2.857   0.586   3.621  0.5272 -0.9131 -0.1606
 6595SOL    HW231245   2.978   0.536   3.560  0.0168 -0.1417 -0.6195
 6596SOL     OW31246   0.105   3.135   4.933 -0.5456  0.2729 -0.0336
 6596SOL    HW131247   0.093   3.074   5.005  0.8608  0.1580  0.0995
 6596SOL    HW231248   0.024   3.112   4.887  1.0619  0.5684 -3.0263
 6597SOL     OW31249   1.304   2.862   2.011 -0.1305 -0.2368  0.3864
 6597SOL    HW131250   1.300   2.816   1.928  0.1721 -0.2481  0.3783
 6597SOL    HW231251   1.393   2.842   2.040  1.1703  1.9964 -2.0931
 6598SOL     OW31252   0.925   3.887   5.548  0.0309 -0.5897 -0.5152
 6598SOL    HW131253   0.970   3.971   5.559 -0.1657 -0.7746  1.6104
 6598SOL    HW231254   0.872   3.904   5.470  2.8192  3.3573 -1.5361
 6599SOL     OW31255   4.513   2.203   7.263  0.6373 -0.3099  0.0228
 6599SOL    HW131256   4.499   2.254   7.183  1.8304 -1.9829 -1.2541
 6599SOL    HW231257   4.566   2.129   7.232  1.5580  0.4757 -0.2958
 6600SOL     OW31258   4.697   3.314  10.727 -0.1690 -0.3964  0.3551
 6600SOL    HW131259   4.682   3.226  10.762 -1.8714 -0.0714  0.4368
 6600SOL    HW231260   0.071   3.320  10.728 -0.2988  2.1203 -1.0630
 6601SOL     OW31261   3.408   0.913   7.585 -0.2639 -0.9182  0.8808
 6601SOL    HW131262   3.436   1.005   7.583 -3.5740  0.0090 -1.9239
 6601SOL    HW231263   3.316   0.937   7.574 -0.0923 -0.8751 -0.4060
 6602SOL     OW31264   2.537   0.596   7.896 -0.1654 -0.0865  0.1394
 6602SOL    HW131265   2.620   0.621   7.938 -0.7981  0.5526  1.0252
 6602SOL    HW231266   2.476   0.663   7.928 -0.3517 -0.4708  0.6020
 6603SOL     OW31267   1.905   2.226   3.996  0.0462  0.7844 -0.0884
 6603SOL    HW131268   1.856   2.153   4.032 -0.9163  1.9260  0.9470
 6603SOL    HW231269   1.890   2.217   3.902  0.4017 -0.0235 -0.0633
 6604SOL     OW31270   0.495   3.613  13.264  0.0579 -0.3104 -0.2392
 6604SOL    HW131271   0.522   3.676  13.331  1.8985 -0.7993 -0.5355
 6604SOL    HW231272   0.483   3.666  13.185  1.1843 -1.8124 -1.3993
 6605SOL     OW31273   4.130   3.905   9.073 -0.1543 -0.4077 -0.0262
 6605SOL    HW131274   4.196   3.926   9.140 -0.9223  1.2816  0.1999
 6605SOL    HW231275   4.059   3.904   9.137 -0.5383  0.8285 -0.4212
 6606SOL     OW31276   2.210   3.462  12.791 -0.2767  0.3175 -0.8483
 6606SOL    HW131277   2.153   3.536  12.812 -0.7401 -0.8394  2.0917
 6606SOL    HW231278   2.299   3.497  12.789 -0.5855  0.9591 -3.1931
 6607SOL     OW31279   0.351   1.443  11.073 -0.9842 -0.6255  0.1048
 6607SOL    HW131280   0.417   1.475  11.135  0.6526 -0.9406 -1.4703
 6607SOL    HW231281   0.280   1.422  11.133 -2.3002  0.5772 -1.0277
 6608SOL     OW31282   0.140   1.033   2.726 -0.1303  0.4214 -0.2461
 6608SOL    HW131283   0.147   1.129   2.728  1.2926  0.3401 -1.6005
 6608SOL    HW231284   0.095   1.023   2.810  0.2533  1.2323  0.0601
 6609SOL     OW31285   4.519   1.092  11.456  0.5470 -0.0018  0.1943
 6609SOL    HW131286   4.580   1.163  11.436 -0.9401  1.4362  0.8000
 6609SOL    HW231287   4.581   1.031  11.497 -0.0440  0.4145  1.7026
 6610SOL     OW31288   3.801   0.788  14.650 -0.6149 -0.3538  0.5935
 6610SOL    HW131289   3.775   0.862  14.705 -1.2281 -1.3107  1.5583
 6610SOL    HW231290   3.896   0.801  14.642 -0.9496  1.1697 -1.0112
 6611SOL     OW31291   3.502   1.554   5.213 -0.2232  0.0028  0.3115
 6611SOL    HW131292   3.590   1.576   5.183 -0.3855 -0.9861 -0.8798
 6611SOL    HW231293   3.518   1.481   5.273 -0.3580  0.2170  0.6053
 6612SOL     OW31294   2.531   2.190   6.909 -0.0572 -0.5451 -0.1368
 6612SOL    HW131295   2.497   2.176   6.821 -3.1622 -2.1824  1.3486
 6612SOL    HW231296   2.624   2.169   6.904  0.6859  2.3659  1.1748
 6613SOL     OW31297   0.468   0.511   4.631 -0.0757  0.3692  0.3759
 6613SOL    HW131298   0.470   0.522   4.726  1.3557  2.2555  0.1102
 6613SOL    HW231299   0.390   0.555   4.599  0.3946  1.4984  0.7944
 6614SOL     OW31300   4.132   3.901  10.719 -0.0862  0.0267 -1.3380
 6614SOL    HW131301   4.174   3.819  10.691 -3.0994 -2.3505  1.0512
 6614SOL    HW231302   4.185   3.925  10.795 -0.0549  0.6300 -1.5527
 6615SOL     OW31303   3.465   3.645   2.791 -0.0477  0.1485 -0.1230
 6615SOL    HW131304   3.555   3.617   2.773  0.2322  1.6874 -1.1038
 6615SOL    HW231305   3.485   3.738   2.800 -0.1841  0.4749 -3.0683
 6616SOL     OW31306   4.556   0.040   4.596  0.0754  0.1361 -0.1420
 6616SOL    HW131307   4.516   0.079   4.519 -0.1291  3.0684  1.4372
 6616SOL    HW231308   4.491   0.067   4.661  1.3238 -0.7061  1.4664
 6617SOL     OW31309   0.198   0.019   9.231  0.4367  0.2328  0.7763
 6617SOL    HW131310   0.117   0.003   9.182  0.3398 -0.3256  1.1231
 6617SOL    HW231311   0.261   4.689   9.180  0.1615  2.0983 -1.4132
 6618SOL     OW31312   4.270   2.936   0.382 -0.0393  0.4426 -0.0805
 6618SOL    HW131313   4.322   2.948   0.303 -1.8603  2.7689 -0.8955
 6618SOL    HW231314   4.303   3.014   0.426  1.0117 -0.3562  0.5582
 6619SOL     OW31315   3.068   3.463  12.419 -0.1435 -0.5610 -0.0403
 6619SOL    HW131316   2.995   3.502  12.467  0.0533 -0.0837 -0.1245
 6619SOL    HW231317   3.053   3.368  12.421 -1.4257 -0.3452  0.0860
 6620SOL     OW31318   2.830   0.886   6.955  0.3723  0.1657 -0.4347
 6620SOL    HW131319   2.879   0.937   6.891 -0.0863  1.3653  0.1753
 6620SOL    HW231320   2.753   0.865   6.903 -1.9003  0.4446  2.7837
 6621SOL     OW31321   0.365   2.450  13.967 -0.2281  0.0869  0.5533
 6621SOL    HW131322   0.400   2.367  13.935  1.4267  0.5123  1.2699
 6621SOL    HW231323   0.425   2.464  14.041  2.3016 -0.1785 -1.4728
 6622SOL     OW31324   4.110   1.320   2.304  0.2140  0.3597 -0.1451
 6622SOL    HW131325   4.174   1.251   2.325 -2.1216 -1.5021  0.8014
 6622SOL    HW231326   4.024   1.287   2.329 -0.5834  0.0996 -3.1667
 6623SOL     OW31327   1.327   2.263   1.214 -0.4151 -0.1634  0.2823
 6623SOL    HW131328   1.348   2.186   1.266 -0.9825 -0.3635  0.2127
 6623SOL    HW231329   1.233   2.245   1.214 -0.1628 -1.4525  3.1941
 6624SOL     OW31330   3.728   4.394  12.022  0.1035 -0.2931 -0.2136
 6624SOL    HW131331   3.816   4.427  12.004  0.4354 -0.9710  0.2153
 6624SOL    HW231332   3.679   4.436  11.951 -0.2569 -0.1013  0.1529
 6625SOL     OW31333   1.437   0.715   8.414  0.0243 -0.3068  0.1625
 6625SOL    HW131334   1.396   0.740   8.497  0.9161 -0.5600  0.6849
 6625SOL    HW231335   1.428   0.622   8.432  1.1604 -0.2825  0.8395
 6626SOL     OW31336   3.487   0.692   7.235 -0.3681  0.0131  0.4777
 6626SOL    HW131337   3.493   0.784   7.263  1.6480  0.0234  0.0441
 6626SOL    HW231338   3.462   0.692   7.143  2.5368 -0.0665 -0.3322
 6627SOL     OW31339   3.942   4.377   7.899  0.3707 -0.3129 -0.2076
 6627SOL    HW131340   3.957   4.283   7.889  1.0431 -0.1551 -0.6919
 6627SOL    HW231341   3.891   4.409   7.824  1.5220 -2.3524 -1.8551
 6628SOL     OW31342   2.932   4.461   9.755  0.4634  0.6508  0.0563
 6628SOL    HW131343   2.922   4.441   9.848  0.4431  0.7197  0.0684
 6628SOL    HW231344   2.962   4.552   9.751  0.1482  0.7207 -0.7098
 6629SOL     OW31345   1.333   2.404   5.300  0.6467  0.1695 -0.2514
 6629SOL    HW131346   1.403   2.404   5.365 -0.0962  0.0497  0.5427
 6629SOL    HW231347   1.320   2.494   5.270  1.2318  0.6202  0.8591
 6630SOL     OW31348   3.275   3.363   8.591 -0.0668 -0.0475 -0.5302
 6630SOL    HW131349   3.362   3.372   8.630 -0.3231 -1.7576  0.4674
 6630SOL    HW231350   3.281   3.431   8.524  1.0183  1.5841  1.2376
 6631SOL     OW31351   4.093   3.552   9.346  0.1146  0.2733 -0.3134
 6631SOL    HW131352   4.181   3.549   9.307  0.0773 -1.3246 -0.2827
 6631SOL    HW231353   4.111   3.497   9.422 -0.7600 -1.7484 -1.5487
 6632SOL     OW31354   1.085   0.705   3.622 -0.0768  0.1636 -0.5653
 6632SOL    HW131355   1.072   0.799   3.634 -0.6203  0.2314 -1.7142
 6632SOL    HW231356   1.121   0.701   3.533  1.1174 -0.4719 -0.0501
 6633SOL     OW31357   2.881   2.036   4.733 -0.0336 -0.2917  0.6936
 6633SOL    HW131358   2.934   1.978   4.678 -1.0013 -0.3124 -0.2110
 6633SOL    HW231359   2.815   1.982   4.776 -1.3282 -0.3845 -1.4154
 6634SOL     OW31360   4.715   0.043  17.598 -0.0001  0.1572  0.2087
 6634SOL    HW131361   4.648   0.036  17.665 -2.6563 -2.1548 -2.6529
 6634SOL    HW231362   4.716   0.137  17.578 -4.2805  0.4576  1.3857
 6635SOL     OW31363   1.247   1.070   8.932 -0.2013  0.6444  0.1850
 6635SOL    HW131364   1.248   0.993   8.988  0.3567 -0.3544 -1.2041
 6635SOL    HW231365   1.328   1.109   8.967  0.7931  0.4959 -1.9544
 6636SOL     OW31366   1.326   2.694   1.778 -0.6674 -0.2823 -0.4419
 6636SOL    HW131367   1.392   2.669   1.713 -1.1675  0.1720 -1.1281
 6636SOL    HW231368   1.252   2.656   1.729  1.4922 -0.3859 -3.5850
 6637SOL     OW31369   0.372   0.536   3.524 -0.3886  0.1520  0.5724
 6637SOL    HW131370   0.287   0.578   3.517 -0.8095 -0.7756  0.1226
 6637SOL    HW231371   0.399   0.546   3.433 -3.2934 -0.0273 -0.3038
 6638SOL     OW31372   0.478   4.612   4.118  0.9056 -0.1725  0.5547
 6638SOL    HW131373   0.490   4.526   4.158  0.4148  0.9613  3.1122
 6638SOL    HW231374   0.433   4.584   4.038  0.2872  1.8085  0.1936
 6639SOL     OW31375   4.696   4.390  10.077 -0.6127 -0.2576 -0.2475
 6639SOL    HW131376   4.706   4.328  10.005 -0.7645 -2.1869  1.3935
 6639SOL    HW231377   4.628   4.341  10.124 -1.1982  1.5054  0.7655
 6640SOL     OW31378   0.884   0.773   3.294 -0.1260  0.5035 -0.2507
 6640SOL    HW131379   0.962   0.828   3.292 -0.7494  1.5121  3.0747
 6640SOL    HW231380   0.818   0.842   3.290 -0.9649 -0.5156 -3.6664
 6641SOL     OW31381   2.466   4.057  12.033  0.4349 -0.9402 -0.4842
 6641SOL    HW131382   2.475   4.008  12.114 -2.0889 -3.0028 -1.4554
 6641SOL    HW231383   2.554   4.084  12.007  1.0246  0.3289  2.8138
 6642SOL     OW31384   3.574   2.473   6.587 -0.1700  0.1901  0.4557
 6642SOL    HW131385   3.494   2.518   6.615  0.2805  1.3349 -0.0537
 6642SOL    HW231386   3.587   2.518   6.503 -0.9705  0.5389  0.5171
 6643SOL     OW31387   3.828   2.917   1.973  0.2154 -0.3636 -0.7583
 6643SOL    HW131388   3.851   2.826   1.994  0.7941 -0.5067 -1.9738
 6643SOL    HW231389   3.832   2.939   2.066  2.1821  1.2368 -1.2128
 6644SOL     OW31390   4.249   4.299   4.968  0.0707 -0.4621 -0.1330
 6644SOL    HW131391   4.160   4.336   4.969 -0.3210 -1.4542  0.7988
 6644SOL    HW231392   4.228   4.209   4.990  0.2665 -0.5987 -0.5033
 6645SOL     OW31393   1.470   1.616   1.140  0.3169 -0.3013 -0.1544
 6645SOL    HW131394   1.453   1.580   1.053 -1.4509  0.3852 -0.0897
 6645SOL    HW231395   1.540   1.555   1.160 -1.3191 -2.2792 -0.4159
 6646SOL     OW31396   2.060   0.054   2.343 -0.5666  0.2909  0.0813
 6646SOL    HW131397   2.072   0.147   2.364  1.0167  0.1428 -0.1840
 6646SOL    HW231398   2.097   0.057   2.255 -1.5909  1.8540 -0.3109
 6647SOL     OW31399   3.995   2.667   3.543  0.4752 -0.1093 -0.6424
 6647SOL    HW131400   4.045   2.597   3.586  1.3000 -0.8012 -2.7133
 6647SOL    HW231401   3.955   2.713   3.616 -0.9254  1.2551 -2.2670
 6648SOL     OW31402   3.599   2.984   3.035 -0.1056  0.8884  0.0292
 6648SOL    HW131403   3.530   3.046   3.012 -0.0950  1.0362  0.3980
 6648SOL    HW231404   3.667   3.047   3.060  0.3853  0.8792 -1.2679
 6649SOL     OW31405   0.384   1.369   5.472  0.2336 -0.5872  0.7702
 6649SOL    HW131406   0.421   1.326   5.394 -1.0899 -1.2071  0.4849
 6649SOL    HW231407   0.465   1.373   5.522  1.4992  0.6529 -1.3783
 6650SOL     OW31408   1.290   0.541  17.147  0.0414  0.3242 -0.0446
 6650SOL    HW131409   1.381   0.558  17.171 -0.1257 -1.9175  2.2934
 6650SOL    HW231410   1.254   0.502  17.227  2.7427  2.1789  2.0689
 6651SOL     OW31411   4.003   1.939   2.582 -0.6004  0.5651 -0.3916
 6651SOL    HW131412   4.009   1.924   2.676 -0.9648 -0.9149 -0.6121
 6651SOL    HW231413   4.067   1.871   2.561 -1.3489 -0.0727 -0.5776
 6652SOL     OW31414   2.217   2.702   4.167 -0.4304 -0.3059 -0.0104
 6652SOL    HW131415   2.145   2.687   4.228 -0.7721  0.3294 -0.2472
 6652SOL    HW231416   2.185   2.774   4.112  1.9425  0.2488 -0.6505
 6653SOL     OW31417   2.016   2.489  17.402 -0.6892  0.2191  0.8726
 6653SOL    HW131418   2.029   2.559  17.466 -1.8726  0.8603  0.4256
 6653SOL    HW231419   2.081   2.507  17.334  0.2963 -0.5986  1.5927
 6654SOL     OW31420   4.236   0.203   8.205 -0.3453 -0.5013  0.0939
 6654SOL    HW131421   4.260   0.295   8.209  1.7415 -1.0639  0.6381
 6654SOL    HW231422   4.147   0.206   8.242  0.0761 -0.6091  1.1021
 6655SOL     OW31423   0.599   3.963   8.971  0.3017 -0.1739  0.1943
 6655SOL    HW131424   0.598   4.008   8.887 -1.3316 -1.7449 -0.6352
 6655SOL    HW231425   0.641   4.029   9.026 -0.9652 -0.4872  1.5554
 6656SOL     OW31426   2.852   3.630   2.197  0.3445 -0.2867  0.6926
 6656SOL    HW131427   2.776   3.663   2.246 -0.1748  3.6417 -2.7308
 6656SOL    HW231428   2.906   3.709   2.202 -1.0305  0.5582  2.2459
 6657SOL     OW31429   3.220   0.652   7.381 -0.0638  0.2049  0.1350
 6657SOL    HW131430   3.247   0.634   7.471  1.0864 -2.1266 -0.6653
 6657SOL    HW231431   3.302   0.666   7.335 -1.0033  2.2351 -0.9240
 6658SOL     OW31432   3.372   1.642   2.229 -0.4911 -0.3248  0.3788
 6658SOL    HW131433   3.316   1.623   2.154  1.2471 -0.1521 -0.9553
 6658SOL    HW231434   3.313   1.704   2.271 -2.0910 -1.4778 -0.1583
 6659SOL     OW31435   1.996   3.479   2.016 -0.1410  0.5494 -0.2625
 6659SOL    HW131436   2.005   3.504   1.924  1.2701  2.3144  0.3422
 6659SOL    HW231437   1.917   3.528   2.040  0.4266  1.8521 -1.0908
 6660SOL     OW31438   1.402   3.922   1.765 -0.3516  0.1547 -0.5399
 6660SOL    HW131439   1.433   3.851   1.821  0.8915  0.7679 -0.4454
 6660SOL    HW231440   1.424   4.004   1.810  2.1837 -1.3311  0.9259
 6661SOL     OW31441   0.751   2.159  11.052  0.0545  0.5357 -0.1408
 6661SOL    HW131442   0.684   2.168  11.120 -1.3278 -0.7252 -1.3437
 6661SOL    HW231443   0.708   2.218  10.991 -2.5305 -0.1349  1.0203
 6662SOL     OW31444   2.687   0.599  11.064 -0.0048 -0.0230  0.1066
 6662SOL    HW131445   2.732   0.530  11.016  0.0002  0.5718 -0.7522
 6662SOL    HW231446   2.645   0.652  10.996  0.4397  0.3599  0.1265
 6663SOL     OW31447   0.738   4.038   3.351 -0.0248  0.2084  0.2116
 6663SOL    HW131448   0.766   4.026   3.261  1.5570 -0.1518  0.7433
 6663SOL    HW231449   0.652   3.997   3.348  0.7032 -1.3299  0.1858
 6664SOL     OW31450   2.821   3.327   2.193  0.5511 -0.0568 -0.7103
 6664SOL    HW131451   2.749   3.351   2.136  1.2651  1.3606 -1.0153
 6664SOL    HW231452   2.880   3.401   2.178 -0.9381  1.2377 -0.1519
 6665SOL     OW31453   0.757   0.705  15.682  0.3061  0.0408  0.6006
 6665SOL    HW131454   0.733   0.701  15.775 -1.9684 -0.9681 -0.0316
 6665SOL    HW231455   0.852   0.701  15.692  0.5163  2.1896 -0.6513
 6666SOL     OW31456   1.890   0.546   6.004 -0.7321 -0.0983 -0.3986
 6666SOL    HW131457   1.922   0.494   5.930 -0.6947 -0.7928  0.1072
 6666SOL    HW231458   1.953   0.619   6.008 -1.5694  0.5633  0.6083
 6667SOL     OW31459   3.097   1.385   5.845  0.0271  0.2238  0.0567
 6667SOL    HW131460   3.036   1.456   5.866  0.4547  0.8824 -0.9309
 6667SOL    HW231461   3.124   1.356   5.932 -1.2917  1.6034  0.9324
 6668SOL     OW31462   0.060   2.995   5.187  0.0662  0.5834  0.1917
 6668SOL    HW131463   4.719   3.062   5.217  0.5560  1.5793 -1.0223
 6668SOL    HW231464   0.009   2.917   5.209 -2.4184  2.8503  2.5688
 6669SOL     OW31465   0.607   0.968   6.261  0.2964 -0.7266  0.1062
 6669SOL    HW131466   0.689   0.991   6.304  0.4423  2.0578 -1.6596
 6669SOL    HW231467   0.560   0.927   6.334  0.5773 -4.2068 -1.6892
 6670SOL     OW31468   0.882   4.583   7.797  0.6569 -0.1154 -0.2381
 6670SOL    HW131469   0.934   4.589   7.717  1.0896  2.1621  0.2080
 6670SOL    HW231470   0.898   4.669   7.837  1.2623 -1.5765  2.6738
 6671SOL     OW31471   2.764   2.528   5.234 -0.0428  0.3795 -0.3186
 6671SOL    HW131472   2.684   2.508   5.184 -0.4852  0.8882  0.1826
 6671SOL    HW231473   2.802   2.445   5.264  0.0869  0.3295 -0.6304
 6672SOL     OW31474   2.948   3.730   2.800 -0.0849 -0.2457 -0.2093
 6672SOL    HW131475   3.040   3.758   2.802  0.4233 -1.9908  1.8884
 6672SOL    HW231476   2.946   3.681   2.718 -2.4226 -0.8923  0.2451
 6673SOL     OW31477   4.340   2.666   6.115 -0.4127 -0.2351 -0.1811
 6673SOL    HW131478   4.431   2.686   6.095 -0.0217 -2.3152 -0.5055
 6673SOL    HW231479   4.293   2.699   6.038  1.2308  0.3410 -0.9436
 6674SOL     OW31480   3.490   4.240   3.734  0.3105  0.6365  0.5132
 6674SOL    HW131481   3.567   4.219   3.682 -0.1971 -0.0725  0.0472
 6674SOL    HW231482   3.414   4.211   3.683 -0.1405 -0.7261  1.9692
 6675SOL     OW31483   2.918   3.771   4.399 -0.2730  0.3556  0.3304
 6675SOL    HW131484   2.897   3.699   4.339  0.8395 -0.0612  0.4377
 6675SOL    HW231485   2.987   3.730   4.452 -0.3948  1.1991  1.1535
 6676SOL     OW31486   1.974   2.447  13.967  0.0430 -0.3190 -0.1549
 6676SOL    HW131487   1.891   2.438  14.013 -1.2700  0.9134 -2.2914
 6676SOL    HW231488   2.038   2.420  14.034  2.2780  0.1749 -2.0665
 6677SOL     OW31489   0.904   2.819   2.604  0.2467 -0.6914  0.1762
 6677SOL    HW131490   0.926   2.761   2.531  2.6272  2.4322 -1.6099
 6677SOL    HW231491   0.921   2.751   2.668 -1.0524  0.2190  1.4904
 6678SOL     OW31492   1.760   2.292  10.613 -0.2512  0.2411 -0.3447
 6678SOL    HW131493   1.706   2.264  10.539  0.9144 -0.6458 -0.8533
 6678SOL    HW231494   1.717   2.246  10.686  1.8998  0.3954  1.0326
 6679SOL     OW31495   0.306   0.336   6.819  0.2345 -0.0618  0.0988
 6679SOL    HW131496   0.376   0.399   6.803 -1.0614  1.0777 -1.1292
 6679SOL    HW231497   0.300   0.357   6.913  1.6145 -3.7387  1.0148
 6680SOL     OW31498   1.927   0.901   5.452  0.0596 -0.1182 -0.6583
 6680SOL    HW131499   2.013   0.879   5.416  0.5799  0.5516  0.1685
 6680SOL    HW231500   1.933   0.995   5.436 -0.1693  0.2665  1.5283
 6681SOL     OW31501   2.400   3.269   6.055 -0.1820  0.0331  0.1445
 6681SOL    HW131502   2.337   3.225   5.999  1.0555 -0.7063 -0.6731
 6681SOL    HW231503   2.428   3.347   6.006  0.3474  0.6495  1.4125
 6682SOL     OW31504   2.551   3.584  14.924  0.0847 -0.2799 -0.0770
 6682SOL    HW131505   2.487   3.582  14.853  1.2711  2.1362 -1.2131
 6682SOL    HW231506   2.511   3.637  14.993 -0.2815  0.3532 -0.7765
 6683SOL     OW31507   1.688   1.854   3.226  0.3126  0.1660 -0.8082
 6683SOL    HW131508   1.622   1.923   3.235 -0.0667 -0.1707 -0.9712
 6683SOL    HW231509   1.762   1.880   3.280 -0.9235 -0.1120  1.0093
 6684SOL     OW31510   3.027   0.437  16.267  0.0511 -0.1271 -0.2750
 6684SOL    HW131511   3.119   0.461  16.281 -0.6643  1.9332  0.8475
 6684SOL    HW231512   3.021   0.346  16.296  2.8993 -0.7384 -1.5400
 6685SOL     OW31513   4.481   0.561  12.597  0.0172  0.2351  0.3343
 6685SOL    HW131514   4.502   0.551  12.690 -1.8321 -0.3678  0.6944
 6685SOL    HW231515   4.397   0.606  12.602 -0.7960 -0.9441 -2.8634
 6686SOL     OW31516   1.364   1.989  15.074  0.1552 -0.0079  0.0603
 6686SOL    HW131517   1.324   1.904  15.093 -1.6260  0.5886 -0.9916
 6686SOL    HW231518   1.348   2.038  15.154  0.9053  3.1988 -1.7817
 6687SOL     OW31519   3.253   3.701   2.544  0.1703  0.2491 -0.1018
 6687SOL    HW131520   3.329   3.701   2.602  1.0782  0.5661 -1.2822
 6687SOL    HW231521   3.241   3.795   2.554 -1.9690 -0.0006 -0.3681
 6688SOL     OW31522   3.268   0.281   3.658 -0.4057  0.4530  0.5267
 6688SOL    HW131523   3.286   0.293   3.751  0.3090 -0.4626  0.5077
 6688SOL    HW231524   3.263   0.372   3.631 -0.0551 -0.0066 -1.0811
 6689SOL     OW31525   1.196   1.186   2.825 -0.3025  0.0908  0.3973
 6689SOL    HW131526   1.231   1.267   2.789 -0.1679  0.1755  0.7149
 6689SOL    HW231527   1.121   1.175   2.767 -0.3741  2.6185 -0.0122
 6690SOL     OW31528   4.442   1.811   5.951 -0.0989  0.6801  0.2745
 6690SOL    HW131529   4.494   1.763   6.016 -0.0224 -0.3141 -0.5350
 6690SOL    HW231530   4.408   1.747   5.889  1.1895  0.8741 -0.6207
 6691SOL     OW31531   3.527   4.480  13.120 -0.4440  0.2356  0.0879
 6691SOL    HW131532   3.601   4.479  13.180 -0.9800  1.2252  0.7548
 6691SOL    HW231533   3.538   4.562  13.073  1.5610 -0.5280 -0.7617
 6692SOL     OW31534   1.845   0.540   8.076  0.2696 -0.3675 -0.6101
 6692SOL    HW131535   1.848   0.522   7.982 -0.3163 -1.4101 -0.4328
 6692SOL    HW231536   1.912   0.608   8.089 -0.4458  0.5377 -1.7256
 6693SOL     OW31537   0.862   2.796   7.943  0.2818  0.4880 -0.1528
 6693SOL    HW131538   0.801   2.809   7.870  0.3704 -1.4650 -0.5896
 6693SOL    HW231539   0.809   2.752   8.009  1.9986 -0.5192  0.5626
 6694SOL     OW31540   1.222   3.525   0.740 -0.7832  0.3258 -0.0241
 6694SOL    HW131541   1.164   3.585   0.788 -0.5964  0.2054  0.3536
 6694SOL    HW231542   1.299   3.579   0.723 -0.7667 -0.1126 -1.3540
 6695SOL     OW31543   3.248   2.232   8.285 -0.0632  0.5575  0.7990
 6695SOL    HW131544   3.261   2.273   8.200  2.0422 -1.7502  0.0203
 6695SOL    HW231545   3.165   2.272   8.313 -0.2786 -0.3574  1.4520
 6696SOL     OW31546   1.233   3.025   7.168  0.4401  0.2589  0.4547
 6696SOL    HW131547   1.197   2.942   7.199 -1.1143  0.5186 -0.6752
 6696SOL    HW231548   1.182   3.079   7.228 -2.5019  0.2413 -2.0299
 6697SOL     OW31549   0.580   0.869   3.408  0.5051 -0.0689  0.0415
 6697SOL    HW131550   0.638   0.917   3.349 -0.6656 -0.1614 -1.1802
 6697SOL    HW231551   0.497   0.918   3.405  1.1680  0.9936 -0.6156
 6698SOL     OW31552   4.073   1.622   9.071 -0.3369  0.0141  0.4457
 6698SOL    HW131553   4.075   1.674   9.152 -1.8213 -0.7247  0.9619
 6698SOL    HW231554   3.978   1.617   9.061 -0.2876  0.4149 -0.2126
 6699SOL     OW31555   2.293   0.058   8.928  0.6135 -0.4542  0.0682
 6699SOL    HW131556   2.360   0.109   8.975  0.0429 -0.5911  1.0325
 6699SOL    HW231557   2.242   0.011   8.994  0.2552  0.7148  0.6375
 6700SOL     OW31558   3.350   3.718  16.249  0.0557 -0.2320  0.3506
 6700SOL    HW131559   3.434   3.751  16.217  0.5355 -0.1825  1.6532
 6700SOL    HW231560   3.376   3.657  16.318  2.3908 -1.2469 -1.4232
 6701SOL     OW31561   4.131   2.135  17.038 -0.1808 -0.0485 -0.2243
 6701SOL    HW131562   4.224   2.159  17.044 -0.6579  1.4844  1.1351
 6701SOL    HW231563   4.120   2.107  16.947 -2.0419  0.8920 -0.2900
 6702SOL     OW31564   3.500   0.599  11.319  0.3406 -0.3175 -0.2522
 6702SOL    HW131565   3.525   0.652  11.395  1.0737 -1.3558  0.2313
 6702SOL    HW231566   3.441   0.661  11.276  0.1244  0.0184  0.5182
 6703SOL     OW31567   1.490   3.898   9.789  0.3715  0.4817  0.2390
 6703SOL    HW131568   1.507   3.887   9.696  2.5044  4.2607  0.1527
 6703SOL    HW231569   1.562   3.955   9.818 -0.1346  1.1448  0.2123
 6704SOL     OW31570   0.081   0.302   2.636 -0.3030  0.1314  0.3548
 6704SOL    HW131571   0.093   0.397   2.634  1.0821 -0.0413  0.8192
 6704SOL    HW231572   0.071   0.291   2.730 -0.4519  1.5213  0.5089
 6705SOL     OW31573   2.657   0.921   0.200  0.5240  0.3383 -0.5196
 6705SOL    HW131574   2.748   0.945   0.188  0.5164  1.0311  0.7950
 6705SOL    HW231575   2.649   0.837   0.153 -0.5993  0.1018  0.0812
 6706SOL     OW31576   0.020   0.900  16.769  0.1715 -0.1350 -0.1164
 6706SOL    HW131577   0.032   0.956  16.845 -2.9587  1.2431 -0.6395
 6706SOL    HW231578   0.064   0.822  16.804 -1.9494 -1.4961 -0.4350
 6707SOL     OW31579   1.117   0.899  14.177  0.5657  0.2610  0.1837
 6707SOL    HW131580   1.175   0.826  14.160  0.3193  0.7439 -2.7288
 6707SOL    HW231581   1.040   0.879  14.123 -0.4234  0.7517  1.3925
 6708SOL     OW31582   2.606   1.748   2.675  0.1452  0.6409  0.4500
 6708SOL    HW131583   2.698   1.736   2.697  0.0248  0.7077  1.0025
 6708SOL    HW231584   2.580   1.663   2.637  0.0193  1.5636 -1.5380
 6709SOL     OW31585   1.304   3.836  13.461 -0.3885  0.4831  0.1587
 6709SOL    HW131586   1.386   3.867  13.421  0.7783 -0.5432  1.7633
 6709SOL    HW231587   1.244   3.899  13.421 -1.2190 -0.7913 -0.5828
 6710SOL     OW31588   1.925   3.913   4.662 -0.1509  0.2882  0.1638
 6710SOL    HW131589   1.938   3.990   4.717  2.0020  0.9703 -1.3005
 6710SOL    HW231590   2.017   3.890   4.673 -0.0840 -0.1683 -1.4463
 6711SOL     OW31591   3.746   0.021   8.099  0.5899  0.0424 -0.5295
 6711SOL    HW131592   3.749   0.046   8.191  0.2622 -1.6906 -0.0525
 6711SOL    HW231593   3.829   4.696   8.086  0.6677 -0.8212  3.2113
 6712SOL     OW31594   3.688   3.672   2.468  0.1668 -0.0019 -0.2099
 6712SOL    HW131595   3.661   3.624   2.547 -1.5918  0.4730 -0.5387
 6712SOL    HW231596   3.635   3.751   2.475 -0.3313 -0.4889  1.7210
 6713SOL     OW31597   1.834   3.666   5.257 -0.6935 -0.2822 -0.3553
 6713SOL    HW131598   1.920   3.653   5.295 -0.1848  3.8252 -0.1168
 6713SOL    HW231599   1.786   3.663   5.340  0.5016  2.9409  0.4578
 6714SOL     OW31600   3.510   4.049   9.821 -0.1245 -0.4872 -0.3660
 6714SOL    HW131601   3.546   3.989   9.886  1.1051  0.5550 -0.0681
 6714SOL    HW231602   3.584   4.092   9.778 -0.2727  0.3626  0.2274
 6715SOL     OW31603   2.113   2.535  14.967 -0.1182 -0.4988 -0.4723
 6715SOL    HW131604   2.202   2.535  15.003 -1.1675  0.0801  2.1405
 6715SOL    HW231605   2.104   2.444  14.940 -0.4775 -0.6644  0.1889
 6716SOL     OW31606   4.719   4.033   6.651  0.3880  0.3424  0.2602
 6716SOL    HW131607   4.648   4.085   6.687 -0.2091 -0.1834 -0.1525
 6716SOL    HW231608   0.038   4.001   6.733  2.5587 -0.5672 -1.1532
 6717SOL     OW31609   1.703   0.798   9.291 -0.0243 -0.2285 -0.3106
 6717SOL    HW131610   1.698   0.884   9.332 -0.2159 -1.1802  1.6258
 6717SOL    HW231611   1.676   0.739   9.361  0.5231  0.1656  0.2261
 6718SOL     OW31612   1.012   2.769   0.093 -0.4883 -0.1338  1.0298
 6718SOL    HW131613   1.102   2.756   0.123  0.3310 -0.0800 -1.3991
 6718SOL    HW231614   0.964   2.707   0.148 -0.4275  0.5918  1.9011
 6719SOL     OW31615   4.594   0.599   4.400 -0.6182  0.2691  0.2466
 6719SOL    HW131616   4.610   0.687   4.436  2.5222 -0.4527  0.5833
 6719SOL    HW231617   4.546   0.556   4.471  1.2828  1.6746  2.4095
 6720SOL     OW31618   2.562   0.106   4.411 -0.1508 -0.7165 -0.1963
 6720SOL    HW131619   2.487   0.080   4.466  1.1185  0.2850  2.0099
 6720SOL    HW231620   2.548   0.200   4.401 -1.8162 -1.0421 -0.9574
 6721SOL     OW31621   2.442   1.877   8.648  0.4999  0.9859 -0.1886
 6721SOL    HW131622   2.514   1.934   8.674 -0.1582  2.3015 -1.2818
 6721SOL    HW231623   2.453   1.869   8.553 -0.8325  0.7411 -0.3291
 6722SOL     OW31624   1.039   1.069   3.353 -0.1760  0.0118 -0.2101
 6722SOL    HW131625   1.132   1.056   3.370 -0.4735 -0.8337  0.7590
 6722SOL    HW231626   1.049   1.096   3.261 -0.3947  0.8059  0.0025
 6723SOL     OW31627   0.156   2.194   7.916 -0.2804 -0.0022  0.5851
 6723SOL    HW131628   0.183   2.163   8.002  0.7254 -0.5602  0.0684
 6723SOL    HW231629   0.133   2.110   7.876  0.4361  0.9144 -1.7892
 6724SOL     OW31630   2.351   0.485   5.442  0.2063 -0.1955  0.3747
 6724SOL    HW131631   2.298   0.473   5.363  2.1371 -3.1133 -0.4882
 6724SOL    HW231632   2.403   0.559   5.410  1.3944 -0.4582  1.7362
 6725SOL     OW31633   3.069   2.889  11.368 -0.3143 -0.2997 -0.0278
 6725SOL    HW131634   3.022   2.972  11.355 -1.2898 -0.5588  1.7659
 6725SOL    HW231635   3.011   2.824  11.329  0.4746 -1.3415  0.5408
 6726SOL     OW31636   3.347   2.712  16.066  0.3153 -0.7343  0.8401
 6726SOL    HW131637   3.427   2.733  16.114 -0.3777 -0.6368  1.9459
 6726SOL    HW231638   3.309   2.645  16.123 -2.2034  0.0812  0.1290
 6727SOL     OW31639   2.400   3.931   4.107 -0.1336  0.6186 -0.0591
 6727SOL    HW131640   2.429   3.851   4.152 -0.6570  1.1940  1.3017
 6727SOL    HW231641   2.468   3.947   4.042  0.4504  0.1321  0.4241
 6728SOL     OW31642   3.274   3.288   1.767  0.1285 -0.6920 -0.4207
 6728SOL    HW131643   3.188   3.327   1.749  0.3919 -0.4654 -1.1776
 6728SOL    HW231644   3.270   3.217   1.703 -0.5196 -1.4020  0.4036
 6729SOL     OW31645   0.935   0.067  10.531 -0.7894  0.2028  0.0761
 6729SOL    HW131646   0.946   4.694  10.543  3.4427  0.5945 -0.7021
 6729SOL    HW231647   0.911   0.068  10.438  0.0582 -0.1120 -0.1391
 6730SOL     OW31648   0.733   1.909   7.811 -0.3559  0.1008 -0.2426
 6730SOL    HW131649   0.810   1.861   7.780 -0.7349 -1.2909  0.9239
 6730SOL    HW231650   0.661   1.846   7.799 -2.2411  2.4392 -1.1524
 6731SOL     OW31651   0.501   4.546   3.520 -0.1891  0.5137  0.0744
 6731SOL    HW131652   0.538   4.597   3.592  1.2401  1.6651 -1.4807
 6731SOL    HW231653   0.573   4.523   3.461 -0.3422 -1.2359  0.5785
 6732SOL     OW31654   1.282   3.000   4.414 -0.5002 -0.5531  0.4372
 6732SOL    HW131655   1.265   2.987   4.507  0.6205  0.2269  0.7431
 6732SOL    HW231656   1.215   2.941   4.379  0.3747 -1.9708  1.1706
 6733SOL     OW31657   2.743   0.668  16.436 -0.0132  0.0987 -0.0483
 6733SOL    HW131658   2.768   0.729  16.506  2.0722 -0.1584 -0.5590
 6733SOL    HW231659   2.665   0.717  16.410 -2.8333 -4.3491  0.1124
 6734SOL     OW31660   4.260   1.189   1.924  0.2466 -0.5539  0.5074
 6734SOL    HW131661   4.320   1.252   1.964 -0.4563  0.9851 -0.8786
 6734SOL    HW231662   4.314   1.116   1.896 -1.7128 -2.1155  0.7688
 6735SOL     OW31663   3.075   2.637   5.449  0.3765  0.1933  0.3578
 6735SOL    HW131664   3.146   2.697   5.425 -1.5202  1.9173 -0.9879
 6735SOL    HW231665   3.127   2.566   5.486  2.1573 -0.2799 -3.0649
 6736SOL     OW31666   4.343   2.712  16.295  0.0539  0.2843 -0.5299
 6736SOL    HW131667   4.412   2.692  16.232 -1.0850  1.5036 -2.1831
 6736SOL    HW231668   4.281   2.639  16.298  0.8754 -0.3953  0.0956
 6737SOL     OW31669   1.525   3.296   5.400  0.3681 -0.2156 -0.1268
 6737SOL    HW131670   1.483   3.220   5.440 -0.2232  0.3764  0.3841
 6737SOL    HW231671   1.453   3.350   5.368  0.5063 -0.6469 -1.1398
 6738SOL     OW31672   0.866   0.923   8.000  0.5221  0.5526  0.0868
 6738SOL    HW131673   0.920   0.993   8.035  0.6872  1.2864 -1.6552
 6738SOL    HW231674   0.902   0.922   7.911 -0.8069  2.5887 -0.4624
 6739SOL     OW31675   3.341   4.556   8.496 -0.0686 -0.1924  0.1569
 6739SOL    HW131676   3.348   4.487   8.562 -0.1281  0.4306  0.8152
 6739SOL    HW231677   3.257   4.531   8.456  0.1089 -1.4834  0.6004
 6740SOL     OW31678   3.959   0.719  13.526  0.4587  0.0561  0.3520
 6740SOL    HW131679   3.914   0.784  13.580  0.6192  1.5356 -1.2920
 6740SOL    HW231680   3.944   0.640  13.578  1.0440 -0.3679 -0.1267
 6741SOL     OW31681   0.036   1.748   4.998  0.7725 -0.3498  0.0846
 6741SOL    HW131682   0.119   1.788   5.022  0.5780  0.6294 -0.8763
 6741SOL    HW231683   0.069   1.662   4.970 -0.2386  0.0044 -2.2045
 6742SOL     OW31684   4.645   2.616   5.018 -0.0100 -0.0847  0.5085
 6742SOL    HW131685   0.009   2.656   5.000 -0.4303  0.2506 -0.7191
 6742SOL    HW231686   4.658   2.548   4.952  0.2255 -1.9410  2.4671
 6743SOL     OW31687   3.280   2.540   1.436  0.6873 -0.4429  0.4454
 6743SOL    HW131688   3.284   2.615   1.376 -0.3082  0.1892  1.1618
 6743SOL    HW231689   3.220   2.483   1.388  1.4115 -0.3316 -0.6007
 6744SOL     OW31690   4.349   2.907   1.665  0.3830 -0.0634 -0.3837
 6744SOL    HW131691   4.406   2.962   1.719  0.0011  0.4733 -0.5284
 6744SOL    HW231692   4.283   2.876   1.728 -0.2264  0.9851 -0.4997
 6745SOL     OW31693   2.292   3.297   6.327  0.2118  0.0189  0.6862
 6745SOL    HW131694   2.353   3.237   6.370 -0.3273 -0.0922  1.2850
 6745SOL    HW231695   2.342   3.317   6.248 -0.1484  0.7827  0.6603
 6746SOL     OW31696   2.411   4.201   2.184  0.0017 -0.0571 -0.6540
 6746SOL    HW131697   2.485   4.247   2.224  0.9139 -1.2451 -0.9777
 6746SOL    HW231698   2.351   4.271   2.159 -1.5007 -0.8964  0.6608
 6747SOL     OW31699   1.908   1.126   9.082  0.0339 -0.4466  0.3708
 6747SOL    HW131700   1.813   1.129   9.089 -0.0868  1.1718 -1.8986
 6747SOL    HW231701   1.932   1.219   9.088 -0.3614 -0.1542 -2.5078
 6748SOL     OW31702   3.885   0.376   2.064 -0.0666  0.3731  0.0485
 6748SOL    HW131703   3.801   0.332   2.051 -0.3443  0.5696  1.1895
 6748SOL    HW231704   3.940   0.302   2.037  1.8021  1.8026 -0.0841
 6749SOL     OW31705   2.614   2.436   1.437  0.0232 -0.1243  0.0422
 6749SOL    HW131706   2.705   2.411   1.454 -0.0291 -1.4479 -1.4994
 6749SOL    HW231707   2.591   2.391   1.355 -0.5614 -1.2843  0.8429
 6750SOL     OW31708   2.923   3.926   6.228 -1.1126 -0.3419  0.1729
 6750SOL    HW131709   3.001   3.872   6.237 -0.6557 -0.2097 -2.9817
 6750SOL    HW231710   2.967   4.004   6.195  0.4762 -0.7254  1.3990
 6751SOL     OW31711   3.542   2.186  13.244  0.1868 -0.1151 -0.7983
 6751SOL    HW131712   3.487   2.209  13.169  0.1217 -3.2112 -1.7188
 6751SOL    HW231713   3.479   2.190  13.316 -1.4815 -0.5039 -2.2581
 6752SOL     OW31714   0.706   3.179   6.597 -0.5767  0.1676  0.4623
 6752SOL    HW131715   0.636   3.208   6.538  0.7692 -0.5359 -1.4752
 6752SOL    HW231716   0.679   3.226   6.676  0.8860  1.8943 -0.0630
 6753SOL     OW31717   2.569   4.593   2.336 -0.2404  0.5652 -0.3581
 6753SOL    HW131718   2.663   4.609   2.339 -0.5843  2.0681  2.6804
 6753SOL    HW231719   2.538   4.602   2.246 -1.9240 -0.1080  0.1563
 6754SOL     OW31720   2.525   3.693   3.989 -0.2412 -0.1138  0.3483
 6754SOL    HW131721   2.471   3.623   3.952  0.1903  1.3337 -3.0438
 6754SOL    HW231722   2.602   3.648   4.022  1.7609  1.4723 -2.1433
 6755SOL     OW31723   4.639   0.952  16.533 -0.5474  0.5201  0.2759
 6755SOL    HW131724   4.677   0.952  16.621 -1.4236 -1.4539  0.6491
 6755SOL    HW231725   4.568   0.889  16.547  0.1121 -1.0434 -3.4683
 6756SOL     OW31726   2.671   3.988   6.309  0.0402  0.0077 -0.2780
 6756SOL    HW131727   2.752   3.951   6.273  0.4786 -0.1785  0.9021
 6756SOL    HW231728   2.694   3.996   6.401  1.4942  1.6966 -0.7849
 6757SOL     OW31729   4.104   3.972   4.835 -0.3648 -0.2368  0.3895
 6757SOL    HW131730   4.017   3.934   4.823 -0.7605  1.2239 -1.4013
 6757SOL    HW231731   4.107   4.032   4.761  0.6410 -0.0759  0.5609
 6758SOL     OW31732   4.222   0.545   2.877 -0.7242  0.3466 -0.6989
 6758SOL    HW131733   4.203   0.459   2.839 -2.0805 -0.4469  1.7682
 6758SOL    HW231734   4.183   0.551   2.965 -1.7211 -0.1051 -1.1084
 6759SOL     OW31735   2.473   1.893   5.938 -0.2079  0.4639  0.4939
 6759SOL    HW131736   2.461   1.868   6.030 -0.2296 -2.1757 -0.2472
 6759SOL    HW231737   2.391   1.943   5.929 -0.7157 -0.3244  0.6898
 6760SOL     OW31738   1.640   1.102   2.991  0.7333  0.0813 -0.1218
 6760SOL    HW131739   1.581   1.110   3.066  1.0656  1.1488  0.0338
 6760SOL    HW231740   1.578   1.061   2.931  0.4662  0.4105 -0.0729
 6761SOL     OW31741   3.385   0.052   9.505  0.6886 -0.0821  0.3546
 6761SOL    HW131742   3.330   0.097   9.441  0.3898 -0.0982  0.5984
 6761SOL    HW231743   3.389   0.127   9.565 -2.5909  1.2444 -1.0743
 6762SOL     OW31744   2.177   3.851   7.584  0.0925 -0.3921  0.5665
 6762SOL    HW131745   2.152   3.854   7.492 -1.5663 -1.8755  0.9545
 6762SOL    HW231746   2.120   3.925   7.605 -1.0004 -1.3127  0.8831
 6763SOL     OW31747   1.947   1.156   5.405  0.6932 -0.4856  0.1250
 6763SOL    HW131748   1.987   1.171   5.319 -2.8228 -0.1349 -1.4739
 6763SOL    HW231749   2.001   1.212   5.460  0.5380  1.1008 -1.3187
 6764SOL     OW31750   0.201   0.015  14.891 -0.4921 -0.0336  0.1361
 6764SOL    HW131751   0.162   0.013  14.979  0.0121  1.3839  0.4007
 6764SOL    HW231752   0.219   0.109  14.881  3.1148 -0.8195 -0.6096
 6765SOL     OW31753   0.675   2.902   4.295  0.1011 -0.5178 -0.0091
 6765SOL    HW131754   0.718   2.956   4.229 -0.6472 -0.0797 -0.1493
 6765SOL    HW231755   0.588   2.943   4.292 -0.3493 -1.3002  2.2457
 6766SOL     OW31756   2.224   1.032  17.490 -0.4471 -0.5330 -0.0502
 6766SOL    HW131757   2.197   0.943  17.471 -1.4320 -0.2899  0.1968
 6766SOL    HW231758   2.279   1.015  17.567 -0.6144  1.3385  0.4944
 6767SOL     OW31759   0.945   2.668   6.512  0.6834  0.0339 -0.0396
 6767SOL    HW131760   0.927   2.761   6.497  2.1744  0.2561 -0.5259
 6767SOL    HW231761   1.030   2.657   6.468  0.7205  1.2689 -0.2887
 6768SOL     OW31762   2.386   1.437  17.116  0.1414  0.6222  0.2735
 6768SOL    HW131763   2.466   1.484  17.090 -0.4035  1.1349 -0.4824
 6768SOL    HW231764   2.414   1.346  17.106 -3.6499 -0.2299 -2.5960
 6769SOL     OW31765   4.514   4.492   0.042 -0.3079 -0.0376 -0.4141
 6769SOL    HW131766   4.559   4.420   0.086 -2.9023 -0.7817  1.0306
 6769SOL    HW231767   4.454   4.437  17.678 -1.5530 -0.1246  1.1657
 6770SOL     OW31768   1.815   1.605   7.114 -0.3957  0.5157  0.2731
 6770SOL    HW131769   1.780   1.659   7.185 -1.1200 -1.0278  1.0884
 6770SOL    HW231770   1.817   1.671   7.044 -0.4991  0.4580  0.2146
 6771SOL     OW31771   1.724   0.086  10.587 -0.5471  0.3974 -0.4082
 6771SOL    HW131772   1.817   0.096  10.567  0.2455 -1.8813  2.1402
 6771SOL    HW231773   1.702   0.165  10.635 -2.7100 -1.1184  1.0686
 6772SOL     OW31774   2.320   4.037   7.141 -0.0365  0.1485 -0.0694
 6772SOL    HW131775   2.408   4.075   7.139  1.0161 -2.3758 -2.4994
 6772SOL    HW231776   2.339   3.971   7.074 -3.0475 -1.7548  0.9244
 6773SOL     OW31777   2.922   3.861   9.303 -0.4754  0.4542  0.6032
 6773SOL    HW131778   2.931   3.819   9.388  0.4974 -1.0334 -0.2369
 6773SOL    HW231779   2.955   3.793   9.244 -0.6513  1.0231 -0.1529
 6774SOL     OW31780   2.348   1.239   4.094 -0.0072 -0.1514  0.5850
 6774SOL    HW131781   2.263   1.281   4.083  1.5281  2.5005 -1.0646
 6774SOL    HW231782   2.356   1.180   4.019 -1.5753  1.6485 -0.9646
 6775SOL     OW31783   2.347   1.073   7.636 -0.0965 -0.2600 -0.0300
 6775SOL    HW131784   2.419   1.010   7.634 -0.6486 -0.8986  0.3257
 6775SOL    HW231785   2.277   1.027   7.682 -1.5057  1.5513 -0.3451
 6776SOL     OW31786   3.916   4.190   5.512  0.4740 -0.2477  0.1613
 6776SOL    HW131787   3.859   4.139   5.455 -1.1287 -1.4695  2.8244
 6776SOL    HW231788   3.959   4.254   5.455 -1.0806 -0.2564 -1.0089
 6777SOL     OW31789   3.396   4.268   0.401 -0.7544  0.0863 -0.1693
 6777SOL    HW131790   3.370   4.356   0.374 -0.0226  0.2792 -0.2469
 6777SOL    HW231791   3.392   4.266   0.497 -0.6814  1.5009 -0.1436
 6778SOL     OW31792   0.940   0.724   1.362  0.1234 -0.2346  0.0039
 6778SOL    HW131793   0.987   0.646   1.393  0.9598  1.2731  2.5488
 6778SOL    HW231794   0.856   0.705   1.403 -1.3988  0.4844 -2.8039
 6779SOL     OW31795   2.608   3.153   3.866  0.2479 -0.6662  0.4534
 6779SOL    HW131796   2.566   3.176   3.949  0.8797  0.5627  0.4392
 6779SOL    HW231797   2.528   3.142   3.815  0.5155 -0.5432  0.0130
 6780SOL     OW31798   0.942   1.628   5.281 -0.0785  0.3003  0.4728
 6780SOL    HW131799   0.930   1.588   5.194 -0.7200 -1.0206  1.1757
 6780SOL    HW231800   1.019   1.682   5.262  0.7919 -0.8946  0.6070
 6781SOL     OW31801   2.234   4.312   1.317  1.1121  0.5619 -0.1400
 6781SOL    HW131802   2.321   4.294   1.350  1.2591 -1.2238 -1.4867
 6781SOL    HW231803   2.224   4.253   1.242  1.9234  1.5993 -1.0634
 6782SOL     OW31804   3.948   0.518   8.231  0.0645  0.1281  0.4328
 6782SOL    HW131805   3.916   0.429   8.223  1.4091 -0.2906 -0.1801
 6782SOL    HW231806   3.876   0.578   8.251  1.3720  1.6067  0.7652
 6783SOL     OW31807   4.373   3.968   4.858  0.0971 -0.5498  0.3165
 6783SOL    HW131808   4.278   3.973   4.846  0.5504  3.7765 -1.6174
 6783SOL    HW231809   4.402   4.058   4.839 -2.9226  0.5467  0.9044
 6784SOL     OW31810   3.902   3.202   6.145 -0.6469 -0.1721 -0.4384
 6784SOL    HW131811   3.950   3.266   6.199 -0.8097 -0.5013  0.1029
 6784SOL    HW231812   3.918   3.234   6.057  1.4014  0.0473  0.0074
 6785SOL     OW31813   1.216   1.983   2.153  0.7655  0.2002 -0.0952
 6785SOL    HW131814   1.232   2.065   2.106  1.3779  0.7460  1.0631
 6785SOL    HW231815   1.137   1.952   2.110 -0.1449  0.9215  1.0504
 6786SOL     OW31816   2.081   1.088   1.823  0.2044 -0.2686 -0.5979
 6786SOL    HW131817   2.020   1.155   1.855  1.8079  1.7957 -1.9531
 6786SOL    HW231818   2.055   1.076   1.732  1.2493  0.2218 -0.9567
 6787SOL     OW31819   0.786   3.320   8.209  0.4002 -0.4059 -0.1535
 6787SOL    HW131820   0.784   3.349   8.300 -3.7135  1.3232 -0.7971
 6787SOL    HW231821   0.845   3.245   8.219 -0.7589 -1.3216 -0.1916
 6788SOL     OW31822   2.427   4.265   4.391 -0.0647  0.6244 -0.0619
 6788SOL    HW131823   2.366   4.339   4.384 -0.6556  0.0338 -1.0579
 6788SOL    HW231824   2.434   4.232   4.302  0.7164 -0.9375  0.5755
 6789SOL     OW31825   2.608   3.109   8.423  0.6032 -0.3189 -0.1406
 6789SOL    HW131826   2.677   3.136   8.484 -0.6597 -1.2114  1.6906
 6789SOL    HW231827   2.614   3.188   8.369  2.2603  1.6615  2.9111
 6790SOL     OW31828   0.240   2.000   4.347 -0.2918 -0.3746 -1.0684
 6790SOL    HW131829   0.298   2.067   4.310 -2.3742  0.3115 -3.0358
 6790SOL    HW231830   0.181   2.062   4.392 -0.8022 -1.8643  0.3113
 6791SOL     OW31831   2.403   0.810   0.814 -0.2207  0.5183  0.4027
 6791SOL    HW131832   2.389   0.725   0.855 -2.8986 -0.2314 -2.0406
 6791SOL    HW231833   2.477   0.829   0.872 -0.0661 -2.2308  1.1114
 6792SOL     OW31834   0.904   0.280   8.123  0.8013  0.2397  0.0099
 6792SOL    HW131835   0.812   0.284   8.146  0.4321 -5.0396 -0.5676
 6792SOL    HW231836   0.940   0.247   8.205  3.1777  0.0792 -1.0732
 6793SOL     OW31837   0.060   0.740   3.253  0.1614  0.6125  0.0586
 6793SOL    HW131838   0.115   0.763   3.178 -1.4735  3.0341 -0.4283
 6793SOL    HW231839   4.697   0.769   3.216 -0.0182  0.0157  0.0088
 6794SOL     OW31840   3.996   0.536  13.739 -0.1084 -0.6302  0.3847
 6794SOL    HW131841   4.010   0.577  13.824 -0.0003 -1.7581  0.9013
 6794SOL    HW231842   3.934   0.473  13.775 -0.1124 -0.4644  0.6700
 6795SOL     OW31843   0.162   2.974  17.021  0.2137 -0.1635  0.0129
 6795SOL    HW131844   0.196   2.951  17.107  0.1445  2.6604  0.7871
 6795SOL    HW231845   0.145   2.891  16.975 -1.5621  0.4515 -0.4414
 6796SOL     OW31846   4.687   4.321   7.296 -0.4134  0.7220  0.2774
 6796SOL    HW131847   4.694   4.393   7.359  0.3835  0.6000  0.3229
 6796SOL    HW231848   4.712   4.253   7.358  0.8600 -1.3283 -2.4545
 6797SOL     OW31849   2.781   1.166  16.661  0.5316 -0.1660 -0.3520
 6797SOL    HW131850   2.707   1.177  16.602 -0.0842  1.9255  0.7767
 6797SOL    HW231851   2.794   1.250  16.706  0.6260  0.2878 -1.2239
 6798SOL     OW31852   2.481   1.941   0.558 -0.1641  0.3201  0.8155
 6798SOL    HW131853   2.416   2.002   0.594  0.0691  0.1651  1.4953
 6798SOL    HW231854   2.547   1.936   0.627  0.7784 -0.1112 -0.1280
 6799SOL     OW31855   0.613   2.231   3.544  0.1166  0.1999  0.7125
 6799SOL    HW131856   0.702   2.203   3.565 -0.0557 -0.8935  0.0108
 6799SOL    HW231857   0.569   2.160   3.591 -0.4269  1.1249  1.6238
 6800SOL     OW31858   1.443   0.721   1.666  0.4732  0.5897 -0.4747
 6800SOL    HW131859   1.457   0.771   1.746  0.5154  1.7741 -1.2145
 6800SOL    HW231860   1.348   0.711   1.672  0.3687  1.3538 -0.8203
 6801SOL     OW31861   4.103   1.282   5.512 -0.8400  0.2528 -0.4752
 6801SOL    HW131862   4.037   1.245   5.571 -0.4841  1.9969  1.0035
 6801SOL    HW231863   4.081   1.375   5.514 -3.0544 -0.3062  0.7593
 6802SOL     OW31864   0.221   1.930  13.068 -0.0771 -0.3342 -0.4415
 6802SOL    HW131865   0.297   1.965  13.114 -1.3771  0.3483  1.1749
 6802SOL    HW231866   0.156   1.997  13.087 -0.7860 -1.0962 -0.1504
 6803SOL     OW31867   2.484   2.281   7.628 -0.0244 -0.3210  0.1513
 6803SOL    HW131868   2.484   2.216   7.699 -0.8675 -1.2168 -0.6793
 6803SOL    HW231869   2.495   2.362   7.677  0.9595 -0.8366  0.7762
 6804SOL     OW31870   4.217   3.696   2.521  0.5802  0.1696 -0.1412
 6804SOL    HW131871   4.137   3.704   2.469 -0.6983 -1.3760  1.6013
 6804SOL    HW231872   4.194   3.740   2.603 -1.6817 -0.8473 -0.2522
 6805SOL     OW31873   1.044   1.517   6.277 -0.0998  0.6834  0.0018
 6805SOL    HW131874   1.044   1.604   6.237 -0.7933  0.4385 -0.5142
 6805SOL    HW231875   0.973   1.530   6.341  1.9726 -0.4597  2.5551
 6806SOL     OW31876   1.807   0.770   5.710 -0.1281  0.6939 -0.0771
 6806SOL    HW131877   1.805   0.848   5.655 -0.3386  0.2588 -0.6790
 6806SOL    HW231878   1.890   0.734   5.681  0.1909  0.4128  1.1763
 6807SOL     OW31879   0.106   3.537   6.778 -0.1498  0.4222 -0.3488
 6807SOL    HW131880   0.200   3.551   6.786  0.3515 -0.9564 -4.2003
 6807SOL    HW231881   0.107   3.462   6.720 -0.4310  0.0467  0.1334
 6808SOL     OW31882   2.750   3.486   6.166 -0.1909 -0.0971  0.0319
 6808SOL    HW131883   2.838   3.478   6.204 -0.2491  0.9422  0.3772
 6808SOL    HW231884   2.767   3.423   6.095  0.2356 -0.2064  0.2301
 6809SOL     OW31885   3.270   2.598   0.436 -0.1357  0.0975 -0.0233
 6809SOL    HW131886   3.288   2.692   0.435 -1.9228  0.4594  1.6342
 6809SOL    HW231887   3.188   2.587   0.388 -1.6207  1.8406  2.0788
 6810SOL     OW31888   3.901   2.832   1.009  0.6575  0.4530  0.0678
 6810SOL    HW131889   3.829   2.819   1.070  1.5037 -2.4253  0.4463
 6810SOL    HW231890   3.854   2.844   0.926 -0.0229 -3.5129 -0.1138
 6811SOL     OW31891   2.228   4.359   7.394 -0.0306 -0.0956  0.1977
 6811SOL    HW131892   2.270   4.362   7.308 -0.8320 -1.8088 -0.2469
 6811SOL    HW231893   2.164   4.289   7.384  0.7264 -0.9356  1.2591
 6812SOL     OW31894   4.197   3.908   1.877 -0.4975  0.2750  0.3244
 6812SOL    HW131895   4.245   3.931   1.957 -1.3982  0.6346  0.7623
 6812SOL    HW231896   4.274   3.899   1.822 -1.7749 -1.8154 -1.0959
 6813SOL     OW31897   0.785   0.318  11.939  0.0880 -0.6763  0.1309
 6813SOL    HW131898   0.842   0.274  11.875 -1.1458 -3.0087  0.6230
 6813SOL    HW231899   0.856   0.356  11.990  0.3512  0.3778 -1.0213
 6814SOL     OW31900   0.893   3.279   4.531 -0.0629 -0.1259 -0.2798
 6814SOL    HW131901   0.952   3.282   4.606  1.2405 -5.5797 -1.1054
 6814SOL    HW231902   0.924   3.344   4.468 -2.9664  0.0649 -1.5150
 6815SOL     OW31903   4.158   2.710   2.325 -0.0375 -0.1594  0.5245
 6815SOL    HW131904   4.185   2.752   2.243 -0.3693 -1.0063 -0.0097
 6815SOL    HW231905   4.220   2.745   2.390 -0.0597 -1.8144  1.4357
 6816SOL     OW31906   2.036   1.772   5.472 -0.4167 -0.2058  0.1199
 6816SOL    HW131907   1.973   1.798   5.405 -1.2342 -0.5308  0.7608
 6816SOL    HW231908   1.989   1.698   5.512  3.7962 -2.7744  0.3114
 6817SOL     OW31909   2.574   2.470  12.425 -0.2297 -0.6997 -0.4854
 6817SOL    HW131910   2.553   2.377  12.424  1.4964 -1.0737 -1.1055
 6817SOL    HW231911   2.488   2.505  12.402 -1.2178 -0.2626  3.8928
 6818SOL     OW31912   3.456   2.572   5.618  0.0519 -0.4253  0.2447
 6818SOL    HW131913   3.489   2.557   5.529 -0.0287  0.4836  0.0639
 6818SOL    HW231914   3.378   2.623   5.596 -0.1320 -1.5807 -1.8631
 6819SOL     OW31915   4.240   3.348   6.574 -0.3151  0.1497 -0.3641
 6819SOL    HW131916   4.164   3.290   6.575  0.4030 -0.7754  2.6794
 6819SOL    HW231917   4.286   3.316   6.497  0.4253 -0.8893  0.5042
 6820SOL     OW31918   1.267   2.989  11.553 -0.0843 -0.7427 -0.2762
 6820SOL    HW131919   1.238   2.967  11.464  2.2103 -1.2394 -0.8923
 6820SOL    HW231920   1.210   2.928  11.599 -3.2762  1.8203 -0.8357
 6821SOL     OW31921   3.718   3.042   1.766 -0.0188 -0.5335  0.4177
 6821SOL    HW131922   3.767   2.998   1.835  1.0245  0.6963  0.4849
 6821SOL    HW231923   3.665   3.097   1.824  1.6044  1.5356 -0.0543
 6822SOL     OW31924   3.045   4.034   4.422  0.1752  0.0365 -0.3202
 6822SOL    HW131925   3.033   3.940   4.439 -1.8523  0.5689  1.1068
 6822SOL    HW231926   2.956   4.067   4.433 -1.1611 -3.6610  0.2409
 6823SOL     OW31927   3.145   2.581  14.471 -0.0740 -0.3180  0.1831
 6823SOL    HW131928   3.065   2.529  14.463 -0.4032 -0.0570  1.7763
 6823SOL    HW231929   3.112   2.647  14.410  2.6162  2.5685  1.7912
 6824SOL     OW31930   3.006   1.890   8.767 -0.7758  0.2844  0.8968
 6824SOL    HW131931   2.917   1.896   8.734  0.9768  0.8260 -3.7291
 6824SOL    HW231932   2.986   1.836   8.844 -1.7399 -0.0270  0.4221
 6825SOL     OW31933   0.157   4.698   7.946 -0.4731  0.1049 -0.4833
 6825SOL    HW131934   0.184   4.667   8.032 -2.7237 -1.0945 -0.2250
 6825SOL    HW231935   0.196   0.064   7.950  1.1840 -0.7025  1.0089
 6826SOL     OW31936   3.480   1.641  16.467 -0.0552  0.3346  0.4699
 6826SOL    HW131937   3.409   1.701  16.486 -0.2943  0.6524 -1.5273
 6826SOL    HW231938   3.488   1.645  16.372 -0.3247 -1.1490  0.3756
 6827SOL     OW31939   1.496   3.552   2.169 -0.4564  0.2790  0.0560
 6827SOL    HW131940   1.554   3.517   2.237 -0.5266 -1.4363 -0.7582
 6827SOL    HW231941   1.506   3.647   2.175  0.2867  0.2439 -0.5893
 6828SOL     OW31942   3.832   3.988   2.433  0.0291 -0.5667 -0.0787
 6828SOL    HW131943   3.917   4.032   2.443 -0.0665 -0.0510 -1.5087
 6828SOL    HW231944   3.790   4.021   2.354  2.5699  0.2010 -1.1299
 6829SOL     OW31945   3.163   3.984   3.353 -0.1073  0.0461  0.0461
 6829SOL    HW131946   3.199   3.897   3.339  2.8877  1.4699 -1.2316
 6829SOL    HW231947   3.195   4.039   3.281 -0.7634  0.2919 -0.0597
 6830SOL     OW31948   2.436   4.212  14.711  0.4727  0.1337  0.1538
 6830SOL    HW131949   2.505   4.170  14.660 -0.2969  1.3192 -1.8495
 6830SOL    HW231950   2.381   4.239  14.637  0.4002 -0.0152  0.1521
 6831SOL     OW31951   1.449   0.518  11.245  0.1103  0.1191  0.8239
 6831SOL    HW131952   1.455   0.472  11.329  1.3041 -0.7004  0.2878
 6831SOL    HW231953   1.353   0.523  11.243  0.1147  0.0433  0.4291
 6832SOL     OW31954   4.209   0.509   8.129 -0.2098 -0.0441  0.8765
 6832SOL    HW131955   4.178   0.545   8.046  1.9171  1.3531  0.6623
 6832SOL    HW231956   4.127   0.507   8.178 -1.8802  2.0575 -1.8904
 6833SOL     OW31957   4.676   1.341   9.270 -0.3105  0.4379 -0.5803
 6833SOL    HW131958   4.686   1.254   9.307 -2.4444  1.2544  1.9595
 6833SOL    HW231959   0.046   1.367   9.256 -1.2174  3.5162 -0.8693
 6834SOL     OW31960   2.248   1.227   3.364  0.1547 -0.2376  0.4818
 6834SOL    HW131961   2.296   1.150   3.333 -0.4689 -0.3742 -0.1415
 6834SOL    HW231962   2.268   1.288   3.293  0.8816 -1.1335 -0.0769
 6835SOL     OW31963   2.166   0.090  15.278  0.1659 -0.4373 -0.2023
 6835SOL    HW131964   2.132   0.070  15.366  1.5297  0.4856  0.5382
 6835SOL    HW231965   2.137   0.181  15.291 -0.4424 -0.5846 -0.5600
 6836SOL     OW31966   0.801   1.089   5.242 -0.0061  0.4347 -0.2477
 6836SOL    HW131967   0.838   1.008   5.276 -0.4092  0.5703  0.5030
 6836SOL    HW231968   0.716   1.095   5.285  0.1987  1.2632  0.0581
 6837SOL     OW31969   1.748   0.271   2.099 -1.1233  0.3996  0.0269
 6837SOL    HW131970   1.798   0.196   2.067 -1.2423  0.3799 -0.1127
 6837SOL    HW231971   1.676   0.269   2.037 -0.8464  1.4149 -0.3329
 6838SOL     OW31972   3.536   2.180  12.620 -0.1003  0.0906  0.3055
 6838SOL    HW131973   3.587   2.122  12.564  0.8882  1.4635 -0.2300
 6838SOL    HW231974   3.454   2.175  12.572 -1.4945  1.6229  2.5140
 6839SOL     OW31975   0.396   2.231  13.234 -0.3261 -0.1721 -0.2115
 6839SOL    HW131976   0.351   2.260  13.313 -1.1923  2.9491 -1.8748
 6839SOL    HW231977   0.329   2.268  13.176  0.6181  0.5721 -0.8152
 6840SOL     OW31978   3.642   2.367   9.316 -0.1701 -0.6867 -0.7772
 6840SOL    HW131979   3.735   2.348   9.329  0.5093  2.7247 -0.7378
 6840SOL    HW231980   3.636   2.462   9.322  0.1484 -0.7743  0.8724
 6841SOL     OW31981   2.067   3.682   5.410  0.2854  0.8884  0.0425
 6841SOL    HW131982   2.055   3.590   5.387 -0.0746  1.1424 -0.7882
 6841SOL    HW231983   2.161   3.696   5.403  0.6201 -0.5212  1.9597
 6842SOL     OW31984   4.184   1.454   7.688  0.4220 -0.2105 -0.3221
 6842SOL    HW131985   4.197   1.362   7.711  0.4695 -1.1625 -4.0527
 6842SOL    HW231986   4.231   1.498   7.759 -0.9225 -1.7743  1.5490
 6843SOL     OW31987   3.643   0.303   1.977 -0.0268 -0.2765 -0.3326
 6843SOL    HW131988   3.563   0.260   2.006 -0.4123 -0.3640 -1.5550
 6843SOL    HW231989   3.664   0.249   1.901 -1.7209 -2.2918  0.6166
 6844SOL     OW31990   0.577   0.042   7.804 -0.0495  0.3917  0.3831
 6844SOL    HW131991   0.501   0.099   7.788  0.3799  1.1662  1.0903
 6844SOL    HW231992   0.531   4.691   7.846  0.6909 -0.9047 -1.0460
 6845SOL     OW31993   1.659   2.634   9.401  0.9342 -0.8358 -0.2393
 6845SOL    HW131994   1.620   2.720   9.388  2.8022  0.3179  1.6412
 6845SOL    HW231995   1.608   2.582   9.339  1.3174 -1.1270 -0.3149
 6846SOL     OW31996   3.623   3.343  10.597 -0.8470 -0.3029  0.3301
 6846SOL    HW131997   3.583   3.296  10.670 -1.7285 -0.9601 -0.5739
 6846SOL    HW231998   3.697   3.286  10.575 -1.2670 -0.7959  0.1896
 6847SOL     OW31999   1.156   1.912   2.403  0.2810 -0.2264 -0.3454
 6847SOL    HW132000   1.166   1.961   2.322 -2.9733 -0.1034 -0.6630
 6847SOL    HW232001   1.242   1.879   2.429  0.2034 -0.3309 -0.2215
 6848SOL     OW32002   2.648   0.529   0.363 -0.6705 -0.1969  0.8000
 6848SOL    HW132003   2.645   0.437   0.338  0.5981 -0.1561  0.4758
 6848SOL    HW232004   2.714   0.567   0.304 -0.0623 -1.6608  0.5406
 6849SOL     OW32005   4.146   4.694   2.184 -0.8209 -0.3456  0.2753
 6849SOL    HW132006   4.109   0.042   2.129 -1.3209 -0.4202  0.5267
 6849SOL    HW232007   4.110   4.613   2.148 -1.0747 -0.2954  0.4211
 6850SOL     OW32008   2.752   0.512   6.845  0.4087  0.4977  0.1058
 6850SOL    HW132009   2.743   0.421   6.815 -1.9270  0.7324  0.1295
 6850SOL    HW232010   2.672   0.515   6.896 -0.2066 -2.7566 -0.6219
 6851SOL     OW32011   3.353   3.693   6.871  0.0516  0.1463  0.0109
 6851SOL    HW132012   3.329   3.774   6.916 -1.2270  0.1411 -0.6738
 6851SOL    HW232013   3.447   3.692   6.890 -0.1007  0.7492  0.8217
 6852SOL     OW32014   4.067   1.579  15.868 -0.2636 -0.4657  0.6495
 6852SOL    HW132015   3.978   1.584  15.833  0.6909  0.7720 -1.5744
 6852SOL    HW232016   4.096   1.660  15.828  1.3211 -0.9360  0.8697
 6853SOL     OW32017   0.086   4.122  12.981  0.1114 -0.1524 -0.3543
 6853SOL    HW132018   0.061   4.177  13.056 -1.2576 -0.6462 -0.4497
 6853SOL    HW232019   0.017   4.056  12.973 -1.6048  1.7128 -0.9587
 6854SOL     OW32020   2.910   0.446   6.098  0.0204 -0.0819  0.7179
 6854SOL    HW132021   2.923   0.507   6.025 -3.2246 -1.1926 -0.7793
 6854SOL    HW232022   2.815   0.442   6.086 -0.1135  2.3459  0.8779
 6855SOL     OW32023   2.588   3.895   1.439  0.0186 -0.3446 -0.2301
 6855SOL    HW132024   2.649   3.955   1.396 -2.1172  0.2541 -2.4291
 6855SOL    HW232025   2.632   3.865   1.518 -0.1666 -0.9588 -0.3645
 6856SOL     OW32026   3.252   1.922   7.961  0.6789  0.5241 -0.0683
 6856SOL    HW132027   3.326   1.888   7.913 -0.2219 -0.8504 -0.4767
 6856SOL    HW232028   3.230   1.840   8.006  0.0264 -0.8460 -2.8838
 6857SOL     OW32029   0.300   2.392  12.541 -0.3720 -0.0862 -0.0372
 6857SOL    HW132030   0.387   2.430  12.531  0.1381 -1.1543  0.2842
 6857SOL    HW232031   0.309   2.320  12.479  0.1035 -0.6527  0.6786
 6858SOL     OW32032   0.263   4.357  13.220 -0.3418  0.0485 -0.3124
 6858SOL    HW132033   0.311   4.425  13.267  0.1953 -0.3182 -0.3301
 6858SOL    HW232034   0.238   4.398  13.137 -2.5215  0.0665  0.3743
 6859SOL     OW32035   3.300   4.218   2.506  0.3561 -0.4047  0.8121
 6859SOL    HW132036   3.388   4.227   2.470 -0.1590  0.7171 -0.1827
 6859SOL    HW232037   3.253   4.202   2.424 -1.3098  3.1397  1.0438
 6860SOL     OW32038   4.270   4.101   3.385  0.4128 -0.0623 -0.6601
 6860SOL    HW132039   4.308   4.022   3.422  1.0995  0.0188 -1.2060
 6860SOL    HW232040   4.345   4.152   3.354  0.8717 -0.6082 -0.4319
 6861SOL     OW32041   1.348   4.696  17.592 -0.4235 -0.4226  0.2772
 6861SOL    HW132042   1.335   0.050  17.651 -0.8125  0.4798 -0.9503
 6861SOL    HW232043   1.320   0.011  17.508 -0.9044  0.0547  0.6412
 6862SOL     OW32044   0.504   1.357  17.557 -0.5687 -0.1057  0.3740
 6862SOL    HW132045   0.513   1.451  17.543  0.1870 -0.2224  0.1181
 6862SOL    HW232046   0.411   1.353  17.580 -0.6420  1.6117  0.3602
 6863SOL     OW32047   4.263   2.432   9.411 -0.5141 -0.6986  0.6074
 6863SOL    HW132048   4.295   2.445   9.322  1.0531  0.8782  1.4000
 6863SOL    HW232049   4.315   2.489   9.468  0.6131 -0.8985 -0.2360
 6864SOL     OW32050   3.168   4.176  13.540  0.0425 -0.2666 -0.2822
 6864SOL    HW132051   3.221   4.253  13.520 -1.4736  0.7889 -0.1798
 6864SOL    HW232052   3.088   4.199  13.494 -0.0003 -0.0109 -0.0791
 6865SOL     OW32053   3.893   0.510  14.852 -0.5177  0.0843  0.2920
 6865SOL    HW132054   3.941   0.593  14.853  0.2622 -0.3647  1.6604
 6865SOL    HW232055   3.808   0.550  14.867 -0.5073  0.6968 -1.2966
 6866SOL     OW32056   3.064   2.289   2.997 -0.0895 -0.8545  0.0914
 6866SOL    HW132057   3.124   2.250   2.933  2.3421 -0.0403  1.8813
 6866SOL    HW232058   3.120   2.334   3.060  1.4421 -0.6915 -1.3929
 6867SOL     OW32059   3.299   2.787   4.541  0.2305  0.5740 -0.2080
 6867SOL    HW132060   3.289   2.772   4.447 -1.5150  0.7160 -0.0355
 6867SOL    HW232061   3.246   2.866   4.552 -0.7722 -0.0423 -0.6726
 6868SOL     OW32062   0.635   2.231   4.682 -0.7779  0.5936  0.0883
 6868SOL    HW132063   0.663   2.304   4.736  0.4937  0.4036 -0.3181
 6868SOL    HW232064   0.714   2.179   4.695 -0.2843  0.5860 -2.8382
 6869SOL     OW32065   3.762   1.576   3.876 -0.4300 -1.0144  0.4968
 6869SOL    HW132066   3.672   1.608   3.880  0.2001  0.7678  0.7703
 6869SOL    HW232067   3.803   1.622   3.950  1.7947  0.6349 -1.7687
 6870SOL     OW32068   3.450   2.537  12.910 -0.1613 -0.1772  0.4055
 6870SOL    HW132069   3.383   2.474  12.884 -0.6285  0.9016 -1.0202
 6870SOL    HW232070   3.526   2.513  12.857  0.0708 -0.0498  0.6775
 6871SOL     OW32071   3.060   4.171   2.031 -0.0838 -0.0088 -0.2115
 6871SOL    HW132072   2.988   4.193   1.972  0.2966 -0.0810 -0.6935
 6871SOL    HW232073   3.088   4.087   1.996 -1.6217 -1.2830  1.5486
 6872SOL     OW32074   1.847   3.721  11.415  0.1014  0.0499  0.1186
 6872SOL    HW132075   1.803   3.738  11.332 -2.3779  0.4179  1.5118
 6872SOL    HW232076   1.878   3.632  11.396  1.0422  0.3575  0.2321
 6873SOL     OW32077   2.674   3.104   9.532  0.1987  0.3423  0.1506
 6873SOL    HW132078   2.647   3.149   9.452 -1.5942  1.5592  1.4239
 6873SOL    HW232079   2.593   3.053   9.541  0.6614 -0.6223 -1.0650
 6874SOL     OW32080   0.560   3.573  17.616 -0.1358  0.1798 -0.0698
 6874SOL    HW132081   0.559   3.636   0.002 -0.8699  0.2828 -0.1681
 6874SOL    HW232082   0.547   3.488  17.656 -2.1929  0.9717  0.9460
 6875SOL     OW32083   3.245   0.993   6.223  0.5769  0.7569 -0.0516
 6875SOL    HW132084   3.336   0.986   6.252  0.8236 -0.8388 -1.1974
 6875SOL    HW232085   3.223   0.902   6.244  0.6854  0.3714 -1.5974
 6876SOL     OW32086   2.948   1.937   1.971 -0.3970  0.4506 -0.1535
 6876SOL    HW132087   3.031   1.920   2.016 -0.2722  0.7373 -0.2768
 6876SOL    HW232088   2.979   1.982   1.892 -2.6379 -0.2467 -1.4152
 6877SOL     OW32089   4.503   4.340  11.366 -0.0271  0.3711 -0.2583
 6877SOL    HW132090   4.513   4.367  11.275 -2.1135  0.9722 -0.3161
 6877SOL    HW232091   4.593   4.333  11.398 -0.1375 -0.7173 -0.1681
 6878SOL     OW32092   1.930   0.537   9.162  0.1492  0.1812  0.2050
 6878SOL    HW132093   1.966   0.464   9.212  1.5493  0.3346 -0.5863
 6878SOL    HW232094   1.835   0.526   9.170  0.3540 -1.6589  0.0946
 6879SOL     OW32095   3.872   0.806   6.420 -0.1665 -0.2263 -0.3323
 6879SOL    HW132096   3.828   0.835   6.340 -2.0877 -1.3574  0.3104
 6879SOL    HW232097   3.923   0.733   6.387 -0.7156 -0.4995 -0.5862
 6880SOL     OW32098   1.693   3.318   5.187 -0.6761  0.1161 -0.5593
 6880SOL    HW132099   1.651   3.403   5.175  0.9786  1.2156  1.4249
 6880SOL    HW232100   1.637   3.297   5.261 -0.5769 -0.4416 -0.6436
 6881SOL     OW32101   1.749   2.743   3.638  0.3472  0.1181 -0.3025
 6881SOL    HW132102   1.742   2.699   3.553  0.8169  0.2941 -0.4343
 6881SOL    HW232103   1.781   2.679   3.701  0.6598 -0.6835 -1.2756
 6882SOL     OW32104   1.214   4.699   3.501 -0.1271 -0.3352 -0.1367
 6882SOL    HW132105   1.150   4.679   3.570  0.8448 -2.6729  0.0750
 6882SOL    HW232106   1.214   0.074   3.495  1.5846 -0.2521  1.3486
 6883SOL     OW32107   4.129   1.920  16.490  0.2122  0.0275  0.5171
 6883SOL    HW132108   4.101   1.890  16.577 -0.7994  0.1848  0.2501
 6883SOL    HW232109   4.082   2.002  16.476 -2.0694 -1.1842  0.9693
 6884SOL     OW32110   1.276   3.838   7.782  0.5231 -0.1844  0.0543
 6884SOL    HW132111   1.293   3.772   7.715 -1.4233  0.7333 -1.3543
 6884SOL    HW232112   1.248   3.788   7.859 -0.2708  0.5553  0.2485
 6885SOL     OW32113   3.601   2.159   8.221 -0.1510  0.2176  0.4100
 6885SOL    HW132114   3.586   2.074   8.180 -0.2294  0.7054 -0.5694
 6885SOL    HW232115   3.695   2.176   8.214  0.1618 -1.8268 -0.4543
 6886SOL     OW32116   0.305   4.077  11.677  0.4932 -0.1486  0.7650
 6886SOL    HW132117   0.222   4.122  11.664  2.2232  3.4567  2.0955
 6886SOL    HW232118   0.305   4.076  11.773  1.1762  3.9688  0.7873
 6887SOL     OW32119   2.723   4.372   8.176  0.1594 -0.5787  0.6035
 6887SOL    HW132120   2.754   4.294   8.221 -3.1788 -1.7478  0.8699
 6887SOL    HW232121   2.807   4.398   8.137  0.2307 -0.1636  1.0357
 6888SOL     OW32122   0.395   0.151   3.493  0.0864 -0.0948  0.2001
 6888SOL    HW132123   0.478   0.183   3.458  0.9697 -1.5427  0.9909
 6888SOL    HW232124   0.368   0.237   3.528 -0.6754 -0.9266  1.6707
 6889SOL     OW32125   3.008   4.699  16.028  0.8101 -0.1168 -0.2639
 6889SOL    HW132126   3.025   4.629  16.091 -0.4679  1.7162  2.1347
 6889SOL    HW232127   2.919   4.688  15.997 -0.6800  0.7750  3.6334
 6890SOL     OW32128   3.871   0.932   7.377  0.1812 -0.3508  0.0467
 6890SOL    HW132129   3.963   0.943   7.398 -0.6411  0.4676  3.2202
 6890SOL    HW232130   3.852   0.842   7.404 -2.9684  0.2630 -0.0528
 6891SOL     OW32131   2.702   0.012   3.386 -0.1451 -0.0243 -0.0716
 6891SOL    HW132132   2.622   0.064   3.393  0.3351  0.5576  1.2143
 6891SOL    HW232133   2.685   4.678   3.310  0.5157 -0.5612  0.1722
 6892SOL     OW32134   2.213   4.417   5.113 -0.5879 -0.0328 -0.2929
 6892SOL    HW132135   2.243   4.395   5.202 -0.3133  1.1144 -0.1084
 6892SOL    HW232136   2.292   4.421   5.059 -0.3269  1.4837  0.1932
 6893SOL     OW32137   0.182   1.339   5.667 -0.6486  0.3224 -0.4476
 6893SOL    HW132138   0.240   1.353   5.592 -0.2566 -0.6351 -0.3192
 6893SOL    HW232139   0.242   1.315   5.738 -0.5610 -0.4675 -0.7867
 6894SOL     OW32140   2.008   1.288  15.935 -0.1755 -0.3431  0.0121
 6894SOL    HW132141   1.917   1.278  15.962  0.0237  0.6592  1.0916
 6894SOL    HW232142   1.989   1.332  15.852  0.4898  0.9981  0.5686
 6895SOL     OW32143   4.031   3.333  14.203  0.6097 -0.3591 -0.2323
 6895SOL    HW132144   4.085   3.254  14.202  2.0806  0.6610 -2.5748
 6895SOL    HW232145   3.942   3.298  14.207  2.1539 -4.3147 -0.1491
 6896SOL     OW32146   4.409   1.265  12.264 -0.7810 -0.3400  0.0422
 6896SOL    HW132147   4.339   1.271  12.199 -0.7316  1.3863  0.1375
 6896SOL    HW232148   4.457   1.184  12.246 -0.3379 -0.2306  0.7289
 6897SOL     OW32149   3.990   2.612  16.457 -0.0441  0.3013  0.2412
 6897SOL    HW132150   3.913   2.568  16.422  1.1686  0.3408 -2.5311
 6897SOL    HW232151   3.950   2.699  16.461 -0.4221  0.1359  0.0051
 6898SOL     OW32152   2.412   3.662  12.852  0.1025 -0.4933  0.1097
 6898SOL    HW132153   2.341   3.694  12.908  0.2041 -2.5969  1.4529
 6898SOL    HW232154   2.474   3.652  12.924  0.4906  1.5472  0.0604
 6899SOL     OW32155   3.085   0.912   8.207 -0.2990 -0.9378  0.8455
 6899SOL    HW132156   3.117   1.001   8.198 -0.2541 -0.8842  1.4900
 6899SOL    HW232157   3.001   0.916   8.162  0.3313 -0.2252 -0.2479
 6900SOL     OW32158   1.686   0.302   1.683  0.0658 -0.1325  0.6362
 6900SOL    HW132159   1.741   0.359   1.737  1.5740 -2.5541  1.7068
 6900SOL    HW232160   1.633   0.356   1.624  0.4412 -2.2346 -1.6160
 6901SOL     OW32161   0.750   0.328   3.115  0.7845  0.0891  0.1366
 6901SOL    HW132162   0.685   0.303   3.180 -1.5919  0.2639 -2.2093
 6901SOL    HW232163   0.817   0.358   3.177 -0.0766 -1.6806  1.8893
 6902SOL     OW32164   1.908   0.798   3.535 -0.4303 -0.4206 -0.2565
 6902SOL    HW132165   1.894   0.709   3.568 -0.0153 -0.1830  0.5782
 6902SOL    HW232166   1.944   0.850   3.607  0.9464 -0.0183 -1.2283
 6903SOL     OW32167   1.667   2.161   7.358 -0.0839  0.0093 -0.0168
 6903SOL    HW132168   1.675   2.225   7.429  0.2913  0.1401 -0.1751
 6903SOL    HW232169   1.698   2.213   7.284  0.2707 -0.2320 -0.0387
 6904SOL     OW32170   3.934   2.469  15.266  0.0629 -0.1028  0.0485
 6904SOL    HW132171   3.987   2.481  15.344  0.3248 -0.0381 -0.1403
 6904SOL    HW232172   3.994   2.438  15.198  2.3778  0.5363  1.8158
 6905SOL     OW32173   3.919   2.398   9.310 -0.0943 -0.0760 -0.9265
 6905SOL    HW132174   3.948   2.461   9.377  0.4039 -2.5631  1.1792
 6905SOL    HW232175   3.969   2.445   9.243  2.9186  1.8715  2.6434
 6906SOL     OW32176   1.168   4.075   7.402 -0.0527 -0.1483 -0.1632
 6906SOL    HW132177   1.101   4.034   7.457  0.8794  0.2030  1.2292
 6906SOL    HW232178   1.223   3.999   7.382  0.3111  0.0696 -0.0029
 6907SOL     OW32179   4.251   1.482  13.001  0.0827 -0.0049  0.5121
 6907SOL    HW132180   4.228   1.483  12.908 -0.9697 -0.2447  0.7771
 6907SOL    HW232181   4.345   1.501  13.003  0.4045 -1.3192 -1.8108
 6908SOL     OW32182   2.529   2.575  13.914 -0.3547 -0.2153 -0.1369
 6908SOL    HW132183   2.525   2.670  13.919  0.6165 -0.2168  0.5082
 6908SOL    HW232184   2.488   2.578  13.827  0.5041  0.5498 -0.5096
 6909SOL     OW32185   0.960   0.907  11.869 -0.0912  0.2261 -0.0708
 6909SOL    HW132186   1.032   0.932  11.926  0.0694 -1.7968  0.6045
 6909SOL    HW232187   0.941   0.818  11.899 -0.1191  0.3512  0.2859
 6910SOL     OW32188   3.736   3.513  16.803 -0.1611 -0.3519 -0.3453
 6910SOL    HW132189   3.699   3.464  16.730  0.0846 -0.2698 -0.5253
 6910SOL    HW232190   3.775   3.587  16.755  0.9072 -0.5755  0.1677
 6911SOL     OW32191   0.710   0.796   6.079  0.1399 -0.2200  0.2124
 6911SOL    HW132192   0.668   0.863   6.133 -0.0780 -1.1578  1.2053
 6911SOL    HW232193   0.791   0.826   6.039 -0.3022  0.9341  0.1753
 6912SOL     OW32194   3.945   3.614   4.396  0.1901  0.0044  1.0134
 6912SOL    HW132195   3.897   3.655   4.469  0.8089  1.0849  0.8111
 6912SOL    HW232196   3.875   3.619   4.332 -0.0146  0.8992  1.3084
 6913SOL     OW32197   1.782   3.134   8.851 -0.1817 -0.3465 -0.0402
 6913SOL    HW132198   1.783   3.208   8.790  2.0924 -1.7137 -1.6948
 6913SOL    HW232199   1.875   3.118   8.867 -0.4116 -1.0896  0.5158
 6914SOL     OW32200   1.487   2.743   6.963  0.2267  0.3505  0.0114
 6914SOL    HW132201   1.463   2.766   7.053  0.4247  0.7195 -0.0290
 6914SOL    HW232202   1.564   2.799   6.955  0.0956  0.5074 -0.1521
 6915SOL     OW32203   1.124   2.378  10.205  0.4721 -0.4910 -0.2102
 6915SOL    HW132204   1.055   2.441  10.229  0.7113 -0.1400 -0.4461
 6915SOL    HW232205   1.097   2.295  10.244 -0.4956 -0.5057 -0.9093
 6916SOL     OW32206   4.357   3.140  17.281 -0.6895 -0.3431  0.8348
 6916SOL    HW132207   4.431   3.194  17.254 -0.2123 -1.4519 -0.1080
 6916SOL    HW232208   4.399   3.081  17.343 -0.0419 -0.9328 -0.1608
 6917SOL     OW32209   1.771   2.962   8.249  0.3289 -0.1573  0.2693
 6917SOL    HW132210   1.740   2.971   8.159 -2.6227 -1.1819  1.1904
 6917SOL    HW232211   1.690   2.979   8.297 -0.4286 -2.0550 -0.3213
 6918SOL     OW32212   3.737   2.334   8.619  0.3849 -0.0302 -0.3915
 6918SOL    HW132213   3.670   2.361   8.556  0.1808 -0.5381 -0.3875
 6918SOL    HW232214   3.753   2.248   8.582  0.8674 -0.3362  0.5295
 6919SOL     OW32215   1.544   2.419   6.215 -0.1030  0.4833  0.5591
 6919SOL    HW132216   1.451   2.397   6.206  0.5797 -2.2060  0.0942
 6919SOL    HW232217   1.544   2.514   6.202 -0.2667  0.4092 -0.0105
 6920SOL     OW32218   1.547   3.168  11.376  0.0350 -0.2358 -0.8006
 6920SOL    HW132219   1.541   3.169  11.280 -1.5032 -0.2077 -0.7086
 6920SOL    HW232220   1.469   3.216  11.405  0.3814  0.4425 -1.0109
 6921SOL     OW32221   4.437   0.124   8.041 -0.0740  0.3841 -0.4785
 6921SOL    HW132222   4.376   0.144   8.113 -0.9537  3.2622 -2.0601
 6921SOL    HW232223   4.512   0.180   8.058  0.4851 -0.2814 -0.7886
 6922SOL     OW32224   1.642   3.867   8.803 -0.3585  0.5495  0.0264
 6922SOL    HW132225   1.586   3.940   8.778 -2.7239 -1.2322  0.1196
 6922SOL    HW232226   1.638   3.824   8.718 -1.2764  2.7056 -1.0024
 6923SOL     OW32227   3.036   4.175   7.349 -0.4594  0.3496  0.3551
 6923SOL    HW132228   2.945   4.205   7.347 -0.6173 -0.0830  1.4214
 6923SOL    HW232229   3.061   4.144   7.262 -0.9472  1.2381 -0.1017
 6924SOL     OW32230   0.248   1.472   3.541  0.7321  0.2784 -0.2514
 6924SOL    HW132231   0.303   1.401   3.573  0.2690 -1.0125 -2.3132
 6924SOL    HW232232   0.311   1.544   3.537 -0.6272  1.6292  2.8689
 6925SOL     OW32233   4.444   4.577   5.479 -0.1050  0.0477 -0.7707
 6925SOL    HW132234   4.355   4.611   5.489 -0.3016 -0.0212 -2.3440
 6925SOL    HW232235   4.503   4.644   5.513 -0.5826 -0.9080  1.9942
 6926SOL     OW32236   1.462   4.543   6.391  0.4003  0.7736 -0.0698
 6926SOL    HW132237   1.538   4.520   6.337  0.1358 -0.8378  0.2465
 6926SOL    HW232238   1.390   4.549   6.327  0.0834  0.7443  0.2848
 6927SOL     OW32239   1.703   1.219  17.291 -1.0481 -0.6739  0.2225
 6927SOL    HW132240   1.764   1.241  17.221 -1.2925 -2.4606 -0.5479
 6927SOL    HW232241   1.657   1.145  17.250 -1.3984  1.2208 -2.8126
 6928SOL     OW32242   0.349   1.472  15.412  0.2658  0.5011 -0.4198
 6928SOL    HW132243   0.278   1.502  15.356 -0.2989  1.2947  0.7311
 6928SOL    HW232244   0.412   1.440  15.347 -0.5198 -2.7154  0.4250
 6929SOL     OW32245   1.510   1.756  16.645  0.1898 -0.4093  0.3900
 6929SOL    HW132246   1.565   1.717  16.577  1.5698 -0.8128  1.7456
 6929SOL    HW232247   1.483   1.674  16.686  0.6318 -0.4721  0.5454
 6930SOL     OW32248   1.300   1.388  15.662 -0.0434 -0.0770  0.2131
 6930SOL    HW132249   1.234   1.456  15.675 -0.8508 -1.2861  2.4324
 6930SOL    HW232250   1.310   1.386  15.567  1.8624 -0.2730  0.4045
 6931SOL     OW32251   2.152   4.214   3.299 -0.3066 -0.0860 -0.3508
 6931SOL    HW132252   2.115   4.139   3.251  3.1345 -2.7724  1.1871
 6931SOL    HW232253   2.246   4.197   3.290 -0.4574  0.1145 -2.4455
 6932SOL     OW32254   1.948   0.406   4.321  0.1600  0.5269  0.1070
 6932SOL    HW132255   2.042   0.402   4.335  0.1148 -2.0569 -0.4381
 6932SOL    HW232256   1.917   0.424   4.410 -2.7629 -1.6376 -0.4715
 6933SOL     OW32257   1.913   3.608   2.762 -0.3139  0.1255 -0.6395
 6933SOL    HW132258   1.950   3.583   2.847 -1.7845 -1.3931 -0.4513
 6933SOL    HW232259   1.877   3.526   2.730  1.2579 -1.3854  1.4098
 6934SOL     OW32260   1.980   0.913   4.457  0.0240 -0.3198  0.3814
 6934SOL    HW132261   1.931   0.890   4.536 -2.3768  0.0116 -1.0072
 6934SOL    HW232262   2.032   0.837   4.431 -0.1807 -0.2690 -0.1826
 6935SOL     OW32263   1.441   4.118   7.178 -0.1677  0.5785 -0.1789
 6935SOL    HW132264   1.358   4.165   7.171 -0.6904 -0.5024 -1.1520
 6935SOL    HW232265   1.499   4.190   7.203 -2.4039  1.6704  1.8911
 6936SOL     OW32266   2.024   0.315   7.361  0.2481  0.0656  0.2767
 6936SOL    HW132267   2.069   0.396   7.338 -3.0948  1.9073  0.3181
 6936SOL    HW232268   1.973   0.295   7.283  0.8622 -1.6397  0.3081
 6937SOL     OW32269   3.074   3.055   3.324  0.4298 -0.6264  0.0928
 6937SOL    HW132270   3.080   3.130   3.383 -0.3826 -1.2074  0.9067
 6937SOL    HW232271   3.166   3.032   3.313  0.3269 -1.5796  1.2638
 6938SOL     OW32272   2.074   2.316   8.211 -0.2884 -0.1751 -0.5900
 6938SOL    HW132273   2.042   2.381   8.274 -0.5983 -0.7476 -0.1584
 6938SOL    HW232274   2.018   2.243   8.235 -1.2802 -0.2680 -3.1814
 6939SOL     OW32275   3.457   3.589   1.157  0.1693 -0.2434  0.1629
 6939SOL    HW132276   3.496   3.632   1.233  0.1455 -0.2642  0.1869
 6939SOL    HW232277   3.365   3.611   1.168 -0.1317 -0.8829 -1.0563
 6940SOL     OW32278   4.368   2.530   0.908 -0.3134  0.9448 -0.3902
 6940SOL    HW132279   4.453   2.573   0.907 -0.1992  0.7450  2.2489
 6940SOL    HW232280   4.386   2.440   0.880 -0.7823  0.5341  0.6155
 6941SOL     OW32281   1.691   0.733   3.784 -0.5773 -0.1639 -0.4524
 6941SOL    HW132282   1.774   0.776   3.760 -2.3559  2.9857 -0.9843
 6941SOL    HW232283   1.702   0.656   3.839  1.6318  0.6714  0.2675
 6942SOL     OW32284   0.865   4.392  15.728  0.0139  0.3565 -0.8120
 6942SOL    HW132285   0.904   4.388  15.815 -0.6451 -0.6593 -0.5588
 6942SOL    HW232286   0.819   4.309  15.720  0.0286  0.4297 -1.7093
 6943SOL     OW32287   0.932   0.497   1.561 -0.5888  0.0578  0.7282
 6943SOL    HW132288   0.870   0.565   1.537 -2.3077 -1.5763  0.5489
 6943SOL    HW232289   0.882   0.416   1.554 -0.7262  0.2890 -0.8966
 6944SOL     OW32290   1.128   3.309   3.160  0.2198 -0.4048 -0.4717
 6944SOL    HW132291   1.059   3.268   3.108 -2.5476  4.0114 -0.2812
 6944SOL    HW232292   1.137   3.396   3.121  3.2734  0.2235  1.6696
 6945SOL     OW32293   0.407   3.182   3.985  0.1201  0.0230  0.3922
 6945SOL    HW132294   0.356   3.262   3.991 -2.3475 -1.3733 -1.8279
 6945SOL    HW232295   0.396   3.162   3.892 -1.4812  0.0537  0.5775
 6946SOL     OW32296   3.234   0.213   5.871  0.1903  0.2083 -0.0363
 6946SOL    HW132297   3.312   0.156   5.873 -0.6030 -0.8036  2.2152
 6946SOL    HW232298   3.219   0.197   5.778  1.8255  0.8098 -0.3932
 6947SOL     OW32299   0.806   2.480   6.081 -0.4871  0.3919 -0.2516
 6947SOL    HW132300   0.722   2.456   6.120 -0.0637 -1.0912 -0.2294
 6947SOL    HW232301   0.786   2.506   5.991  2.6158 -1.0745 -1.3658
 6948SOL     OW32302   3.100   1.003   5.239  0.2530  0.7294 -0.2463
 6948SOL    HW132303   3.122   1.078   5.184  2.6460 -0.4372 -0.8625
 6948SOL    HW232304   3.005   0.994   5.229  0.2061  1.8029 -0.7307
 6949SOL     OW32305   0.647   3.170   4.145  0.1597 -0.0737 -0.1989
 6949SOL    HW132306   0.553   3.158   4.130 -0.2493  1.8155  0.8476
 6949SOL    HW232307   0.653   3.239   4.212  1.6204  0.0868 -0.5060
 6950SOL     OW32308   0.709   1.543  13.989  0.5721 -0.4504  0.2508
 6950SOL    HW132309   0.678   1.611  13.930  0.7961 -1.6758 -1.2723
 6950SOL    HW232310   0.792   1.515  13.951  1.3688 -1.2869  2.5865
 6951SOL     OW32311   4.344   0.119   7.795 -0.6896  0.2622  0.3375
 6951SOL    HW132312   4.387   0.132   7.879 -2.5877  0.2945  1.3090
 6951SOL    HW232313   4.330   0.208   7.762  1.1769  0.3575 -0.2074
 6952SOL     OW32314   1.993   4.041  15.955  0.1376 -0.1398 -0.2386
 6952SOL    HW132315   1.974   3.983  16.029 -0.8631  1.0352  0.4218
 6952SOL    HW232316   1.906   4.064  15.925  0.3481 -0.6125 -1.1965
 6953SOL     OW32317   3.933   2.107   5.242  0.0199 -0.2783 -0.5123
 6953SOL    HW132318   3.948   2.190   5.287  0.2963  0.4128 -1.8631
 6953SOL    HW232319   4.021   2.071   5.240  0.3819  0.4011  2.7271
 6954SOL     OW32320   4.356   1.446   2.860 -0.5779  0.2291  0.2098
 6954SOL    HW132321   4.399   1.523   2.898 -0.7757 -0.1147  1.1294
 6954SOL    HW232322   4.293   1.487   2.801  0.4016 -1.8651 -2.2902
 6955SOL     OW32323   3.666   1.677   8.744  0.6564 -0.2310 -0.7102
 6955SOL    HW132324   3.686   1.742   8.676 -0.7134  0.3486 -0.5718
 6955SOL    HW232325   3.573   1.699   8.743  0.5895 -0.5937 -1.8622
 6956SOL     OW32326   2.032   0.770   6.472  0.1774 -0.0466 -0.3017
 6956SOL    HW132327   2.109   0.716   6.454  0.9349  1.2857 -1.0586
 6956SOL    HW232328   2.058   0.860   6.457  0.6694 -0.1984 -0.3711
 6957SOL     OW32329   2.452   1.055   0.350 -0.1707 -0.2709  0.6500
 6957SOL    HW132330   2.382   0.997   0.320  0.7973  0.6050 -3.2942
 6957SOL    HW232331   2.528   1.007   0.317 -1.0597 -1.0906 -0.2193
 6958SOL     OW32332   1.308   2.580   4.639  0.0989  0.1262  0.0151
 6958SOL    HW132333   1.265   2.498   4.666  1.0700 -0.0369  1.0583
 6958SOL    HW232334   1.236   2.643   4.644  1.0928  1.1595  1.3972
 6959SOL     OW32335   1.335   4.158  13.054 -0.8302 -0.0545  0.3485
 6959SOL    HW132336   1.386   4.078  13.039  0.3617  0.5598  1.0664
 6959SOL    HW232337   1.402   4.207  13.102  0.5594 -0.2145 -1.4209
 6960SOL     OW32338   3.065   4.110   9.768  0.6100  0.3049  0.0211
 6960SOL    HW132339   3.110   4.171   9.708 -0.0567 -2.1262 -2.9518
 6960SOL    HW232340   2.987   4.088   9.718  1.1965  0.0769 -0.7972
 6961SOL     OW32341   1.105   1.240  17.327 -0.5457 -0.8287  0.3119
 6961SOL    HW132342   1.161   1.282  17.393 -0.0828 -0.2577 -0.4478
 6961SOL    HW232343   1.172   1.213  17.265 -2.5319 -1.2921 -1.6115
 6962SOL     OW32344   0.589   1.857   5.735  0.3819 -0.1885  0.5318
 6962SOL    HW132345   0.504   1.814   5.737  1.3356 -2.1717 -1.6931
 6962SOL    HW232346   0.596   1.882   5.827 -0.5586  2.1192 -0.0404
 6963SOL     OW32347   1.285   2.327  10.437  0.3565 -0.1085  0.0604
 6963SOL    HW132348   1.282   2.374  10.353 -0.6689 -0.3738 -0.0522
 6963SOL    HW232349   1.200   2.284  10.445 -0.1318  0.5374 -1.5021
 6964SOL     OW32350   1.060   3.377  16.592  0.1339  0.6910 -0.7545
 6964SOL    HW132351   1.086   3.295  16.550  0.7894 -1.2430  3.3755
 6964SOL    HW232352   0.978   3.392  16.546 -0.6294  0.8976  0.6513
 6965SOL     OW32353   3.488   0.005   4.442  0.6682  0.0527 -0.1789
 6965SOL    HW132354   3.458   4.640   4.471 -0.1977  0.6194  0.6150
 6965SOL    HW232355   3.444   0.024   4.359  1.4375  2.0896 -0.1237
 6966SOL     OW32356   4.409   2.183   1.369 -0.4969  0.3606 -0.0558
 6966SOL    HW132357   4.453   2.143   1.294  0.3144  1.4530 -0.1694
 6966SOL    HW232358   4.448   2.138   1.444 -0.5461 -0.1053 -0.3103
 6967SOL     OW32359   1.694   2.964  11.893 -0.3280 -0.5032  0.5498
 6967SOL    HW132360   1.629   3.010  11.841  0.1297 -0.3973  0.0661
 6967SOL    HW232361   1.719   2.885  11.845 -1.1244  0.2133 -1.0549
 6968SOL     OW32362   0.408   3.398   6.993  0.0000  0.1702 -0.2473
 6968SOL    HW132363   0.383   3.489   6.983 -0.1557  0.3969  2.3145
 6968SOL    HW232364   0.396   3.397   7.088 -0.7169  2.1827 -0.3317
 6969SOL     OW32365   2.654   0.230   2.653  0.5197  0.0296  0.2300
 6969SOL    HW132366   2.632   0.305   2.597 -0.8212 -1.1334 -0.7689
 6969SOL    HW232367   2.738   0.208   2.613  0.4530  1.1956 -0.5465
 6970SOL     OW32368   1.162   4.269   1.587 -1.1215  0.7600 -0.8467
 6970SOL    HW132369   1.115   4.322   1.651  0.3577  0.7609  0.2319
 6970SOL    HW232370   1.185   4.339   1.525 -1.2627  0.6412 -1.0319
 6971SOL     OW32371   3.393   3.364   8.225  0.6259 -0.0269  0.3324
 6971SOL    HW132372   3.363   3.408   8.305  0.7569  0.5150  0.0822
 6971SOL    HW232373   3.475   3.331   8.263  0.5101  2.6224  2.9089
 6972SOL     OW32374   4.153   4.166   3.114  0.2020 -0.3931  0.2448
 6972SOL    HW132375   4.148   4.261   3.123  1.6887 -0.4059  1.0892
 6972SOL    HW232376   4.201   4.138   3.191 -0.3904 -1.1959  0.3150
 6973SOL     OW32377   2.095   1.578   5.090 -0.2724  0.1199  0.5762
 6973SOL    HW132378   2.167   1.546   5.035 -0.4819 -0.9058  0.8993
 6973SOL    HW232379   2.126   1.668   5.099  0.2572  0.0213 -0.2052
 6974SOL     OW32380   2.791   3.253  15.420  0.0492 -0.1405  0.6406
 6974SOL    HW132381   2.763   3.329  15.369  0.9708 -1.1087 -1.3331
 6974SOL    HW232382   2.882   3.246  15.390  0.5503  0.8818  1.9242
 6975SOL     OW32383   0.491   2.216   8.999 -0.9472 -0.3881  0.0482
 6975SOL    HW132384   0.448   2.146   8.950 -1.0799 -0.2813  0.0136
 6975SOL    HW232385   0.422   2.220   9.065 -1.1073 -1.8331 -0.0320
 6976SOL     OW32386   1.122   1.351   4.969  0.4341 -0.5371  0.4894
 6976SOL    HW132387   1.206   1.395   4.953  1.8764 -2.1932  3.5436
 6976SOL    HW232388   1.132   1.271   4.917 -1.6917 -0.1440 -0.5425
 6977SOL     OW32389   4.250   3.595  11.582 -0.3026 -0.1061  0.2833
 6977SOL    HW132390   4.303   3.529  11.625  0.2896  0.3271  0.2177
 6977SOL    HW232391   4.159   3.571  11.599 -0.4004  1.1558  1.5059
 6978SOL     OW32392   4.632   0.440   7.833  0.3597  0.0487 -0.3683
 6978SOL    HW132393   4.548   0.420   7.791 -0.6780  1.4288  1.0201
 6978SOL    HW232394   4.619   0.407   7.922  1.8131 -1.3173 -0.6707
 6979SOL     OW32395   2.404   2.276  14.175  0.2970  0.0453  0.0293
 6979SOL    HW132396   2.449   2.257  14.257 -0.8492 -1.6510  0.2519
 6979SOL    HW232397   2.476   2.314  14.124  0.7965  0.6615  1.1935
 6980SOL     OW32398   0.505   0.380   2.431  0.9302 -0.1598  0.0033
 6980SOL    HW132399   0.548   0.409   2.512  2.2965  2.2262 -1.5735
 6980SOL    HW232400   0.421   0.345   2.460  1.4250 -1.6361 -0.3479
 6981SOL     OW32401   2.000   1.752  11.686 -0.3972  1.0116 -0.4520
 6981SOL    HW132402   1.906   1.749  11.705 -0.3673 -0.8849 -0.5479
 6981SOL    HW232403   2.038   1.783  11.768  0.5797 -2.3153  0.3596
 6982SOL     OW32404   1.279   2.074  16.095 -0.4069 -0.2561  0.0701
 6982SOL    HW132405   1.317   2.123  16.168 -0.5791  0.1191 -0.0926
 6982SOL    HW232406   1.321   2.105  16.014  3.7897 -1.4570  1.7526
 6983SOL     OW32407   0.061   2.301  10.078  0.1826  0.4216  0.2011
 6983SOL    HW132408   0.038   2.210  10.060  1.3021  0.4186 -1.2041
 6983SOL    HW232409   0.104   2.321   9.995 -0.0600  3.0077  0.6914
 6984SOL     OW32410   1.978   3.990  17.569 -0.5940 -0.1123  0.1096
 6984SOL    HW132411   1.966   3.904  17.529  1.8037  0.2637 -1.4211
 6984SOL    HW232412   1.975   4.050  17.495  1.5396 -1.2370 -0.8891
 6985SOL     OW32413   4.398   0.151   3.377  0.3544 -0.2120 -0.2980
 6985SOL    HW132414   4.445   0.190   3.303 -0.4163 -0.4387 -0.9068
 6985SOL    HW232415   4.320   0.122   3.330 -0.8569 -1.0830  2.2566
 6986SOL     OW32416   1.237   3.609  16.354  0.5283  0.0258  0.0786
 6986SOL    HW132417   1.190   3.684  16.318  0.8276 -0.4688 -1.3675
 6986SOL    HW232418   1.261   3.661  16.430  0.1706  0.8100 -0.3515
 6987SOL     OW32419   2.437   3.402  15.149  0.2487  0.3570  0.2415
 6987SOL    HW132420   2.387   3.481  15.168 -1.7790 -1.0681  0.8021
 6987SOL    HW232421   2.463   3.420  15.058  0.7383 -3.2693 -0.3212
 6988SOL     OW32422   1.209   2.280   3.755 -0.2211  0.2871  0.0556
 6988SOL    HW132423   1.254   2.335   3.819  2.2244 -1.6591 -0.0251
 6988SOL    HW232424   1.280   2.231   3.715  0.7630  1.4685  0.3757
 6989SOL     OW32425   4.176   4.387   5.616  0.0414  0.0591 -0.0732
 6989SOL    HW132426   4.124   4.416   5.541 -0.2024  0.5466  0.2883
 6989SOL    HW232427   4.207   4.468   5.655 -0.9496 -0.3822  1.6254
 6990SOL     OW32428   0.041   2.392   7.185 -0.4700 -0.7258 -0.2783
 6990SOL    HW132429   4.691   2.413   7.247  0.5406 -0.2060  0.7139
 6990SOL    HW232430   4.719   2.375   7.101 -1.5307  0.6673 -0.0266
 6991SOL     OW32431   1.152   4.413   6.615 -0.4215 -0.0263 -0.6420
 6991SOL    HW132432   1.212   4.362   6.670 -0.2253  1.0762  0.1703
 6991SOL    HW232433   1.174   4.503   6.637 -0.4626 -0.2039  0.1300
 6992SOL     OW32434   1.697   3.713   4.146  0.5415 -0.4719  0.0117
 6992SOL    HW132435   1.654   3.633   4.117 -0.8431  0.8487 -1.5646
 6992SOL    HW232436   1.740   3.741   4.065  0.6386  0.3808  0.3465
 6993SOL     OW32437   0.926   1.483   2.581  0.3513 -0.1666 -0.4047
 6993SOL    HW132438   0.835   1.483   2.552 -0.2326  3.2532  1.5185
 6993SOL    HW232439   0.903   1.522   2.665  0.5176 -1.2171  0.1304
 6994SOL     OW32440   2.715   2.262  10.486 -0.1989  0.0867 -0.3970
 6994SOL    HW132441   2.639   2.217  10.449  1.5137 -2.4095 -0.8589
 6994SOL    HW232442   2.692   2.261  10.579 -0.4685 -3.4674 -0.4951
 6995SOL     OW32443   3.565   0.311  16.114 -0.0113  0.1375  0.2321
 6995SOL    HW132444   3.521   0.226  16.111 -0.1875  0.2453 -0.2296
 6995SOL    HW232445   3.611   0.306  16.031 -2.1916 -0.4437 -0.9404
 6996SOL     OW32446   0.116   3.670   7.924 -0.2693  0.4200 -0.0954
 6996SOL    HW132447   0.160   3.719   7.855  1.5419 -1.5187 -0.3282
 6996SOL    HW232448   0.158   3.708   8.001 -2.3950 -1.8608  2.2017
 6997SOL     OW32449   0.686   0.902   8.320 -0.2551 -0.1674  0.4003
 6997SOL    HW132450   0.772   0.933   8.350  1.0580 -2.1520 -1.2868
 6997SOL    HW232451   0.714   0.823   8.275  0.4312  0.0626  0.4097
 6998SOL     OW32452   1.449   4.095   4.385  0.3073  0.0064  0.1976
 6998SOL    HW132453   1.517   4.077   4.321 -1.7941  1.0139 -2.3641
 6998SOL    HW232454   1.483   4.099   4.474  0.3347 -0.1997  0.1964
 6999SOL     OW32455   2.856   3.984   0.164 -0.5194  0.9721  0.1665
 6999SOL    HW132456   2.855   3.901   0.115  0.2493  0.5338  0.8900
 6999SOL    HW232457   2.922   4.023   0.107 -1.2214 -0.2281 -1.4890
 7000SOL     OW32458   0.890   0.638   4.496  0.0860 -0.6354 -0.6910
 7000SOL    HW132459   0.971   0.689   4.507 -1.1197  0.5665  2.4872
 7000SOL    HW232460   0.838   0.702   4.448  0.7215 -1.0962 -1.9957
 7001SOL     OW32461   3.053   4.596   7.472  0.4389  0.5762  0.2786
 7001SOL    HW132462   3.097   4.512   7.465  1.0633  0.8555  0.8181
 7001SOL    HW232463   2.976   4.567   7.422  1.4719 -3.1632  0.8535
 7002SOL     OW32464   1.667   2.751   8.473 -0.2386 -0.0165  1.1234
 7002SOL    HW132465   1.593   2.702   8.507 -1.4433  1.5549  0.7622
 7002SOL    HW232466   1.728   2.747   8.547  1.2034  0.4822 -0.0294
 7003SOL     OW32467   1.756   3.281  15.914  0.3896  0.3089  0.3285
 7003SOL    HW132468   1.729   3.372  15.930 -2.3956 -0.6591  1.1064
 7003SOL    HW232469   1.678   3.225  15.921  0.4782  0.3453  1.7842
 7004SOL     OW32470   3.951   2.500   7.755 -0.6616  0.8759  0.1569
 7004SOL    HW132471   3.982   2.524   7.667 -2.4791  1.0977 -0.4272
 7004SOL    HW232472   3.943   2.588   7.792 -0.9165  0.2523  1.5604
 7005SOL     OW32473   4.467   4.210  16.362  0.0743 -0.2506 -0.5479
 7005SOL    HW132474   4.436   4.208  16.453  0.0517  0.3447 -0.5406
 7005SOL    HW232475   4.561   4.193  16.369 -0.1058 -0.2333  1.8807
 7006SOL     OW32476   2.031   1.409   5.306 -0.0494 -0.1880  0.3869
 7006SOL    HW132477   2.095   1.459   5.357  1.6259 -1.7856 -0.1631
 7006SOL    HW232478   2.048   1.454   5.223 -0.6472 -1.1446 -0.2537
 7007SOL     OW32479   0.813   2.030   3.255  0.5197  0.5621 -0.5286
 7007SOL    HW132480   0.860   2.096   3.306  1.3337  0.8770 -1.6955
 7007SOL    HW232481   0.882   1.967   3.233  1.2664  1.1920  0.0193
 7008SOL     OW32482   4.443   0.048   5.940  0.1767  0.2178 -0.4160
 7008SOL    HW132483   4.456   0.052   6.035  0.7129  0.9461 -0.5202
 7008SOL    HW232484   4.528   0.084   5.913  0.8376 -0.2857  0.9745
 7009SOL     OW32485   1.285   1.378   0.373  0.0039  0.0427 -0.5659
 7009SOL    HW132486   1.252   1.465   0.395 -2.7343 -1.5771  1.8281
 7009SOL    HW232487   1.201   1.332   0.387  0.2154  0.2689  1.4385
 7010SOL     OW32488   3.173   4.181   7.022  0.6785  0.2572 -0.1123
 7010SOL    HW132489   3.177   4.104   7.078 -1.1171  0.4748  0.3144
 7010SOL    HW232490   3.267   4.179   7.004  0.8814 -0.5066  1.0339
 7011SOL     OW32491   1.243   3.765  16.583  0.5036 -0.4720  0.4044
 7011SOL    HW132492   1.245   3.698  16.651  1.7143 -2.2999 -1.4308
 7011SOL    HW232493   1.337   3.775  16.566  0.5975 -2.1047 -0.0137
 7012SOL     OW32494   1.096   3.996   0.026 -0.6010  0.3560 -0.6852
 7012SOL    HW132495   1.162   3.952   0.080 -2.2219  0.8634  1.7155
 7012SOL    HW232496   1.013   3.971   0.066 -1.2291  1.0981 -1.5340
 7013SOL     OW32497   1.025   0.531   1.148 -0.4114  0.5158 -0.3455
 7013SOL    HW132498   1.074   0.496   1.222 -3.2515  0.9255  1.7607
 7013SOL    HW232499   0.985   0.606   1.193 -1.7598  1.1530 -2.5901
 7014SOL     OW32500   3.627   0.023  10.524  0.0219 -0.1817  0.4393
 7014SOL    HW132501   3.570   0.099  10.533  1.2303  0.9606 -1.4036
 7014SOL    HW232502   3.578   4.687  10.465 -1.5169  1.2344  0.3604
 7015SOL     OW32503   0.333   3.226   2.353  0.4098  0.2962 -0.8173
 7015SOL    HW132504   0.400   3.285   2.320 -0.3631  1.3147 -0.5553
 7015SOL    HW232505   0.257   3.282   2.345 -0.9157 -1.3512  0.0753
 7016SOL     OW32506   0.640   3.402  10.854  0.6552 -0.1099  0.2325
 7016SOL    HW132507   0.719   3.371  10.899  0.9250 -0.0453 -0.2023
 7016SOL    HW232508   0.611   3.324  10.807  0.0446 -0.9480  1.9830
 7017SOL     OW32509   0.923   1.776   4.152 -0.0141 -0.1347  0.1111
 7017SOL    HW132510   0.837   1.799   4.186 -0.3176 -1.7613  0.4585
 7017SOL    HW232511   0.905   1.791   4.059 -2.5672 -0.0340  0.6191
 7018SOL     OW32512   0.317   3.869   2.469 -0.8331 -0.7395 -0.4977
 7018SOL    HW132513   0.327   3.815   2.390  0.7330 -0.4250 -0.5019
 7018SOL    HW232514   0.390   3.929   2.458 -1.4115  0.6338  3.3390
 7019SOL     OW32515   2.667   0.990   3.172 -0.1976  0.0555  0.2598
 7019SOL    HW132516   2.670   1.072   3.221 -0.0231  0.3027 -0.1639
 7019SOL    HW232517   2.760   0.979   3.150 -0.1456  0.3170  0.3550
 7020SOL     OW32518   1.537   3.841  10.138  0.3820  0.2359 -0.1242
 7020SOL    HW132519   1.585   3.763  10.168  0.4896  1.3607  2.6800
 7020SOL    HW232520   1.612   3.892  10.107  0.6076 -0.7025 -1.1085
 7021SOL     OW32521   3.346   4.189   1.796 -0.0837  0.1660 -0.3982
 7021SOL    HW132522   3.259   4.159   1.823  0.8876 -2.8213 -0.6486
 7021SOL    HW232523   3.353   4.267   1.851  1.0104 -0.2353  0.0180
 7022SOL     OW32524   0.660   3.515  10.524  0.0538 -0.1802 -0.4042
 7022SOL    HW132525   0.715   3.449  10.482 -0.4038 -0.5495 -0.4186
 7022SOL    HW232526   0.623   3.472  10.601 -1.1725 -0.6693 -1.2709
 7023SOL     OW32527   2.888   4.439   9.016  0.0073  0.0596  0.1151
 7023SOL    HW132528   2.853   4.527   9.030 -1.1057 -0.6711  1.9481
 7023SOL    HW232529   2.890   4.430   8.920  1.1713 -0.2138  0.1645
 7024SOL     OW32530   2.993   1.096  17.003  0.0311 -0.3761  0.4399
 7024SOL    HW132531   3.000   1.192  17.000  1.8837 -0.5081  0.5419
 7024SOL    HW232532   2.903   1.089  16.972 -0.4168 -1.0009  1.8968
 7025SOL     OW32533   4.309   3.040   3.110  0.2874  0.0205  0.7904
 7025SOL    HW132534   4.256   3.119   3.099  1.4647  0.3975 -2.2089
 7025SOL    HW232535   4.269   3.008   3.191 -1.9549 -0.2976 -0.4461
 7026SOL     OW32536   0.322   3.823   7.720  0.3004 -0.6721  0.3605
 7026SOL    HW132537   0.354   3.856   7.804  3.3697 -1.7735 -0.3670
 7026SOL    HW232538   0.383   3.751   7.702  3.0742  1.5454  0.8843
 7027SOL     OW32539   4.275   3.420  10.213  0.1247 -0.2119  0.8017
 7027SOL    HW132540   4.327   3.348  10.177 -0.4630 -0.1781 -0.0964
 7027SOL    HW232541   4.269   3.475  10.136  0.9742 -0.4036  0.5913
 7028SOL     OW32542   2.136   1.520   8.543 -0.1617 -0.3492  0.0612
 7028SOL    HW132543   2.115   1.483   8.458 -0.3694  1.0975 -0.5206
 7028SOL    HW232544   2.062   1.578   8.563  0.9296  0.3361  2.1465
 7029SOL     OW32545   3.458   2.557   3.245  0.5518 -0.0110  0.1204
 7029SOL    HW132546   3.547   2.571   3.280  0.3281  1.1084  0.2477
 7029SOL    HW232547   3.420   2.535   3.331  1.3015 -1.4258  0.0979
 7030SOL     OW32548   0.512   2.862   8.169 -0.0333 -0.2302 -0.2764
 7030SOL    HW132549   0.469   2.793   8.118  1.6638 -1.4136 -0.0890
 7030SOL    HW232550   0.574   2.817   8.226 -1.1056  0.6265  1.5404
 7031SOL     OW32551   1.726   4.692  17.605 -0.3318  0.2482 -0.0392
 7031SOL    HW132552   1.751   0.002  17.519  0.4416  0.7380  0.3624
 7031SOL    HW232553   1.699   0.049  17.653  0.7465  0.8786 -0.4848
 7032SOL     OW32554   3.934   3.456  17.252 -0.4464  0.3252 -0.3319
 7032SOL    HW132555   3.997   3.513  17.297 -0.6479  0.5954 -0.3922
 7032SOL    HW232556   4.008   3.400  17.228 -1.1598 -0.7374 -0.0327
 7033SOL     OW32557   2.610   2.488   3.977  0.4525  0.6071  0.1893
 7033SOL    HW132558   2.520   2.473   4.008  0.8222 -3.6498 -0.7420
 7033SOL    HW232559   2.612   2.444   3.892  2.9191  1.0066  0.0683
 7034SOL     OW32560   1.781   4.474   8.250 -0.0440  0.1147  0.1418
 7034SOL    HW132561   1.807   4.485   8.158 -0.4118  0.2562  0.0559
 7034SOL    HW232562   1.838   4.527   8.306 -0.2265  0.0850  0.3528
 7035SOL     OW32563   2.704   4.501   6.451 -0.4842 -0.0165 -0.4350
 7035SOL    HW132564   2.648   4.516   6.528  1.9987 -0.7025  1.5241
 7035SOL    HW232565   2.703   4.405   6.443 -0.2079 -0.2684  2.4801
 7036SOL     OW32566   0.901   4.714  14.024 -0.1246 -0.4364 -0.0627
 7036SOL    HW132567   0.952   4.651  13.973  1.5928  2.7472 -2.2831
 7036SOL    HW232568   0.820   0.002  13.974 -0.1349 -0.7004 -0.0913
 7037SOL     OW32569   3.094   0.976  16.346  0.2177  0.6231  0.2516
 7037SOL    HW132570   3.073   1.007  16.433  2.0845 -0.3458  1.0489
 7037SOL    HW232571   3.005   0.962  16.313 -0.2070  0.9947  1.2478
 7038SOL     OW32572   0.801   1.467   7.759 -0.2570  0.4944  0.6857
 7038SOL    HW132573   0.823   1.388   7.807 -2.2387 -0.0451  0.7088
 7038SOL    HW232574   0.882   1.515   7.777  1.0314 -1.8284  1.0329
 7039SOL     OW32575   0.024   2.583  10.302  0.3676  0.0422  0.2468
 7039SOL    HW132576   4.678   2.544  10.244 -0.7393 -0.0377  1.5802
 7039SOL    HW232577   0.091   2.616  10.242 -0.4414  1.5325  0.1793
 7040SOL     OW32578   4.553   4.413   6.101  0.0787  0.0390 -0.5636
 7040SOL    HW132579   4.552   4.506   6.079 -1.2169 -0.1248 -1.1723
 7040SOL    HW232580   4.528   4.367   6.021 -1.4534  2.0176 -1.2334
 7041SOL     OW32581   2.086   2.188   5.372 -0.1463 -0.0861 -0.2730
 7041SOL    HW132582   2.130   2.106   5.350 -0.3498 -0.2201 -0.1786
 7041SOL    HW232583   2.057   2.171   5.461  1.1239  1.6866  0.4726
 7042SOL     OW32584   3.852   0.693  11.541  0.1769  0.4582  0.0898
 7042SOL    HW132585   3.772   0.734  11.507 -1.6508 -2.1812  1.2357
 7042SOL    HW232586   3.853   0.599  11.523 -0.5795  0.4360  0.1378
 7043SOL     OW32587   4.322   4.290   4.592 -0.0949 -0.2713 -0.9745
 7043SOL    HW132588   4.265   4.214   4.602 -0.4146 -0.1480 -1.8538
 7043SOL    HW232589   4.381   4.267   4.521 -0.5145  1.1692 -1.7966
 7044SOL     OW32590   0.244   1.268   7.651 -0.2633  0.5430 -0.0425
 7044SOL    HW132591   0.254   1.266   7.746  1.2913  3.1584 -0.1763
 7044SOL    HW232592   0.292   1.187   7.631 -3.2468 -0.7183 -2.1091
 7045SOL     OW32593   2.455   4.286   8.219  0.0267 -0.2239 -0.1576
 7045SOL    HW132594   2.530   4.320   8.170 -0.5477 -1.9237 -2.2764
 7045SOL    HW232595   2.490   4.198   8.230  0.3162 -0.0644  0.1854
 7046SOL     OW32596   1.666   1.659   9.957  0.4617  0.0795 -0.1669
 7046SOL    HW132597   1.693   1.652  10.048 -2.4091 -0.7614  0.6158
 7046SOL    HW232598   1.643   1.570   9.931  1.4995  0.0260 -0.9020
 7047SOL     OW32599   3.361   3.176  16.919 -0.4534 -0.4641 -0.1729
 7047SOL    HW132600   3.397   3.265  16.913 -0.2324 -0.4607  1.1692
 7047SOL    HW232601   3.310   3.184  17.000  1.2099 -0.1982  0.8454
 7048SOL     OW32602   0.426   1.267   3.595 -0.0283 -0.3904  0.2398
 7048SOL    HW132603   0.407   1.176   3.619  0.5663 -0.9686 -1.5031
 7048SOL    HW232604   0.510   1.241   3.557  1.1393  1.5692  1.4659
 7049SOL     OW32605   2.744   1.346   6.089  0.1182  0.1045 -0.0586
 7049SOL    HW132606   2.742   1.287   6.164 -1.0269  0.3590  0.1190
 7049SOL    HW232607   2.713   1.289   6.018 -0.0669  0.7798 -0.5173
 7050SOL     OW32608   0.558   0.784   8.880  0.6091 -0.2283  0.4451
 7050SOL    HW132609   0.636   0.840   8.874  0.9586 -0.6302  1.1919
 7050SOL    HW232610   0.570   0.742   8.795  2.2073 -1.0332  1.0717
 7051SOL     OW32611   1.442   4.521   5.172  0.2810  0.4765 -0.3224
 7051SOL    HW132612   1.407   4.598   5.216  0.0670  0.3040 -0.1938
 7051SOL    HW232613   1.537   4.537   5.180  0.4414 -0.2281 -0.8339
 7052SOL     OW32614   2.705   1.079   0.965  0.6613 -0.5375  1.0831
 7052SOL    HW132615   2.798   1.075   0.944  0.6348  1.4321  0.6441
 7052SOL    HW232616   2.661   1.085   0.880  1.2059  2.6055  1.0419
 7053SOL     OW32617   4.590   4.549   3.237  0.1458  0.2758  0.7026
 7053SOL    HW132618   4.654   4.558   3.166 -0.5580  0.0386  0.0459
 7053SOL    HW232619   4.621   4.617   3.297  0.2311  1.2360 -0.4373
 7054SOL     OW32620   2.779   0.597   1.208 -0.1544  0.3006 -0.2422
 7054SOL    HW132621   2.794   0.553   1.292 -0.8605  2.1803  0.8713
 7054SOL    HW232622   2.752   0.681   1.245 -1.4771 -0.4354  0.4572
 7055SOL     OW32623   2.301   1.784  17.151 -0.1002  0.8667  0.5251
 7055SOL    HW132624   2.393   1.786  17.128 -0.4507 -1.2600 -0.9952
 7055SOL    HW232625   2.284   1.878  17.165 -1.7545  0.8011 -1.0002
 7056SOL     OW32626   2.520   1.601   2.296 -0.5599 -0.5248  0.3584
 7056SOL    HW132627   2.443   1.572   2.346  0.6507  0.3259  2.7072
 7056SOL    HW232628   2.542   1.682   2.341  0.2651 -0.6270  0.1385
 7057SOL     OW32629   2.823   1.941  10.986 -1.0782 -0.2150 -0.5561
 7057SOL    HW132630   2.884   1.876  10.952  0.9654  0.5556  1.6338
 7057SOL    HW232631   2.821   1.920  11.080 -0.8287 -0.9188 -0.7091
 7058SOL     OW32632   1.002   4.628  15.605  0.6453 -0.4512 -0.5145
 7058SOL    HW132633   0.917   4.634  15.648 -0.0531  0.8078 -2.0741
 7058SOL    HW232634   0.997   4.695  15.536 -0.5040 -1.4670 -1.4005
 7059SOL     OW32635   3.916   3.132   5.700 -0.2250  0.0100 -0.6746
 7059SOL    HW132636   3.968   3.137   5.619 -1.2061  0.6964 -1.2645
 7059SOL    HW232637   3.903   3.038   5.712 -1.0458  0.0881 -0.9436
 7060SOL     OW32638   3.735   2.474   7.115  0.0476  0.3594 -0.2262
 7060SOL    HW132639   3.706   2.564   7.098 -1.0172 -0.0172 -0.4337
 7060SOL    HW232640   3.826   2.483   7.088 -0.1391  1.3011 -0.5758
 7061SOL     OW32641   3.318   3.123   5.757 -0.1374 -0.3520  0.3934
 7061SOL    HW132642   3.355   3.053   5.811 -1.9242 -0.6030  1.2828
 7061SOL    HW232643   3.385   3.127   5.689  0.7598 -1.7054  1.2022
 7062SOL     OW32644   2.138   2.500  15.964 -0.1140 -0.4271 -0.2917
 7062SOL    HW132645   2.070   2.472  16.026 -1.2355  1.7497 -0.5311
 7062SOL    HW232646   2.205   2.545  16.017 -0.6711  0.0931 -0.0219
 7063SOL     OW32647   1.321   2.032   3.956 -0.0661 -0.1284 -0.1441
 7063SOL    HW132648   1.405   2.005   3.918  0.4535  1.5533 -0.1983
 7063SOL    HW232649   1.271   1.951   3.947  1.6158 -1.0180 -1.4023
 7064SOL     OW32650   4.046   4.536   9.054 -0.0499  0.0630 -0.8201
 7064SOL    HW132651   3.972   4.566   9.108  0.8524  1.2668 -0.2603
 7064SOL    HW232652   4.121   4.573   9.101 -1.0892  0.8603  0.2222
 7065SOL     OW32653   1.732   3.019  11.048 -0.0209  0.0530 -0.0030
 7065SOL    HW132654   1.808   3.077  11.043  0.5015 -0.6556 -0.3129
 7065SOL    HW232655   1.674   3.048  10.978 -1.3544 -1.1837  0.5992
 7066SOL     OW32656   0.400   2.153   5.291  0.1538 -0.0720  0.0399
 7066SOL    HW132657   0.353   2.168   5.372 -0.3276  3.2207 -0.8438
 7066SOL    HW232658   0.479   2.114   5.328  0.4237 -0.5351 -1.0019
 7067SOL     OW32659   2.126   3.682   7.274 -0.1902 -0.0522  0.2886
 7067SOL    HW132660   2.120   3.685   7.178 -1.8030 -2.0416  0.3383
 7067SOL    HW232661   2.102   3.775   7.278 -0.7794 -0.3167  2.4805
 7068SOL     OW32662   4.558   3.822   4.739 -0.0854  0.2762  0.0900
 7068SOL    HW132663   4.515   3.842   4.823 -0.6785  0.4718 -0.2543
 7068SOL    HW232664   4.558   3.908   4.697  0.1997  0.3884  0.3230
 7069SOL     OW32665   3.851   3.134   4.664  0.4726  0.3419  0.4692
 7069SOL    HW132666   3.864   3.214   4.715  2.9820  0.7828 -0.8125
 7069SOL    HW232667   3.919   3.143   4.597 -0.7525 -1.9213 -1.0685
 7070SOL     OW32668   3.804   0.383   4.475 -0.0669 -0.3040 -0.3483
 7070SOL    HW132669   3.845   0.300   4.449 -1.3689 -1.0720  0.0602
 7070SOL    HW232670   3.882   0.438   4.476 -0.2022 -0.1289  0.4514
 7071SOL     OW32671   4.702   2.855   4.496  1.1964 -0.6368 -0.5988
 7071SOL    HW132672   4.716   2.873   4.403 -0.6540 -0.6015 -0.8739
 7071SOL    HW232673   4.671   2.765   4.487 -0.6894 -0.1709  1.1112
 7072SOL     OW32674   1.750   0.521   8.409  0.3596  0.3810 -0.4148
 7072SOL    HW132675   1.741   0.425   8.407 -1.4419  0.5507 -0.4434
 7072SOL    HW232676   1.710   0.546   8.326 -2.4087  1.2455  1.1800
 7073SOL     OW32677   3.776   4.279  17.065 -0.0634 -0.1995 -0.1666
 7073SOL    HW132678   3.746   4.292  16.975  0.0883 -0.9188 -0.3224
 7073SOL    HW232679   3.793   4.372  17.079 -0.0173 -0.1837 -0.3276
 7074SOL     OW32680   2.996   2.334   2.319 -0.3027 -0.1786 -0.3248
 7074SOL    HW132681   2.969   2.274   2.389 -1.3258  0.8213  0.1406
 7074SOL    HW232682   2.936   2.406   2.338  2.2926  1.7911  0.3457
 7075SOL     OW32683   2.487   2.919   8.591  0.1596  0.5917  0.1401
 7075SOL    HW132684   2.430   2.894   8.519 -0.7518  0.7637  0.7982
 7075SOL    HW232685   2.533   2.994   8.554  3.8093 -2.0460 -0.7150
 7076SOL     OW32686   1.491   1.642  13.519 -0.2906 -0.0517 -0.3485
 7076SOL    HW132687   1.532   1.728  13.530  1.4280 -0.7546 -1.2068
 7076SOL    HW232688   1.566   1.588  13.548 -1.3946 -2.0046 -1.1199
 7077SOL     OW32689   3.481   4.238  13.258  0.0236  0.5336  0.1848
 7077SOL    HW132690   3.486   4.329  13.229 -1.4283  0.8062  0.8156
 7077SOL    HW232691   3.393   4.219  13.227  0.6133 -0.6921 -0.7611
 7078SOL     OW32692   0.842   2.092   3.964 -0.3095  0.1113  0.3368
 7078SOL    HW132693   0.875   2.095   4.054  2.2017 -0.0417 -0.6013
 7078SOL    HW232694   0.842   1.999   3.944 -0.0972  0.1454  0.1801
 7079SOL     OW32695   1.193   3.658   5.160  0.2129  0.1160 -0.2267
 7079SOL    HW132696   1.213   3.735   5.106  1.2832  0.2182  0.3174
 7079SOL    HW232697   1.098   3.663   5.172  0.0308 -2.7232 -0.6087
 7080SOL     OW32698   2.147   0.003   3.902  0.2346 -0.3707  0.0313
 7080SOL    HW132699   2.195   4.650   3.864  0.2844 -0.6617  0.6759
 7080SOL    HW232700   2.109   4.690   3.982  2.4182 -1.6522  0.5337
 7081SOL     OW32701   0.715   3.967  17.284 -0.1402  0.3397 -0.1895
 7081SOL    HW132702   0.718   3.938  17.375 -1.8683 -1.2920 -0.6569
 7081SOL    HW232703   0.805   3.990  17.261  0.3065  0.5673  1.7653
 7082SOL     OW32704   2.001   2.325   9.394  0.0373 -0.0837 -0.3794
 7082SOL    HW132705   1.959   2.396   9.442  2.6203  0.9314  0.4082
 7082SOL    HW232706   2.085   2.359   9.363  0.5168 -1.8025 -0.9673
 7083SOL     OW32707   0.320   2.796   7.845 -1.2145 -0.5692  0.0178
 7083SOL    HW132708   0.366   2.743   7.909  0.6563  0.1542 -0.7487
 7083SOL    HW232709   0.375   2.768   7.772 -1.0930  2.2311 -0.9451
 7084SOL     OW32710   4.519   4.481   0.973 -0.3768  0.3589  0.2389
 7084SOL    HW132711   4.435   4.506   0.934 -1.9528 -2.4376  1.8530
 7084SOL    HW232712   4.558   4.444   0.894 -1.0465 -0.3412  0.2358
 7085SOL     OW32713   1.111   4.056   9.610 -0.1834  0.3231  0.5581
 7085SOL    HW132714   1.071   3.972   9.589 -1.2467  1.2292 -1.0302
 7085SOL    HW232715   1.185   4.044   9.551  0.4628 -0.9498  1.6354
 7086SOL     OW32716   0.676   1.806   6.792 -0.1540  0.2862 -0.0802
 7086SOL    HW132717   0.640   1.732   6.840 -0.8118  1.1953  0.8396
 7086SOL    HW232718   0.597   1.854   6.766 -0.4733 -0.3800 -0.3352
 7087SOL     OW32719   3.190   3.147   1.342  0.2299  0.2227  0.0922
 7087SOL    HW132720   3.221   3.134   1.431  1.2527 -0.0912 -0.3064
 7087SOL    HW232721   3.197   3.242   1.330  0.5500  0.1782 -0.0842
 7088SOL     OW32722   3.104   3.720   3.743  0.4538 -0.5753 -0.3159
 7088SOL    HW132723   3.089   3.800   3.693 -1.2448 -1.0442 -0.5264
 7088SOL    HW232724   3.018   3.678   3.741  0.2002 -0.0377 -0.6458
 7089SOL     OW32725   1.605   3.494   6.055 -0.5817 -0.3821 -0.0760
 7089SOL    HW132726   1.546   3.431   6.014 -0.1060  0.2351 -1.7139
 7089SOL    HW232727   1.680   3.441   6.080 -1.9572 -1.0158  2.6452
 7090SOL     OW32728   2.468   0.876   2.174 -0.3902  0.1655  0.1220
 7090SOL    HW132729   2.406   0.900   2.105  0.7177 -1.3693 -1.4346
 7090SOL    HW232730   2.457   0.951   2.232  0.0327  0.8438 -0.6687
 7091SOL     OW32731   4.488   4.225   5.859 -0.1102 -0.0654 -0.2250
 7091SOL    HW132732   4.414   4.271   5.819 -0.7497  0.2011  1.2720
 7091SOL    HW232733   4.445   4.173   5.927  1.6697 -0.4389  0.6169
 7092SOL     OW32734   2.292   1.853   3.693  0.6676 -0.3060  0.1957
 7092SOL    HW132735   2.351   1.874   3.766  0.1037 -1.3426  0.9647
 7092SOL    HW232736   2.322   1.909   3.622  2.0740 -0.2134  0.8597
 7093SOL     OW32737   3.380   1.977  16.059 -0.7100  0.6112 -0.3715
 7093SOL    HW132738   3.362   2.070  16.073 -0.7250  0.6598 -0.7146
 7093SOL    HW232739   3.462   1.972  16.010 -1.0701  0.0577 -0.9240
 7094SOL     OW32740   0.024   2.221   1.564 -0.7131 -0.0139  0.3488
 7094SOL    HW132741   4.689   2.148   1.589 -2.9927  1.6377  0.1089
 7094SOL    HW232742   4.700   2.286   1.617  1.3846  0.0628  2.0004
 7095SOL     OW32743   0.475   4.650   4.814  0.3148 -0.5084 -0.0632
 7095SOL    HW132744   0.393   4.689   4.783  0.5462  0.2407  0.2636
 7095SOL    HW232745   0.529   4.658   4.736 -0.0576  2.7536  0.0085
 7096SOL     OW32746   0.487   0.361   5.066 -0.3089  0.0009 -0.0708
 7096SOL    HW132747   0.520   0.286   5.018 -0.0005 -0.0730  0.2656
 7096SOL    HW232748   0.545   0.342   5.139 -1.5594  3.9800  1.9694
 7097SOL     OW32749   3.554   4.477   4.285  0.1033  0.2954 -0.2088
 7097SOL    HW132750   3.627   4.505   4.231 -0.0913 -1.6166 -1.4438
 7097SOL    HW232751   3.509   4.412   4.232 -0.6378  2.4414 -2.2298
 7098SOL     OW32752   3.695   4.074  11.156  0.1428  0.2765 -0.3104
 7098SOL    HW132753   3.718   4.157  11.199  1.3603 -0.3851  0.3106
 7098SOL    HW232754   3.778   4.026  11.161  0.7066  1.2670  0.0279
 7099SOL     OW32755   0.794   2.202   6.919 -0.0829  0.5385  0.0832
 7099SOL    HW132756   0.765   2.115   6.947 -0.8337 -0.5869 -4.1986
 7099SOL    HW232757   0.711   2.225   6.877  0.1123  0.8672 -0.1214
 7100SOL     OW32758   1.870   1.817   7.550  0.2334  0.1740 -0.6071
 7100SOL    HW132759   1.847   1.866   7.630  2.3210  0.9260 -0.4819
 7100SOL    HW232760   1.855   1.724   7.570  0.5915  0.0658 -0.8500
 7101SOL     OW32761   3.225   4.035  17.288 -0.5511 -0.0412  0.2557
 7101SOL    HW132762   3.319   4.025  17.303 -0.0932  0.7664 -2.1947
 7101SOL    HW232763   3.210   3.954  17.238 -0.6500  0.1816 -0.0731
 7102SOL     OW32764   3.665   2.751   8.947  0.0218  0.8358 -0.5930
 7102SOL    HW132765   3.760   2.746   8.963  0.0791  0.5405 -1.0289
 7102SOL    HW232766   3.640   2.670   8.903 -2.7502  0.9277  0.7984
 7103SOL     OW32767   2.254   1.484   1.097 -0.0081  0.3185 -0.5192
 7103SOL    HW132768   2.203   1.419   1.145  1.3798  1.0303  1.9211
 7103SOL    HW232769   2.323   1.423   1.072 -1.0434 -0.8592 -0.5261
 7104SOL     OW32770   3.038   2.831  12.823 -0.1303 -0.0373  0.0473
 7104SOL    HW132771   3.088   2.815  12.904  1.2621 -1.3215 -1.0656
 7104SOL    HW232772   2.973   2.762  12.832 -0.5584  0.1258 -1.8528
 7105SOL     OW32773   3.112   3.092  14.505  0.0522 -0.3403 -0.0115
 7105SOL    HW132774   3.103   3.185  14.529  0.5178 -1.0102  2.8084
 7105SOL    HW232775   3.121   3.047  14.589 -0.0071 -1.1804 -0.4549
 7106SOL     OW32776   0.864   2.016   8.929  0.4927  0.4073 -0.1638
 7106SOL    HW132777   0.873   2.030   9.023  2.3474  0.2504 -0.3239
 7106SOL    HW232778   0.792   1.953   8.923 -0.1214  1.0674  0.3493
 7107SOL     OW32779   0.970   0.874   5.266 -0.5804 -0.5165 -0.1319
 7107SOL    HW132780   1.029   0.815   5.312 -0.0483  1.0188  1.1526
 7107SOL    HW232781   1.033   0.924   5.214  0.0182  0.5383  1.6081
 7108SOL     OW32782   4.336   1.073   6.252  0.3616 -0.4122  0.0389
 7108SOL    HW132783   4.387   1.150   6.227 -3.0078  1.6541 -0.4935
 7108SOL    HW232784   4.277   1.106   6.319  0.6363 -0.5717  0.3557
 7109SOL     OW32785   2.605   1.662   4.833  0.2673 -0.0711 -0.0314
 7109SOL    HW132786   2.551   1.617   4.898  0.7469 -0.5498  0.0379
 7109SOL    HW232787   2.647   1.583   4.799  1.0523  0.2888  0.1151
 7110SOL     OW32788   0.941   1.293   5.903  0.0378 -0.3032  0.7473
 7110SOL    HW132789   0.971   1.350   5.832 -2.0517  0.1326  0.2233
 7110SOL    HW232790   0.988   1.210   5.892 -0.8890 -1.1554  3.1782
 7111SOL     OW32791   1.428   2.993   3.474 -0.1069  0.6932  0.1968
 7111SOL    HW132792   1.511   3.035   3.450  0.1409  0.1053  0.0225
 7111SOL    HW232793   1.373   3.036   3.410 -1.6666 -0.3467  0.8476
 7112SOL     OW32794   3.230   2.514  13.797  0.1166  0.0658  0.2066
 7112SOL    HW132795   3.248   2.538  13.887  0.1674 -1.2030  0.5340
 7112SOL    HW232796   3.317   2.539  13.766 -0.5738  0.5229 -1.3729
 7113SOL     OW32797   0.949   1.841  10.186 -0.0529  0.3742  0.1614
 7113SOL    HW132798   1.040   1.826  10.211 -0.0216 -0.1766 -0.2879
 7113SOL    HW232799   0.966   1.904  10.115  0.9414  1.4774  1.3757
 7114SOL     OW32800   4.221   1.521   4.322 -0.1363 -0.1544 -0.0269
 7114SOL    HW132801   4.194   1.431   4.338 -1.3644  0.3074  0.5770
 7114SOL    HW232802   4.161   1.564   4.384  0.4014  0.9844 -0.2894
 7115SOL     OW32803   2.096   4.068   5.166  0.4620  0.1426  0.4788
 7115SOL    HW132804   2.041   4.138   5.201 -2.5154 -0.1687 -3.5329
 7115SOL    HW232805   2.113   4.017   5.245 -0.4136 -0.8262  0.0423
 7116SOL     OW32806   2.385   0.817   7.968  0.3686  0.4564 -0.0261
 7116SOL    HW132807   2.354   0.818   8.059 -1.2773  1.4444 -0.5921
 7116SOL    HW232808   2.330   0.884   7.926  0.3372  0.9441  0.7981
 7117SOL     OW32809   4.375   0.819   5.694  0.1570 -0.1198  0.0142
 7117SOL    HW132810   4.295   0.837   5.744 -0.7443  1.9959 -2.2127
 7117SOL    HW232811   4.416   0.904   5.711 -0.7475  0.0366  1.3996
 7118SOL     OW32812   0.257   3.800   6.219 -0.6801 -0.0120 -0.1651
 7118SOL    HW132813   0.323   3.868   6.203  0.0645 -0.7910 -0.4150
 7118SOL    HW232814   0.230   3.773   6.132  0.6656  0.6687 -0.7959
 7119SOL     OW32815   1.297   2.319   5.645 -0.5831 -0.2262 -0.2016
 7119SOL    HW132816   1.351   2.282   5.714  0.0768  2.2736  0.6373
 7119SOL    HW232817   1.269   2.240   5.599 -0.5587  0.0614 -0.7093
 7120SOL     OW32818   0.731   4.713   4.193  0.1312 -0.1008 -0.2190
 7120SOL    HW132819   0.697   0.029   4.274 -2.0604 -1.5340 -0.4861
 7120SOL    HW232820   0.650   4.675   4.159 -0.1688  0.6133 -0.2965
 7121SOL     OW32821   1.896   0.308   3.714 -0.2163 -0.0842  0.0948
 7121SOL    HW132822   1.903   0.309   3.810  3.0803  0.1029 -0.1707
 7121SOL    HW232823   1.905   0.215   3.692  0.2701 -0.1124  0.4087
 7122SOL     OW32824   2.734   1.399  14.615 -0.1217  0.2461 -0.4126
 7122SOL    HW132825   2.829   1.396  14.617 -0.1140  0.4208 -0.5655
 7122SOL    HW232826   2.717   1.371  14.525  2.2908  1.1209 -1.1351
 7123SOL     OW32827   0.678   0.103   1.913  0.1304  0.0943 -0.4196
 7123SOL    HW132828   0.673   0.017   1.955 -1.3456 -1.3492 -3.5717
 7123SOL    HW232829   0.608   0.151   1.956  1.8079  0.7179  1.6084
 7124SOL     OW32830   0.927   0.873   7.243 -0.2108  0.1807  0.1472
 7124SOL    HW132831   0.992   0.869   7.312 -1.7766 -0.2598  1.6032
 7124SOL    HW232832   0.974   0.922   7.176 -1.6856 -0.2488 -1.2082
 7125SOL     OW32833   4.009   2.088   6.869  0.2328 -0.0864 -0.1743
 7125SOL    HW132834   4.003   2.183   6.878 -2.9305 -0.2156 -1.2590
 7125SOL    HW232835   3.916   2.069   6.866  0.2004 -0.1927  1.2428
 7126SOL     OW32836   4.103   1.127  12.058  0.1580  0.0292  0.6170
 7126SOL    HW132837   4.064   1.213  12.046  0.1725 -0.0211  0.2062
 7126SOL    HW232838   4.158   1.128  11.980 -1.5128 -0.9041 -0.5722
 7127SOL     OW32839   1.638   3.217   4.778 -0.3047  0.8280 -0.7104
 7127SOL    HW132840   1.712   3.233   4.837  0.7285  1.3189 -2.1184
 7127SOL    HW232841   1.672   3.146   4.724  0.0317  1.0718 -0.8204
 7128SOL     OW32842   1.048   2.106  16.696  0.2933 -0.7661  0.6812
 7128SOL    HW132843   1.025   2.197  16.710  1.3499 -0.4291  0.2358
 7128SOL    HW232844   0.971   2.062  16.730 -0.6243 -0.3421 -0.8389
 7129SOL     OW32845   1.246   0.371   4.977 -0.3655 -0.9618  0.0125
 7129SOL    HW132846   1.275   0.416   5.057 -1.1134  0.1982 -0.3611
 7129SOL    HW232847   1.173   0.324   5.018  0.5755 -1.7767  0.7425
 7130SOL     OW32848   2.515   4.202   9.699  0.0744  0.4937 -0.1553
 7130SOL    HW132849   2.482   4.186   9.611 -0.9062  0.7904  0.1520
 7130SOL    HW232850   2.437   4.200   9.754  1.1415 -3.1813  1.2161
 7131SOL     OW32851   1.000   0.316   5.124  0.1639  0.3901 -0.1466
 7131SOL    HW132852   0.967   0.355   5.205  0.0611 -1.8381  0.8923
 7131SOL    HW232853   1.012   0.227   5.157 -0.5380  0.0309 -0.8598
 7132SOL     OW32854   2.679   0.424   2.269 -0.1617 -0.3004  0.0247
 7132SOL    HW132855   2.617   0.376   2.325 -2.4791  1.9249 -0.6208
 7132SOL    HW232856   2.631   0.505   2.251  0.4116 -0.0947 -0.5688
 7133SOL     OW32857   4.339   1.165  15.002 -0.9909 -0.0090  1.0238
 7133SOL    HW132858   4.376   1.253  15.001 -0.6005 -0.1648  1.4266
 7133SOL    HW232859   4.281   1.166  15.078 -0.6956 -2.3729  1.2722
 7134SOL     OW32860   3.252   3.533   4.416  0.5542 -0.1925 -0.4126
 7134SOL    HW132861   3.196   3.590   4.469 -0.0301 -1.6616  0.5509
 7134SOL    HW232862   3.186   3.487   4.364 -0.2270  3.7520 -2.8388
 7135SOL     OW32863   2.344   0.732   8.500 -0.3862 -0.7618  0.5212
 7135SOL    HW132864   2.372   0.779   8.422  1.5553 -0.2938  1.4932
 7135SOL    HW232865   2.254   0.758   8.518 -0.1239 -1.3977  2.7582
 7136SOL     OW32866   0.871   1.850   8.211  0.1447  0.4458  0.6465
 7136SOL    HW132867   0.935   1.868   8.280  0.5377  2.4423 -0.2551
 7136SOL    HW232868   0.790   1.861   8.261  1.0131  2.4840  1.6374
 7137SOL     OW32869   0.476   0.556   4.886  0.4438 -0.4998 -0.7283
 7137SOL    HW132870   0.485   0.488   4.953 -0.6754  0.0897  0.0187
 7137SOL    HW232871   0.436   0.625   4.939 -0.3582 -1.5227  0.0033
 7138SOL     OW32872   3.860   4.527   8.690 -0.7523 -0.4295  0.0205
 7138SOL    HW132873   3.883   4.458   8.628  1.8709  0.7549 -0.2826
 7138SOL    HW232874   3.847   4.468   8.765 -0.8669  0.4526  0.6883
 7139SOL     OW32875   2.180   4.358   8.176 -0.0409 -0.1128  0.1197
 7139SOL    HW132876   2.274   4.346   8.190 -0.4745  1.4532  4.2831
 7139SOL    HW232877   2.171   4.450   8.154  0.1821  0.2023  1.3546
 7140SOL     OW32878   3.613   4.159  11.685 -0.0846 -0.2829  0.0916
 7140SOL    HW132879   3.584   4.237  11.637 -1.2768 -2.7765 -3.2379
 7140SOL    HW232880   3.677   4.127  11.621  1.7378  1.8847  0.8340
 7141SOL     OW32881   3.486   3.091   4.649 -0.0713  0.4506  0.6638
 7141SOL    HW132882   3.440   3.159   4.598 -1.6787 -1.3905 -0.3337
 7141SOL    HW232883   3.531   3.142   4.716 -0.2962  0.9283  0.4528
 7142SOL     OW32884   3.204   4.165  13.146 -0.5160 -0.4290 -0.3374
 7142SOL    HW132885   3.234   4.113  13.220 -2.8369 -1.9260 -0.4529
 7142SOL    HW232886   3.110   4.147  13.149 -0.4697 -0.6370 -0.1252
 7143SOL     OW32887   2.423   4.322   4.900 -0.3761  0.0753 -0.1143
 7143SOL    HW132888   2.374   4.243   4.925 -2.6529  1.1235 -1.3170
 7143SOL    HW232889   2.485   4.300   4.830 -0.3489 -0.3098  0.0303
 7144SOL     OW32890   4.287   4.543   7.421 -0.4569  0.1807 -0.6152
 7144SOL    HW132891   4.319   4.572   7.506  1.4421 -1.6558 -0.7025
 7144SOL    HW232892   4.271   4.449   7.433 -1.2965  0.6296  1.7961
 7145SOL     OW32893   1.187   2.881   2.277 -0.0680  0.3372 -0.6432
 7145SOL    HW132894   1.209   2.892   2.185 -0.3823 -0.4939 -0.8146
 7145SOL    HW232895   1.279   2.882   2.306  0.0181 -1.8141 -0.8620
 7146SOL     OW32896   1.001   3.208   4.232  0.2508  0.0963  0.1478
 7146SOL    HW132897   0.983   3.301   4.215 -1.5135 -0.4376 -0.7928
 7146SOL    HW232898   1.095   3.220   4.250 -0.1861  0.6810  1.9717
 7147SOL     OW32899   2.618   3.273  11.637 -0.0222  0.2655 -0.1357
 7147SOL    HW132900   2.523   3.260  11.646  0.5025 -1.4287  3.2602
 7147SOL    HW232901   2.621   3.349  11.579 -2.1195 -0.8696 -1.7084
 7148SOL     OW32902   0.758   1.602  10.211 -0.0397  0.4508  0.3610
 7148SOL    HW132903   0.798   1.548  10.144  0.1892  0.1660  0.7249
 7148SOL    HW232904   0.793   1.689  10.193  1.1512  0.1909  1.4367
 7149SOL     OW32905   0.957   2.063  12.526 -0.3367  0.3507 -0.0020
 7149SOL    HW132906   0.995   2.141  12.565  1.0745  0.1985 -1.0824
 7149SOL    HW232907   0.921   2.017  12.602  1.0402 -0.3028  0.2488
 7150SOL     OW32908   2.393   3.871   6.275  0.0661  0.5796 -0.2682
 7150SOL    HW132909   2.408   3.800   6.338  0.9871  1.0944  0.0817
 7150SOL    HW232910   2.483   3.901   6.284  0.7404 -1.7999  1.0928
 7151SOL     OW32911   4.223   4.232  12.027 -0.3816  0.6698 -0.0647
 7151SOL    HW132912   4.187   4.193  12.107 -1.5206 -1.0558 -1.4314
 7151SOL    HW232913   4.256   4.316  12.061 -0.0888  0.2921  0.5741
 7152SOL     OW32914   0.147   4.507   0.893  0.1582 -0.4572 -0.2504
 7152SOL    HW132915   0.223   4.493   0.837  0.9948 -0.3431  0.8415
 7152SOL    HW232916   0.082   4.516   0.823 -0.5004 -0.6818  0.3303
 7153SOL     OW32917   3.592   1.339   1.858 -0.4268  0.0131  0.0268
 7153SOL    HW132918   3.563   1.337   1.766 -0.6046  0.5497  0.0729
 7153SOL    HW232919   3.661   1.273   1.864 -0.5028 -0.1087 -0.3655
 7154SOL     OW32920   0.044   0.939   3.478 -0.1309  0.1070  0.3853
 7154SOL    HW132921   4.704   0.979   3.416  0.5054  0.9566  0.3022
 7154SOL    HW232922   0.066   0.857   3.434  2.8430  0.2318  1.6829
 7155SOL     OW32923   1.564   1.477  16.410  0.0266  0.3533  0.2095
 7155SOL    HW132924   1.607   1.559  16.434  0.5975  0.4083 -1.0002
 7155SOL    HW232925   1.483   1.515  16.376  0.1739  0.7187  0.2734
 7156SOL     OW32926   3.939   0.569   2.263 -0.0223 -0.4723 -0.5100
 7156SOL    HW132927   3.978   0.495   2.310 -0.2377  0.4724  1.1490
 7156SOL    HW232928   3.898   0.523   2.190 -0.9471 -0.7372  0.1863
 7157SOL     OW32929   0.465   3.934   6.126 -0.5014  0.1736  0.5698
 7157SOL    HW132930   0.484   4.006   6.187 -1.2591 -0.5670  1.6967
 7157SOL    HW232931   0.518   3.955   6.050 -2.6066  0.7325 -0.7492
 7158SOL     OW32932   2.082   2.303   7.162  0.2880 -0.2214 -0.1244
 7158SOL    HW132933   2.093   2.286   7.256  0.3379 -0.6525 -0.2074
 7158SOL    HW232934   2.173   2.312   7.135  0.2236  0.6503 -0.0452
 7159SOL     OW32935   4.260   2.887   7.887 -0.5879 -0.9311  0.1499
 7159SOL    HW132936   4.335   2.877   7.945 -0.9641 -0.4929  0.7101
 7159SOL    HW232937   4.229   2.800   7.913  1.1710 -0.9628  2.1253
 7160SOL     OW32938   2.951   3.608   7.397  0.0991  0.0431 -0.4587
 7160SOL    HW132939   2.875   3.607   7.455  0.8353  0.2474  0.5165
 7160SOL    HW232940   3.022   3.598   7.461 -1.1813 -1.4530  0.7216
 7161SOL     OW32941   1.187   1.652   7.965  0.0320  0.8317 -0.0698
 7161SOL    HW132942   1.134   1.613   8.034 -0.0024  1.1643  0.0899
 7161SOL    HW232943   1.200   1.570   7.916  0.8992  1.2908 -0.6123
 7162SOL     OW32944   2.686   3.731   7.683 -0.0948  0.2981  0.1292
 7162SOL    HW132945   2.599   3.730   7.641  0.1542  3.4314 -0.4743
 7162SOL    HW232946   2.715   3.646   7.651  2.0228  0.6609  1.0932
 7163SOL     OW32947   4.247   0.679   5.152 -0.2357  0.0292  0.4416
 7163SOL    HW132948   4.192   0.682   5.230  1.8066 -1.7937  1.9392
 7163SOL    HW232949   4.271   0.768   5.124 -1.2566  0.4313  0.8540
 7164SOL     OW32950   3.898   2.843   5.719  0.2115  0.0510  0.2874
 7164SOL    HW132951   3.903   2.795   5.802  0.4376  0.9334  0.7831
 7164SOL    HW232952   3.872   2.775   5.657  3.2865 -0.1289 -0.7810
 7165SOL     OW32953   3.389   0.055   7.348  0.3604  0.3381 -0.2160
 7165SOL    HW132954   3.477   0.021   7.332  2.5896  5.7320  0.6445
 7165SOL    HW232955   3.363   0.015   7.431  0.5908 -0.1037 -0.3544
 7166SOL     OW32956   2.219   0.564   3.101 -0.7773 -0.0821  0.2287
 7166SOL    HW132957   2.289   0.500   3.086  0.5237  1.4053 -0.0002
 7166SOL    HW232958   2.226   0.584   3.195  2.2571  2.2248 -0.4955
 7167SOL     OW32959   3.053   1.649   9.247  0.0279  0.0326  0.2634
 7167SOL    HW132960   3.035   1.628   9.339 -3.6821 -1.6435 -0.8739
 7167SOL    HW232961   2.961   1.637   9.222  0.3744 -0.7507 -0.5946
 7168SOL     OW32962   0.122   1.164   9.083 -0.3146  0.4841 -0.0063
 7168SOL    HW132963   0.152   1.248   9.119  1.7043 -0.6832  1.0292
 7168SOL    HW232964   0.092   1.206   9.003 -2.8812 -0.2186  0.5640
 7169SOL     OW32965   3.146   0.790   9.256  0.0774  0.2573 -0.3667
 7169SOL    HW132966   3.055   0.763   9.244  0.1093 -0.2252  0.4519
 7169SOL    HW232967   3.146   0.867   9.199 -0.5645 -0.8347 -1.8498
 7170SOL     OW32968   2.164   0.627  12.263 -0.2872  0.1693  0.1485
 7170SOL    HW132969   2.069   0.618  12.275 -0.5657  3.3418  0.4491
 7170SOL    HW232970   2.162   0.594  12.173  0.7702  1.3685 -0.3156
 7171SOL     OW32971   1.349   0.440   9.281 -0.3767 -0.0150  0.5507
 7171SOL    HW132972   1.283   0.412   9.344 -1.7874 -0.1231 -0.9669
 7171SOL    HW232973   1.411   0.498   9.326 -3.6370  0.8881  3.7919
 7172SOL     OW32974   2.839   3.326   5.327 -0.1474 -0.2121 -0.7375
 7172SOL    HW132975   2.752   3.341   5.363 -0.3169 -0.3763 -1.0781
 7172SOL    HW232976   2.832   3.245   5.277  4.5939 -1.0289 -0.1129
 7173SOL     OW32977   0.124   3.055   8.581  0.0349  0.1675  0.1339
 7173SOL    HW132978   0.043   3.106   8.574 -0.7610 -1.1796 -0.4875
 7173SOL    HW232979   0.188   3.126   8.570  1.0543 -0.7396  0.2413
 7174SOL     OW32980   2.758   1.941   8.616  0.1300  0.1354 -0.3701
 7174SOL    HW132981   2.708   1.999   8.672 -0.6305 -0.3173 -0.5849
 7174SOL    HW232982   2.797   2.013   8.567  1.9434 -1.5925 -1.4879
 7175SOL     OW32983   0.428   0.189   4.099  0.4355 -0.3310  0.2614
 7175SOL    HW132984   0.470   0.106   4.119  0.7286  0.1718  1.7138
 7175SOL    HW232985   0.346   0.158   4.061  0.9921 -1.9325  0.3625
 7176SOL     OW32986   4.395   3.050   6.705  0.1910  0.0366  0.5838
 7176SOL    HW132987   4.377   3.142   6.722  1.5485  0.2946  0.5736
 7176SOL    HW232988   4.449   3.059   6.627 -0.4384  0.9537  0.2582
 7177SOL     OW32989   2.486   4.196   5.825 -0.6302  0.3071 -0.1377
 7177SOL    HW132990   2.528   4.269   5.781  0.2935  0.1578  0.4998
 7177SOL    HW232991   2.557   4.137   5.853 -0.8019  0.3015  0.2954
 7178SOL     OW32992   2.963   4.269  16.581 -0.2263 -0.3149  0.2922
 7178SOL    HW132993   3.037   4.256  16.641 -0.2457  1.2055  0.6399
 7178SOL    HW232994   2.955   4.364  16.589  0.2393 -0.1027 -1.8050
 7179SOL     OW32995   1.626   2.298  16.527  0.1242  0.1575 -0.4046
 7179SOL    HW132996   1.566   2.359  16.571  0.7816  2.2196 -2.3799
 7179SOL    HW232997   1.647   2.236  16.597 -1.9542 -1.4830 -1.2227
 7180SOL     OW32998   3.678   3.905   9.118  0.4494  0.2343  0.1190
 7180SOL    HW132999   3.681   3.951   9.202 -0.4258 -1.0712  0.8662
 7180SOL    HW233000   3.592   3.862   9.118 -0.2416  1.6326  2.1897
 7181SOL     OW33001   3.643   2.089  13.868 -0.0908  0.1209 -0.0420
 7181SOL    HW133002   3.616   1.998  13.879 -0.7556  0.4479  1.0281
 7181SOL    HW233003   3.599   2.118  13.788 -0.1948 -0.5638 -0.2273
 7182SOL     OW33004   3.305   1.816   3.818  0.0308  0.2489 -0.3986
 7182SOL    HW133005   3.334   1.768   3.740  2.1207 -1.7835  1.6448
 7182SOL    HW233006   3.347   1.777   3.894 -0.2734 -0.9827 -0.8685
 7183SOL     OW33007   3.072   3.927  12.521  0.1722 -0.9454  0.3777
 7183SOL    HW133008   3.016   4.001  12.545 -0.5005 -1.5237  0.6175
 7183SOL    HW233009   3.131   3.977  12.466  0.7405 -1.4446  0.5345
 7184SOL     OW33010   1.284   0.461   0.134  0.5711  0.6227  0.1956
 7184SOL    HW133011   1.304   0.553   0.115 -0.5616  0.3748 -2.0967
 7184SOL    HW233012   1.330   0.449   0.218  1.1811 -0.1361 -0.2494
 7185SOL     OW33013   1.737   0.811   3.098 -0.1348  0.4375  0.3170
 7185SOL    HW133014   1.772   0.898   3.117 -0.8404  0.5800  0.9973
 7185SOL    HW233015   1.741   0.812   3.003 -1.1240 -1.5878  0.2606
 7186SOL     OW33016   2.709   3.623   5.244 -0.2096 -0.1224 -0.1059
 7186SOL    HW133017   2.757   3.575   5.176  0.0307  1.3920 -1.0046
 7186SOL    HW233018   2.666   3.554   5.293  0.5192 -1.9991 -2.1072
 7187SOL     OW33019   3.116   4.459   6.632 -0.0864  0.0062  0.3051
 7187SOL    HW133020   3.156   4.501   6.708 -0.8115  0.6758  0.3117
 7187SOL    HW233021   3.053   4.398   6.670 -0.9463 -0.4832 -1.8658
 7188SOL     OW33022   2.494   2.963   2.888  0.2329 -0.0277  0.3277
 7188SOL    HW133023   2.549   2.918   2.952 -0.0455 -0.2434  0.4162
 7188SOL    HW233024   2.438   3.010   2.949 -1.4940 -0.1235 -1.1782
 7189SOL     OW33025   0.113   4.459   8.481  0.3238 -0.6383 -0.3525
 7189SOL    HW133026   0.032   4.432   8.525  0.1519 -0.0106 -0.2874
 7189SOL    HW233027   0.142   4.505   8.560  1.6116 -1.2760 -0.4469
 7190SOL     OW33028   4.502   1.549  12.032 -0.2599  0.3501  0.2220
 7190SOL    HW133029   4.421   1.515  11.994  0.1012  1.2925 -1.3968
 7190SOL    HW233030   4.505   1.639  11.999  1.1285 -0.8270 -2.8991
 7191SOL     OW33031   2.720   1.357  16.887  0.4838  0.0213 -0.0074
 7191SOL    HW133032   2.797   1.357  16.944 -0.4623 -1.9081  1.2581
 7191SOL    HW233033   2.652   1.387  16.946 -2.3410 -0.5353 -2.9718
 7192SOL     OW33034   2.907   1.963   1.211 -0.1040  0.2056 -0.1329
 7192SOL    HW133035   2.870   1.876   1.205  3.6215 -1.4809  1.0183
 7192SOL    HW233036   2.925   1.983   1.119  0.9804 -4.1277 -0.8406
 7193SOL     OW33037   3.943   3.519   8.199 -0.1778 -0.8887  0.0347
 7193SOL    HW133038   3.976   3.548   8.284 -0.3373  0.6973 -0.4434
 7193SOL    HW233039   3.896   3.597   8.171 -0.0971 -0.6435  0.5750
 7194SOL     OW33040   4.490   4.420   1.230 -0.2269 -0.8535  0.7276
 7194SOL    HW133041   4.544   4.482   1.278 -0.7152  1.4916 -1.7273
 7194SOL    HW233042   4.494   4.450   1.139 -1.1013  1.7599  1.5621
 7195SOL     OW33043   0.958   4.427   1.110  0.6542  0.0824 -0.1222
 7195SOL    HW133044   1.024   4.383   1.056  0.4447 -0.4549  0.0591
 7195SOL    HW233045   0.998   4.512   1.129 -1.2187  1.2846 -1.6209
 7196SOL     OW33046   4.496   4.564   3.656 -0.8714 -0.0029 -0.1768
 7196SOL    HW133047   4.507   4.476   3.620 -0.1707 -0.4345  1.0952
 7196SOL    HW233048   4.490   4.547   3.751 -0.3726 -2.7930 -0.6201
 7197SOL     OW33049   4.277   2.867   4.626 -0.2267 -0.0716  0.8525
 7197SOL    HW133050   4.268   2.948   4.575 -0.9426 -0.0929  0.9498
 7197SOL    HW233051   4.305   2.806   4.558 -1.1291 -0.9589  1.2732
 7198SOL     OW33052   2.336   3.865   3.648 -0.2060 -0.2726 -0.5378
 7198SOL    HW133053   2.431   3.864   3.638 -0.1301 -0.5317  0.2099
 7198SOL    HW233054   2.313   3.778   3.613  0.7208 -1.2115  1.1932
 7199SOL     OW33055   1.071   1.972  10.589  0.0638 -0.1732  1.1511
 7199SOL    HW133056   1.156   2.011  10.609  0.5093  0.1775 -1.3473
 7199SOL    HW233057   1.018   2.015  10.656  0.2184  0.9754  0.5527
 7200SOL     OW33058   2.073   1.917  16.892 -0.2785 -0.2279  0.7376
 7200SOL    HW133059   2.051   1.853  16.825  0.0883 -0.6562  1.0277
 7200SOL    HW233060   2.162   1.935  16.860  0.2381 -0.3525  2.0916
 7201SOL     OW33061   4.061   3.998   9.654  0.7766 -0.2435 -0.3923
 7201SOL    HW133062   4.044   3.944   9.576 -0.1350  2.8146 -2.3155
 7201SOL    HW233063   4.009   4.076   9.632  1.5774  0.6726  0.9626
 7202SOL     OW33064   2.425   0.965   4.601  0.2754 -0.1329  0.2005
 7202SOL    HW133065   2.437   0.897   4.667 -0.8907 -0.3300  0.2013
 7202SOL    HW233066   2.475   1.036   4.641  1.0235 -0.0115 -0.9444
 7203SOL     OW33067   3.832   1.409   6.154 -0.0794 -0.0473 -0.3825
 7203SOL    HW133068   3.756   1.398   6.211 -0.9121  0.6992 -1.3377
 7203SOL    HW233069   3.897   1.429   6.220 -1.4095  1.0395  0.6025
 7204SOL     OW33070   1.286   1.872   7.520  0.6552  0.7895 -0.2465
 7204SOL    HW133071   1.349   1.855   7.590  1.1863 -1.2224 -1.2041
 7204SOL    HW233072   1.346   1.904   7.454  0.9515  1.0769  0.1632
 7205SOL     OW33073   2.238   0.014   2.618  0.5199 -0.6639 -0.5244
 7205SOL    HW133074   2.307   0.043   2.678 -0.8384 -1.7636  1.5670
 7205SOL    HW233075   2.184   0.093   2.623 -1.4571 -1.9404 -1.3825
 7206SOL     OW33076   0.794   4.026  16.556  0.4174 -0.2348  0.8201
 7206SOL    HW133077   0.879   3.982  16.563  2.3014  3.0052 -2.0364
 7206SOL    HW233078   0.730   3.991  16.618 -2.4386 -0.6478 -2.3732
 7207SOL     OW33079   2.421   2.271   2.096  0.7082  0.3258 -0.1052
 7207SOL    HW133080   2.454   2.311   2.016  0.9644  0.0878 -0.1165
 7207SOL    HW233081   2.375   2.350   2.123 -1.3076 -0.9044  0.0799
 7208SOL     OW33082   0.358   2.287   4.260 -0.3074 -0.0013  0.2544
 7208SOL    HW133083   0.387   2.293   4.351  0.3961  0.9260 -0.0246
 7208SOL    HW233084   0.415   2.354   4.224 -0.9124 -0.4824 -1.5934
 7209SOL     OW33085   0.809   1.782   4.957 -0.0839  0.1971 -0.3681
 7209SOL    HW133086   0.821   1.693   4.992  1.6556 -0.8475 -3.5659
 7209SOL    HW233087   0.735   1.815   5.006 -0.1384  1.5356 -1.3459
 7210SOL     OW33088   3.949   2.050   3.064  0.5063 -0.4934  0.2524
 7210SOL    HW133089   4.003   2.075   2.989  0.8980 -1.9226  0.0580
 7210SOL    HW233090   3.874   2.011   3.019 -2.1509  2.0866  2.3439
 7211SOL     OW33091   0.565   3.688  14.044  0.0140  0.3343 -0.0075
 7211SOL    HW133092   0.626   3.616  14.060 -0.9004 -0.4531 -0.0466
 7211SOL    HW233093   0.590   3.748  14.114  1.6383  0.1104 -0.3989
 7212SOL     OW33094   2.558   2.917   6.962  0.7685 -0.0715  0.4228
 7212SOL    HW133095   2.526   3.007   6.973  1.3810  0.1327  0.5697
 7212SOL    HW233096   2.561   2.907   6.867 -0.8284  3.1343  0.0299
 7213SOL     OW33097   3.840   3.092  13.521 -0.0431  0.1049  0.1062
 7213SOL    HW133098   3.817   3.080  13.429 -0.5018  1.1109  0.0866
 7213SOL    HW233099   3.762   3.109  13.573  0.1369  1.0384  0.0747
 7214SOL     OW33100   3.891   1.404   4.496 -0.3887 -0.5557  0.4474
 7214SOL    HW133101   3.801   1.372   4.487  0.0623 -1.2457 -1.7168
 7214SOL    HW233102   3.905   1.384   4.588  0.8763 -1.3567  0.0762
 7215SOL     OW33103   1.876   2.115   8.538 -0.2083 -0.1675  0.6272
 7215SOL    HW133104   1.867   2.085   8.629 -0.8239  0.5847  0.8202
 7215SOL    HW233105   1.827   2.197   8.540 -0.3950 -0.2046 -3.0118
 7216SOL     OW33106   4.616   2.936   9.386 -0.3939  0.6329 -0.6892
 7216SOL    HW133107   4.698   2.976   9.414  0.0309 -1.2603  0.7259
 7216SOL    HW233108   4.600   2.981   9.303 -1.9611  0.4904 -0.4532
 7217SOL     OW33109   2.892   0.073  16.469  0.3830 -0.4237  0.2733
 7217SOL    HW133110   2.822   0.088  16.406 -0.6425 -2.1652  1.0022
 7217SOL    HW233111   2.969   0.084  16.413  0.1439 -1.0911 -0.1741
 7218SOL     OW33112   3.371   4.068   9.393 -0.1282  0.3605  0.2169
 7218SOL    HW133113   3.281   4.046   9.370  0.8985 -0.2978 -3.0983
 7218SOL    HW233114   3.389   3.992   9.448  1.5579 -0.8452 -1.9957
 7219SOL     OW33115   3.336   3.206  12.250 -0.0764 -0.7016 -0.4893
 7219SOL    HW133116   3.330   3.259  12.170  1.0115  0.9296  0.5131
 7219SOL    HW233117   3.240   3.202  12.254  0.0471 -1.9476  1.1697
 7220SOL     OW33118   0.913   1.500   5.534 -0.0740  0.4002 -0.0564
 7220SOL    HW133119   0.907   1.519   5.441  0.2618  0.1056 -0.1402
 7220SOL    HW233120   0.904   1.586   5.577 -1.6493  0.0205  0.3525
 7221SOL     OW33121   2.125   3.975  11.291 -0.5853 -0.3861 -0.0209
 7221SOL    HW133122   2.075   4.023  11.226 -0.2658 -0.0982 -0.0558
 7221SOL    HW233123   2.212   3.963  11.252 -0.8209  0.2994 -0.7362
 7222SOL     OW33124   0.892   0.344   3.346 -0.6873 -0.4772 -0.0975
 7222SOL    HW133125   0.966   0.381   3.298 -0.8321 -0.4765 -0.3183
 7222SOL    HW233126   0.929   0.315   3.430 -0.0503 -0.1888 -0.2741
 7223SOL     OW33127   0.480   2.205   1.900  0.3643 -0.4873  0.4531
 7223SOL    HW133128   0.405   2.197   1.841  1.1605  0.8896 -0.7468
 7223SOL    HW233129   0.485   2.117   1.937  1.3463 -0.3402  0.6871
 7224SOL     OW33130   0.606   3.792   3.856 -0.1391 -0.0796  0.0399
 7224SOL    HW133131   0.627   3.804   3.763  0.1507  2.9430  0.4924
 7224SOL    HW233132   0.686   3.832   3.890  0.2942 -1.8386  1.0510
 7225SOL     OW33133   0.046   0.636   4.759  0.4986  0.1724  0.2446
 7225SOL    HW133134   0.092   0.553   4.770 -0.9354 -0.6024  0.4563
 7225SOL    HW233135   4.694   0.629   4.820  1.6444 -2.3831  1.2981
 7226SOL     OW33136   0.046   2.709   9.529 -0.0292  0.0997  0.0584
 7226SOL    HW133137   0.073   2.746   9.445  2.4407  0.1278  0.8534
 7226SOL    HW233138   4.709   2.777   9.562  0.0589  0.3555 -0.3173
 7227SOL     OW33139   1.868   2.637   7.344 -0.3138  0.4993 -0.3753
 7227SOL    HW133140   1.885   2.615   7.252 -0.1609 -2.1466  0.2878
 7227SOL    HW233141   1.930   2.579   7.389 -0.2890  0.1037 -0.9128
 7228SOL     OW33142   1.165   1.395   7.878  0.2930 -0.7650  0.2255
 7228SOL    HW133143   1.161   1.382   7.783 -0.5217  1.3693 -0.0212
 7228SOL    HW233144   1.178   1.302   7.898  1.7099 -0.5659  0.2808
 7229SOL     OW33145   2.765   0.909   4.294 -0.0887  0.1066  0.0982
 7229SOL    HW133146   2.791   0.824   4.260  0.1321  0.6841 -1.1767
 7229SOL    HW233147   2.770   0.963   4.215 -0.6395  1.4724  0.9956
 7230SOL     OW33148   1.337   2.359  12.603  0.1113 -0.1980 -0.6152
 7230SOL    HW133149   1.420   2.320  12.630 -0.5147 -2.4763 -1.9886
 7230SOL    HW233150   1.344   2.343  12.509  0.2828  1.6403 -0.9165
 7231SOL     OW33151   4.542   2.422   9.677  0.5173 -0.0341 -0.1148
 7231SOL    HW133152   4.579   2.341   9.643  1.7498  0.9709 -1.1549
 7231SOL    HW233153   4.473   2.382   9.730  1.0199 -0.8774 -0.1119
 7232SOL     OW33154   3.888   2.901   4.029  0.0455  0.0079  0.2254
 7232SOL    HW133155   3.961   2.962   4.019 -0.3797  0.2675 -1.2941
 7232SOL    HW233156   3.926   2.834   4.086  0.2677  0.4927  0.6542
 7233SOL     OW33157   0.462   1.804  15.784 -0.0589 -0.0198  0.4815
 7233SOL    HW133158   0.433   1.753  15.859 -0.8057 -2.5413 -1.5265
 7233SOL    HW233159   0.556   1.789  15.781  0.1805  1.5197 -0.1646
 7234SOL     OW33160   0.778   1.501   7.285 -0.9145 -0.5870  0.2501
 7234SOL    HW133161   0.820   1.508   7.370 -0.6684 -2.8118  0.2908
 7234SOL    HW233162   0.751   1.593   7.273  1.3356 -0.0066 -0.2730
 7235SOL     OW33163   0.875   3.736   4.680 -0.2510  0.1833  0.1805
 7235SOL    HW133164   0.902   3.827   4.694 -0.9757  0.7182 -1.9634
 7235SOL    HW233165   0.886   3.734   4.585 -3.0682  0.4860 -0.1713
 7236SOL     OW33166   3.747   0.220   3.249 -0.0201 -0.3017  0.6600
 7236SOL    HW133167   3.747   0.252   3.158 -0.0718 -0.1102  0.7278
 7236SOL    HW233168   3.807   0.146   3.243  0.5847  0.2475 -0.1965
 7237SOL     OW33169   3.774   2.052   9.160 -0.2624 -0.5260 -0.1973
 7237SOL    HW133170   3.762   2.035   9.066  0.6010  2.1386 -0.7859
 7237SOL    HW233171   3.863   2.018   9.166 -0.6181 -1.0628  1.9983
 7238SOL     OW33172   2.813   2.283  10.102  0.4565 -0.6330 -0.3502
 7238SOL    HW133173   2.879   2.321  10.160 -2.7921  0.4552  2.6494
 7238SOL    HW233174   2.753   2.239  10.163 -0.0237 -0.1387 -0.4602
 7239SOL     OW33175   3.833   4.385   9.250  0.2613 -0.0777  0.0269
 7239SOL    HW133176   3.770   4.343   9.192 -1.4625  2.5082  0.0228
 7239SOL    HW233177   3.905   4.322   9.248  1.4668  1.2634  0.9945
 7240SOL     OW33178   1.051   2.474   7.987  0.4245  0.3162 -0.0171
 7240SOL    HW133179   1.115   2.404   7.998  0.0955  0.0322  0.0781
 7240SOL    HW233180   1.093   2.520   7.914  1.6930  1.3878  1.3900
 7241SOL     OW33181   0.914   4.699   3.310  0.3358  0.2712 -0.2129
 7241SOL    HW133182   0.923   4.608   3.339 -0.2320 -0.1086 -1.2290
 7241SOL    HW233183   0.875   4.688   3.223  0.9731  2.8207 -0.8104
 7242SOL     OW33184   0.073   4.107   0.192  0.0252  0.2127 -0.1930
 7242SOL    HW133185   0.142   4.141   0.250 -0.0455 -1.7012  1.0150
 7242SOL    HW233186   0.069   4.015   0.219  1.5112 -0.1749 -1.3404
 7243SOL     OW33187   0.474   4.198   7.985 -0.1787  0.0993 -0.7948
 7243SOL    HW133188   0.484   4.213   8.079 -1.1952 -2.0061 -0.3557
 7243SOL    HW233189   0.381   4.178   7.982 -0.4535  1.3657 -0.6831
 7244SOL     OW33190   1.988   1.104   6.413  0.4745  0.0417  0.0868
 7244SOL    HW133191   1.965   1.197   6.408 -1.9241 -0.6448 -2.1232
 7244SOL    HW233192   1.902   1.064   6.401  0.6126 -1.0964  3.0022
 7245SOL     OW33193   0.473   0.335   7.535 -0.0946  0.2868  0.0178
 7245SOL    HW133194   0.474   0.293   7.449  1.3528  0.2532  0.0563
 7245SOL    HW233195   0.516   0.417   7.510 -2.2098  1.2793 -0.3622
 7246SOL     OW33196   3.795   2.763  13.797  0.8769 -0.2207 -0.4033
 7246SOL    HW133197   3.820   2.683  13.843 -0.8119 -0.0288  0.8784
 7246SOL    HW233198   3.842   2.827  13.851  0.6886  0.5987 -1.2105
 7247SOL     OW33199   1.256   0.890   9.161  0.3192  0.1973  0.4903
 7247SOL    HW133200   1.345   0.913   9.187 -0.1668  1.1777  1.3245
 7247SOL    HW233201   1.276   0.799   9.139  0.9155  0.0838  1.4646
 7248SOL     OW33202   4.421   4.480  16.289 -0.1199  0.1730 -0.5651
 7248SOL    HW133203   4.476   4.468  16.212  0.8002  0.6473  0.0211
 7248SOL    HW233204   4.409   4.389  16.313 -0.2262  0.2144 -0.4616
 7249SOL     OW33205   2.610   0.671   4.491  0.3021 -0.9467  0.7484
 7249SOL    HW133206   2.594   0.679   4.397 -0.3535  1.0562  1.0178
 7249SOL    HW233207   2.701   0.702   4.490 -0.6478  1.8143 -2.0277
 7250SOL     OW33208   2.377   0.272  17.172 -0.2225  0.1509  0.5002
 7250SOL    HW133209   2.364   0.207  17.102  1.2573  0.4611 -0.0617
 7250SOL    HW233210   2.294   0.271  17.219  0.2433 -1.0647  1.2785
 7251SOL     OW33211   2.437   0.135   3.368 -0.0809  0.0977 -0.2791
 7251SOL    HW133212   2.446   0.122   3.274  2.0391 -0.2428 -0.0202
 7251SOL    HW233213   2.489   0.214   3.380 -0.8210  1.0388 -3.3901
 7252SOL     OW33214   0.729   3.914   8.000 -0.2886  0.7589 -0.4705
 7252SOL    HW133215   0.819   3.936   8.021 -0.7966  0.1621  2.2354
 7252SOL    HW233216   0.736   3.840   7.940  0.8035 -0.0851  0.7243
 7253SOL     OW33217   1.664   0.512   9.140 -0.1430  0.2706  0.0445
 7253SOL    HW133218   1.625   0.532   9.225 -1.1962 -0.6635 -0.2184
 7253SOL    HW233219   1.624   0.582   9.088 -2.2097 -2.0381 -1.4712
 7254SOL     OW33220   2.874   2.207   4.308  0.2530  0.4165 -0.1879
 7254SOL    HW133221   2.791   2.235   4.271  0.2778 -0.5441 -0.9691
 7254SOL    HW233222   2.869   2.213   4.403  1.1578 -1.7356  0.0077
 7255SOL     OW33223   1.350   2.022  17.326 -0.9772  0.0153  0.2781
 7255SOL    HW133224   1.407   1.991  17.255  1.3224  0.4111  1.9446
 7255SOL    HW233225   1.362   1.960  17.398 -0.5597  0.3067  0.4576
 7256SOL     OW33226   2.374   2.999  13.202 -0.0684 -0.0742  0.1789
 7256SOL    HW133227   2.430   3.077  13.200  1.8655 -1.5196 -1.6219
 7256SOL    HW233228   2.308   3.037  13.261 -0.8785 -1.2258  0.0150
 7257SOL     OW33229   1.065   3.358   8.522 -0.1190 -0.2931  0.1135
 7257SOL    HW133230   0.972   3.339   8.508 -0.3905  0.3404  1.0316
 7257SOL    HW233231   1.099   3.381   8.436 -1.8009  1.8207  0.0125
 7258SOL     OW33232   3.167   0.171  15.925  0.2069  0.4783 -0.1515
 7258SOL    HW133233   3.094   0.109  15.933  2.1419 -1.4533  2.2634
 7258SOL    HW233234   3.122   0.255  15.932  0.6598  0.7857 -0.9325
 7259SOL     OW33235   4.660   1.712   6.971  0.0390  0.0093  0.1870
 7259SOL    HW133236   0.001   1.761   7.025  1.0612 -1.7994  0.6334
 7259SOL    HW233237   4.719   1.650   6.929 -1.9066 -1.9710  0.3540
 7260SOL     OW33238   4.571   4.089   8.392  0.2087 -0.3302 -0.3333
 7260SOL    HW133239   4.494   4.032   8.401 -0.4122  0.0570 -3.5110
 7260SOL    HW233240   4.537   4.177   8.409 -1.3247 -0.9104 -0.3299
 7261SOL     OW33241   1.785   1.019   6.002 -0.6491 -0.0181 -0.6254
 7261SOL    HW133242   1.755   0.993   6.089  0.9800 -1.1520 -0.4100
 7261SOL    HW233243   1.706   1.056   5.962 -1.1928  1.7593  2.1266
 7262SOL     OW33244   3.054   4.219  17.388 -0.3558 -0.8033 -0.3859
 7262SOL    HW133245   3.012   4.154  17.444  2.2449  1.0796  3.7139
 7262SOL    HW233246   3.134   4.173  17.364 -0.5399 -0.0898 -2.3881
 7263SOL     OW33247   1.541   1.343   4.257 -0.4498 -0.1108 -0.2424
 7263SOL    HW133248   1.582   1.428   4.239  0.6451 -0.1968  1.8074
 7263SOL    HW233249   1.590   1.283   4.201 -1.4027 -2.0291  0.9733
 7264SOL     OW33250   2.841   2.141   2.737  0.3739  0.2883  0.0221
 7264SOL    HW133251   2.925   2.177   2.710  0.5181  1.2909  1.8078
 7264SOL    HW233252   2.881   2.069   2.787  0.4687 -0.1960 -0.7514
 7265SOL     OW33253   2.168   1.234   0.178  0.3408  0.0147  0.5212
 7265SOL    HW133254   2.191   1.263   0.266  2.1478 -0.4730  0.2111
 7265SOL    HW233255   2.185   1.140   0.182 -0.2251 -0.0664  1.0251
 7266SOL     OW33256   3.737   1.021   6.586 -0.4893 -0.3409 -0.2981
 7266SOL    HW133257   3.645   0.994   6.588 -0.8494  0.8495 -0.1819
 7266SOL    HW233258   3.774   0.967   6.517 -0.0314 -1.4503  0.8165
 7267SOL     OW33259   3.673   1.013   5.027  0.0073  0.1294 -0.1171
 7267SOL    HW133260   3.708   1.098   5.051  0.6401  0.2234 -1.3778
 7267SOL    HW233261   3.633   1.001   5.114  0.6636  1.1840  0.3219
 7268SOL     OW33262   3.640   2.809   3.940  0.0662  0.4891  0.4218
 7268SOL    HW133263   3.611   2.805   4.031  0.3481  0.6383  0.5186
 7268SOL    HW233264   3.731   2.823   3.965  0.5750 -0.8227 -0.7282
 7269SOL     OW33265   1.948   3.425   2.369  0.0037 -0.6185  1.0688
 7269SOL    HW133266   2.007   3.461   2.435  0.9577 -1.3060  0.5962
 7269SOL    HW233267   2.011   3.383   2.311  1.3147  2.6248  0.1612
 7270SOL     OW33268   0.260   3.388   4.053  0.1874 -0.0795  0.2625
 7270SOL    HW133269   0.318   3.444   4.001 -0.4192  0.5746  0.2863
 7270SOL    HW233270   0.261   3.440   4.134  0.4279  2.8372 -1.6137
 7271SOL     OW33271   1.665   1.042   9.413 -0.1775  0.5523  0.1666
 7271SOL    HW133272   1.632   1.049   9.503  0.5804 -2.1052  0.6854
 7271SOL    HW233273   1.698   1.128   9.389  0.7809 -0.2259 -1.2806
 7272SOL     OW33274   0.524   3.350  17.417 -0.2247  0.1651 -0.0522
 7272SOL    HW133275   0.509   3.376  17.508  0.3020  1.2993 -0.2922
 7272SOL    HW233276   0.538   3.434  17.373  1.8200 -1.0066 -1.6266
 7273SOL     OW33277   3.208   0.806  12.258  0.2744  0.2918  0.1189
 7273SOL    HW133278   3.124   0.776  12.223 -0.5434  1.1281  1.3525
 7273SOL    HW233279   3.195   0.848  12.343 -0.1718  2.9040 -1.2193
 7274SOL     OW33280   0.083   0.876   5.699  0.5984 -0.1738  0.5505
 7274SOL    HW133281   0.032   0.810   5.744 -1.0577  1.4735  1.0789
 7274SOL    HW233282   0.115   0.918   5.779 -0.1125  0.6789  0.3917
 7275SOL     OW33283   1.994   2.289  12.047  0.2795 -0.3747 -0.0344
 7275SOL    HW133284   1.971   2.207  12.004  1.2991 -0.7897  0.2182
 7275SOL    HW233285   2.004   2.262  12.138  0.7364 -1.8631 -0.5322
 7276SOL     OW33286   2.747   0.261  14.770  0.4166 -0.3750 -0.2559
 7276SOL    HW133287   2.674   0.199  14.773 -0.6322  0.7631 -2.3345
 7276SOL    HW233288   2.795   0.224  14.844 -0.8808 -0.4831  0.5444
 7277SOL     OW33289   3.313   1.469   8.768  0.0729  0.3085 -0.0889
 7277SOL    HW133290   3.231   1.480   8.720  0.1279  0.8229 -0.0657
 7277SOL    HW233291   3.339   1.561   8.766 -0.0614  0.3482 -0.0582
 7278SOL     OW33292   0.479   3.788   6.865  0.0238 -0.1698  0.9695
 7278SOL    HW133293   0.410   3.775   6.930 -1.0115  0.6005  0.0254
 7278SOL    HW233294   0.558   3.783   6.919 -0.1363 -1.4441  1.0717
 7279SOL     OW33295   0.841   1.840   2.147 -0.2344  0.6097  0.0775
 7279SOL    HW133296   0.894   1.880   2.079 -0.0571  1.7198  0.8735
 7279SOL    HW233297   0.843   1.909   2.213  0.6495  1.8459 -1.2482
 7280SOL     OW33298   0.407   0.259  11.960 -0.4339  0.5982 -0.0733
 7280SOL    HW133299   0.401   0.210  12.042  2.2040  1.6024  0.7309
 7280SOL    HW233300   0.315   0.284  11.953 -0.7198 -0.2498  0.6213
 7281SOL     OW33301   1.970   1.667  17.521  0.0657  0.3345 -0.1257
 7281SOL    HW133302   1.903   1.712  17.573 -0.0077 -0.6383  0.6064
 7281SOL    HW233303   1.990   1.593  17.578  3.3805  1.4523  0.1582
 7282SOL     OW33304   1.161   1.598   8.477 -0.5809 -0.3092  0.7966
 7282SOL    HW133305   1.214   1.528   8.515 -2.7983 -2.0892  0.5759
 7282SOL    HW233306   1.119   1.635   8.555  1.2220  1.9698  0.6992
 7283SOL     OW33307   2.239   1.341   8.725 -0.5405  0.1708 -0.1177
 7283SOL    HW133308   2.224   1.404   8.654  1.8426 -1.7692 -2.3582
 7283SOL    HW233309   2.329   1.327   8.695  0.1052 -1.4196  2.6077
 7284SOL     OW33310   3.266   1.754   3.198 -0.6781  0.4491  0.3237
 7284SOL    HW133311   3.316   1.692   3.251  0.6668  1.6385  0.4201
 7284SOL    HW233312   3.334   1.814   3.169  0.9322 -1.5230  0.0397
 7285SOL     OW33313   2.763   0.400  10.465 -0.2599  0.1497  0.0469
 7285SOL    HW133314   2.744   0.376  10.374 -1.0569 -2.2601  0.8289
 7285SOL    HW233315   2.749   0.494  10.463  0.7889  0.3123  0.4994
 7286SOL     OW33316   1.544   2.923   5.967 -0.1537  0.8481  0.1972
 7286SOL    HW133317   1.507   3.007   5.939 -0.9332  0.5701  0.3997
 7286SOL    HW233318   1.475   2.901   6.029 -1.8239  0.7349 -1.6861
 7287SOL     OW33319   2.397   1.279  10.412  0.5517 -0.0833 -0.2077
 7287SOL    HW133320   2.433   1.291  10.324  1.4976  0.8048  0.2948
 7287SOL    HW233321   2.471   1.244  10.462 -0.7130 -1.6843  0.5572
 7288SOL     OW33322   3.960   0.825   6.760  0.1204 -0.8920  0.3790
 7288SOL    HW133323   3.878   0.784   6.788 -0.7803  1.4329  1.1942
 7288SOL    HW233324   3.980   0.897   6.820 -1.7729 -0.1864  0.1746
 7289SOL     OW33325   2.405   2.652   4.445 -0.1164  0.1642 -0.0343
 7289SOL    HW133326   2.500   2.645   4.431 -0.7647 -0.4188 -4.1714
 7289SOL    HW233327   2.380   2.678   4.356  0.7165 -0.5883 -0.4857
 7290SOL     OW33328   2.299   2.120   2.410  0.0954 -0.0536  0.4011
 7290SOL    HW133329   2.246   2.142   2.332  1.3302  2.5681  0.2842
 7290SOL    HW233330   2.336   2.033   2.401 -0.2715 -0.1031 -0.6555
 7291SOL     OW33331   4.514   4.217   5.142  0.7084 -0.2473 -0.2269
 7291SOL    HW133332   4.541   4.255   5.058  0.0569 -1.0860 -0.8128
 7291SOL    HW233333   4.464   4.288   5.181  2.1380  0.2688  0.6772
 7292SOL     OW33334   0.198   1.810   7.294 -0.1741 -0.0192  0.0440
 7292SOL    HW133335   0.137   1.748   7.335  0.5821  0.7924  2.3891
 7292SOL    HW233336   0.269   1.802   7.357  2.0315 -1.3167 -2.6103
 7293SOL     OW33337   4.238   2.567   1.946  0.1862  0.2899 -0.2251
 7293SOL    HW133338   4.331   2.566   1.967  0.3289  2.4967 -0.7436
 7293SOL    HW233339   4.236   2.475   1.921  0.0675 -0.4802  2.6161
 7294SOL     OW33340   0.879   1.866   0.406 -0.2541  0.4654  0.2006
 7294SOL    HW133341   0.821   1.921   0.354 -2.4796 -2.5103 -0.4497
 7294SOL    HW233342   0.823   1.790   0.415 -0.0650  0.6329  2.6651
 7295SOL     OW33343   1.206   4.705   1.285 -0.1767 -0.1233  0.0303
 7295SOL    HW133344   1.232   4.671   1.200 -1.4791 -0.3814 -0.2578
 7295SOL    HW233345   1.293   4.714   1.324 -0.3679  1.4520  0.1108
 7296SOL     OW33346   4.123   3.272   9.104  1.0348 -0.2081  0.0518
 7296SOL    HW133347   4.054   3.220   9.146  1.4426 -0.3164  0.5872
 7296SOL    HW233348   4.206   3.226   9.115  1.0543 -0.4177 -0.9804
 7297SOL     OW33349   3.023   2.955   2.499  0.0515 -0.0378 -0.1626
 7297SOL    HW133350   2.934   2.989   2.513 -0.1233 -0.9748  1.0137
 7297SOL    HW233351   3.059   2.976   2.584 -0.3282  0.2883 -0.0812
 7298SOL     OW33352   0.469   4.094  16.272 -0.8117 -0.1930 -0.1080
 7298SOL    HW133353   0.463   4.174  16.325  0.1117 -1.4478  1.8740
 7298SOL    HW233354   0.424   4.033  16.330 -1.8215 -0.8726 -1.6083
 7299SOL     OW33355   4.013   3.777   2.368  0.2884  0.0978 -0.6350
 7299SOL    HW133356   3.963   3.695   2.370  0.5648 -0.1007 -2.0689
 7299SOL    HW233357   3.944   3.834   2.400 -0.3648 -0.6398 -0.7329
 7300SOL     OW33358   3.784   1.770   8.507  0.0670 -0.1693 -0.0438
 7300SOL    HW133359   3.833   1.690   8.528  0.8779 -0.1105 -1.6622
 7300SOL    HW233360   3.774   1.741   8.416 -0.2915 -0.9481  0.2477
 7301SOL     OW33361   3.208   1.844   7.645 -0.5529  0.5613 -0.3538
 7301SOL    HW133362   3.229   1.880   7.560 -1.2087  0.2478 -0.6535
 7301SOL    HW233363   3.272   1.886   7.701 -0.1394  2.6777 -2.4573
 7302SOL     OW33364   0.597   2.866   7.475  0.5054 -0.3590  0.5021
 7302SOL    HW133365   0.544   2.899   7.403 -0.2728 -1.5735  0.5267
 7302SOL    HW233366   0.682   2.858   7.431  0.0909 -0.1445 -0.3401
 7303SOL     OW33367   3.282   3.206   7.784 -0.6771 -0.4424 -0.8172
 7303SOL    HW133368   3.211   3.150   7.816 -0.5856  1.0058  1.8758
 7303SOL    HW233369   3.274   3.282   7.840 -1.7318 -0.5612 -0.7988
 7304SOL     OW33370   2.567   1.143   4.750  0.3343  0.0749  0.0120
 7304SOL    HW133371   2.570   1.235   4.777  1.5917 -0.0157  0.2092
 7304SOL    HW233372   2.611   1.105   4.827  1.1753  2.1775  0.5713
 7305SOL     OW33373   0.709   1.266   4.563  0.1663  1.1592  0.1530
 7305SOL    HW133374   0.632   1.209   4.565  0.5831  0.5991  0.0285
 7305SOL    HW233375   0.676   1.347   4.524 -0.2342  1.5956  1.3896
 7306SOL     OW33376   1.559   3.538   7.085  0.1174 -0.3314 -0.0303
 7306SOL    HW133377   1.609   3.530   7.166  0.5841  1.2033 -0.1554
 7306SOL    HW233378   1.479   3.580   7.115  0.4172  1.5743 -1.9095
 7307SOL     OW33379   3.484   2.777   0.203  0.4706 -0.2656  0.7661
 7307SOL    HW133380   3.440   2.800   0.285  1.6957 -0.8116  1.5781
 7307SOL    HW233381   3.545   2.710   0.233 -0.1553 -0.4822  1.5415
 7308SOL     OW33382   0.989   0.504   6.725  0.0607 -0.0414 -0.3145
 7308SOL    HW133383   0.938   0.433   6.764 -1.5422  0.9726 -0.5726
 7308SOL    HW233384   1.070   0.501   6.777 -0.9104 -1.6101  1.1205
 7309SOL     OW33385   2.818   2.670  14.579 -0.1569  0.2898 -0.0503
 7309SOL    HW133386   2.770   2.600  14.624  2.2196 -0.9259  0.5721
 7309SOL    HW233387   2.855   2.615  14.510  1.9152  1.1733  0.3851
 7310SOL     OW33388   4.357   4.278  16.589 -0.3923  0.1873 -0.7692
 7310SOL    HW133389   4.407   4.359  16.584 -0.3838  0.2852  1.0810
 7310SOL    HW233390   4.322   4.287  16.677 -0.6322 -1.0880 -0.7341
 7311SOL     OW33391   1.898   1.804   4.836 -0.0752  0.6655  0.2025
 7311SOL    HW133392   1.908   1.895   4.864 -0.8394  0.1183  2.3291
 7311SOL    HW233393   1.987   1.782   4.811 -1.0442  0.5470 -3.0719
 7312SOL     OW33394   3.285   2.956   2.873  0.1161  0.1112 -0.0563
 7312SOL    HW133395   3.200   2.999   2.863 -0.4865 -0.7642  1.2493
 7312SOL    HW233396   3.327   3.008   2.942  1.4680 -1.0481  0.0060
 7313SOL     OW33397   3.700   0.190   9.529 -0.3527  0.1264  0.1712
 7313SOL    HW133398   3.787   0.178   9.492  1.2622  1.1569  3.6003
 7313SOL    HW233399   3.682   0.283   9.513 -0.4743  0.3809  1.8153
 7314SOL     OW33400   4.249   4.017  16.538  0.5640 -0.0876 -0.2625
 7314SOL    HW133401   4.299   4.098  16.548 -1.7323  1.3338 -0.3361
 7314SOL    HW233402   4.211   4.018  16.626 -0.2660 -1.2013 -0.6125
 7315SOL     OW33403   4.535   2.649   5.446 -0.3824  0.2468  0.1499
 7315SOL    HW133404   4.558   2.558   5.463  1.7388  0.4554 -1.5090
 7315SOL    HW233405   4.441   2.653   5.461 -0.1989  4.8707 -0.0276
 7316SOL     OW33406   0.544   3.183   9.155  0.1101  0.3406 -0.1735
 7316SOL    HW133407   0.504   3.097   9.142  1.5458 -0.2905 -0.4794
 7316SOL    HW233408   0.495   3.210   9.233 -0.1409  0.0138 -0.2195
 7317SOL     OW33409   1.283   0.713   6.616  0.7800 -0.2225  0.0060
 7317SOL    HW133410   1.218   0.737   6.550 -1.1761 -0.7416  1.7739
 7317SOL    HW233411   1.343   0.681   6.548  0.1367  1.3379 -1.3106
 7318SOL     OW33412   1.343   2.636   5.164  0.0578  0.0210 -0.1264
 7318SOL    HW133413   1.356   2.720   5.208 -0.2784 -0.9683  1.8906
 7318SOL    HW233414   1.433   2.624   5.133 -0.8722 -2.1510 -2.0319
 7319SOL     OW33415   3.336   3.322   5.442 -0.0665  0.0372  0.0607
 7319SOL    HW133416   3.255   3.372   5.434 -0.7329 -1.5118 -2.8432
 7319SOL    HW233417   3.291   3.240   5.421  0.0098  0.2479 -0.9004
 7320SOL     OW33418   2.288   2.567   9.355 -0.4191  0.7104 -0.3610
 7320SOL    HW133419   2.369   2.597   9.314  0.0098  0.8773  0.6048
 7320SOL    HW233420   2.273   2.484   9.311  1.9676 -0.9685  2.0021
 7321SOL     OW33421   0.056   3.554   2.061 -0.1047 -0.5985  0.4463
 7321SOL    HW133422   0.033   3.643   2.087 -0.6138 -0.5243 -0.2950
 7321SOL    HW233423   0.023   3.559   1.972  0.5132 -0.0936  0.2442
 7322SOL     OW33424   0.362   0.213   2.817  0.1937 -0.0952 -0.0245
 7322SOL    HW133425   0.298   0.243   2.881  0.7190  0.9041  0.0278
 7322SOL    HW233426   0.446   0.242   2.852  0.1818 -0.3723  0.2323
 7323SOL     OW33427   3.957   2.068  12.374 -0.5276 -0.2484 -0.1847
 7323SOL    HW133428   3.872   2.110  12.378  0.5246  1.7063  1.4142
 7323SOL    HW233429   3.998   2.118  12.303  1.2066 -0.2736  0.7984
 7324SOL     OW33430   3.865   4.637   7.707  0.8768 -0.3672 -0.4020
 7324SOL    HW133431   3.831   4.547   7.698  1.8578 -0.9488  1.7855
 7324SOL    HW233432   3.790   4.692   7.731  0.9853 -1.3068  2.1069
 7325SOL     OW33433   2.655   4.431   7.585 -0.0112 -0.2894 -0.1400
 7325SOL    HW133434   2.559   4.436   7.588 -0.1923 -3.2675 -1.3058
 7325SOL    HW233435   2.680   4.396   7.671 -0.5123 -1.0944 -0.3206
 7326SOL     OW33436   2.642   3.227  17.117  0.0470 -0.1169  0.0307
 7326SOL    HW133437   2.674   3.160  17.056  2.1730  2.5988 -1.8012
 7326SOL    HW233438   2.708   3.293  17.100 -1.4369  1.8577  1.9719
 7327SOL     OW33439   2.784   4.110  15.073  0.2243  0.4738  0.2784
 7327SOL    HW133440   2.780   4.183  15.011  1.7525  0.7612  0.5046
 7327SOL    HW233441   2.750   4.039  15.017  0.5107  0.0316  0.6622
 7328SOL     OW33442   4.469   3.854   2.595  0.6498  0.2805  0.6467
 7328SOL    HW133443   4.511   3.883   2.515 -1.4136  0.7351 -0.2648
 7328SOL    HW233444   4.413   3.929   2.612 -1.0907 -1.6066  3.3719
 7329SOL     OW33445   1.951   4.351   4.997  0.3781 -0.2122  0.6217
 7329SOL    HW133446   1.981   4.399   4.920  0.6553 -2.2800 -0.5519
 7329SOL    HW233447   2.032   4.358   5.048  0.0751 -1.1739  1.2309
 7330SOL     OW33448   3.856   4.206  16.712  0.7686 -0.1715 -0.3547
 7330SOL    HW133449   3.784   4.264  16.737  0.1927 -1.0673  0.0557
 7330SOL    HW233450   3.920   4.273  16.736 -0.1357  0.5270  0.1033
 7331SOL     OW33451   0.628   1.166   7.095 -0.3555  0.2832 -0.2240
 7331SOL    HW133452   0.683   1.156   7.172 -2.8965 -2.2431  1.2842
 7331SOL    HW233453   0.697   1.148   7.030  2.1806  2.6909  1.8548
 7332SOL     OW33454   4.463   4.291  16.050 -0.6990 -0.1048 -0.3108
 7332SOL    HW133455   4.369   4.277  16.038 -0.9422 -0.6761  2.3043
 7332SOL    HW233456   4.502   4.240  15.979  0.4287  0.7332 -0.2841
 7333SOL     OW33457   0.183   2.662  10.533 -0.1381 -0.0191 -0.4702
 7333SOL    HW133458   0.167   2.601  10.605  1.7117  0.4919  0.3757
 7333SOL    HW233459   0.120   2.627  10.470 -1.2202  0.5838  0.2791
 7334SOL     OW33460   3.916   3.567   4.991  0.3440  0.1627 -0.3027
 7334SOL    HW133461   3.964   3.494   5.031 -1.7625 -1.5869 -1.0136
 7334SOL    HW233462   3.843   3.564   5.052  0.1150  0.6213 -0.5570
 7335SOL     OW33463   3.028   0.669   1.477 -0.5927  0.6054  0.5348
 7335SOL    HW133464   2.957   0.609   1.453  1.3287 -1.1381 -0.8743
 7335SOL    HW233465   3.068   0.619   1.548  0.2438  1.4596  0.6524
 7336SOL     OW33466   2.189   1.162  14.991  0.5854  0.0180 -0.2692
 7336SOL    HW133467   2.196   1.257  14.998  0.6172  0.0035 -0.1011
 7336SOL    HW233468   2.246   1.138  15.064  0.1972 -0.9723 -0.2877
 7337SOL     OW33469   1.604   0.548   6.658 -0.0423  0.2546 -0.0809
 7337SOL    HW133470   1.548   0.583   6.589  0.1765 -1.3616 -1.0764
 7337SOL    HW233471   1.689   0.565   6.616 -0.8537 -0.3540 -1.9759
 7338SOL     OW33472   2.555   3.314   6.617 -0.1415 -0.2068  0.5977
 7338SOL    HW133473   2.495   3.325   6.691 -0.3108  1.1551  0.2544
 7338SOL    HW233474   2.638   3.306   6.664  0.5568 -0.4285 -0.6922
 7339SOL     OW33475   2.434   3.607  11.347 -0.5483  0.3369 -0.2564
 7339SOL    HW133476   2.510   3.571  11.393 -0.0015  1.0537 -0.6176
 7339SOL    HW233477   2.378   3.529  11.338 -1.0357  0.7348 -0.6695
 7340SOL     OW33478   3.935   3.737   5.284 -0.2094 -0.0337 -0.2530
 7340SOL    HW133479   4.014   3.695   5.317 -0.2687  0.8510  0.9813
 7340SOL    HW233480   3.976   3.771   5.204 -2.2865 -1.7753 -2.0528
 7341SOL     OW33481   4.504   1.241  16.136  0.5097 -0.1969 -0.6542
 7341SOL    HW133482   4.503   1.163  16.081 -0.0340 -0.6379 -0.0291
 7341SOL    HW233483   4.509   1.206  16.225 -0.5646  1.6355  0.1121
 7342SOL     OW33484   3.311   3.312   3.675  0.1639 -0.2077 -0.2605
 7342SOL    HW133485   3.278   3.392   3.634 -1.9690 -0.2704  1.3764
 7342SOL    HW233486   3.404   3.309   3.655  0.2166 -2.7325  0.3794
 7343SOL     OW33487   4.012   1.369  13.194  0.2088  0.5696  0.5720
 7343SOL    HW133488   3.981   1.354  13.105 -0.0088  1.6487  0.4723
 7343SOL    HW233489   4.106   1.379  13.182  0.3753 -2.2762 -0.5896
 7344SOL     OW33490   1.344   3.368   6.971  0.1184 -0.8613 -0.7347
 7344SOL    HW133491   1.342   3.278   6.938 -3.0247 -0.6786 -1.0466
 7344SOL    HW233492   1.416   3.347   7.030  0.8553  1.5468 -0.7958
 7345SOL     OW33493   2.712   2.695   5.804 -0.5667  0.2389  0.0273
 7345SOL    HW133494   2.764   2.649   5.737  0.4339  1.6178 -0.1426
 7345SOL    HW233495   2.623   2.680   5.774 -0.7505 -1.1108  1.2499
 7346SOL     OW33496   3.936   3.390   7.521  0.3090  0.1434  0.2687
 7346SOL    HW133497   3.912   3.311   7.569  1.4838 -0.7506 -0.6208
 7346SOL    HW233498   3.852   3.437   7.525 -0.6184 -1.2723 -1.8732
 7347SOL     OW33499   0.464   1.137  12.089  0.2519  0.1453 -0.3252
 7347SOL    HW133500   0.477   1.115  11.996 -0.9935  0.9828 -0.6910
 7347SOL    HW233501   0.382   1.187  12.086 -0.2917 -0.5770  2.4952
 7348SOL     OW33502   0.500   3.575   8.801  0.5497  0.1921 -0.2815
 7348SOL    HW133503   0.425   3.522   8.828 -1.1380  2.6362 -0.1808
 7348SOL    HW233504   0.459   3.662   8.803 -1.4082 -0.7353 -1.2282
 7349SOL     OW33505   2.903   3.572  11.944  0.5652  0.1843 -0.5633
 7349SOL    HW133506   2.967   3.557  12.014 -0.9940  1.1458  1.0914
 7349SOL    HW233507   2.958   3.605  11.873 -2.1892  1.2019 -2.2359
 7350SOL     OW33508   3.754   1.895   4.385 -0.2459 -1.0126  0.3703
 7350SOL    HW133509   3.815   1.822   4.378  0.0930 -0.6865 -0.0790
 7350SOL    HW233510   3.667   1.856   4.382  1.8126 -5.5129 -0.4502
 7351SOL     OW33511   1.205   1.752   5.168  0.2506  0.2013  0.0411
 7351SOL    HW133512   1.223   1.822   5.106 -0.2665 -0.2371 -0.6057
 7351SOL    HW233513   1.210   1.804   5.248  0.3810  1.4926 -0.8193
 7352SOL     OW33514   3.726   2.161   2.439 -0.8105 -0.7784  0.1743
 7352SOL    HW133515   3.764   2.115   2.364  1.9877  1.2273  0.3650
 7352SOL    HW233516   3.807   2.197   2.477  1.2167 -5.0580 -0.0766
 7353SOL     OW33517   3.025   2.766  14.743  0.4247  0.3168 -0.3413
 7353SOL    HW133518   3.046   2.860  14.741 -1.2044  0.7288  1.3297
 7353SOL    HW233519   2.957   2.755  14.676 -0.0769 -0.3964  0.2871
 7354SOL     OW33520   3.807   1.548  10.393  0.2060 -0.2589  0.1320
 7354SOL    HW133521   3.858   1.625  10.367 -1.6519 -0.7777 -5.0240
 7354SOL    HW233522   3.717   1.558  10.362  0.7071 -2.3354 -2.0589
 7355SOL     OW33523   2.456   4.119   0.458 -0.1049 -0.3990 -0.2936
 7355SOL    HW133524   2.501   4.138   0.376  0.9061 -0.1059  0.3213
 7355SOL    HW233525   2.454   4.025   0.472 -0.5233 -0.0898  1.7946
 7356SOL     OW33526   2.707   3.997   2.093 -0.0654 -0.1060 -0.9188
 7356SOL    HW133527   2.704   3.958   2.180  2.8166  0.5009 -0.5606
 7356SOL    HW233528   2.684   4.087   2.114  1.4670  0.2444 -0.7673
 7357SOL     OW33529   4.495   3.490   4.997  0.3662 -0.5477 -0.1592
 7357SOL    HW133530   4.425   3.543   5.035 -0.5998  1.0233 -4.0529
 7357SOL    HW233531   4.464   3.402   5.015  0.5296 -1.0008 -2.1296
 7358SOL     OW33532   0.888   2.382   6.360 -0.0649  0.0249  0.2890
 7358SOL    HW133533   0.860   2.462   6.317  0.3458 -0.5274 -1.0134
 7358SOL    HW233534   0.981   2.393   6.340 -1.0365  0.8709 -3.8182
 7359SOL     OW33535   2.203   4.089   3.581  0.0293 -0.1206  0.5006
 7359SOL    HW133536   2.217   4.093   3.487  1.3413  0.6806  0.7290
 7359SOL    HW233537   2.223   3.996   3.589 -0.3878 -0.1893  0.7333
 7360SOL     OW33538   4.661   0.044   2.581  0.2621  0.4610  0.3701
 7360SOL    HW133539   4.692   0.134   2.579  0.5461  0.3586  0.2081
 7360SOL    HW233540   4.690   0.013   2.495 -0.1064 -1.8060  1.0545
 7361SOL     OW33541   1.997   0.644   0.677 -0.1772 -0.1128  0.1138
 7361SOL    HW133542   2.048   0.575   0.721  1.0580 -1.1997 -3.0169
 7361SOL    HW233543   2.059   0.698   0.628  0.8198 -0.0223  1.4819
 7362SOL     OW33544   3.016   3.369   3.875  0.1458  0.2005  0.2254
 7362SOL    HW133545   2.982   3.392   3.789 -0.9281  1.3471  0.9498
 7362SOL    HW233546   3.038   3.455   3.911  1.3047 -0.3574  0.8512
 7363SOL     OW33547   2.801   2.077   5.480  0.1767 -0.0729 -0.4852
 7363SOL    HW133548   2.716   2.121   5.485 -0.1886 -1.0703  2.2132
 7363SOL    HW233549   2.836   2.079   5.569  3.3062  1.9479 -1.7685
 7364SOL     OW33550   0.913   2.093   5.968 -0.4342  0.2274  0.0613
 7364SOL    HW133551   0.957   2.009   5.954  2.3306  1.8504 -1.0626
 7364SOL    HW233552   0.885   2.095   6.059  1.8901  1.1175  0.7631
 7365SOL     OW33553   0.526   0.898   4.694  0.1365 -0.1505  0.1108
 7365SOL    HW133554   0.443   0.869   4.732  0.6340 -0.8975  0.6039
 7365SOL    HW233555   0.582   0.835   4.738 -1.0992 -0.8379  0.7013
 7366SOL     OW33556   0.864   0.260   3.642 -0.3156 -0.1596  0.1858
 7366SOL    HW133557   0.816   0.279   3.723  1.5792 -0.8630  1.4856
 7366SOL    HW233558   0.838   0.168   3.641  0.0762 -0.2609 -1.0074
 7367SOL     OW33559   2.259   0.010   4.943 -0.6139 -0.0281  0.5802
 7367SOL    HW133560   2.204   0.003   5.021  0.3889 -0.6723  1.2304
 7367SOL    HW233561   2.242   0.099   4.913 -1.5206 -0.7861 -1.1280
 7368SOL     OW33562   4.373   0.362  13.221 -0.9426 -0.4286  0.1104
 7368SOL    HW133563   4.421   0.377  13.139 -0.9631 -0.5157  0.0834
 7368SOL    HW233564   4.346   0.272  13.205  0.3472 -0.4128 -2.1595
 7369SOL     OW33565   2.589   2.334   3.740  0.0609 -0.3133  0.5834
 7369SOL    HW133566   2.673   2.374   3.716 -0.2025 -0.0849  0.0447
 7369SOL    HW233567   2.585   2.259   3.681  0.0847  1.1295 -1.2735
 7370SOL     OW33568   0.221   1.364  17.553  0.0205 -0.1211  0.2029
 7370SOL    HW133569   0.131   1.382  17.527  0.3292  0.8184 -0.1887
 7370SOL    HW233570   0.253   1.454  17.561  0.6033 -0.2815 -0.3607
 7371SOL     OW33571   1.403   1.816   6.914  0.1675 -0.4216 -0.4016
 7371SOL    HW133572   1.318   1.860   6.906 -1.6165 -3.5546  1.2618
 7371SOL    HW233573   1.417   1.754   6.842 -0.5394 -0.9896 -0.0466
 7372SOL     OW33574   2.320   3.396   5.432  0.2823  0.0573 -0.1900
 7372SOL    HW133575   2.230   3.430   5.438  0.5926  1.0549 -1.3201
 7372SOL    HW233576   2.340   3.401   5.526 -0.5170 -0.5500  0.0131
 7373SOL     OW33577   1.440   2.154  16.901 -0.4984  0.3441  0.7472
 7373SOL    HW133578   1.436   2.059  16.908  3.3780 -0.1529 -3.7893
 7373SOL    HW233579   1.377   2.178  16.968 -0.4340  0.4852  0.7583
 7374SOL     OW33580   1.132   4.492   1.450 -0.3985 -0.4786  0.5747
 7374SOL    HW133581   1.150   4.552   1.378 -0.7994 -1.5613 -0.4407
 7374SOL    HW233582   1.037   4.493   1.458 -0.6144  0.8320 -2.0775
 7375SOL     OW33583   0.134   4.483  17.596  0.0112 -0.5568 -0.0549
 7375SOL    HW133584   0.162   4.542  17.666 -3.6600  0.4213  0.6159
 7375SOL    HW233585   0.075   4.548  17.558  0.2116 -0.8675 -0.8969
 7376SOL     OW33586   1.104   4.357   4.136  0.1603 -0.7367 -0.3349
 7376SOL    HW133587   1.139   4.332   4.221  1.2935 -0.2626 -0.6559
 7376SOL    HW233588   1.011   4.352   4.156  0.5824  0.3683  1.8663
 7377SOL     OW33589   0.766   2.263  14.794 -0.3653 -0.2268 -0.0138
 7377SOL    HW133590   0.851   2.247  14.833 -0.2136  0.3313 -0.1258
 7377SOL    HW233591   0.722   2.178  14.793 -2.0963  0.6621 -0.8673
 7378SOL     OW33592   1.294   0.219   3.154 -0.2977 -0.4223  0.6486
 7378SOL    HW133593   1.262   0.131   3.170  3.1105 -2.0507 -1.3359
 7378SOL    HW233594   1.376   0.211   3.204  0.8271  1.2234 -0.9196
 7379SOL     OW33595   0.437   1.577  13.608 -0.5204 -0.7208  0.0225
 7379SOL    HW133596   0.450   1.505  13.547 -1.2848  0.5946 -1.6975
 7379SOL    HW233597   0.342   1.581  13.618 -0.6413 -1.2584 -0.8761
 7380SOL     OW33598   2.852   1.747   4.299 -0.0690  0.2619 -0.3199
 7380SOL    HW133599   2.887   1.708   4.219  0.7944 -0.6619  0.5068
 7380SOL    HW233600   2.760   1.722   4.295  0.0402 -0.0421 -0.7915
 7381SOL     OW33601   2.458   1.881  12.282 -0.1699 -0.0365  0.3167
 7381SOL    HW133602   2.486   1.831  12.205  0.7740  0.1681  0.5354
 7381SOL    HW233603   2.544   1.889  12.323  0.7001 -0.8525 -1.3597
 7382SOL     OW33604   1.539   1.395  17.425  0.0227 -0.8005 -0.1408
 7382SOL    HW133605   1.589   1.322  17.387  2.4026 -0.0420  1.4974
 7382SOL    HW233606   1.570   1.467  17.370  0.7228 -0.7549  0.3165
 7383SOL     OW33607   1.428   0.572  17.532 -0.2057 -0.2061  0.3668
 7383SOL    HW133608   1.405   0.615  17.614  1.9613 -0.6798  1.2357
 7383SOL    HW233609   1.353   0.512  17.526 -1.5312  1.4420  0.3591
 7384SOL     OW33610   1.961   3.670   8.106 -0.2760 -0.1602 -0.3979
 7384SOL    HW133611   1.986   3.762   8.116 -0.4519  0.0595 -1.9955
 7384SOL    HW233612   2.008   3.628   8.177 -0.6051  2.2493  1.2554
 7385SOL     OW33613   2.897   1.578   2.077  0.1164 -0.0858  0.5689
 7385SOL    HW133614   2.908   1.645   2.144 -3.0394  0.0071  1.0005
 7385SOL    HW233615   2.840   1.616   2.010  2.5838  0.0108 -1.5243
 7386SOL     OW33616   0.301   2.445   0.696 -0.5991 -0.1033 -0.1123
 7386SOL    HW133617   0.293   2.540   0.685 -5.0111 -0.2871  1.5841
 7386SOL    HW233618   0.395   2.427   0.703 -0.3287  1.4591  0.3118
 7387SOL     OW33619   1.067   4.269   3.842 -0.0512  0.0393  0.5108
 7387SOL    HW133620   1.100   4.318   3.918 -2.5788  2.4566  0.0264
 7387SOL    HW233621   1.039   4.337   3.781 -0.6054 -0.6030  0.0621
 7388SOL     OW33622   0.049   0.423   3.189  0.2128 -0.1971  0.0899
 7388SOL    HW133623   0.104   0.437   3.113  0.8975 -0.7779  0.4861
 7388SOL    HW233624   0.104   0.439   3.266 -0.3567  1.3871  0.1580
 7389SOL     OW33625   0.545   2.498   9.977 -0.3041 -0.0406 -0.0993
 7389SOL    HW133626   0.477   2.487  10.044  0.2836  1.3761  0.7435
 7389SOL    HW233627   0.550   2.594   9.985  1.0066 -0.0101 -1.3826
 7390SOL     OW33628   2.255   2.140   3.247 -0.7714  0.4423  0.3472
 7390SOL    HW133629   2.262   2.073   3.178 -3.5642  0.7465 -0.2205
 7390SOL    HW233630   2.344   2.174   3.238 -0.6604 -0.2463 -1.2136
 7391SOL     OW33631   1.317   1.855   0.919  0.7719  0.7530  0.0565
 7391SOL    HW133632   1.321   1.799   0.841  0.5589 -0.7321  1.0996
 7391SOL    HW233633   1.227   1.881   0.934 -0.5447 -3.3754 -0.5401
 7392SOL     OW33634   3.870   1.911   4.086 -0.3422  0.8178 -0.0406
 7392SOL    HW133635   3.805   1.906   4.016 -1.2423  0.4879  0.8085
 7392SOL    HW233636   3.861   1.821   4.119  1.9825  1.3813  2.1264
 7393SOL     OW33637   1.705   3.047   5.722  0.4744  0.2938  0.3842
 7393SOL    HW133638   1.657   3.019   5.644  0.0894 -1.4849  1.2545
 7393SOL    HW233639   1.636   3.057   5.788 -1.2646  0.0328 -1.3889
 7394SOL     OW33640   4.066   2.063   0.433 -0.3270  0.0866 -0.0264
 7394SOL    HW133641   4.133   2.107   0.487  0.6288 -0.4940 -0.7293
 7394SOL    HW233642   4.118   2.037   0.357 -1.6823  4.0382 -2.2921
 7395SOL     OW33643   4.064   0.019   5.759 -0.2313  0.4422  0.2223
 7395SOL    HW133644   4.127   4.676   5.792  0.9098  1.9723  1.0092
 7395SOL    HW233645   4.121   0.070   5.702 -0.2440  1.9596  1.5771
 7396SOL     OW33646   3.262   3.363   9.420 -0.1417 -0.6396  0.4083
 7396SOL    HW133647   3.296   3.294   9.362  1.8448  1.1650 -0.5581
 7396SOL    HW233648   3.271   3.324   9.507  2.4216  0.6811  0.7343
 7397SOL     OW33649   2.394   1.656   7.075  0.1044  0.0258  0.2760
 7397SOL    HW133650   2.395   1.572   7.121  1.3033  0.1182  0.4036
 7397SOL    HW233651   2.485   1.669   7.051 -0.1636 -0.3434 -0.9921
 7398SOL     OW33652   0.306   4.279   1.602 -0.1858  0.2320  0.1648
 7398SOL    HW133653   0.255   4.199   1.610 -0.4700  0.2402 -1.5433
 7398SOL    HW233654   0.363   4.260   1.528  0.7660  1.1585  0.6691
 7399SOL     OW33655   1.113   0.687   6.394 -0.0245  0.5243  0.1292
 7399SOL    HW133656   1.111   0.624   6.321  2.5583 -1.8944  2.1545
 7399SOL    HW233657   1.131   0.766   6.344  2.4428 -1.2076 -1.7132
 7400SOL     OW33658   1.434   1.345  10.905 -0.0458 -0.1841 -0.1436
 7400SOL    HW133659   1.424   1.433  10.868  0.7228  0.7185  1.7821
 7400SOL    HW233660   1.343   1.324  10.927  0.0711 -0.4562  0.0745
 7401SOL     OW33661   1.588   2.882   8.017 -0.8535 -0.5755 -0.3917
 7401SOL    HW133662   1.626   2.800   7.987 -0.5005 -1.0338  1.3164
 7401SOL    HW233663   1.602   2.940   7.942  1.7839  0.2209  0.7141
 7402SOL     OW33664   3.417   0.170  10.428 -0.2554 -0.0053  0.0345
 7402SOL    HW133665   3.333   0.176  10.381  1.8318 -2.1061 -3.9299
 7402SOL    HW233666   3.438   0.262  10.446 -2.9291  0.4882  0.6260
 7403SOL     OW33667   1.185   2.359  10.996 -0.1517 -0.0266  0.2250
 7403SOL    HW133668   1.175   2.454  10.990 -2.6707 -0.1524  2.6025
 7403SOL    HW233669   1.134   2.344  10.917 -0.4583 -0.7692  0.5671
 7404SOL     OW33670   3.385   1.102  13.877 -0.3959  0.0883  0.2903
 7404SOL    HW133671   3.320   1.169  13.898 -0.6750  0.1657 -0.8435
 7404SOL    HW233672   3.382   1.050  13.958  2.8640 -0.8880 -0.1861
 7405SOL     OW33673   2.550   3.847   8.799 -0.2926 -0.5957  0.3730
 7405SOL    HW133674   2.558   3.795   8.878 -1.1645 -0.8236  0.3123
 7405SOL    HW233675   2.634   3.830   8.758  0.6783 -1.7326  2.8619
 7406SOL     OW33676   0.256   3.906  12.953 -0.0663  0.3909  0.1072
 7406SOL    HW133677   0.196   3.873  12.886 -0.8056  2.1959 -0.0996
 7406SOL    HW233678   0.230   3.998  12.951 -2.3984 -0.2621  0.2457
 7407SOL     OW33679   1.402   1.073   4.702  0.0829 -0.0195 -0.7462
 7407SOL    HW133680   1.391   1.140   4.635  0.9961  0.3761 -0.5042
 7407SOL    HW233681   1.485   1.100   4.742 -0.3403  0.7714 -0.4030
 7408SOL     OW33682   0.457   0.326   8.960  0.5159  0.1749 -0.1203
 7408SOL    HW133683   0.432   0.402   9.013  1.6918 -0.7952  1.8081
 7408SOL    HW233684   0.530   0.301   9.016 -0.3501  0.5982  1.1971
 7409SOL     OW33685   0.110   0.433   4.042 -0.8823 -0.0448  0.0223
 7409SOL    HW133686   0.047   0.362   4.033 -0.1296 -0.5541 -1.2714
 7409SOL    HW233687   0.114   0.442   4.138  0.1914  0.0095 -0.0279
 7410SOL     OW33688   2.694   0.926   1.584 -0.7360 -0.0095 -0.5457
 7410SOL    HW133689   2.679   0.989   1.514 -0.3121  0.6835  0.0006
 7410SOL    HW233690   2.690   0.989   1.656 -1.9525 -2.1469  1.2701
 7411SOL     OW33691   3.958   2.286   2.205  0.1225  0.9240 -0.4546
 7411SOL    HW133692   4.031   2.280   2.142 -1.4542 -1.1537 -2.0940
 7411SOL    HW233693   3.938   2.378   2.191  2.3018  1.3406 -0.8685
 7412SOL     OW33694   4.462   0.877   8.106 -0.0664  0.1472 -0.2383
 7412SOL    HW133695   4.419   0.792   8.115 -0.2625  0.0790 -1.7987
 7412SOL    HW233696   4.496   0.869   8.017  0.4601  0.4347 -0.0630
 7413SOL     OW33697   2.662   1.026   5.466  0.4132  0.4528 -0.3171
 7413SOL    HW133698   2.731   1.031   5.531 -1.3776  1.2802  1.5264
 7413SOL    HW233699   2.661   1.119   5.442  1.1634  0.2606 -1.0997
 7414SOL     OW33700   1.367   3.965   9.134 -0.1565  0.1089 -0.0127
 7414SOL    HW133701   1.452   3.951   9.091 -0.6259 -0.1607 -0.8550
 7414SOL    HW233702   1.394   4.030   9.199  2.0440 -2.2052  1.3588
 7415SOL     OW33703   2.551   1.421  14.869  0.1714 -0.0050  0.3315
 7415SOL    HW133704   2.464   1.461  14.871  1.3916  2.6547  0.1797
 7415SOL    HW233705   2.559   1.401  14.963  1.7753  0.4627  0.3021
 7416SOL     OW33706   3.932   1.630   5.269 -0.3464 -0.1049 -0.6196
 7416SOL    HW133707   3.875   1.594   5.200 -0.8075 -0.5930  0.0220
 7416SOL    HW233708   3.977   1.693   5.212 -1.3176  0.6804 -0.5135
 7417SOL     OW33709   4.549   1.429  13.021 -0.3092 -0.2551 -0.3758
 7417SOL    HW133710   4.564   1.407  12.930  1.7356  0.0959 -0.1203
 7417SOL    HW233711   4.542   1.343  13.064  1.4669 -0.7719 -1.1378
 7418SOL     OW33712   3.032   0.792   1.065 -0.6557  0.1238  0.2413
 7418SOL    HW133713   3.044   0.798   1.160  0.3107 -0.1946  0.1366
 7418SOL    HW233714   3.122   0.800   1.033  0.2298 -0.1405  2.6351
 7419SOL     OW33715   1.138   0.927  12.419  0.3226 -0.0462 -0.1328
 7419SOL    HW133716   1.060   0.954  12.370 -1.1993 -1.1337  1.7075
 7419SOL    HW233717   1.132   0.833  12.439 -0.8605  0.1105  0.2478
 7420SOL     OW33718   3.500   3.868  10.040  0.8135  0.6401 -0.5013
 7420SOL    HW133719   3.585   3.869  10.085 -0.3933 -0.5512  1.8442
 7420SOL    HW233720   3.483   3.774  10.042 -1.9115  1.1319 -0.8010
 7421SOL     OW33721   2.468   3.894  11.264  0.0132 -0.9532  0.1331
 7421SOL    HW133722   2.514   3.945  11.331  0.3736 -0.1661 -0.7102
 7421SOL    HW233723   2.477   3.807  11.302  1.2858 -1.3737 -1.1277
 7422SOL     OW33724   0.049   2.418  13.217  0.7222 -0.4281  0.7756
 7422SOL    HW133725   4.674   2.412  13.216  0.7625 -0.9772  0.2815
 7422SOL    HW233726   0.058   2.478  13.143  2.5869 -1.6525  0.0117
 7423SOL     OW33727   4.111   2.238   1.925  0.5771 -0.4281 -0.0235
 7423SOL    HW133728   4.124   2.150   1.961 -2.7982  0.6161  3.6871
 7423SOL    HW233729   4.028   2.246   1.876  0.0594 -0.5372  0.8402
 7424SOL     OW33730   1.681   4.553   8.907  0.9130  0.4001 -0.1019
 7424SOL    HW133731   1.603   4.603   8.932  0.4099 -0.3963 -0.0688
 7424SOL    HW233732   1.740   4.589   8.973 -0.2120  0.3230  0.9366
 7425SOL     OW33733   1.260   3.329  16.356  0.0923  0.2465 -0.0492
 7425SOL    HW133734   1.230   3.418  16.340 -1.4919 -0.1165  0.9709
 7425SOL    HW233735   1.313   3.325  16.436 -0.8257  0.9150  0.5907
 7426SOL     OW33736   3.161   2.517   2.666 -0.0339  0.0543 -0.1833
 7426SOL    HW133737   3.234   2.578   2.678  0.5393 -0.1380 -2.5144
 7426SOL    HW233738   3.089   2.578   2.682 -0.8281 -1.0927  0.5554
 7427SOL     OW33739   0.113   2.614   5.825 -0.7982 -0.8683 -0.0977
 7427SOL    HW133740   0.162   2.674   5.769 -0.7277 -2.5120 -1.7915
 7427SOL    HW233741   0.093   2.533   5.780  0.3051 -1.4208  0.4068
 7428SOL     OW33742   1.231   1.881   6.143  0.3231  0.6032 -0.0717
 7428SOL    HW133743   1.142   1.851   6.123  0.1739  0.1129  1.3613
 7428SOL    HW233744   1.251   1.828   6.220 -1.8368 -0.8255 -0.4737
 7429SOL     OW33745   1.299   1.223   0.151  0.0244  0.1324 -0.0923
 7429SOL    HW133746   1.217   1.205   0.196 -1.2323 -1.8122 -3.1559
 7429SOL    HW233747   1.343   1.284   0.210 -0.4643 -2.5635  3.0449
 7430SOL     OW33748   1.580   0.698  13.166 -0.0915  0.5918  0.2046
 7430SOL    HW133749   1.581   0.733  13.077  2.0051  1.7182  0.6711
 7430SOL    HW233750   1.643   0.754  13.212  0.2106 -0.0996  0.6194
 7431SOL     OW33751   3.781   3.878  11.806  0.1510 -0.3842  0.0086
 7431SOL    HW133752   3.858   3.828  11.781  0.5775  0.5596 -0.5905
 7431SOL    HW233753   3.813   3.967  11.820  1.4637 -0.3544 -3.1085
 7432SOL     OW33754   4.408   3.834   8.826  0.0247 -0.2151 -0.2903
 7432SOL    HW133755   4.349   3.904   8.799 -1.2985 -1.4019 -0.4704
 7432SOL    HW233756   4.476   3.882   8.872  1.0032 -1.0793 -0.8211
 7433SOL     OW33757   3.444   4.289   7.655  0.1638 -0.0979  0.4516
 7433SOL    HW133758   3.379   4.223   7.630  0.2575  0.1665 -0.4818
 7433SOL    HW233759   3.388   4.347   7.707 -2.3762 -1.3499 -0.8845
 7434SOL     OW33760   0.093   1.790   9.211  0.0326 -0.1496  0.4402
 7434SOL    HW133761   0.129   1.704   9.232 -1.0980 -0.8890 -0.5859
 7434SOL    HW233762   0.009   1.754   9.181  0.0116 -0.0841  0.4203
 7435SOL     OW33763   4.247   3.487   8.039 -0.2972  0.1148  0.1834
 7435SOL    HW133764   4.230   3.437   8.119 -0.7221  2.2732  1.4261
 7435SOL    HW233765   4.190   3.437   7.981 -0.5369  0.1526  0.3857
 7436SOL     OW33766   1.936   0.225   4.582  0.1670 -0.0080  0.3980
 7436SOL    HW133767   1.982   0.308   4.589  0.6851 -0.1886 -1.0288
 7436SOL    HW233768   1.847   0.261   4.577 -0.6924 -2.0840  0.6068
 7437SOL     OW33769   0.895   0.255  14.006  0.4485 -0.5841 -0.4094
 7437SOL    HW133770   0.895   0.160  14.022 -1.8978 -1.1340 -3.5043
 7437SOL    HW233771   0.923   0.248  13.914 -2.0251  0.8764 -1.2705
 7438SOL     OW33772   4.404   3.985  12.192  0.3071 -0.4806 -0.4373
 7438SOL    HW133773   4.314   4.003  12.218 -0.1565 -3.7257  0.2732
 7438SOL    HW233774   4.457   3.994  12.271 -1.1081 -0.4603  0.5174
 7439SOL     OW33775   2.817   0.959  13.536  0.0922  0.0245 -0.4703
 7439SOL    HW133776   2.905   0.985  13.509 -0.0147 -0.2270 -1.0470
 7439SOL    HW233777   2.824   0.938  13.630 -0.4240  0.9636 -0.2191
 7440SOL     OW33778   2.065   0.364   1.768  0.1740  0.0934  0.0884
 7440SOL    HW133779   2.090   0.396   1.681 -0.5405 -2.0195 -0.8964
 7440SOL    HW233780   2.066   0.269   1.756  2.9219  0.5029 -2.8926
 7441SOL     OW33781   1.088   1.473   5.750  0.6205 -0.5087  0.0273
 7441SOL    HW133782   1.172   1.517   5.740  0.3211  0.3287  1.1924
 7441SOL    HW233783   1.048   1.466   5.663 -0.8621  5.1825  0.2492
 7442SOL     OW33784   1.276   2.867   6.092  0.2510 -0.0673 -0.1185
 7442SOL    HW133785   1.205   2.806   6.071  0.4281 -0.9741  1.8630
 7442SOL    HW233786   1.223   2.935   6.133  0.1909  0.5166 -1.1935
 7443SOL     OW33787   2.747   2.427   2.797  0.3992 -0.1796 -0.2035
 7443SOL    HW133788   2.681   2.446   2.730  0.9921 -2.4662 -1.4361
 7443SOL    HW233789   2.777   2.340   2.769 -1.5372 -0.8528 -0.2161
 7444SOL     OW33790   3.184   2.577  17.529  0.5668 -0.2832 -0.3327
 7444SOL    HW133791   3.110   2.518  17.519  1.5335 -0.9724 -3.1531
 7444SOL    HW233792   3.199   2.547  17.619 -1.1843  0.9130  0.3678
 7445SOL     OW33793   2.558   1.165  15.640 -0.3954 -0.1660  0.0868
 7445SOL    HW133794   2.637   1.113  15.652  0.2622  0.6351 -0.7418
 7445SOL    HW233795   2.542   1.146  15.547  1.2412 -0.9776 -0.0267
 7446SOL     OW33796   0.566   4.022   4.611  0.0911 -0.7381 -0.3925
 7446SOL    HW133797   0.494   4.083   4.627 -0.1519 -0.4577 -2.5701
 7446SOL    HW233798   0.635   4.086   4.592 -0.8204  1.1254  2.5447
 7447SOL     OW33799   1.174   2.620   1.553 -0.2459  0.1057 -0.1503
 7447SOL    HW133800   1.096   2.616   1.496 -0.0823  0.3140 -0.3901
 7447SOL    HW233801   1.222   2.540   1.535 -1.7611 -0.8174 -0.0990
 7448SOL     OW33802   1.176   0.921  11.673  0.2301  0.3793 -0.0645
 7448SOL    HW133803   1.096   0.896  11.718  0.4544  0.7630  0.5519
 7448SOL    HW233804   1.237   0.857  11.712 -1.1676 -0.1927  1.1674
 7449SOL     OW33805   1.264   1.578  10.876 -0.1379  0.2678 -0.0134
 7449SOL    HW133806   1.231   1.584  10.965  0.4466 -0.5444  0.2620
 7449SOL    HW233807   1.188   1.548  10.826 -0.6427  2.7037 -0.6894
 7450SOL     OW33808   0.533   4.198   2.232 -0.4902 -0.2168  0.1302
 7450SOL    HW133809   0.449   4.231   2.201 -1.0495 -1.9698 -0.2349
 7450SOL    HW233810   0.527   4.106   2.206 -0.0137  0.0726 -0.9990
 7451SOL     OW33811   4.329   2.427   4.741  0.3910  0.6032 -0.3337
 7451SOL    HW133812   4.365   2.513   4.763 -0.8088  0.8472  0.7305
 7451SOL    HW233813   4.350   2.431   4.648 -0.1711 -2.0128 -0.5802
 7452SOL     OW33814   4.622   2.022   6.096  0.3354  0.0479 -0.1925
 7452SOL    HW133815   4.551   1.959   6.080  1.1251 -1.0335  0.5572
 7452SOL    HW233816   4.696   1.961   6.093  1.3295  1.2835 -0.7824
 7453SOL     OW33817   2.977   4.012   3.013 -0.0889  0.3614  0.4965
 7453SOL    HW133818   3.041   4.082   3.018  2.3317 -1.9127  1.2189
 7453SOL    HW233819   3.022   3.950   2.957 -1.7943 -0.7226  0.3030
 7454SOL     OW33820   3.267   1.923   5.567  0.7547  0.0181 -0.4223
 7454SOL    HW133821   3.250   1.829   5.560 -0.7884  0.1811  1.1114
 7454SOL    HW233822   3.311   1.944   5.485  2.2880 -2.9810 -0.3799
 7455SOL     OW33823   2.354   0.744   5.802 -0.0978 -0.1302  0.3600
 7455SOL    HW133824   2.404   0.667   5.774  0.0928  0.0961  0.0853
 7455SOL    HW233825   2.268   0.724   5.763 -0.1708  3.1747 -1.1847
 7456SOL     OW33826   3.513   2.515   6.154 -0.5599  1.0192 -0.1306
 7456SOL    HW133827   3.560   2.574   6.214  1.2748 -1.3249  0.7405
 7456SOL    HW233828   3.514   2.437   6.209  0.5936  1.4507  0.4771
 7457SOL     OW33829   2.456   0.853  11.879  0.3241 -0.0185 -0.3323
 7457SOL    HW133830   2.368   0.847  11.841  0.6906 -0.5488 -1.0938
 7457SOL    HW233831   2.464   0.941  11.918 -0.1321  0.0798 -0.4629
 7458SOL     OW33832   2.962   2.096  10.789  0.1466  0.0988  0.6470
 7458SOL    HW133833   2.893   2.158  10.765  1.1533  1.6490  1.7399
 7458SOL    HW233834   2.917   2.025  10.835  1.1891 -0.8669  0.1857
 7459SOL     OW33835   4.336   3.154   8.927  0.1288  0.4109  0.6661
 7459SOL    HW133836   4.416   3.102   8.939 -0.1795 -0.6007 -1.7605
 7459SOL    HW233837   4.364   3.244   8.945 -0.3804  1.3997 -3.6311
 7460SOL     OW33838   4.192   0.371  13.618 -0.2139 -0.5556  0.4505
 7460SOL    HW133839   4.127   0.305  13.641 -1.3852  0.4608  0.0488
 7460SOL    HW233840   4.150   0.444  13.664  2.7699  0.9538  0.8028
 7461SOL     OW33841   0.770   3.514   0.151 -0.7633 -0.4680 -0.2286
 7461SOL    HW133842   0.836   3.580   0.173  1.3928 -2.2852 -1.3436
 7461SOL    HW233843   0.814   3.441   0.109  0.0584 -0.4115  0.5299
 7462SOL     OW33844   2.971   1.871   4.550 -0.2894 -0.8068 -0.2024
 7462SOL    HW133845   2.970   1.858   4.455  2.7342 -0.6005 -0.2749
 7462SOL    HW233846   2.891   1.823   4.573  0.3952 -1.3529  1.0622
 7463SOL     OW33847   0.591   0.267  11.758  0.0039 -0.5694 -0.3284
 7463SOL    HW133848   0.517   0.258  11.818  0.7386  0.6866  0.7930
 7463SOL    HW233849   0.656   0.305  11.818  1.2497 -1.4319 -1.1456
 7464SOL     OW33850   1.411   4.572   6.653 -0.0194  0.4697  1.1294
 7464SOL    HW133851   1.437   4.579   6.561 -1.6518 -1.8562  0.4847
 7464SOL    HW233852   1.400   4.478   6.663 -0.5799  0.3036 -1.1516
 7465SOL     OW33853   2.259   4.301  14.513  0.1411 -0.1768 -0.0653
 7465SOL    HW133854   2.209   4.372  14.553  1.3804  0.5802  0.1720
 7465SOL    HW233855   2.179   4.260  14.482 -0.5822  0.9225  0.3637
 7466SOL     OW33856   3.288   0.585  10.366 -0.5007 -0.1872 -0.0282
 7466SOL    HW133857   3.356   0.523  10.391 -0.7617 -0.9020 -1.1113
 7466SOL    HW233858   3.314   0.601  10.276 -0.2264  1.6850  0.3925
 7467SOL     OW33859   2.139   0.359   2.573 -0.5483  0.3952  0.4551
 7467SOL    HW133860   2.098   0.403   2.499  0.5368 -2.1727 -1.6798
 7467SOL    HW233861   2.073   0.370   2.641 -0.5897 -0.0260  0.4828
 7468SOL     OW33862   4.658   3.559   7.527  0.5881  0.1275  0.2919
 7468SOL    HW133863   4.627   3.470   7.511 -0.6133  1.0805 -2.6454
 7468SOL    HW233864   4.582   3.617   7.520  1.2480  0.8929 -0.4459
 7469SOL     OW33865   0.718   0.105   6.137 -0.2745  0.8616 -0.3659
 7469SOL    HW133866   0.729   0.056   6.218 -0.8376 -0.2436 -0.9563
 7469SOL    HW233867   0.625   0.089   6.122 -0.4182 -0.1674  1.6518
 7470SOL     OW33868   0.880   3.511   2.053 -0.0629  0.0504  0.0648
 7470SOL    HW133869   0.856   3.453   2.125 -0.5805 -1.5937 -1.4096
 7470SOL    HW233870   0.946   3.459   2.007 -0.5583 -0.7746  0.2825
 7471SOL     OW33871   3.115   4.276   3.004  0.2703  0.3114  0.3437
 7471SOL    HW133872   3.095   4.326   2.925 -2.4922 -0.8765  0.2687
 7471SOL    HW233873   3.076   4.329   3.074 -1.0851  1.0772 -0.9936
 7472SOL     OW33874   3.733   3.610   2.740 -0.8919 -0.2046  0.3264
 7472SOL    HW133875   3.796   3.573   2.802 -0.2916 -1.6642 -1.1590
 7472SOL    HW233876   3.760   3.702   2.743 -0.7287 -0.1611 -2.8731
 7473SOL     OW33877   0.097   1.831   6.083 -0.7363  0.1786 -0.1293
 7473SOL    HW133878   0.150   1.798   6.156 -0.6632 -0.9834 -0.6994
 7473SOL    HW233879   0.013   1.787   6.096  0.3971 -1.6550  1.0280
 7474SOL     OW33880   2.334   2.870   4.950 -0.4195 -0.7116 -0.0111
 7474SOL    HW133881   2.361   2.927   4.879 -1.7000  0.6330  0.5855
 7474SOL    HW233882   2.387   2.790   4.944  3.2702  1.6848  0.7878
 7475SOL     OW33883   3.215   2.794   9.541  0.0450 -0.2541  0.3400
 7475SOL    HW133884   3.159   2.853   9.491  1.3545  1.6281  1.0900
 7475SOL    HW233885   3.151   2.751   9.597 -0.3430  0.0582  0.1390
 7476SOL     OW33886   3.868   3.202   9.128  0.3168  0.3159 -0.5980
 7476SOL    HW133887   3.785   3.160   9.149  2.5898 -3.4244  0.7510
 7476SOL    HW233888   3.828   3.287   9.108 -0.5099  0.3855  1.3285
 7477SOL     OW33889   4.073   1.062   6.872 -0.3976 -0.3419 -0.5476
 7477SOL    HW133890   4.154   1.017   6.895 -0.6635 -0.1359  0.7837
 7477SOL    HW233891   4.052   1.134   6.932 -0.7090 -0.4572 -0.5205
 7478SOL     OW33892   0.187   4.042   1.623 -0.0581 -0.6591 -0.0195
 7478SOL    HW133893   0.173   3.975   1.556  0.6907 -1.2129  0.3756
 7478SOL    HW233894   0.223   3.992   1.697  1.1159  0.8957  0.4648
 7479SOL     OW33895   3.141   1.884  16.923  0.5416  0.1430  0.1391
 7479SOL    HW133896   3.199   1.917  16.854  1.5153 -0.3217  0.7370
 7479SOL    HW233897   3.112   1.799  16.890  0.8418  0.3011 -0.5287
 7480SOL     OW33898   1.892   4.624   5.725 -0.0722  0.4395 -0.2522
 7480SOL    HW133899   1.863   4.535   5.748  1.0947  0.0953 -0.0939
 7480SOL    HW233900   1.944   4.603   5.647 -0.5058 -1.4616 -0.0319
 7481SOL     OW33901   0.746   4.642  15.708 -0.1099  0.4783  0.0646
 7481SOL    HW133902   0.785   4.568  15.755  1.0386  0.3967 -1.0346
 7481SOL    HW233903   0.652   4.640  15.725 -0.2201 -0.4362 -0.6436
 7482SOL     OW33904   3.586   0.865   2.860  0.6389 -0.1063  0.3897
 7482SOL    HW133905   3.528   0.876   2.784  0.0563 -0.2603  0.8140
 7482SOL    HW233906   3.620   0.954   2.871  0.7301  0.0283 -0.9974
 7483SOL     OW33907   1.919   3.101   1.612  0.1384 -0.1453 -0.0601
 7483SOL    HW133908   1.871   3.105   1.530 -1.2947 -0.8698  0.7371
 7483SOL    HW233909   1.905   3.187   1.651 -0.8835 -0.7135  0.8452
 7484SOL     OW33910   4.305   0.897   6.949  0.5257  0.7480 -0.2161
 7484SOL    HW133911   4.271   0.861   7.030 -0.0067 -1.4433 -1.4204
 7484SOL    HW233912   4.383   0.932   6.992  1.7923 -1.9670 -0.2826
 7485SOL     OW33913   2.794   1.102   6.217  0.2490 -0.0526 -0.2618
 7485SOL    HW133914   2.747   1.019   6.221  2.3773 -1.2990 -1.6324
 7485SOL    HW233915   2.875   1.077   6.173 -0.0601 -0.1449 -0.7709
 7486SOL     OW33916   1.934   4.264  17.436  0.3437  0.3114 -0.4286
 7486SOL    HW133917   1.898   4.313  17.362  1.1546  0.4478 -0.7247
 7486SOL    HW233918   1.868   4.245  17.503  2.3162 -2.2712  0.7461
 7487SOL     OW33919   4.318   4.030   8.589  0.0324 -0.1054 -0.6088
 7487SOL    HW133920   4.259   4.055   8.659  0.6701  1.5466 -0.6654
 7487SOL    HW233921   4.396   4.043   8.643 -0.4528 -0.9274  0.2726
 7488SOL     OW33922   3.910   4.268   6.468 -0.1473 -0.3687 -0.3158
 7488SOL    HW133923   3.928   4.174   6.474 -0.3036 -0.3589  0.3501
 7488SOL    HW233924   3.829   4.277   6.418 -0.5983  3.9003  1.1851
 7489SOL     OW33925   1.390   0.277  11.032 -0.0224  0.2263  0.0979
 7489SOL    HW133926   1.356   0.366  11.047  0.0780  0.4490 -1.0304
 7489SOL    HW233927   1.434   0.271  10.948 -0.3702 -2.1949  0.1103
 7490SOL     OW33928   3.555   0.711  12.201 -0.0776  0.7378  0.1152
 7490SOL    HW133929   3.585   0.742  12.286  1.7450 -0.7173 -0.0091
 7490SOL    HW233930   3.632   0.727  12.146 -0.4923 -0.7205 -0.8768
 7491SOL     OW33931   2.665   3.853  16.649  0.0129  0.0998 -0.2536
 7491SOL    HW133932   2.689   3.946  16.646 -2.4449  0.7762  1.1648
 7491SOL    HW233933   2.618   3.852  16.565 -0.9931  0.4925  0.2991
 7492SOL     OW33934   3.756   2.303   5.982 -0.1751  0.0180 -0.2767
 7492SOL    HW133935   3.682   2.335   5.930 -0.0197  0.9289  0.0599
 7492SOL    HW233936   3.745   2.208   5.975  0.5455 -0.0797 -0.0506
 7493SOL     OW33937   4.516   0.412   7.322  0.2370 -0.2661 -0.8530
 7493SOL    HW133938   4.554   0.452   7.400  0.0692 -0.7712 -0.5146
 7493SOL    HW233939   4.589   0.402   7.260  1.1273  3.5429 -0.4063
 7494SOL     OW33940   3.374   2.270   0.223 -0.1729  0.5649  0.0285
 7494SOL    HW133941   3.467   2.288   0.209 -0.1021 -0.1315 -0.4047
 7494SOL    HW233942   3.351   2.258   0.131  0.1784  1.6971 -0.1984
 7495SOL     OW33943   0.968   3.470  11.527 -0.2601 -0.2157  0.3154
 7495SOL    HW133944   0.916   3.496  11.603  0.0887  0.5925  0.2766
 7495SOL    HW233945   0.998   3.557  11.500 -3.0816  0.6556 -0.0196
 7496SOL     OW33946   3.200   0.573  15.972  0.4488  0.4384 -0.1239
 7496SOL    HW133947   3.133   0.507  15.991  1.0920  0.2353  1.4529
 7496SOL    HW233948   3.256   0.547  16.045  0.4827 -3.6313 -1.5559
 7497SOL     OW33949   1.188   4.044  11.620 -0.0838  0.5872 -0.1832
 7497SOL    HW133950   1.132   4.002  11.685 -1.2519 -0.7780 -2.0496
 7497SOL    HW233951   1.275   4.008  11.639 -0.1360  0.8451  0.5111
 7498SOL     OW33952   2.471   3.357   7.488 -0.7195  0.4114  0.3710
 7498SOL    HW133953   2.412   3.296   7.443 -3.0750  2.4406  0.7585
 7498SOL    HW233954   2.436   3.432   7.441  0.6340  1.2886  0.7806
 7499SOL     OW33955   2.375   3.512   8.330  0.7392  0.0360  0.3553
 7499SOL    HW133956   2.328   3.462   8.263  1.3754 -0.6359  0.3997
 7499SOL    HW233957   2.459   3.465   8.325  1.0563  0.6684 -0.2573
 7500SOL     OW33958   3.088   0.572   7.980 -0.1240 -0.4329 -0.1000
 7500SOL    HW133959   3.066   0.538   8.066  1.8065  1.1916  1.0350
 7500SOL    HW233960   3.141   0.651   7.992 -0.2729 -0.0906 -1.5922
 7501SOL     OW33961   1.523   0.391  11.523 -0.2501  0.6319 -0.2582
 7501SOL    HW133962   1.508   0.395  11.618 -1.9375 -3.7691 -0.3796
 7501SOL    HW233963   1.618   0.403  11.528 -0.1577  0.5341 -2.0454
 7502SOL     OW33964   0.806   3.391   8.474 -0.1341  0.0109 -0.5007
 7502SOL    HW133965   0.734   3.382   8.536  0.3679  0.4442  0.1389
 7502SOL    HW233966   0.807   3.486   8.465 -0.4795 -0.1905 -2.5629
 7503SOL     OW33967   2.925   0.815   2.961 -0.0929  0.0363 -0.0730
 7503SOL    HW133968   2.880   0.790   2.881  1.1522  0.1659 -0.8287
 7503SOL    HW233969   2.981   0.882   2.919 -0.2837 -1.0806 -2.1198
 7504SOL     OW33970   1.910   4.345   3.958  0.1997 -0.1426  0.0611
 7504SOL    HW133971   1.832   4.290   3.967 -0.6535  1.5078  2.7333
 7504SOL    HW233972   1.928   4.331   3.865 -0.2672 -1.6607  0.2023
 7505SOL     OW33973   3.442   2.740  11.622  0.2881 -0.2116  0.0078
 7505SOL    HW133974   3.402   2.827  11.630 -0.3638 -0.5636  0.6953
 7505SOL    HW233975   3.532   2.769  11.610  0.7260 -0.4934  2.5624
 7506SOL     OW33976   3.344   4.630  13.308 -0.1991 -0.1181 -0.8307
 7506SOL    HW133977   3.419   4.602  13.257 -0.0948 -0.6975 -0.3518
 7506SOL    HW233978   3.336   4.721  13.278  2.2867  0.4546  0.2770
 7507SOL     OW33979   2.119   2.904   4.006  0.9352 -0.3553 -0.2878
 7507SOL    HW133980   2.146   2.951   3.927  1.6192  2.1880  1.4653
 7507SOL    HW233981   2.052   2.963   4.041  1.2947 -1.7896  2.8227
 7508SOL     OW33982   2.830   4.025  12.264  0.2566  0.4049  0.2813
 7508SOL    HW133983   2.812   4.116  12.289 -3.5074  0.0615 -1.1885
 7508SOL    HW233984   2.754   3.987  12.306  0.1815  0.5786  0.3038
 7509SOL     OW33985   2.129   4.425   3.692 -0.6237  0.2131  0.1936
 7509SOL    HW133986   2.068   4.433   3.619  0.7072 -1.4071 -1.0849
 7509SOL    HW233987   2.163   4.336   3.679  1.1500  0.6715  1.6085
 7510SOL     OW33988   3.376   4.514  11.274  0.4150  0.3396  0.1394
 7510SOL    HW133989   3.407   4.507  11.184 -0.5789 -3.4545  0.0723
 7510SOL    HW233990   3.450   4.566  11.307  2.8226 -2.5246 -0.7273
 7511SOL     OW33991   3.258   1.698  11.776  1.2163  0.1100 -0.2847
 7511SOL    HW133992   3.289   1.673  11.863  2.1042 -1.0305 -0.9302
 7511SOL    HW233993   3.209   1.626  11.736  1.2572  0.7322 -1.4657
 7512SOL     OW33994   4.632   0.041   6.176  0.4399 -0.0118 -0.0901
 7512SOL    HW133995   4.682   0.122   6.189  1.0593 -0.5826  1.0992
 7512SOL    HW233996   4.686   4.709   6.235  2.1981  0.0041 -1.6762
 7513SOL     OW33997   1.263   1.611   2.242 -0.5123 -0.3796 -1.0893
 7513SOL    HW133998   1.178   1.581   2.275 -0.5149  0.5337 -0.2833
 7513SOL    HW233999   1.302   1.524   2.230  0.0525 -0.0325 -1.7756
 7514SOL     OW34000   2.261   4.505   4.644 -0.3414 -0.3485  0.8321
 7514SOL    HW134001   2.267   4.519   4.550 -0.9876  0.4730  0.9108
 7514SOL    HW234002   2.352   4.515   4.675  0.0403 -1.0140 -0.0899
 7515SOL     OW34003   0.934   3.608   5.173 -0.0845 -0.7252 -0.4467
 7515SOL    HW134004   0.868   3.628   5.107 -4.3602 -1.2299  3.6473
 7515SOL    HW234005   0.871   3.594   5.244 -1.1822 -0.3010 -1.3445
 7516SOL     OW34006   4.449   0.495   8.288  0.1265 -0.1250 -0.7619
 7516SOL    HW134007   4.370   0.506   8.235 -0.2277 -1.0049 -0.4196
 7516SOL    HW234008   4.443   0.569   8.349  1.2502  1.0348 -2.0620
 7517SOL     OW34009   0.558   3.594  12.800 -0.2977  0.0344 -0.9342
 7517SOL    HW134010   0.471   3.605  12.839 -0.8518  0.5422 -2.3117
 7517SOL    HW234011   0.609   3.596  12.881 -0.6921 -0.2975 -0.6761
 7518SOL     OW34012   3.470   1.243   9.115 -0.6117 -0.2188 -0.4025
 7518SOL    HW134013   3.540   1.303   9.090 -0.2617  0.5285  2.4069
 7518SOL    HW234014   3.496   1.162   9.072  0.4430  0.2390 -0.6227
 7519SOL     OW34015   4.710   3.004   2.024  0.0967 -0.3154  0.2393
 7519SOL    HW134016   0.049   3.075   2.002 -1.4732  1.0886  0.4189
 7519SOL    HW234017   4.624   3.036   1.997  0.7425 -1.8400 -3.5156
 7520SOL     OW34018   4.010   0.076   8.691  0.6547 -0.1800  0.1643
 7520SOL    HW134019   4.091   0.117   8.659 -0.4748  1.1290 -1.0281
 7520SOL    HW234020   4.019   4.702   8.684 -0.6716 -0.3471  0.6818
 7521SOL     OW34021   3.666   2.235   9.658 -0.2243  0.3606 -0.0259
 7521SOL    HW134022   3.757   2.228   9.685  0.0484 -0.2339 -1.0899
 7521SOL    HW234023   3.641   2.321   9.692 -0.1107 -1.6151  4.9847
 7522SOL     OW34024   3.987   1.622   7.164  0.0994 -0.0453 -0.3481
 7522SOL    HW134025   4.040   1.610   7.242 -1.8910  2.0624  1.3438
 7522SOL    HW234026   3.965   1.714   7.180 -0.7753 -0.3574  0.2481
 7523SOL     OW34027   1.288   4.436  12.082 -0.0164  0.7309  0.8637
 7523SOL    HW134028   1.373   4.413  12.044 -0.7635 -2.1623  0.9711
 7523SOL    HW234029   1.308   4.420  12.175  0.2469  1.4265  0.9324
 7524SOL     OW34030   0.427   4.631   5.202 -0.3281 -0.0254 -0.2889
 7524SOL    HW134031   0.353   4.692   5.195  1.2906  1.6020 -2.9648
 7524SOL    HW234032   0.378   4.559   5.163  2.2295 -1.8517 -0.1273
 7525SOL     OW34033   2.838   4.638   0.219  0.1332 -0.0540 -0.2157
 7525SOL    HW134034   2.809   4.641   0.127  0.5699  1.7579 -0.2983
 7525SOL    HW234035   2.863   4.546   0.223  0.3790 -0.0423 -1.4860
 7526SOL     OW34036   3.224   0.597  12.486 -0.1851  0.0561 -0.5091
 7526SOL    HW134037   3.133   0.608  12.511 -0.1705 -0.0212 -0.4189
 7526SOL    HW234038   3.231   0.504  12.466 -1.6747  0.2239 -1.7728
 7527SOL     OW34039   0.137   1.832   4.674  0.1392 -0.4580  0.0269
 7527SOL    HW134040   0.077   1.796   4.609  0.0541 -1.3301  0.5919
 7527SOL    HW234041   0.066   1.852   4.735  0.7782 -1.8269  1.2094
 7528SOL     OW34042   3.651   4.696   7.316 -0.2249  0.5944 -0.4957
 7528SOL    HW134043   3.667   0.021   7.233 -2.3455  0.8155 -0.7870
 7528SOL    HW234044   3.725   0.012   7.365  1.0598 -0.4905 -1.6042
 7529SOL     OW34045   0.225   2.532   3.263 -0.0441  0.3236 -0.5335
 7529SOL    HW134046   0.168   2.458   3.282  0.7291  0.0874  0.8244
 7529SOL    HW234047   0.186   2.580   3.190 -2.5283 -0.1869  0.4440
 7530SOL     OW34048   3.523   3.662   1.423 -0.1812 -0.5237  0.1385
 7530SOL    HW134049   3.591   3.596   1.433  0.2647 -0.1988 -0.8087
 7530SOL    HW234050   3.516   3.698   1.512  2.4800  0.6348 -0.1426
 7531SOL     OW34051   1.898   1.182   4.407 -0.3329 -0.3008  0.0724
 7531SOL    HW134052   1.889   1.211   4.497 -2.3201 -2.0201  0.4393
 7531SOL    HW234053   1.947   1.100   4.412 -0.2949 -0.1538  2.0358
 7532SOL     OW34054   0.236   2.665   2.696 -0.6066 -0.2462  0.2461
 7532SOL    HW134055   0.197   2.624   2.619  0.3978 -1.0355  0.1612
 7532SOL    HW234056   0.310   2.604   2.702  1.6137  2.3277 -1.1920
 7533SOL     OW34057   1.382   0.994   1.099 -0.4449  0.4345 -0.0257
 7533SOL    HW134058   1.331   0.940   1.159 -1.2435 -0.0526 -1.1496
 7533SOL    HW234059   1.458   0.941   1.073 -0.4746  0.2891  0.1864
 7534SOL     OW34060   1.740   3.508  13.890 -0.3792  0.2337  0.4735
 7534SOL    HW134061   1.744   3.517  13.795  1.0877  0.1341  0.5267
 7534SOL    HW234062   1.821   3.466  13.918 -0.2762  0.9248  1.2141
 7535SOL     OW34063   4.675   2.090   5.828  0.2224  0.3181  0.5403
 7535SOL    HW134064   4.719   2.026   5.773 -1.5740 -1.2836  0.9534
 7535SOL    HW234065   4.712   2.075   5.915 -2.4956 -2.9818  1.1245
 7536SOL     OW34066   0.684   3.884  12.909 -0.5068 -0.0432  0.4780
 7536SOL    HW134067   0.596   3.852  12.930 -0.5534 -0.1991  0.0502
 7536SOL    HW234068   0.669   3.949  12.840 -2.6631  1.9351  2.7703
 7537SOL     OW34069   2.756   4.016   0.440 -0.2343  0.6849  0.2396
 7537SOL    HW134070   2.698   3.944   0.463  0.8867 -0.8696 -1.7534
 7537SOL    HW234071   2.787   3.977   0.357 -0.0560 -1.3877  1.2777
 7538SOL     OW34072   1.466   0.618   6.423 -0.2396 -0.1323  0.3219
 7538SOL    HW134073   1.422   0.541   6.386  0.3676 -0.2086 -0.2372
 7538SOL    HW234074   1.453   0.677   6.349  2.5499  2.7489  2.1363
 7539SOL     OW34075   1.306   1.345   2.495 -0.3568  0.5573  0.4335
 7539SOL    HW134076   1.324   1.344   2.401 -0.8672 -0.4452  0.3505
 7539SOL    HW234077   1.239   1.277   2.502  0.0655  0.0256 -0.6938
 7540SOL     OW34078   2.183   3.313  12.565 -0.4599  0.0960  0.5733
 7540SOL    HW134079   2.206   3.362  12.644  0.7525  0.7900 -0.1964
 7540SOL    HW234080   2.092   3.343  12.562 -0.5011  0.0355  1.4020
 7541SOL     OW34081   2.436   2.761   5.388  0.3374 -0.4836  0.5786
 7541SOL    HW134082   2.429   2.835   5.448  1.1361  1.0976 -1.2901
 7541SOL    HW234083   2.495   2.798   5.323  0.6770 -0.7297  0.7499
 7542SOL     OW34084   4.480   3.286   7.894 -0.5009  0.1273 -0.5246
 7542SOL    HW134085   4.472   3.336   7.813 -1.2517 -0.6161 -0.9029
 7542SOL    HW234086   4.441   3.339   7.963 -0.7705  0.6825 -1.0986
 7543SOL     OW34087   1.005   3.209   5.002  0.6942  0.3577 -0.6168
 7543SOL    HW134088   1.008   3.247   5.089  1.5779 -1.2831  0.0628
 7543SOL    HW234089   0.912   3.195   4.986  0.4034 -2.2633  3.4115
 7544SOL     OW34090   0.851   3.113   9.184  0.0361  0.5932  0.4039
 7544SOL    HW134091   0.758   3.138   9.190  0.6599  2.8929  0.3030
 7544SOL    HW234092   0.873   3.121   9.276  2.2631  1.3337 -0.2079
 7545SOL     OW34093   3.302   0.494   5.927  0.3920  0.2832 -0.0437
 7545SOL    HW134094   3.339   0.481   6.015 -0.5593 -1.0505  0.1420
 7545SOL    HW234095   3.258   0.412   5.907  2.0450 -0.5531 -0.2138
 7546SOL     OW34096   0.792   0.407   5.874 -0.3669 -0.4109  0.2324
 7546SOL    HW134097   0.869   0.351   5.868  0.2052  0.4728 -0.4477
 7546SOL    HW234098   0.783   0.412   5.970 -2.2997  0.2281  0.0114
 7547SOL     OW34099   2.902   3.123   4.529  0.4861 -0.4404 -1.0225
 7547SOL    HW134100   2.933   3.076   4.607  1.7526  0.7546 -0.7897
 7547SOL    HW234101   2.969   3.100   4.465  3.1535 -0.1837  1.6682
 7548SOL     OW34102   2.930   0.614   3.150  0.0885 -0.0335 -0.5403
 7548SOL    HW134103   3.003   0.637   3.207 -0.2837 -0.8086  0.2493
 7548SOL    HW234104   2.932   0.682   3.083  0.1851 -0.2115 -0.7195
 7549SOL     OW34105   0.008   4.485   7.537  0.4247 -0.0382  0.5046
 7549SOL    HW134106   0.092   4.525   7.515  0.7548 -0.1345  1.5685
 7549SOL    HW234107   4.701   4.540   7.611  3.7253  1.4658  0.6161
 7550SOL     OW34108   2.852   4.183   6.496  0.4626 -0.1872  0.0414
 7550SOL    HW134109   2.848   4.183   6.592  2.6957 -0.9666  0.1411
 7550SOL    HW234110   2.758   4.196   6.482  0.5690  0.3583 -0.1660
 7551SOL     OW34111   3.034   3.064   2.769  0.2159 -0.0329 -0.1286
 7551SOL    HW134112   2.953   3.092   2.813  0.0689 -0.8698  0.1413
 7551SOL    HW234113   3.060   3.139   2.716 -0.9262 -1.3106 -2.4832
 7552SOL     OW34114   1.076   3.425   1.824 -0.0196 -0.2210 -0.1954
 7552SOL    HW134115   1.019   3.444   1.749  0.9767  0.6991 -0.7187
 7552SOL    HW234116   1.060   3.331   1.826 -4.3610  0.5207 -1.0455
 7553SOL     OW34117   0.437   3.876   7.970 -0.5787 -0.5589  0.4762
 7553SOL    HW134118   0.462   3.887   8.062  2.2746 -4.1974  0.1524
 7553SOL    HW234119   0.475   3.789   7.961 -0.2143 -0.2758 -0.6415
 7554SOL     OW34120   0.069   3.573   5.698 -0.6148 -0.1111  1.0232
 7554SOL    HW134121   0.038   3.571   5.788 -0.9248 -0.7093  0.9028
 7554SOL    HW234122   0.029   3.656   5.671  1.8656  0.6303 -0.3816
 7555SOL     OW34123   4.659   0.242   4.054  0.0162 -0.0623 -0.2925
 7555SOL    HW134124   4.660   0.185   3.976  0.4658 -1.6153  0.8417
 7555SOL    HW234125   4.627   0.180   4.120  0.3080 -2.6875 -2.5818
 7556SOL     OW34126   3.094   1.191   5.626  0.5698  0.7401 -0.2912
 7556SOL    HW134127   3.150   1.122   5.660 -1.4420 -0.1162  1.3309
 7556SOL    HW234128   3.112   1.265   5.684 -0.6415  0.7784  0.0421
 7557SOL     OW34129   0.249   4.178  11.295 -0.4094 -0.0052  0.7764
 7557SOL    HW134130   0.237   4.156  11.202 -1.3465 -1.4571  1.2452
 7557SOL    HW234131   0.275   4.091  11.325  3.1421  0.4068 -1.0697
 7558SOL     OW34132   0.856   2.780  13.864  0.0556  0.2111  0.3965
 7558SOL    HW134133   0.766   2.760  13.838 -0.1277  2.4265 -0.6886
 7558SOL    HW234134   0.875   2.871  13.839 -0.8392 -0.1718 -1.6661
 7559SOL     OW34135   0.710   3.433  13.232 -0.1451  0.1843  0.1812
 7559SOL    HW134136   0.756   3.482  13.164 -1.2018 -0.6494 -1.1370
 7559SOL    HW234137   0.636   3.490  13.254 -1.9124 -2.4265  0.9765
 7560SOL     OW34138   2.108   3.297   2.638  0.6488 -0.7686  0.1326
 7560SOL    HW134139   2.202   3.280   2.644  1.0450  1.6837  1.1318
 7560SOL    HW234140   2.105   3.392   2.652 -0.1004 -0.1791 -3.9902
 7561SOL     OW34141   4.027   0.473   1.760 -0.4552 -0.0111  0.3094
 7561SOL    HW134142   3.998   0.515   1.841 -0.0148 -0.1962  0.5591
 7561SOL    HW234143   3.946   0.462   1.710 -0.0951  0.4238 -0.3753
 7562SOL     OW34144   2.503   2.646   5.628 -0.4256 -0.3543 -0.0743
 7562SOL    HW134145   2.496   2.691   5.544 -0.5685 -1.7520 -0.8125
 7562SOL    HW234146   2.424   2.676   5.673  0.1741  1.7189 -0.4307
 7563SOL     OW34147   1.718   2.408   7.499  0.1669 -0.3990  0.1042
 7563SOL    HW134148   1.797   2.460   7.486 -0.8318  0.5845 -2.0215
 7563SOL    HW234149   1.664   2.441   7.427 -0.0284  0.3569  0.6033
 7564SOL     OW34150   1.543   2.988   0.125 -0.0628  0.3784 -0.3602
 7564SOL    HW134151   1.481   2.984   0.198 -1.6063 -2.0245 -1.7970
 7564SOL    HW234152   1.618   3.003   0.183 -0.1239 -0.3116 -0.1043
 7565SOL     OW34153   2.274   3.330   8.182 -0.2004  0.8048  0.1193
 7565SOL    HW134154   2.286   3.251   8.235 -0.2428  0.9540  0.3506
 7565SOL    HW234155   2.315   3.292   8.104  0.4716  0.7373  0.5051
 7566SOL     OW34156   2.140   2.843   2.691 -0.2086  0.4245 -0.1883
 7566SOL    HW134157   2.229   2.823   2.662 -0.7261 -0.4478 -1.2097
 7566SOL    HW234158   2.096   2.759   2.673 -1.1171  0.7971  0.2993
 7567SOL     OW34159   1.992   1.879  10.541 -0.1304  0.2804  0.5404
 7567SOL    HW134160   1.972   1.961  10.496 -1.9127  0.5772  1.8654
 7567SOL    HW234161   2.025   1.909  10.626  0.0721  1.2146  0.1337
 7568SOL     OW34162   1.980   0.812   9.143  0.2913 -0.3798  0.2634
 7568SOL    HW134163   1.892   0.824   9.179  0.1799  0.8397 -0.3966
 7568SOL    HW234164   1.981   0.717   9.145  1.2003 -0.3571  0.9228
 7569SOL     OW34165   0.852   1.409  15.881  0.5479 -0.1301 -0.0777
 7569SOL    HW134166   0.780   1.351  15.857  0.9688 -0.2290 -1.0988
 7569SOL    HW234167   0.927   1.350  15.881 -1.5442 -2.7785 -0.5024
 7570SOL     OW34168   4.384   0.712  11.585  0.5099 -0.0955  0.0244
 7570SOL    HW134169   4.340   0.636  11.547 -1.1392  0.4807  0.7433
 7570SOL    HW234170   4.477   0.689  11.583  0.4563 -0.7422  4.3444
 7571SOL     OW34171   2.362   2.620   0.833 -0.1932 -0.2253  0.0647
 7571SOL    HW134172   2.391   2.550   0.891 -1.6331  0.1914  1.2737
 7571SOL    HW234173   2.283   2.652   0.877  0.1282  0.9336 -0.2035
 7572SOL     OW34174   4.678   3.181   4.533  0.5490 -0.1979 -0.1234
 7572SOL    HW134175   4.652   3.090   4.545  0.6309 -0.2346 -0.2189
 7572SOL    HW234176   4.636   3.203   4.449 -2.8858 -1.1689  1.3622
 7573SOL     OW34177   2.761   2.156   3.545 -0.1565 -0.7543  0.1050
 7573SOL    HW134178   2.850   2.191   3.547 -0.7271  0.7714 -0.9453
 7573SOL    HW234179   2.710   2.203   3.480  0.3314  0.9907  0.9937
 7574SOL     OW34180   0.511   3.235   7.530 -0.0591  0.4598  0.0808
 7574SOL    HW134181   0.456   3.161   7.505 -1.4461  1.3829  0.4234
 7574SOL    HW234182   0.572   3.197   7.593 -0.5743  0.5903  0.6542
 7575SOL     OW34183   1.259   2.357   3.396 -0.0558  0.9565  0.1324
 7575SOL    HW134184   1.251   2.434   3.452 -0.3811 -0.6851  2.3516
 7575SOL    HW234185   1.324   2.385   3.332 -0.8214  0.6004 -0.8097
 7576SOL     OW34186   1.922   2.986   7.162  0.3821 -0.2157 -0.0184
 7576SOL    HW134187   1.926   3.075   7.198  0.7404  0.5731 -1.9807
 7576SOL    HW234188   1.846   2.954   7.212 -0.9120 -0.6076 -2.2413
 7577SOL     OW34189   2.447   2.659  13.670  0.0110  0.1730  0.0429
 7577SOL    HW134190   2.462   2.748  13.637 -0.1393 -0.0754 -0.6823
 7577SOL    HW234191   2.360   2.646  13.633  0.0208 -0.4323  0.2276
 7578SOL     OW34192   3.930   3.724  13.552  0.1463  0.7691  0.9035
 7578SOL    HW134193   3.928   3.798  13.492 -1.0858  0.6434  0.8009
 7578SOL    HW234194   3.867   3.748  13.620  0.4283  2.2369  0.6475
 7579SOL     OW34195   1.200   2.959   9.147  0.0322  0.0470  0.1552
 7579SOL    HW134196   1.162   2.939   9.232 -1.5133 -2.5857 -1.1680
 7579SOL    HW234197   1.198   3.055   9.151 -0.4014 -0.0356  1.7402
 7580SOL     OW34198   4.584   2.463  10.121 -0.0935  0.0369  0.9459
 7580SOL    HW134199   4.561   2.536  10.063 -1.2336 -0.3807  0.8713
 7580SOL    HW234200   4.667   2.429  10.088  0.4924  1.4944  0.8911
 7581SOL     OW34201   2.970   0.078   6.679 -0.2208 -0.5444  0.0490
 7581SOL    HW134202   2.957   0.034   6.595 -1.0951 -2.3483  1.1366
 7581SOL    HW234203   2.997   0.004   6.733 -0.0134  0.0647  0.7816
 7582SOL     OW34204   4.452   0.134   7.315  0.3841 -0.1814 -0.0412
 7582SOL    HW134205   4.428   0.223   7.341 -1.1397 -0.5432 -0.2226
 7582SOL    HW234206   4.470   0.093   7.399 -0.6037  0.2351  0.3760
 7583SOL     OW34207   0.317   3.972   4.956  0.3930  0.5092  0.6110
 7583SOL    HW134208   0.222   3.979   4.967  0.5850  1.5999  1.5396
 7583SOL    HW234209   0.333   3.880   4.973 -2.7142  0.2538  2.2384
 7584SOL     OW34210   2.297   4.300  16.014 -0.0681  0.5138 -0.5510
 7584SOL    HW134211   2.367   4.240  16.039  0.4244  2.0465  1.7752
 7584SOL    HW234212   2.240   4.282  16.090  0.9949 -1.8969 -0.3267
 7585SOL     OW34213   1.889   0.036   3.227  0.3878  0.0757  0.6249
 7585SOL    HW134214   1.948   0.000   3.294 -0.1699  1.4459  1.8545
 7585SOL    HW234215   1.944   0.102   3.184 -1.6552  0.5152 -1.2888
 7586SOL     OW34216   4.002   2.685   5.307  0.5204  0.2266 -0.1685
 7586SOL    HW134217   3.936   2.650   5.367  0.7450  0.0407 -0.0293
 7586SOL    HW234218   4.001   2.624   5.233 -0.5288 -0.1405  0.1425
 7587SOL     OW34219   3.086   3.740  15.490 -0.5573 -0.1676  0.0355
 7587SOL    HW134220   3.070   3.794  15.413  3.7102 -0.4657 -1.1015
 7587SOL    HW234221   2.999   3.713  15.519 -0.6529  0.4934  0.3730
 7588SOL     OW34222   1.588   4.473  17.659 -0.0388  0.1468 -0.5770
 7588SOL    HW134223   1.512   4.518  17.623 -2.5821 -0.3333  4.3315
 7588SOL    HW234224   1.652   4.542  17.638  0.1044  0.3306  0.4653
 7589SOL     OW34225   1.816   4.381   0.740 -0.4849  0.4351 -0.1674
 7589SOL    HW134226   1.747   4.435   0.702  0.8380  1.3155 -1.3310
 7589SOL    HW234227   1.763   4.324   0.795 -0.3843 -0.3382 -0.8591
 7590SOL     OW34228   1.634   1.876  11.009  0.3092  0.1849 -0.0792
 7590SOL    HW134229   1.719   1.843  10.981 -0.0288 -2.2770  1.8360
 7590SOL    HW234230   1.579   1.855  10.934  0.7371 -0.7485 -0.1325
 7591SOL     OW34231   2.192   0.106   5.185  0.4159 -0.3058 -0.5504
 7591SOL    HW134232   2.266   0.167   5.189  1.1404 -1.1527 -0.9297
 7591SOL    HW234233   2.176   0.087   5.277 -0.4869 -0.9935 -0.8566
 7592SOL     OW34234   2.115   1.156  11.397 -0.6368 -0.0508 -0.2053
 7592SOL    HW134235   2.119   1.063  11.376  0.8375  0.2974 -1.4660
 7592SOL    HW234236   2.177   1.164  11.470 -0.3063 -2.8065 -0.1665
 7593SOL     OW34237   3.871   3.836   2.841  0.2361  0.0233 -0.5102
 7593SOL    HW134238   3.957   3.865   2.869  0.6657 -1.5095 -0.2394
 7593SOL    HW234239   3.842   3.893   2.770  0.6828  0.0080 -0.6986
 7594SOL     OW34240   4.206   4.318   7.761 -0.1696  0.4361  0.0093
 7594SOL    HW134241   4.261   4.268   7.821  1.0367 -1.3231 -2.5511
 7594SOL    HW234242   4.155   4.372   7.821 -1.9204 -1.0978 -0.1185
 7595SOL     OW34243   1.588   1.820   9.727  0.3739  0.7540  0.1669
 7595SOL    HW134244   1.602   1.752   9.661 -1.5928  0.7992 -0.2821
 7595SOL    HW234245   1.602   1.766   9.804 -1.5615  0.2446  0.1633
 7596SOL     OW34246   0.804   0.031   2.246  0.0573  0.0560  0.2985
 7596SOL    HW134247   0.840   4.691   2.182  0.8188  0.3234  0.4744
 7596SOL    HW234248   0.727   4.701   2.271 -1.7094  1.4344 -2.1569
 7597SOL     OW34249   1.306   0.915   0.769 -0.2272 -0.4482 -0.1354
 7597SOL    HW134250   1.293   0.916   0.864  0.4363 -0.1271 -0.0486
 7597SOL    HW234251   1.244   0.845   0.751  0.3837 -1.6480  2.4822
 7598SOL     OW34252   1.260   2.353   2.511  0.3208  0.0902 -0.1957
 7598SOL    HW134253   1.170   2.345   2.480 -0.1620 -2.6610  1.8733
 7598SOL    HW234254   1.312   2.299   2.452  2.0422 -0.0317  1.4100
 7599SOL     OW34255   0.395   2.260   4.535  0.1399 -0.2602 -0.2780
 7599SOL    HW134256   0.414   2.317   4.610  0.5887 -1.7605  0.7295
 7599SOL    HW234257   0.461   2.192   4.535  1.0239  0.6023  0.8915
 7600SOL     OW34258   4.184   2.644   7.931  0.6359 -0.2320 -0.0291
 7600SOL    HW134259   4.116   2.620   7.995  0.5490 -1.9539 -0.7807
 7600SOL    HW234260   4.223   2.558   7.919 -1.0248 -1.1889  1.5012
 7601SOL     OW34261   0.505   3.620  11.242 -0.2692  0.2205  0.5597
 7601SOL    HW134262   0.577   3.632  11.181  0.3951  0.6389  1.4311
 7601SOL    HW234263   0.459   3.548  11.199 -2.6895  1.4943  0.9767
 7602SOL     OW34264   2.765   4.535   7.034  0.3104 -0.0805  0.1025
 7602SOL    HW134265   2.675   4.520   7.063  0.5359 -1.7654 -0.0700
 7602SOL    HW234266   2.773   4.487   6.951  4.0923  0.3494  0.1963
 7603SOL     OW34267   4.692   3.089  17.474 -0.2700  0.0869 -0.4126
 7603SOL    HW134268   0.048   3.043  17.507 -0.8169  0.8416  1.9007
 7603SOL    HW234269   0.005   3.178  17.463 -0.6014  0.3317  0.5959
 7604SOL     OW34270   4.132   3.090  14.275  0.3576  0.8369 -0.0117
 7604SOL    HW134271   4.076   3.019  14.306  2.1982 -0.3357  0.5973
 7604SOL    HW234272   4.202   3.095  14.339  0.6586 -1.2907 -0.1843
 7605SOL     OW34273   3.516   1.198   3.733  0.2999  0.3203 -0.6863
 7605SOL    HW134274   3.598   1.221   3.776 -0.4105  1.1581  0.2239
 7605SOL    HW234275   3.523   1.104   3.720 -1.2560  0.3436 -1.7678
 7606SOL     OW34276   1.622   2.134  14.297  0.4553  0.7020 -0.2442
 7606SOL    HW134277   1.581   2.050  14.277  0.1569  1.1119 -1.3156
 7606SOL    HW234278   1.548   2.186  14.330 -1.6773 -1.2051 -2.0473
 7607SOL     OW34279   4.245   2.405  16.744 -0.1028 -0.3817  0.4192
 7607SOL    HW134280   4.168   2.412  16.802 -1.9018 -1.0511 -1.8834
 7607SOL    HW234281   4.315   2.384  16.805  1.4139 -4.1477 -2.6831
 7608SOL     OW34282   0.206   3.718   8.702  0.2410  0.5959  0.3592
 7608SOL    HW134283   0.161   3.654   8.757  1.3830 -0.0301  0.5733
 7608SOL    HW234284   0.219   3.792   8.761  0.8217  0.7768  0.0152
 7609SOL     OW34285   4.071   3.142   5.010 -0.2265  0.0787  0.1235
 7609SOL    HW134286   4.019   3.062   5.015  1.0130 -0.7756 -0.5498
 7609SOL    HW234287   4.153   3.115   4.969 -0.6659  1.2127 -1.5204
 7610SOL     OW34288   1.558   1.971   5.425 -0.4213  0.3382  0.2592
 7610SOL    HW134289   1.606   2.044   5.464  0.1668 -0.1254  0.4036
 7610SOL    HW234290   1.597   1.958   5.338 -0.2692  1.7888  0.1155
 7611SOL     OW34291   2.233   1.528   6.226 -0.1658 -0.4433 -0.0179
 7611SOL    HW134292   2.168   1.557   6.290 -0.9143 -0.1201 -0.9227
 7611SOL    HW234293   2.213   1.435   6.233  0.1462 -0.6371 -1.6939
 7612SOL     OW34294   4.466   0.976   1.796 -0.1210 -0.2322 -0.1609
 7612SOL    HW134295   4.430   1.017   1.717 -1.8374 -0.9403  0.2586
 7612SOL    HW234296   4.498   0.895   1.754 -3.6215 -1.8364  0.2757
 7613SOL     OW34297   1.327   4.260  12.802  0.4625  0.1851  0.5369
 7613SOL    HW134298   1.363   4.349  12.812 -0.4574  0.6689 -0.5572
 7613SOL    HW234299   1.319   4.239  12.895 -2.2252  0.0865  0.2773
 7614SOL     OW34300   3.134   1.421   3.604 -0.6808  0.5280  0.0023
 7614SOL    HW134301   3.227   1.444   3.600 -0.5935  0.3582  0.9798
 7614SOL    HW234302   3.120   1.360   3.531 -0.3468 -0.1314  0.4881
 7615SOL     OW34303   2.624   2.583   2.402  0.3152  0.0981  0.3440
 7615SOL    HW134304   2.666   2.526   2.338 -2.1563 -1.7959  0.4120
 7615SOL    HW234305   2.576   2.632   2.335  1.0947 -0.7473 -0.8353
 7616SOL     OW34306   3.187   0.108   8.327  0.1272 -0.8822 -0.5732
 7616SOL    HW134307   3.110   0.056   8.346 -1.8922  1.3297 -2.6817
 7616SOL    HW234308   3.237   0.108   8.409 -2.8357 -1.8309  1.2051
 7617SOL     OW34309   2.686   4.611  11.603 -0.1368  0.3221 -0.3655
 7617SOL    HW134310   2.758   4.548  11.594 -0.0096  0.8334 -2.8486
 7617SOL    HW234311   2.686   4.624  11.698 -1.2068 -1.4032 -0.1278
 7618SOL     OW34312   3.961   1.138   3.956  0.0370 -0.1676  0.0828
 7618SOL    HW134313   3.970   1.148   4.051  0.8628 -0.7467  0.0642
 7618SOL    HW234314   3.946   1.043   3.955 -1.3884  0.0464  0.6246
 7619SOL     OW34315   2.497   0.972  16.603  0.8220  0.3064  0.1610
 7619SOL    HW134316   2.420   0.938  16.648  0.1948 -2.6093 -3.1445
 7619SOL    HW234317   2.472   1.065  16.599 -0.7928 -0.1328  0.0011
 7620SOL     OW34318   4.183   3.602   3.771  0.4120  0.2053 -0.1237
 7620SOL    HW134319   4.146   3.683   3.806 -1.5675 -1.5165  1.7219
 7620SOL    HW234320   4.242   3.579   3.842 -0.1591  2.6583  1.1207
 7621SOL     OW34321   0.202   2.682   4.970  0.3633 -0.8960 -0.4952
 7621SOL    HW134322   0.291   2.646   4.972  1.1917  1.1018 -1.2626
 7621SOL    HW234323   0.222   2.760   4.918  0.6355 -0.5822  0.0830
 7622SOL     OW34324   3.759   1.857   6.701 -0.3956 -0.1391 -0.2820
 7622SOL    HW134325   3.790   1.878   6.612  1.2467  0.0707  0.3318
 7622SOL    HW234326   3.751   1.942   6.744  2.0126  0.4773 -1.0397
 7623SOL     OW34327   2.023   3.343   8.260  0.2316  0.1630 -0.5744
 7623SOL    HW134328   2.008   3.261   8.213 -2.2845  0.4164 -0.2261
 7623SOL    HW234329   2.106   3.369   8.221  0.6670 -2.8355 -1.6035
 7624SOL     OW34330   0.047   4.168   2.175  0.5392  0.6156  0.7175
 7624SOL    HW134331   0.123   4.118   2.145 -0.8956 -0.8092 -0.5744
 7624SOL    HW234332   4.700   4.153   2.109  2.6340  2.9366 -1.9639
 7625SOL     OW34333   2.974   4.500   7.766 -0.1319  0.7887  0.0093
 7625SOL    HW134334   2.952   4.517   7.674 -0.9453  2.3893  0.5167
 7625SOL    HW234335   2.920   4.570   7.801 -0.6042  0.3306  0.1967
 7626SOL     OW34336   3.642   4.580   6.011 -0.2002 -0.7801 -0.3791
 7626SOL    HW134337   3.730   4.558   6.041 -0.6695  0.6105  2.0017
 7626SOL    HW234338   3.586   4.525   6.066 -0.3908 -0.2338 -0.0338
 7627SOL     OW34339   2.827   1.613   8.593 -0.5086  0.5470 -0.2424
 7627SOL    HW134340   2.762   1.682   8.581  1.0260  1.7889 -1.4503
 7627SOL    HW234341   2.801   1.578   8.678 -1.0284  1.5392  0.0049
 7628SOL     OW34342   1.367   0.063   2.497  0.0719  0.1420 -0.1135
 7628SOL    HW134343   1.429   0.105   2.438 -1.6172 -0.3462 -2.2230
 7628SOL    HW234344   1.364   0.137   2.558 -4.1267 -0.5662  0.5425
 7629SOL     OW34345   3.361   4.278   0.696 -0.9509  0.3906 -0.0477
 7629SOL    HW134346   3.290   4.300   0.755 -1.6894  1.5954 -1.3963
 7629SOL    HW234347   3.430   4.334   0.731  0.2333 -1.7067  1.0033
 7630SOL     OW34348   0.774   3.882  17.551 -0.1770  0.1929 -0.6559
 7630SOL    HW134349   0.680   3.862  17.550  0.0552 -0.8378 -2.2803
 7630SOL    HW234350   0.809   3.845  17.632  0.5982  0.1960 -0.9941
 7631SOL     OW34351   2.259   1.414   3.598 -0.5556  0.4124  0.2939
 7631SOL    HW134352   2.234   1.505   3.584  0.6258  0.6765 -0.1220
 7631SOL    HW234353   2.246   1.372   3.513  0.5424  3.3178 -1.3402
 7632SOL     OW34354   4.489   4.577   7.951 -0.0760 -0.1901 -0.0190
 7632SOL    HW134355   4.465   4.664   7.981 -0.0634  0.6680 -2.4551
 7632SOL    HW234356   4.402   4.541   7.935  0.0318 -0.8301  0.8565
 7633SOL     OW34357   0.308   4.585   8.137 -0.3491 -0.3404  0.1398
 7633SOL    HW134358   0.316   4.526   8.212 -2.9076 -0.7385  0.0787
 7633SOL    HW234359   0.364   4.556   8.065  0.1478 -0.4541  0.5695
 7634SOL     OW34360   4.055   3.379   5.139  0.2505 -0.0774 -0.0717
 7634SOL    HW134361   4.070   3.295   5.097  1.5651 -0.4868  1.2224
 7634SOL    HW234362   4.137   3.382   5.189  1.1517 -2.5713 -1.4236
 7635SOL     OW34363   3.670   4.163   7.794  0.4120  0.1927 -0.0110
 7635SOL    HW134364   3.591   4.189   7.747 -1.2113 -0.6783  2.2083
 7635SOL    HW234365   3.647   4.176   7.886 -2.0809 -1.0842 -0.4504
 7636SOL     OW34366   0.726   4.389  16.079 -0.1731 -0.0130  0.1916
 7636SOL    HW134367   0.818   4.379  16.056  0.1269  1.6872  0.6641
 7636SOL    HW234368   0.713   4.311  16.132  2.6065  1.1601  2.5952
 7637SOL     OW34369   0.719   2.436  11.954 -0.0723  0.2120 -0.1422
 7637SOL    HW134370   0.715   2.445  11.859  0.1183  1.4330 -0.0436
 7637SOL    HW234371   0.627   2.438  11.981 -0.5996 -3.2989 -1.6222
 7638SOL     OW34372   3.650   3.722  16.419 -0.0412  0.4746  0.1797
 7638SOL    HW134373   3.572   3.669  16.435  0.9898 -0.3613  2.3198
 7638SOL    HW234374   3.699   3.730  16.500  0.9609  3.0599 -0.6709
 7639SOL     OW34375   0.809   3.388  11.107  0.5413 -0.5705  0.3006
 7639SOL    HW134376   0.806   3.482  11.123  0.3092 -0.6438  0.6706
 7639SOL    HW234377   0.870   3.354  11.172  1.4586 -1.3148 -0.9355
 7640SOL     OW34378   1.668   3.705  10.314  0.2231  0.0022  0.1522
 7640SOL    HW134379   1.682   3.626  10.367  3.5613  1.6391  1.7158
 7640SOL    HW234380   1.745   3.760  10.327 -1.0968  1.7269  0.6433
 7641SOL     OW34381   1.423   2.683   8.765 -1.0719  0.4053 -0.4887
 7641SOL    HW134382   1.371   2.754   8.803  0.5830  1.0583  0.5991
 7641SOL    HW234383   1.511   2.709   8.793 -1.4600 -1.3727  2.3691
 7642SOL     OW34384   3.438   4.140   9.081  0.0995  0.0614 -0.5710
 7642SOL    HW134385   3.346   4.115   9.094  0.7592 -3.1556 -1.9226
 7642SOL    HW234386   3.462   4.080   9.010  0.6536  0.6193 -0.8508
 7643SOL     OW34387   0.283   4.466   9.865 -0.2167  0.5284  0.0534
 7643SOL    HW134388   0.334   4.541   9.897 -2.5695  3.0558 -2.1284
 7643SOL    HW234389   0.197   4.504   9.878  0.0728  0.4472  2.2160
 7644SOL     OW34390   1.482   0.515   0.853 -0.7156 -0.0865  0.1503
 7644SOL    HW134391   1.413   0.511   0.919 -1.4199  0.4490 -0.5533
 7644SOL    HW234392   1.512   0.606   0.858  0.2908 -0.3786 -0.3130
 7645SOL     OW34393   0.334   1.725   2.972 -0.2073  0.2836 -0.3428
 7645SOL    HW134394   0.426   1.722   3.001 -0.5307  0.7956  0.7250
 7645SOL    HW234395   0.338   1.798   2.909 -1.8066  1.5149  0.9924
 7646SOL     OW34396   1.902   1.959   0.079  0.6663 -0.6287  0.1578
 7646SOL    HW134397   1.908   1.869   0.111 -1.9989 -1.2273 -0.9727
 7646SOL    HW234398   1.996   1.972   0.081  0.6853 -0.5197 -1.3790
 7647SOL     OW34399   0.645   3.865  14.258 -0.4320  0.1990  0.6201
 7647SOL    HW134400   0.635   3.961  14.261 -0.7695  0.1466  1.1437
 7647SOL    HW234401   0.674   3.855  14.348  0.3079 -0.9871  0.2377
 7648SOL     OW34402   1.393   4.057   6.068  0.1120  0.5770  0.4048
 7648SOL    HW134403   1.381   3.969   6.102  1.0912  0.0933 -0.5103
 7648SOL    HW234404   1.346   4.047   5.986  1.1486 -0.6888 -0.0344
 7649SOL     OW34405   1.514   2.452  14.234 -0.1291 -0.1434  0.4331
 7649SOL    HW134406   1.479   2.541  14.237  0.6729  0.1868 -0.1097
 7649SOL    HW234407   1.435   2.397  14.239 -0.0823 -0.2825 -0.3007
 7650SOL     OW34408   1.780   0.710   6.226  0.2106 -0.2395 -0.0605
 7650SOL    HW134409   1.810   0.693   6.136 -0.3480 -0.9335 -0.1157
 7650SOL    HW234410   1.777   0.619   6.257  2.1243 -0.1613  0.3674
 7651SOL     OW34411   3.000   2.950   7.882  0.2255 -0.2674  0.3647
 7651SOL    HW134412   3.085   2.950   7.838  0.7025 -2.1386  1.2838
 7651SOL    HW234413   2.947   3.002   7.821 -1.5537 -1.6298  0.7462
 7652SOL     OW34414   3.699   1.867   3.594  0.0623 -0.3870  0.0512
 7652SOL    HW134415   3.747   1.924   3.534  1.2030 -0.7626  0.5987
 7652SOL    HW234416   3.638   1.826   3.533  1.0617 -0.0522 -1.1641
 7653SOL     OW34417   3.201   1.484   4.383  0.4178  0.0153  0.3953
 7653SOL    HW134418   3.110   1.493   4.412  0.3556  0.7714 -0.0322
 7653SOL    HW234419   3.185   1.508   4.291  0.8086  0.8859  0.5495
 7654SOL     OW34420   3.688   0.613  16.410 -0.4782 -0.3082 -0.6148
 7654SOL    HW134421   3.693   0.578  16.322 -0.4168  2.1765 -1.6016
 7654SOL    HW234422   3.729   0.698  16.393 -2.0250  0.8089  1.1507
 7655SOL     OW34423   0.639   2.199   5.999  0.3179 -0.6122  0.4576
 7655SOL    HW134424   0.730   2.216   5.977  0.3904 -1.6536 -0.0333
 7655SOL    HW234425   0.608   2.270   6.054 -0.3600 -1.5095  1.2404
 7656SOL     OW34426   2.105   4.034   0.969 -0.1700  0.3084  0.4299
 7656SOL    HW134427   2.180   3.992   1.012 -0.0849  0.4294  0.3985
 7656SOL    HW234428   2.133   4.004   0.882  2.4169  1.0811  0.9836
 7657SOL     OW34429   2.922   2.562   5.943 -0.2762  0.0236 -0.2680
 7657SOL    HW134430   2.967   2.579   5.860 -0.6286 -1.4068 -0.7478
 7657SOL    HW234431   2.845   2.607   5.911  0.8943  1.0471 -1.6613
 7658SOL     OW34432   3.294   1.046   5.744  0.0756 -0.5090  0.1535
 7658SOL    HW134433   3.282   0.988   5.820  0.1495 -0.3617  0.2786
 7658SOL    HW234434   3.352   1.110   5.786  0.9886 -0.1965 -1.6219
 7659SOL     OW34435   1.618   3.438   3.341  0.1928 -0.0952  0.0528
 7659SOL    HW134436   1.555   3.370   3.320  0.6750 -0.9057  1.2006
 7659SOL    HW234437   1.615   3.487   3.259 -0.9301  1.9548  1.3026
 7660SOL     OW34438   2.428   2.233   6.663 -0.2451 -0.1417  0.6502
 7660SOL    HW134439   2.378   2.207   6.586 -0.3947 -0.1090  0.7363
 7660SOL    HW234440   2.510   2.259   6.622 -0.5108  1.0131  0.8260
 7661SOL     OW34441   1.212   2.670   9.191 -0.1953 -0.0083  0.1121
 7661SOL    HW134442   1.192   2.742   9.251 -1.0583  1.6873 -2.1576
 7661SOL    HW234443   1.151   2.696   9.121  1.1509  1.0242 -0.6958
 7662SOL     OW34444   4.415   0.904   6.031  0.8901  0.7970  0.6526
 7662SOL    HW134445   4.322   0.883   6.038  1.4615 -2.1852 -0.6781
 7662SOL    HW234446   4.425   0.980   6.087 -2.5462 -0.3296  2.8176
 7663SOL     OW34447   0.454   2.161  12.152  0.2078  0.0669  0.0851
 7663SOL    HW134448   0.384   2.185  12.214 -0.6542  1.2209 -1.3451
 7663SOL    HW234449   0.483   2.251  12.136  0.5880 -0.0821 -0.0648
 7664SOL     OW34450   3.034   3.046  14.760 -0.2640 -0.5533  0.2110
 7664SOL    HW134451   3.083   3.125  14.784 -0.1582 -0.7439  0.6337
 7664SOL    HW234452   2.943   3.076  14.760 -0.1490 -0.1916  0.6639
 7665SOL     OW34453   1.793   0.961   8.267  0.0286  0.1829 -0.1163
 7665SOL    HW134454   1.756   0.924   8.347  0.0370 -0.4504 -0.4037
 7665SOL    HW234455   1.879   0.993   8.295  1.0074 -2.2944 -0.2404
 7666SOL     OW34456   0.497   1.754   3.326 -0.6256  0.4029  0.3068
 7666SOL    HW134457   0.508   1.846   3.352  2.0498  0.3187 -0.5599
 7666SOL    HW234458   0.422   1.729   3.380  1.0658  0.2901  2.5782
 7667SOL     OW34459   3.274   2.306   3.687 -0.0451 -0.8138  0.4399
 7667SOL    HW134460   3.257   2.329   3.778  0.0439 -0.6102  0.4044
 7667SOL    HW234461   3.303   2.215   3.691 -0.6377 -1.1533 -2.8600
 7668SOL     OW34462   4.019   0.065  12.443 -0.3608  0.0372 -0.2406
 7668SOL    HW134463   3.974   0.122  12.506 -2.0695 -2.7954  1.0959
 7668SOL    HW234464   3.958   4.715  12.426 -1.9035  1.5886 -1.1052
 7669SOL     OW34465   4.581   0.601   6.123  0.1262  0.1558 -0.3355
 7669SOL    HW134466   4.486   0.593   6.128  0.2558 -1.2439 -0.2758
 7669SOL    HW234467   4.610   0.538   6.188  0.2522 -0.0200 -0.5620
 7670SOL     OW34468   3.241   0.288  16.466  0.1555  0.3050  0.4861
 7670SOL    HW134469   3.221   0.219  16.402 -0.4486 -0.8021  1.8724
 7670SOL    HW234470   3.326   0.326  16.443  1.2329 -2.0661  0.5785
 7671SOL     OW34471   0.293   3.712   4.156  0.1134 -0.1208  0.1020
 7671SOL    HW134472   0.323   3.646   4.217 -0.5202 -0.0738  0.4637
 7671SOL    HW234473   0.379   3.750   4.137  0.5573 -0.8829  0.6169
 7672SOL     OW34474   1.467   2.724   3.902  0.1715 -0.0118 -0.5182
 7672SOL    HW134475   1.420   2.735   3.819 -0.7451  3.3142  0.4304
 7672SOL    HW234476   1.444   2.634   3.927 -1.3566  0.5291  0.0199
 7673SOL     OW34477   1.250   0.528   4.757  0.0655 -0.4702  0.1269
 7673SOL    HW134478   1.211   0.474   4.687  0.5566  1.3047 -1.4906
 7673SOL    HW234479   1.245   0.468   4.832 -1.1840  0.3270  0.6863
 7674SOL     OW34480   1.217   3.718   6.127 -0.4244 -0.5596  0.1278
 7674SOL    HW134481   1.191   3.786   6.190 -0.9770  0.1475 -0.8587
 7674SOL    HW234482   1.309   3.742   6.122 -0.4797 -1.0223 -3.3303
 7675SOL     OW34483   0.943   4.027   5.159  0.3940 -0.2443 -0.7013
 7675SOL    HW134484   0.942   3.984   5.074  0.0780 -2.9568  0.6677
 7675SOL    HW234485   0.884   3.969   5.208  0.7778  3.1090  3.7568
 7676SOL     OW34486   2.431   2.657   2.909  0.4577 -0.4727 -0.1461
 7676SOL    HW134487   2.372   2.696   2.844 -0.0733  0.6313  1.0019
 7676SOL    HW234488   2.452   2.572   2.870 -0.8897 -0.8629 -0.0172
 7677SOL     OW34489   3.707   3.550   2.167  0.0803 -0.2221 -0.0545
 7677SOL    HW134490   3.695   3.544   2.262 -0.3850 -0.6065 -0.1413
 7677SOL    HW234491   3.798   3.579   2.162 -0.0763 -0.0762 -2.2832
 7678SOL     OW34492   2.369   1.069   8.763  0.4218  0.0466 -0.0169
 7678SOL    HW134493   2.441   1.063   8.826  0.7888 -1.2969 -0.5756
 7678SOL    HW234494   2.286   1.082   8.810  0.5973 -0.9608  0.5670
 7679SOL     OW34495   0.676   2.914   5.339 -0.0175  0.2635 -0.1538
 7679SOL    HW134496   0.688   3.005   5.366 -1.3172 -0.2776  2.3023
 7679SOL    HW234497   0.748   2.863   5.376  2.8081  2.4757 -2.5729
 7680SOL     OW34498   2.184   4.145  17.390 -0.0695  0.0029 -0.5091
 7680SOL    HW134499   2.181   4.164  17.484 -0.8467 -0.4364 -0.4409
 7680SOL    HW234500   2.099   4.185  17.370  0.3915  0.0388 -2.3268
 7681SOL     OW34501   2.170   2.716   2.447 -0.0562 -0.2191  0.4562
 7681SOL    HW134502   2.250   2.767   2.451 -0.8006  1.0127 -0.3035
 7681SOL    HW234503   2.127   2.769   2.380  1.3584  0.5258  0.1416
 7682SOL     OW34504   0.108   1.147   3.218  0.0093  0.0949  0.7836
 7682SOL    HW134505   0.129   1.229   3.264 -2.1540  2.2815 -2.1945
 7682SOL    HW234506   0.015   1.139   3.240  0.0597  0.1134  1.0028
 7683SOL     OW34507   4.557   1.124   3.307 -0.3638  0.1169 -0.5370
 7683SOL    HW134508   4.535   1.214   3.284  0.6383  0.5967  0.3589
 7683SOL    HW234509   4.476   1.075   3.297 -0.6482  0.5453 -0.3514
 7684SOL     OW34510   0.523   0.550   6.738 -0.0981  0.1257  0.3253
 7684SOL    HW134511   0.609   0.577   6.768 -1.5671  4.7984  0.3226
 7684SOL    HW234512   0.475   0.625   6.772 -0.7761  0.1527 -0.6802
 7685SOL     OW34513   2.308   0.675   6.073  0.2977  0.7750 -0.3093
 7685SOL    HW134514   2.353   0.676   5.989  0.0927 -3.5993 -0.4563
 7685SOL    HW234515   2.237   0.612   6.057 -1.2316  2.4418 -0.1269
 7686SOL     OW34516   1.301   4.442   7.737  1.0114 -0.5796 -0.0535
 7686SOL    HW134517   1.362   4.483   7.799 -0.3270  1.1765  0.0941
 7686SOL    HW234518   1.239   4.513   7.721  1.6227 -0.4644 -1.9783
 7687SOL     OW34519   3.126   4.073  11.715  0.2340 -0.0027  0.0360
 7687SOL    HW134520   3.220   4.058  11.700  0.3181 -1.3313  1.9408
 7687SOL    HW234521   3.119   4.155  11.666 -0.6865 -1.7301 -2.7025
 7688SOL     OW34522   4.406   3.606   7.299 -0.1757 -0.2690 -0.1009
 7688SOL    HW134523   4.455   3.640   7.224 -1.2151 -1.7313 -1.4347
 7688SOL    HW234524   4.429   3.514   7.289  2.2406  0.0002  2.8917
 7689SOL     OW34525   0.274   4.264  13.478 -0.1372  0.1068  0.8971
 7689SOL    HW134526   0.215   4.190  13.490 -0.0675 -0.1602 -0.3542
 7689SOL    HW234527   0.227   4.342  13.447  1.4371  0.8923  0.4559
 7690SOL     OW34528   1.494   3.214  16.549  0.0367  0.5842 -0.0504
 7690SOL    HW134529   1.512   3.220  16.643 -1.0410  1.1119  0.1181
 7690SOL    HW234530   1.472   3.306  16.536 -0.5539  0.3172 -0.9460
 7691SOL     OW34531   2.231   0.816   7.503  0.2758 -0.2022  0.4993
 7691SOL    HW134532   2.204   0.770   7.423 -2.3499  2.3175 -0.0790
 7691SOL    HW234533   2.196   0.904   7.486  2.5301  0.8489  1.4429
 7692SOL     OW34534   4.246   3.409   4.793  0.2092  0.2002  0.0099
 7692SOL    HW134535   4.276   3.468   4.724 -2.4546  1.1915 -0.3100
 7692SOL    HW234536   4.248   3.475   4.862  0.0543 -0.3081  0.4935
 7693SOL     OW34537   3.714   2.678   3.341  0.1699 -0.6716  0.1346
 7693SOL    HW134538   3.742   2.628   3.418  0.5989  0.4089  0.6813
 7693SOL    HW234539   3.714   2.761   3.388 -3.0788 -0.7783  0.3377
 7694SOL     OW34540   3.144   0.218   2.322  0.3925 -0.0078 -0.3861
 7694SOL    HW134541   3.180   0.168   2.249  0.2109 -0.7759  0.0523
 7694SOL    HW234542   3.193   0.300   2.332  1.7860 -1.2721  3.2639
 7695SOL     OW34543   2.940   2.707   8.790  0.2600 -0.1191 -0.0922
 7695SOL    HW134544   2.862   2.752   8.758 -2.0906 -1.8999  3.0697
 7695SOL    HW234545   2.925   2.727   8.882  0.4551  0.1561 -0.1230
 7696SOL     OW34546   2.498   1.023   0.005 -0.3194 -0.2027  0.1950
 7696SOL    HW134547   2.461   0.936  17.675  0.9661 -0.2870 -2.1485
 7696SOL    HW234548   2.544   1.006   0.087  0.1806 -1.4605 -0.3391
 7697SOL     OW34549   2.070   1.404   4.440  0.2325  0.4992  0.4893
 7697SOL    HW134550   1.995   1.346   4.429 -0.4201  1.1900  1.2806
 7697SOL    HW234551   2.046   1.489   4.402 -1.6025  0.0560  0.6200
 7698SOL     OW34552   1.402   4.232   6.297  0.7260  0.3415  0.1308
 7698SOL    HW134553   1.394   4.184   6.214  1.3734 -2.0794  1.4790
 7698SOL    HW234554   1.497   4.248   6.295  1.2063 -2.6148 -0.7248
 7699SOL     OW34555   4.674   3.399   6.291 -0.3665 -0.5867  0.7802
 7699SOL    HW134556   4.612   3.378   6.220 -0.0179  1.6102 -0.1949
 7699SOL    HW234557   4.617   3.448   6.350  0.9165  0.5188  1.1096
 7700SOL     OW34558   4.217   4.597   2.903 -0.5806 -0.0097  0.2841
 7700SOL    HW134559   4.134   4.643   2.918 -0.0490  1.0859 -0.1623
 7700SOL    HW234560   4.276   4.665   2.871  1.0209 -1.6213 -0.1632
 7701SOL     OW34561   2.458   4.424   7.871 -0.0184 -0.2343  0.3161
 7701SOL    HW134562   2.374   4.380   7.885 -0.6845  1.0779  0.4584
 7701SOL    HW234563   2.444   4.453   7.780 -2.6698 -0.6669  0.5819
 7702SOL     OW34564   0.642   4.005   5.927 -0.5628 -0.5544 -0.2381
 7702SOL    HW134565   0.672   4.071   5.865  0.4456 -0.4879  0.3289
 7702SOL    HW234566   0.685   3.925   5.898 -0.1426 -0.8300  1.1238
 7703SOL     OW34567   1.841   1.179  15.009 -0.6863  0.3639  0.2416
 7703SOL    HW134568   1.905   1.117  15.043 -1.5950 -0.7677 -0.0871
 7703SOL    HW234569   1.877   1.204  14.924  0.3901  0.9815  0.8839
 7704SOL     OW34570   3.799   2.743  15.403  0.0098  0.0774  0.3319
 7704SOL    HW134571   3.739   2.816  15.386  1.0837  0.6238 -1.0895
 7704SOL    HW234572   3.767   2.670  15.350 -2.8337  0.4639  1.4969
 7705SOL     OW34573   0.398   2.114   3.076 -0.1247 -0.7694 -0.5716
 7705SOL    HW134574   0.489   2.133   3.051 -0.4184  2.2162  0.6469
 7705SOL    HW234575   0.406   2.074   3.163 -0.9699  0.0177 -0.1234
 7706SOL     OW34576   1.773   4.577   7.729 -0.5745 -0.2553  0.7323
 7706SOL    HW134577   1.714   4.526   7.675 -1.1519  2.2514 -1.0329
 7706SOL    HW234578   1.812   4.628   7.658 -2.5318 -0.0733 -0.2159
 7707SOL     OW34579   0.012   2.944   6.543  0.4702 -0.0238 -0.0469
 7707SOL    HW134580   0.089   2.940   6.601 -2.0823 -1.9074  3.1799
 7707SOL    HW234581   4.683   2.868   6.570  1.1242 -1.1459 -2.0095
 7708SOL     OW34582   0.832   0.294   2.664 -0.3869  0.7311  0.6341
 7708SOL    HW134583   0.819   0.224   2.728  0.9117 -0.1385 -0.0363
 7708SOL    HW234584   0.744   0.330   2.678 -1.0202  0.0598 -1.7062
 7709SOL     OW34585   3.557   3.280  13.510 -0.3049 -0.2711  0.0093
 7709SOL    HW134586   3.484   3.313  13.562  0.6120  1.1796  0.3690
 7709SOL    HW234587   3.614   3.352  13.535  0.0317  0.5726 -3.2578
 7710SOL     OW34588   4.158   1.456   9.462  0.0685 -0.2645 -0.1213
 7710SOL    HW134589   4.128   1.414   9.542  1.3276  1.0351  1.0212
 7710SOL    HW234590   4.079   1.454   9.409 -0.3032 -2.0254  0.4956
 7711SOL     OW34591   3.712   1.977   2.866  0.6181  0.4217 -0.2326
 7711SOL    HW134592   3.731   2.063   2.829  0.2584  0.2097 -0.9151
 7711SOL    HW234593   3.721   1.924   2.786 -2.7343 -1.4440  0.6063
 7712SOL     OW34594   2.203   2.118   2.666 -0.6043  0.1086 -0.0993
 7712SOL    HW134595   2.164   2.032   2.683  0.8261 -0.3659  0.8236
 7712SOL    HW234596   2.242   2.105   2.580 -1.3799  0.1646 -0.4598
 7713SOL     OW34597   0.957   0.244   2.960 -0.5798  0.3187 -0.4684
 7713SOL    HW134598   0.996   0.257   3.046 -2.1338  0.0543  0.2810
 7713SOL    HW234599   0.866   0.265   2.982  0.5257  0.3152  4.0347
 7714SOL     OW34600   4.416   2.870   0.664  0.3260 -0.2532  0.1002
 7714SOL    HW134601   4.491   2.844   0.612 -1.6901 -1.5277 -2.1538
 7714SOL    HW234602   4.426   2.965   0.669 -0.4224 -0.3330  3.0904
 7715SOL     OW34603   4.701   3.780   3.004  0.7165  0.5000  0.1308
 7715SOL    HW134604   0.001   3.730   2.925 -3.9059 -1.6046  0.1840
 7715SOL    HW234605   4.653   3.855   2.968 -2.3841 -2.0812 -1.1986
 7716SOL     OW34606   3.420   1.183   2.463  0.3689  0.0439  0.1099
 7716SOL    HW134607   3.429   1.278   2.458 -1.5970  0.4535  3.7334
 7716SOL    HW234608   3.432   1.157   2.372 -0.6129 -0.7111  0.1842
 7717SOL     OW34609   4.161   3.355   8.279  0.4436  0.4506  0.4892
 7717SOL    HW134610   4.075   3.397   8.271  0.8798  1.2612  0.0676
 7717SOL    HW234611   4.202   3.395   8.355 -1.5347  1.2039  1.1619
 7718SOL     OW34612   2.270   2.777  11.120  0.1087 -0.2712 -0.2408
 7718SOL    HW134613   2.219   2.820  11.052 -0.7455 -2.1909 -0.8091
 7718SOL    HW234614   2.208   2.716  11.158 -0.1880 -0.7914 -1.5584
 7719SOL     OW34615   3.408   3.758   8.200 -0.3302  0.3797 -0.2407
 7719SOL    HW134616   3.340   3.694   8.222 -0.5231  0.5677 -0.2900
 7719SOL    HW234617   3.352   3.834   8.180 -0.5174 -0.1335 -1.6523
 7720SOL     OW34618   2.522   4.469   2.042 -0.2468  0.3061 -0.2817
 7720SOL    HW134619   2.427   4.453   2.040 -0.2244  0.1386 -0.0180
 7720SOL    HW234620   2.530   4.563   2.022 -0.9074  0.0572 -1.7051
 7721SOL     OW34621   0.378   1.253   7.000  0.0005 -0.1135 -0.1027
 7721SOL    HW134622   0.360   1.346   7.002 -1.6868 -0.4461  0.1100
 7721SOL    HW234623   0.466   1.238   7.035 -0.3295  1.9714  1.6299
 7722SOL     OW34624   3.344   2.025   6.882  0.1989 -0.0902  0.6228
 7722SOL    HW134625   3.387   2.086   6.822  0.5547 -1.4386 -0.4940
 7722SOL    HW234626   3.387   1.942   6.861  0.2049  0.9809 -3.7477
 7723SOL     OW34627   4.461   3.863  13.112 -0.0256  0.1453  0.3842
 7723SOL    HW134628   4.481   3.815  13.192  4.5870 -0.7160 -1.2759
 7723SOL    HW234629   4.379   3.815  13.100 -0.3019  0.8877 -0.6430
 7724SOL     OW34630   0.754   4.537   5.643 -0.8248 -0.1643 -0.6412
 7724SOL    HW134631   0.849   4.540   5.656 -0.7377 -0.9064 -1.1181
 7724SOL    HW234632   0.720   4.496   5.723  1.6767 -2.5575 -0.7779
 7725SOL     OW34633   0.327   3.965   3.849  0.2829 -0.6245 -0.0358
 7725SOL    HW134634   0.361   3.880   3.879  1.8565 -1.1789 -3.3970
 7725SOL    HW234635   0.320   3.951   3.755  2.0445 -1.5703 -0.0331
 7726SOL     OW34636   3.560   3.873   2.591  0.2696  0.5827 -0.9033
 7726SOL    HW134637   3.649   3.907   2.600  0.2565  0.6842 -1.1478
 7726SOL    HW234638   3.508   3.949   2.616 -1.1213 -0.7124  0.2041
 7727SOL     OW34639   0.152   0.059  11.176 -0.1975 -0.1832  0.2063
 7727SOL    HW134640   0.078   0.120  11.164  0.0604 -0.3543 -2.2604
 7727SOL    HW234641   0.231   0.110  11.190 -0.3801 -0.3979  2.0368
 7728SOL     OW34642   3.926   4.040  17.384  0.0405 -0.3891  0.1836
 7728SOL    HW134643   3.919   3.945  17.392  1.0426 -0.4855 -0.1856
 7728SOL    HW234644   4.019   4.058  17.370 -0.0549  0.7078  0.9098
 7729SOL     OW34645   0.835   1.199  16.127 -0.2293  0.0512 -0.7264
 7729SOL    HW134646   0.897   1.207  16.055 -0.1107 -1.3011 -0.7642
 7729SOL    HW234647   0.897   1.173  16.195 -0.6094  0.2390 -0.3118
 7730SOL     OW34648   1.176   2.013   4.510 -0.8668 -0.0691 -0.0177
 7730SOL    HW134649   1.087   1.982   4.490  0.2613 -2.2019 -1.8538
 7730SOL    HW234650   1.180   2.092   4.457 -0.7134 -1.0453 -1.4823
 7731SOL     OW34651   2.895   3.471   6.525  0.0103 -0.0739  0.4869
 7731SOL    HW134652   2.861   3.382   6.520 -0.2162 -0.0761  1.9958
 7731SOL    HW234653   2.973   3.470   6.581  1.7452  0.3187 -1.9518
 7732SOL     OW34654   1.733   2.366   8.506  0.2358  0.0795 -0.3354
 7732SOL    HW134655   1.755   2.366   8.413  0.3984  0.1199 -0.2963
 7732SOL    HW234656   1.656   2.423   8.506 -0.7200 -1.2220  1.9850
 7733SOL     OW34657   0.735   3.598   4.223 -0.0317 -0.4505 -0.0930
 7733SOL    HW134658   0.794   3.539   4.176 -0.4839 -0.0783 -1.1154
 7733SOL    HW234659   0.683   3.539   4.278 -1.3229  1.2429  0.5006
 7734SOL     OW34660   3.854   2.177   4.070  0.0752 -0.4951  0.2944
 7734SOL    HW134661   3.940   2.180   4.028  0.9902 -1.1379  2.1466
 7734SOL    HW234662   3.859   2.083   4.088  0.2185 -0.9284 -2.0421
 7735SOL     OW34663   0.200   2.447  13.666  0.2716 -0.0518 -0.1906
 7735SOL    HW134664   0.272   2.387  13.684  1.5966  1.5634 -0.0586
 7735SOL    HW234665   0.163   2.466  13.752  1.7158  0.0380  0.4202
 7736SOL     OW34666   4.480   1.182  13.779 -0.3500 -0.1508 -0.0516
 7736SOL    HW134667   4.460   1.133  13.700 -1.3587 -0.2349  0.2644
 7736SOL    HW234668   4.561   1.225  13.750 -0.8848  0.3082 -0.8427
 7737SOL     OW34669   0.914   1.872   6.670 -0.3146  0.4770  0.0466
 7737SOL    HW134670   0.843   1.844   6.728 -1.5461  2.1575 -0.6392
 7737SOL    HW234671   0.897   1.966   6.659 -1.8257  0.2561  0.5526
 7738SOL     OW34672   3.578   3.363  16.520 -0.3444  0.6442  0.1150
 7738SOL    HW134673   3.663   3.347  16.479 -0.4877  0.1783 -0.0000
 7738SOL    HW234674   3.576   3.279  16.566  0.4045  0.2906 -0.4798
 7739SOL     OW34675   2.929   0.792   0.155 -0.6891 -0.8839 -0.0411
 7739SOL    HW134676   2.980   0.791   0.236  0.5187  0.8228 -0.7686
 7739SOL    HW234677   2.888   0.706   0.166 -1.0701 -0.6667  0.2513
 7740SOL     OW34678   3.035   2.896   8.153 -0.4299  0.7974  0.3681
 7740SOL    HW134679   3.046   2.804   8.130  2.6725  1.3579 -0.4869
 7740SOL    HW234680   3.024   2.932   8.065 -0.3001  1.1821  0.5094
 7741SOL     OW34681   1.241   3.957   8.878  0.1172  0.4101  0.4126
 7741SOL    HW134682   1.317   3.978   8.932 -1.8312 -0.7518  3.6152
 7741SOL    HW234683   1.276   3.875   8.844 -0.4631  0.3612 -0.0677
 7742SOL     OW34684   4.150   4.075  10.524  0.8760  0.2709 -0.0083
 7742SOL    HW134685   4.134   4.013  10.595  0.5284 -0.4568 -0.7262
 7742SOL    HW234686   4.100   4.151  10.556  1.1888  0.1531  0.7586
 7743SOL     OW34687   1.452   1.728   7.982 -0.0006  0.0853  0.2229
 7743SOL    HW134688   1.361   1.697   7.977  0.1251 -0.0022 -1.6819
 7743SOL    HW234689   1.442   1.784   8.059 -0.9372  2.2560 -1.4542
 7744SOL     OW34690   1.740   2.691   8.744  0.1009  0.2983  0.1668
 7744SOL    HW134691   1.761   2.714   8.834  1.9911  1.6000 -0.6169
 7744SOL    HW234692   1.807   2.626   8.724  0.2514  0.9573 -1.5348
 7745SOL     OW34693   0.882   4.292   1.344  0.2546  0.3045  0.0675
 7745SOL    HW134694   0.915   4.335   1.266 -1.8631  0.9909 -0.4475
 7745SOL    HW234695   0.788   4.303   1.331  0.3590  1.1564  0.0762
 7746SOL     OW34696   2.088   4.167   6.445 -0.1236 -0.0881  0.0579
 7746SOL    HW134697   2.047   4.148   6.529  1.2398 -0.0477  0.7186
 7746SOL    HW234698   2.045   4.247   6.416 -0.2330  0.5395  2.0219
 7747SOL     OW34699   3.447   2.724   8.424  0.0105  0.3175  1.0204
 7747SOL    HW134700   3.405   2.794   8.474 -0.2084  1.9281 -1.4391
 7747SOL    HW234701   3.535   2.712   8.458 -0.2960 -0.1169  1.6777
 7748SOL     OW34702   4.704   3.651   4.310  0.1318  0.0306  0.6976
 7748SOL    HW134703   4.686   3.563   4.277 -1.1758 -0.0549  1.6227
 7748SOL    HW234704   0.037   3.628   4.386  0.0926  1.5663  1.1905
 7749SOL     OW34705   4.236   1.876   1.820  0.0634 -0.2616  0.0146
 7749SOL    HW134706   4.283   1.815   1.763  1.2075 -0.9431  1.6821
 7749SOL    HW234707   4.269   1.842   1.903 -0.1530  0.6345  0.4684
 7750SOL     OW34708   3.435   1.545   9.006 -0.4790 -0.2806  0.1643
 7750SOL    HW134709   3.378   1.521   9.079 -0.4187  0.1677  0.3598
 7750SOL    HW234710   3.399   1.491   8.936  0.3106  0.8394 -1.1098
 7751SOL     OW34711   3.503   1.861   4.193  0.1152  0.1027 -0.0374
 7751SOL    HW134712   3.517   1.818   4.277  3.1818  1.1648 -0.0091
 7751SOL    HW234713   3.413   1.894   4.197 -0.5170 -1.5183 -0.7853
 7752SOL     OW34714   0.355   1.027   3.280  0.3969 -0.1084 -0.2344
 7752SOL    HW134715   0.272   1.074   3.286  0.3052 -0.1370 -1.3257
 7752SOL    HW234716   0.409   1.091   3.232 -0.8922  0.9783 -0.2278
 7753SOL     OW34717   2.346   1.488   3.302  0.0007  0.1508  0.3750
 7753SOL    HW134718   2.317   1.560   3.357 -2.0259 -2.4267  2.6790
 7753SOL    HW234719   2.293   1.490   3.223  1.0228  1.4118 -0.2691
 7754SOL     OW34720   4.640   2.624   0.893 -0.4214  0.0023  0.5074
 7754SOL    HW134721   4.664   2.541   0.850 -0.2599  0.6302 -0.6306
 7754SOL    HW234722   4.623   2.686   0.822 -1.1638 -2.2829 -1.2986
 7755SOL     OW34723   1.772   1.037   2.452  0.6831 -0.0204  0.7716
 7755SOL    HW134724   1.732   1.087   2.523 -2.0947 -1.4017  0.2018
 7755SOL    HW234725   1.759   1.092   2.375 -0.0485 -0.2165  0.7486
 7756SOL     OW34726   3.423   4.236  14.376  0.5250  0.3470 -0.1743
 7756SOL    HW134727   3.380   4.319  14.399 -1.2452 -0.2679 -1.2528
 7756SOL    HW234728   3.471   4.227  14.459  0.0060 -0.7071  0.0116
 7757SOL     OW34729   4.005   2.352   6.822 -0.3119 -0.0530  0.2479
 7757SOL    HW134730   4.020   2.442   6.849  0.3013 -0.1192  0.1181
 7757SOL    HW234731   3.946   2.359   6.747  0.4866 -0.1999 -0.3955
 7758SOL     OW34732   3.117   1.727   5.323 -0.1210 -0.4010 -0.4345
 7758SOL    HW134733   3.084   1.697   5.407  0.6233 -1.4100 -0.4997
 7758SOL    HW234734   3.164   1.649   5.293  0.7109 -0.2937  0.5918
 7759SOL     OW34735   2.456   2.843   4.199 -0.0028 -0.5812 -0.8022
 7759SOL    HW134736   2.432   2.936   4.202  0.6630 -0.4458  0.6512
 7759SOL    HW234737   2.375   2.797   4.179 -0.3986 -0.3992  0.3733
 7760SOL     OW34738   1.595   0.831   0.581 -0.0204  0.3905 -0.4579
 7760SOL    HW134739   1.600   0.798   0.671 -0.5275  2.0415  0.1892
 7760SOL    HW234740   1.680   0.875   0.576  0.7458 -1.2734 -2.0954
 7761SOL     OW34741   3.017   4.270   6.816 -0.1361  0.5748  0.1701
 7761SOL    HW134742   3.047   4.245   6.903  1.8142  0.5650 -0.5236
 7761SOL    HW234743   2.921   4.273   6.821 -0.2213 -1.2785 -0.3842
 7762SOL     OW34744   4.558   1.203   1.145  1.2568  0.0591 -0.1135
 7762SOL    HW134745   4.470   1.169   1.129  1.6347 -1.0348  0.1080
 7762SOL    HW234746   4.605   1.123   1.120  1.3591  0.2919 -0.6752
 7763SOL     OW34747   1.253   2.907   5.477  0.5859  0.5252  0.1555
 7763SOL    HW134748   1.229   2.862   5.558 -0.5412  2.6246  0.9817
 7763SOL    HW234749   1.167   2.944   5.461  0.5888  1.2473  1.7801
 7764SOL     OW34750   0.786   0.198   7.065 -0.2840  0.1779 -0.5183
 7764SOL    HW134751   0.848   0.150   7.010 -1.7522 -1.0174 -1.1441
 7764SOL    HW234752   0.768   0.273   7.007 -1.5134  1.2682  1.2546
 7765SOL     OW34753   2.838   3.258   2.884 -0.3318  0.2944  0.3707
 7765SOL    HW134754   2.875   3.202   2.952  1.0320  1.4553  0.6006
 7765SOL    HW234755   2.874   3.341   2.915 -0.6982  0.6274 -0.0961
 7766SOL     OW34756   1.422   1.898   4.529 -0.6217  0.2989 -0.5525
 7766SOL    HW134757   1.330   1.922   4.519 -0.6291  0.7763  0.7872
 7766SOL    HW234758   1.450   1.957   4.599 -1.3642  0.0291 -0.0294
 7767SOL     OW34759   0.656   0.703   8.632 -0.2425  0.3781 -0.6120
 7767SOL    HW134760   0.702   0.635   8.681  0.4849  0.3399 -1.3544
 7767SOL    HW234761   0.729   0.742   8.583  0.8023  1.0887  1.4933
 7768SOL     OW34762   4.386   0.934  11.786 -0.3704 -0.3774 -0.2696
 7768SOL    HW134763   4.332   0.861  11.755  0.6002 -0.5444 -1.5927
 7768SOL    HW234764   4.470   0.918  11.743 -0.4727  0.9123 -0.9414
 7769SOL     OW34765   3.673   1.410   3.417 -0.5516 -0.6935 -0.2237
 7769SOL    HW134766   3.621   1.337   3.383  2.1080 -2.3845 -0.6801
 7769SOL    HW234767   3.662   1.390   3.510 -2.6805 -0.1522 -0.3416
 7770SOL     OW34768   2.472   4.309   3.379  0.6041  0.9845 -0.3039
 7770SOL    HW134769   2.418   4.387   3.384  0.0054  0.5826 -0.5577
 7770SOL    HW234770   2.475   4.297   3.285 -1.2746 -0.6970 -0.1457
 7771SOL     OW34771   2.366   1.854   2.437 -0.8359  0.0143  0.5321
 7771SOL    HW134772   2.320   1.844   2.354 -2.3520  0.1328  1.3649
 7771SOL    HW234773   2.313   1.805   2.499  0.1270  0.7525  1.9372
 7772SOL     OW34774   2.708   3.482   9.030 -0.3104 -0.1605  0.1826
 7772SOL    HW134775   2.675   3.571   9.020 -1.2332 -0.4672  0.5673
 7772SOL    HW234776   2.674   3.456   9.116  1.5539 -0.7721  0.7408
 7773SOL     OW34777   2.433   1.558   8.137  1.1512 -0.2242  0.4029
 7773SOL    HW134778   2.504   1.612   8.102  0.1058  1.1870  0.4828
 7773SOL    HW234779   2.376   1.626   8.172  1.2194  0.3476 -0.6225
 7774SOL     OW34780   3.114   3.015   4.348  0.5367 -0.1945  0.3511
 7774SOL    HW134781   3.083   2.948   4.287  1.0386 -0.8385  0.7987
 7774SOL    HW234782   3.182   3.059   4.296 -1.2594  0.4403 -1.4483
 7775SOL     OW34783   2.742   2.540   1.911  0.2386  0.5561  0.3180
 7775SOL    HW134784   2.823   2.565   1.956 -0.5010 -0.7365  2.3988
 7775SOL    HW234785   2.724   2.617   1.858 -1.1269  1.1896  1.6823
 7776SOL     OW34786   4.284   3.192   7.438 -0.5140  0.2040 -0.1696
 7776SOL    HW134787   4.296   3.179   7.532 -1.2697  2.4969  0.2402
 7776SOL    HW234788   4.271   3.286   7.425  0.7749  0.3967  0.0040
 7777SOL     OW34789   3.534   2.445   1.505 -0.3382 -0.2925 -1.1086
 7777SOL    HW134790   3.602   2.392   1.463  0.1507  0.6657 -1.5242
 7777SOL    HW234791   3.464   2.454   1.441 -1.1841 -2.1380 -0.4424
 7778SOL     OW34792   0.258   1.909   2.336  0.2046  0.1023 -0.1988
 7778SOL    HW134793   0.350   1.884   2.325  0.3551  0.6232 -0.1410
 7778SOL    HW234794   0.283   1.999   2.359 -0.0017 -0.3819  1.9459
 7779SOL     OW34795   4.050   2.367   4.731  0.1071 -0.4082 -0.4781
 7779SOL    HW134796   4.143   2.382   4.748 -0.4943  1.4184  1.2026
 7779SOL    HW234797   4.035   2.421   4.654  0.9960  0.6906  0.1128
 7780SOL     OW34798   3.853   1.385   2.018 -0.2397 -0.2838  0.3537
 7780SOL    HW134799   3.817   1.376   1.929 -1.1481 -0.9125  0.7841
 7780SOL    HW234800   3.890   1.472   2.009  1.5796 -1.0776  0.1655
 7781SOL     OW34801   2.667   3.150   7.278  0.0377 -0.3434 -0.4570
 7781SOL    HW134802   2.605   3.192   7.219 -0.9502  0.6100  1.2406
 7781SOL    HW234803   2.744   3.172   7.227 -0.0020  1.9165  0.4674
 7782SOL     OW34804   1.057   4.647   3.727  0.3742  0.1088  0.0035
 7782SOL    HW134805   1.076   4.692   3.809 -2.0675 -0.0263  0.6592
 7782SOL    HW234806   0.961   4.642   3.732  0.3773  0.9447  0.8757
 7783SOL     OW34807   2.118   0.090   4.407 -0.0892  0.1970  0.2224
 7783SOL    HW134808   2.080   0.112   4.322 -3.2806  1.7706  2.0445
 7783SOL    HW234809   2.050   0.118   4.469 -0.3966  1.8336 -0.8656
 7784SOL     OW34810   0.400   1.735  15.438 -0.2039  0.2688 -0.3185
 7784SOL    HW134811   0.355   1.653  15.457  0.7542  0.0035  0.8320
 7784SOL    HW234812   0.420   1.757  15.529 -0.6710  0.0761 -0.1683
 7785SOL     OW34813   1.678   4.664   2.517  0.0419 -0.4423 -0.0179
 7785SOL    HW134814   1.668   4.713   2.599 -2.0120  0.0233 -0.5589
 7785SOL    HW234815   1.642   0.004   2.454  0.8724 -0.7925 -0.8249
 7786SOL     OW34816   3.040   2.700   3.317  0.2738 -0.2027 -0.5345
 7786SOL    HW134817   3.100   2.771   3.296 -0.5615 -0.5213 -3.9524
 7786SOL    HW234818   3.074   2.660   3.397  1.3391  2.1651  0.2046
 7787SOL     OW34819   0.803   3.656  16.566  0.0015  0.2080 -0.8013
 7787SOL    HW134820   0.793   3.680  16.474 -0.2504 -2.3073 -1.4271
 7787SOL    HW234821   0.895   3.633  16.577  0.0166 -0.2060 -1.8139
 7788SOL     OW34822   3.992   4.311  15.188  0.2168 -0.0332  0.4097
 7788SOL    HW134823   4.075   4.356  15.171  0.3077 -0.2813  0.2009
 7788SOL    HW234824   3.933   4.343  15.120 -0.8942 -0.7934  1.0218
 7789SOL     OW34825   2.227   0.840   3.507  0.4227  0.0407 -0.0192
 7789SOL    HW134826   2.133   0.826   3.493  0.0098 -0.3385  3.0414
 7789SOL    HW234827   2.259   0.753   3.484  1.3872 -0.1724  2.0953
 7790SOL     OW34828   0.121   2.053   9.976 -0.4985  0.2720  0.1315
 7790SOL    HW134829   0.144   1.979   9.920 -1.5374 -0.1833  0.3169
 7790SOL    HW234830   0.183   2.037  10.048 -0.9512  2.6860  1.0512
 7791SOL     OW34831   2.394   4.093   6.808 -0.5533 -0.0681 -0.5007
 7791SOL    HW134832   2.460   4.086   6.739 -0.0531 -1.5186  0.1430
 7791SOL    HW234833   2.424   4.022   6.864  1.1067  2.2756  1.5851
 7792SOL     OW34834   2.637   1.148  13.670  0.0873 -0.3021 -0.9602
 7792SOL    HW134835   2.601   1.182  13.588 -1.8267  0.7035  0.2944
 7792SOL    HW234836   2.701   1.082  13.644 -0.3814 -1.4688  0.8726
 7793SOL     OW34837   4.261   1.322   4.023 -0.2037  0.0251 -1.0640
 7793SOL    HW134838   4.240   1.302   3.932  2.2747 -2.0513 -1.1643
 7793SOL    HW234839   4.214   1.405   4.037 -0.2273 -0.5052  2.0724
 7794SOL     OW34840   2.362   2.660  12.367  0.0815  0.0907 -0.0707
 7794SOL    HW134841   2.364   2.755  12.355 -3.2338  0.6103  3.1937
 7794SOL    HW234842   2.375   2.633  12.277  1.8378  0.6622  0.0146
 7795SOL     OW34843   2.105   3.119   6.412 -0.2366 -0.1238 -0.5789
 7795SOL    HW134844   2.173   3.185   6.395 -0.7352 -0.1515 -2.6382
 7795SOL    HW234845   2.057   3.168   6.479  0.4773  0.1135 -0.2372
 7796SOL     OW34846   1.676   4.347   7.594 -0.0333  0.2456 -0.2146
 7796SOL    HW134847   1.585   4.347   7.567  0.1324 -1.5122 -0.7246
 7796SOL    HW234848   1.701   4.255   7.591  2.4728  1.0240 -2.8161
 7797SOL     OW34849   0.170   1.592   2.500 -0.2273 -0.4183  0.0276
 7797SOL    HW134850   0.139   1.596   2.409 -0.1703 -1.7072 -0.0546
 7797SOL    HW234851   0.211   1.506   2.507 -0.3444 -0.5596 -1.0066
 7798SOL     OW34852   3.467   1.959   7.742  0.1460 -0.2296  0.0261
 7798SOL    HW134853   3.503   1.928   7.659  1.2779  1.0557  0.0433
 7798SOL    HW234854   3.544   1.958   7.799 -0.9697 -1.0199  1.5217
 7799SOL     OW34855   2.755   0.888  16.626 -0.0319  0.8834  0.0664
 7799SOL    HW134856   2.797   0.973  16.638 -1.0955  1.2208  1.4020
 7799SOL    HW234857   2.662   0.913  16.626 -0.1630  0.3663 -1.7149
 7800SOL     OW34858   1.965   0.298   1.085 -0.2406  0.0641 -0.1422
 7800SOL    HW134859   1.892   0.302   1.023 -1.1052 -1.0876  0.8090
 7800SOL    HW234860   1.914   0.310   1.165 -0.6795 -1.0424 -0.2519
 7801SOL     OW34861   0.924   4.142   2.801  0.7042  0.2956  1.0070
 7801SOL    HW134862   1.017   4.132   2.821  0.7188  0.6246  1.1140
 7801SOL    HW234863   0.886   4.121   2.886 -2.3334 -0.9465 -0.6785
 7802SOL     OW34864   2.181   0.801   3.904 -0.0291 -0.0017  0.1190
 7802SOL    HW134865   2.088   0.812   3.926  0.7857  3.7840  1.6384
 7802SOL    HW234866   2.187   0.728   3.842  0.3362  0.7132 -0.6900
 7803SOL     OW34867   1.310   1.428  11.241  0.8870  0.6454 -0.0801
 7803SOL    HW134868   1.326   1.388  11.327  0.0172 -1.5717 -0.9428
 7803SOL    HW234869   1.280   1.355  11.186 -0.1046 -0.2718  1.6732
 7804SOL     OW34870   3.705   2.954  15.063 -0.4496 -0.1215 -0.6864
 7804SOL    HW134871   3.687   2.869  15.024  3.9545 -0.5841 -1.6714
 7804SOL    HW234872   3.726   3.016  14.993  1.2542 -0.6823 -0.6630
 7805SOL     OW34873   1.579   4.149   8.234 -0.5111 -0.6024 -0.1108
 7805SOL    HW134874   1.493   4.134   8.196 -0.0556 -1.5744 -0.7770
 7805SOL    HW234875   1.572   4.234   8.277  0.0741 -0.9060  0.5914
 7806SOL     OW34876   4.539   0.261   6.707 -0.1559 -0.1399  0.1199
 7806SOL    HW134877   4.486   0.241   6.783 -0.5726 -0.5820 -0.2883
 7806SOL    HW234878   4.540   0.177   6.661  1.7815  0.1053 -0.3267
 7807SOL     OW34879   3.624   0.902   0.108  0.7091  0.3020 -0.0178
 7807SOL    HW134880   3.636   0.813   0.075  1.3431 -0.1549  1.4837
 7807SOL    HW234881   3.586   0.948   0.033 -1.4041 -2.8913 -0.8962
 7808SOL     OW34882   0.947   1.737  12.489 -0.2465  0.1672  0.1637
 7808SOL    HW134883   1.019   1.702  12.437 -1.0503  0.2440 -1.0086
 7808SOL    HW234884   1.004   1.749  12.565  0.5873 -1.0878 -0.2589
 7809SOL     OW34885   2.296   3.813   0.489  0.8701  0.2514  0.3585
 7809SOL    HW134886   2.300   3.818   0.393  1.3180 -1.0836  0.2987
 7809SOL    HW234887   2.266   3.724   0.508  0.8823  0.0908 -0.3679
 7810SOL     OW34888   2.443   0.144  11.139 -0.3025 -0.3074 -0.4257
 7810SOL    HW134889   2.479   0.061  11.107  0.0369 -0.6374  0.8398
 7810SOL    HW234890   2.488   0.163  11.221  0.5056 -0.2601 -0.8725
 7811SOL     OW34891   0.703   1.873   8.663  0.3791 -0.2168  0.2030
 7811SOL    HW134892   0.770   1.919   8.611  0.8227 -1.4243 -0.2885
 7811SOL    HW234893   0.644   1.947   8.676  1.0818  0.6096 -1.1949
 7812SOL     OW34894   1.646   3.708   3.686 -0.0662  0.0907  0.2594
 7812SOL    HW134895   1.690   3.787   3.718 -1.1726  1.5665 -1.8940
 7812SOL    HW234896   1.650   3.737   3.595 -0.5187  0.5744  0.3914
 7813SOL     OW34897   1.981   0.673  11.748  0.0369  0.1051  0.1419
 7813SOL    HW134898   1.905   0.630  11.788  0.1750 -1.1212 -0.8977
 7813SOL    HW234899   1.990   0.631  11.662  0.0475  0.5995 -0.0931
 7814SOL     OW34900   3.057   1.458   8.944 -0.4638  0.1633  0.6771
 7814SOL    HW134901   3.062   1.423   8.855  0.1608  3.0176 -0.3994
 7814SOL    HW234902   3.102   1.394   8.999 -2.6333  0.6233  3.0114
 7815SOL     OW34903   2.495   0.805   4.865  0.3629 -0.1780  0.3094
 7815SOL    HW134904   2.513   0.894   4.896  1.9172 -0.8776  1.3969
 7815SOL    HW234905   2.400   0.818   4.876  0.7134  1.9253  0.8097
 7816SOL     OW34906   0.082   1.546   1.700  0.1021 -0.6520 -0.3755
 7816SOL    HW134907   0.136   1.512   1.629  0.1339 -0.2752 -0.5304
 7816SOL    HW234908   4.717   1.533   1.660  0.7899 -1.2015 -1.6725
 7817SOL     OW34909   1.081   0.712   5.774  0.0843 -0.0292  0.5555
 7817SOL    HW134910   1.114   0.623   5.784  1.3659  0.4792  0.9125
 7817SOL    HW234911   1.032   0.693   5.694  1.2349 -1.2497  0.1385
 7818SOL     OW34912   4.607   0.520  11.847  0.5696  0.6281 -0.0197
 7818SOL    HW134913   4.545   0.503  11.776  0.5770  1.3819 -0.2013
 7818SOL    HW234914   4.542   0.532  11.915 -0.5021  1.0185 -1.1091
 7819SOL     OW34915   3.209   4.065  14.346 -0.6528  0.6389 -0.7263
 7819SOL    HW134916   3.229   3.987  14.294 -1.4905 -0.8562  1.1875
 7819SOL    HW234917   3.297   4.094  14.370  0.0008 -2.0612  0.1577
 7820SOL     OW34918   2.932   1.762   2.700  0.2286 -0.0614 -0.0969
 7820SOL    HW134919   3.024   1.742   2.716  0.4795  0.0825 -1.3479
 7820SOL    HW234920   2.909   1.841   2.748 -0.4208 -1.5673  2.0608
 7821SOL     OW34921   2.651   1.159   5.924  0.1512 -0.3167  0.2128
 7821SOL    HW134922   2.607   1.114   5.852  0.8104  0.1553 -0.4865
 7821SOL    HW234923   2.718   1.095   5.950  0.6840 -0.4249 -1.4061
 7822SOL     OW34924   1.226   3.097   5.088 -0.2409  0.2510  0.2115
 7822SOL    HW134925   1.297   3.127   5.031 -0.5264  2.4851  1.0400
 7822SOL    HW234926   1.149   3.135   5.046 -0.9056  0.0842  1.2779
 7823SOL     OW34927   2.689   1.134   1.769  0.1160  0.3283  0.0746
 7823SOL    HW134928   2.722   1.091   1.848  1.0297 -1.0070 -1.0145
 7823SOL    HW234929   2.632   1.202   1.805 -1.5275 -0.0938 -1.7752
 7824SOL     OW34930   0.713   4.588   1.192 -0.9090 -0.4053  0.3246
 7824SOL    HW134931   0.624   4.572   1.163 -0.9806 -0.7571  0.7332
 7824SOL    HW234932   0.761   4.536   1.128 -0.3324  0.4899  0.0177
 7825SOL     OW34933   2.638   2.704   7.115 -0.3860 -0.2017 -0.1712
 7825SOL    HW134934   2.573   2.744   7.057  0.1380 -1.2324 -1.4747
 7825SOL    HW234935   2.642   2.753   7.197 -1.0158 -0.5635  0.0806
 7826SOL     OW34936   0.107   0.999   7.464 -0.4835  0.9881  0.3034
 7826SOL    HW134937   0.063   1.034   7.386 -2.7799 -1.8422  0.3445
 7826SOL    HW234938   0.201   1.004   7.446 -0.7896  0.9134 -1.4003
 7827SOL     OW34939   3.318   3.582   0.469 -0.8242 -0.0478  0.0642
 7827SOL    HW134940   3.353   3.655   0.520 -4.2322  2.2198 -0.8259
 7827SOL    HW234941   3.283   3.640   0.401  0.0001 -0.4044 -0.6572
 7828SOL     OW34942   0.192   3.882   6.806 -0.3099 -0.1815 -0.4504
 7828SOL    HW134943   0.273   3.835   6.823 -1.4281 -1.9907 -0.2024
 7828SOL    HW234944   0.209   3.971   6.838  1.1172  0.3183 -2.5777
 7829SOL     OW34945   4.071   0.558   4.512 -0.0950 -0.6121  0.0823
 7829SOL    HW134946   4.006   0.619   4.547  0.9162 -0.3262  1.4855
 7829SOL    HW234947   4.109   0.615   4.444  0.1968  2.2194  2.6213
 7830SOL     OW34948   3.190   3.885   8.104 -0.0806 -0.2541 -0.1209
 7830SOL    HW134949   3.152   3.834   8.032 -0.3273  0.5414 -0.5575
 7830SOL    HW234950   3.179   3.973   8.068  3.0991  0.9235  1.8655
 7831SOL     OW34951   1.787   1.305   5.100 -0.4150  0.0588  0.1450
 7831SOL    HW134952   1.805   1.399   5.095  2.4293 -0.3586  2.4552
 7831SOL    HW234953   1.822   1.299   5.189  0.2975  0.7966 -0.0803
 7832SOL     OW34954   1.866   3.749   5.851  0.3517  0.1759  0.0751
 7832SOL    HW134955   1.772   3.736   5.846  0.2105  1.2738 -0.0664
 7832SOL    HW234956   1.866   3.844   5.859 -1.4824  0.2002 -0.2258
 7833SOL     OW34957   2.772   2.558   3.727 -0.5259 -0.6359  0.0018
 7833SOL    HW134958   2.808   2.563   3.638 -0.8525 -4.7030 -0.3741
 7833SOL    HW234959   2.685   2.598   3.721 -0.3260 -0.1480  0.3603
 7834SOL     OW34960   2.664   4.330   5.473 -0.0896 -1.0076 -0.0560
 7834SOL    HW134961   2.654   4.361   5.563  2.1879 -0.7645  0.1149
 7834SOL    HW234962   2.748   4.283   5.476  0.5799  0.2198  0.3718
 7835SOL     OW34963   3.726   1.377   5.250 -0.2665  0.2133 -0.2920
 7835SOL    HW134964   3.710   1.406   5.160  0.0119  1.1089 -0.0528
 7835SOL    HW234965   3.822   1.377   5.260  0.0006  2.2374 -2.8981
 7836SOL     OW34966   2.114   4.223   8.659 -0.2910 -0.3769 -0.6401
 7836SOL    HW134967   2.205   4.223   8.686 -0.6375 -1.4100  0.5580
 7836SOL    HW234968   2.106   4.153   8.594  0.4028 -1.3272  0.3039
 7837SOL     OW34969   0.608   1.749   5.466 -0.4957 -0.6485 -0.2151
 7837SOL    HW134970   0.616   1.731   5.560 -0.0231 -1.5566 -0.4261
 7837SOL    HW234971   0.518   1.720   5.449 -0.0120 -0.7050 -2.7376
 7838SOL     OW34972   3.689   0.906   3.462  0.0697 -0.1463 -0.5952
 7838SOL    HW134973   3.677   0.872   3.373 -2.0130  0.5227 -0.5639
 7838SOL    HW234974   3.754   0.840   3.486 -0.3278 -0.0819  0.6355
 7839SOL     OW34975   1.176   2.954   1.341 -0.3958  0.2562 -0.3443
 7839SOL    HW134976   1.238   2.890   1.305 -1.9268 -0.2540 -2.0612
 7839SOL    HW234977   1.103   2.944   1.280 -0.4953  0.9636 -0.3504
 7840SOL     OW34978   3.459   0.435  16.449 -0.1836 -0.3780 -0.1408
 7840SOL    HW134979   3.535   0.397  16.493  0.9767  1.7991 -0.2790
 7840SOL    HW234980   3.484   0.527  16.452 -0.5546 -0.2840  0.0793
 7841SOL     OW34981   4.161   2.544   9.752  0.2860  0.0491  0.2605
 7841SOL    HW134982   4.106   2.590   9.815 -0.8473 -1.3878  0.3116
 7841SOL    HW234983   4.237   2.512   9.801  1.3354  0.1016 -1.3131
 7842SOL     OW34984   1.793   0.297   6.827  0.4455  0.4295 -0.2282
 7842SOL    HW134985   1.727   0.234   6.798  0.5277  0.7915 -1.2181
 7842SOL    HW234986   1.739   0.362   6.871  0.2124 -0.2925  0.5467
 7843SOL     OW34987   3.256   1.977   5.284  0.2906 -0.6735 -0.5607
 7843SOL    HW134988   3.310   1.922   5.228 -0.4783 -1.2431 -0.7406
 7843SOL    HW234989   3.184   1.916   5.295  0.8805 -1.5062 -1.3455
 7844SOL     OW34990   0.460   0.789   8.015  0.2213 -0.6327  0.4492
 7844SOL    HW134991   0.417   0.858   7.965  1.4249  1.4267  2.2677
 7844SOL    HW234992   0.443   0.710   7.964  1.2571  0.0043 -0.8875
 7845SOL     OW34993   1.283   4.627  14.550 -0.0534 -0.2044  0.2194
 7845SOL    HW134994   1.369   4.642  14.511 -0.7390 -1.2048 -1.6753
 7845SOL    HW234995   1.253   4.569  14.480 -0.3518 -0.9839  0.9833
 7846SOL     OW34996   0.407   0.132  10.995 -0.1165  0.6007 -0.7366
 7846SOL    HW134997   0.413   0.188  11.072  0.3989 -2.4091  1.4356
 7846SOL    HW234998   0.371   0.188  10.927  1.6341  1.2627 -1.1147
 7847SOL     OW34999   2.705   4.161  11.923  0.6371 -0.1207 -0.0415
 7847SOL    HW135000   2.743   4.247  11.943  0.6636 -0.2054  0.2653
 7847SOL    HW235001   2.780   4.107  11.947  1.6063 -0.6104 -4.1187
 7848SOL     OW35002   2.651   0.773   4.009 -0.1423  0.1406  0.2772
 7848SOL    HW135003   2.599   0.748   3.933 -0.1025 -0.0940  0.3270
 7848SOL    HW235004   2.651   0.868   3.995 -0.0912  0.3721  1.8792
 7849SOL     OW35005   3.781   4.176   3.599 -0.2191 -0.6083  0.5549
 7849SOL    HW135006   3.867   4.157   3.560 -0.3472 -0.9755  0.4462
 7849SOL    HW235007   3.751   4.092   3.634 -1.2117 -0.2686  0.5040
 7850SOL     OW35008   2.040   1.432   6.932 -0.1250 -0.2826  0.3681
 7850SOL    HW135009   2.072   1.519   6.958 -1.1581  0.4351 -0.7671
 7850SOL    HW235010   1.947   1.452   6.921 -0.2910 -0.2908  1.7908
 7851SOL     OW35011   3.539   0.407   9.132 -0.3530  0.4713  0.3128
 7851SOL    HW135012   3.458   0.449   9.106 -0.7121  0.6377  1.6945
 7851SOL    HW235013   3.590   0.479   9.169 -0.1980  0.0141  1.0058
 7852SOL     OW35014   4.501   0.252   2.305 -0.0641 -0.3795  0.4735
 7852SOL    HW135015   4.495   0.243   2.210  2.3421  1.2917  0.1498
 7852SOL    HW235016   4.528   0.343   2.314 -0.1073 -0.2499 -0.6828
 7853SOL     OW35017   2.577   2.565   8.652 -0.2866  0.0001 -0.3000
 7853SOL    HW135018   2.633   2.636   8.681  2.4099 -2.2221 -0.0832
 7853SOL    HW235019   2.496   2.587   8.698 -1.1056 -3.2201 -0.1588
 7854SOL     OW35020   2.170   1.606   0.869 -0.5320 -0.1706  0.2614
 7854SOL    HW135021   2.149   1.520   0.830  0.8894 -0.3343 -0.1353
 7854SOL    HW235022   2.213   1.581   0.950  2.9743  2.2728 -0.8929
 7855SOL     OW35023   1.512   3.670   6.840  0.1962 -0.5709 -0.3597
 7855SOL    HW135024   1.522   3.758   6.875 -0.6361  0.2670 -2.2546
 7855SOL    HW235025   1.518   3.612   6.916  1.7382 -0.5510 -0.4665
 7856SOL     OW35026   2.303   3.179   7.402  0.2145  0.0129  0.6262
 7856SOL    HW135027   2.261   3.198   7.318  0.9516 -1.5796 -0.1083
 7856SOL    HW235028   2.250   3.110   7.443  1.2592 -0.0985  1.7727
 7857SOL     OW35029   2.288   0.852   1.934 -0.0984  0.3120 -0.2858
 7857SOL    HW135030   2.207   0.810   1.963 -0.9274  3.1134  1.4019
 7857SOL    HW235031   2.257   0.938   1.907 -2.0250 -0.9652 -2.0892
 7858SOL     OW35032   4.391   2.677   4.810 -0.8260 -0.3095 -0.1065
 7858SOL    HW135033   4.482   2.695   4.833 -0.4023 -1.0942 -1.1839
 7858SOL    HW235034   4.378   2.761   4.765 -0.7120 -1.6798 -2.6990
 7859SOL     OW35035   2.272   3.937  15.063 -0.5359 -0.0614 -0.2197
 7859SOL    HW135036   2.207   4.000  15.091 -0.9442 -0.4995 -0.1873
 7859SOL    HW235037   2.345   3.980  15.107 -0.5490 -1.5950  1.3219
 7860SOL     OW35038   1.875   2.773   9.261  0.5203 -0.1819 -0.1363
 7860SOL    HW135039   1.845   2.720   9.335  0.6826 -0.4295 -0.2521
 7860SOL    HW235040   1.970   2.766   9.257  0.7247  1.0365  2.1274
 7861SOL     OW35041   2.554   3.050   0.013 -0.3831  0.7891  0.5746
 7861SOL    HW135042   2.606   3.121   0.052 -0.0913  1.0619 -0.3155
 7861SOL    HW235043   2.486   3.043   0.079 -2.6175 -0.1863 -1.8496
 7862SOL     OW35044   1.800   4.070   4.427 -0.0450  0.0209 -0.3927
 7862SOL    HW135045   1.818   3.981   4.457  0.7139  0.4526  0.4121
 7862SOL    HW235046   1.889   4.103   4.421  0.3275 -1.1799 -1.6983
 7863SOL     OW35047   1.539   4.034   6.676  0.3934 -0.1585 -0.0240
 7863SOL    HW135048   1.627   4.007   6.653 -0.3773 -0.5434 -2.5454
 7863SOL    HW235049   1.543   4.006   6.767  2.0248  1.5281  0.4184
 7864SOL     OW35050   1.203   1.269   6.600  0.0777 -0.4245  0.2440
 7864SOL    HW135051   1.176   1.243   6.512 -2.0190 -1.1821  1.1376
 7864SOL    HW235052   1.142   1.213   6.648  1.1525 -0.6659  1.3389
 7865SOL     OW35053   0.031   4.294  11.437 -0.2888 -0.5681 -0.2771
 7865SOL    HW135054   0.090   4.321  11.367 -0.1185  1.2786  0.5878
 7865SOL    HW235055   0.088   4.238  11.490 -0.4248 -0.8268 -0.4031
 7866SOL     OW35056   0.217   3.396  13.689 -0.0239  0.0443  0.2077
 7866SOL    HW135057   0.236   3.370  13.779  0.3473 -1.1313 -0.2093
 7866SOL    HW235058   0.172   3.479  13.702 -1.4771 -0.6834 -0.2378
 7867SOL     OW35059   1.927   3.808  11.826 -0.2568  0.0550 -0.0676
 7867SOL    HW135060   1.880   3.765  11.754 -0.9891 -1.3480  1.2525
 7867SOL    HW235061   1.965   3.732  11.869 -0.3592 -1.4369 -2.5991
 7868SOL     OW35062   0.413   4.643  12.650 -0.2874  0.4388 -0.0658
 7868SOL    HW135063   0.376   0.011  12.654  0.0386  0.5534  0.4812
 7868SOL    HW235064   0.451   4.639  12.738 -1.3118  2.7260  0.4879
 7869SOL     OW35065   2.600   4.079   7.100  0.3523  0.0646  0.3089
 7869SOL    HW135066   2.673   4.059   7.041  0.0976  2.1169 -0.6858
 7869SOL    HW235067   2.624   4.031   7.179 -0.7235 -2.2727 -0.7660
 7870SOL     OW35068   4.596   2.799   7.605 -0.1191  0.1443 -0.1232
 7870SOL    HW135069   4.678   2.751   7.599  1.3572  2.4470  1.6005
 7870SOL    HW235070   4.626   2.889   7.618 -1.5978  0.6652 -0.2775
 7871SOL     OW35071   2.446   0.429   8.179 -0.1511  0.2883 -0.1144
 7871SOL    HW135072   2.526   0.474   8.151 -1.0638  1.4716 -0.8086
 7871SOL    HW235073   2.469   0.412   8.271  2.9226 -0.2498 -0.9699
 7872SOL     OW35074   3.226   4.049   6.412 -0.2210  0.0506 -0.1491
 7872SOL    HW135075   3.169   4.079   6.340 -2.3475 -2.4321  0.4849
 7872SOL    HW235076   3.311   4.053   6.369 -0.8225 -2.5993 -1.6537
 7873SOL     OW35077   2.759   3.496   7.563 -0.6890  0.1069  0.1035
 7873SOL    HW135078   2.814   3.441   7.618 -0.6912  0.9770  0.9889
 7873SOL    HW235079   2.690   3.436   7.533 -0.5712  0.1621 -0.2676
 7874SOL     OW35080   3.638   2.484   3.516  0.1332 -0.0847  0.0220
 7874SOL    HW135081   3.636   2.445   3.603  2.2817 -0.0702  0.0758
 7874SOL    HW235082   3.543   2.492   3.507  0.0454 -2.0991 -0.9053
 7875SOL     OW35083   2.239   1.638   2.570 -0.1054 -0.6456 -0.1406
 7875SOL    HW135084   2.323   1.600   2.592 -0.1547 -1.3343 -1.1236
 7875SOL    HW235085   2.178   1.567   2.551  0.1532 -1.3683  1.8097
 7876SOL     OW35086   3.250   2.754   6.519  0.4012 -0.2186  0.2282
 7876SOL    HW135087   3.283   2.676   6.563  3.0170  0.2756 -0.8838
 7876SOL    HW235088   3.320   2.817   6.533  1.1702 -1.1645  0.6618
 7877SOL     OW35089   3.993   1.306   5.255 -0.0203 -0.3016 -0.2339
 7877SOL    HW135090   4.025   1.274   5.339  2.3941 -1.9521 -1.7909
 7877SOL    HW235091   4.072   1.292   5.203 -0.9741 -1.5518 -1.3418
 7878SOL     OW35092   1.646   0.313   2.984  0.3528 -0.8395  0.1393
 7878SOL    HW135093   1.630   0.219   2.995  1.2662 -0.9030  0.9235
 7878SOL    HW235094   1.629   0.346   3.072 -0.2609  0.6390 -0.5241
 7879SOL     OW35095   0.824   4.132   3.894 -0.3460 -0.6313 -0.0380
 7879SOL    HW135096   0.913   4.151   3.865 -0.5339  0.7428  0.2918
 7879SOL    HW235097   0.808   4.044   3.860  2.3599 -0.6768 -1.2279
 7880SOL     OW35098   1.546   2.554  13.870  0.0536  0.0738 -0.0189
 7880SOL    HW135099   1.528   2.624  13.933  2.1697 -1.1672  1.9369
 7880SOL    HW235100   1.475   2.565  13.806 -0.8746  0.6917  1.1240
 7881SOL     OW35101   0.443   3.245   1.386 -0.2268  0.1379 -0.2691
 7881SOL    HW135102   0.442   3.332   1.346 -0.7298 -0.2025 -1.0055
 7881SOL    HW235103   0.356   3.212   1.362  0.5596 -1.3180 -1.1243
 7882SOL     OW35104   4.069   0.829   3.263  0.4696  0.1276  0.3673
 7882SOL    HW135105   4.095   0.893   3.197  0.4365  0.2256  0.4491
 7882SOL    HW235106   4.102   0.871   3.342  1.2272  0.0097  0.1093
 7883SOL     OW35107   4.579   3.387   8.986 -0.4116 -0.3986 -0.2080
 7883SOL    HW135108   4.636   3.434   9.047  2.1028 -3.6258 -0.0513
 7883SOL    HW235109   4.648   3.328   8.955  0.1538  0.4178 -0.4964
 7884SOL     OW35110   4.122   2.358   7.140 -0.4473  0.4482 -0.2363
 7884SOL    HW135111   4.170   2.407   7.074 -1.0523  0.9181 -0.3274
 7884SOL    HW235112   4.056   2.316   7.084 -2.6426  0.4034  2.3722
 7885SOL     OW35113   1.937   4.652  15.843 -0.3410  0.7501 -0.5545
 7885SOL    HW135114   1.969   4.614  15.924 -0.8676  0.8941 -0.2761
 7885SOL    HW235115   2.013   4.644  15.786 -0.6471 -1.2283 -0.6961
 7886SOL     OW35116   1.448   2.286   6.499 -0.3337  0.0164  0.4925
 7886SOL    HW135117   1.386   2.317   6.565  0.6039  0.2570  1.2626
 7886SOL    HW235118   1.473   2.372   6.465  1.9098 -1.6283 -2.0224
 7887SOL     OW35119   4.105   1.234   7.113  0.0760  0.2146 -0.2461
 7887SOL    HW135120   4.179   1.233   7.174 -0.8899  0.2912  0.9258
 7887SOL    HW235121   4.031   1.271   7.160 -0.1129 -0.8418  0.2825
 7888SOL     OW35122   2.576   4.431   5.724  0.3606  0.0244  0.2991
 7888SOL    HW135123   2.657   4.466   5.759  0.3287 -0.3326  0.7321
 7888SOL    HW235124   2.519   4.508   5.733 -0.5398 -0.7205  1.0367
 7889SOL     OW35125   2.355   0.550   0.890 -0.5239  0.0666 -0.0995
 7889SOL    HW135126   2.266   0.520   0.908 -0.3547 -1.4330 -1.8507
 7889SOL    HW235127   2.406   0.488   0.942 -0.4283  0.7703  0.6503
 7890SOL     OW35128   0.214   0.346   5.177  0.7384  0.2334  0.1203
 7890SOL    HW135129   0.248   0.391   5.254  0.2514  0.5518  0.1507
 7890SOL    HW235130   0.286   0.359   5.116  0.9637 -0.1997  0.2962
 7891SOL     OW35131   4.079   4.224   8.791 -0.6614 -0.4548 -0.4802
 7891SOL    HW135132   4.067   4.239   8.884  2.7392  4.1750 -0.7590
 7891SOL    HW235133   3.997   4.272   8.777  0.0305  0.8962  0.0904
 7892SOL     OW35134   4.222   3.584   5.026  0.0901  0.0776  0.2097
 7892SOL    HW135135   4.172   3.664   5.044  2.0633  1.0902  1.1463
 7892SOL    HW235136   4.234   3.548   5.114 -1.6155  0.7942  0.7422
 7893SOL     OW35137   2.911   2.029   2.216 -0.5997  0.3494 -0.1480
 7893SOL    HW135138   2.886   1.975   2.141  0.1710 -1.1264  0.6647
 7893SOL    HW235139   2.960   2.102   2.176 -1.6381  1.6899  1.0297
 7894SOL     OW35140   2.390   2.239   8.796  0.2212 -0.2177 -0.1910
 7894SOL    HW135141   2.432   2.311   8.844 -2.3666  0.5626  0.8687
 7894SOL    HW235142   2.468   2.220   8.743 -1.1948  0.4512 -2.4905
 7895SOL     OW35143   2.542   0.648  11.534 -0.0445 -0.4905  0.3515
 7895SOL    HW135144   2.536   0.731  11.488 -2.6919 -1.1000 -0.3769
 7895SOL    HW235145   2.537   0.584  11.463 -1.0475 -2.1511  1.9016
 7896SOL     OW35146   2.183   1.410  11.307 -0.0206  0.1925 -0.2461
 7896SOL    HW135147   2.158   1.401  11.215 -0.9514 -0.7269  0.0973
 7896SOL    HW235148   2.147   1.324  11.328 -0.6591  0.1277 -1.5701
 7897SOL     OW35149   1.790   3.046   1.360 -0.2638  0.2197 -0.1940
 7897SOL    HW135150   1.732   3.009   1.427 -1.5244 -1.6016 -2.2897
 7897SOL    HW235151   1.814   2.966   1.313 -0.4751  0.8440 -1.3829
 7898SOL     OW35152   2.395   1.481   0.509 -0.1086  0.1942 -0.0792
 7898SOL    HW135153   2.381   1.575   0.510 -0.9508  0.0722 -0.8153
 7898SOL    HW235154   2.472   1.473   0.452  0.4857 -0.7390  0.8339
 7899SOL     OW35155   1.471   2.684   6.198  0.4863  0.2512 -0.2047
 7899SOL    HW135156   1.478   2.755   6.262 -0.4004 -0.3834  0.6046
 7899SOL    HW235157   1.408   2.720   6.135 -1.3910 -0.6230  1.1777
 7900SOL     OW35158   1.479   3.504   0.929 -0.1289 -0.9809 -0.0216
 7900SOL    HW135159   1.556   3.502   0.986 -0.5790 -0.4078  0.6082
 7900SOL    HW235160   1.505   3.586   0.888 -1.9451 -0.9270 -1.0680
 7901SOL     OW35161   1.009   2.298   9.941  0.1350 -0.4303  0.3147
 7901SOL    HW135162   0.931   2.244   9.955 -1.6159  1.8469 -0.5537
 7901SOL    HW235163   0.977   2.387   9.960 -1.5068 -1.3945  2.0474
 7902SOL     OW35164   3.924   1.166   5.045 -0.0898  0.4867  0.4143
 7902SOL    HW135165   3.990   1.099   5.061 -1.2394 -0.8860 -0.6315
 7902SOL    HW235166   3.943   1.219   5.123 -0.9352  0.8243  0.3942
 7903SOL     OW35167   0.168   2.256   3.056 -0.2470  0.2533  0.0479
 7903SOL    HW135168   0.188   2.275   2.964  0.2427 -1.8423 -0.2695
 7903SOL    HW235169   0.229   2.183   3.069 -3.0773 -2.2522 -0.9098
 7904SOL     OW35170   1.045   1.052   0.731 -0.7105  0.1217 -0.1621
 7904SOL    HW135171   1.100   0.997   0.675 -4.0157 -1.5949 -1.7394
 7904SOL    HW235172   1.076   1.026   0.817 -0.0763  0.5438 -0.2568
 7905SOL     OW35173   1.780   0.120   4.244  0.1393 -0.6785  0.4003
 7905SOL    HW135174   1.828   0.198   4.271  1.6089 -1.1309 -0.9327
 7905SOL    HW235175   1.695   0.145   4.280  0.0780 -0.1183 -0.1314
 7906SOL     OW35176   3.490   0.560  15.927 -0.4104  0.4357  0.2535
 7906SOL    HW135177   3.409   0.593  15.966 -2.0463  0.2607 -3.0166
 7906SOL    HW235178   3.452   0.486  15.880  0.3923  1.0142 -1.2948
 7907SOL     OW35179   1.875   0.323  13.293  0.5681  0.1889 -0.1220
 7907SOL    HW135180   1.957   0.311  13.341  0.4234  2.0038  0.5967
 7907SOL    HW235181   1.819   0.317  13.371  0.1415  1.0439 -0.3582
 7908SOL     OW35182   4.329   3.502  17.129  0.3744  0.1217  0.4325
 7908SOL    HW135183   4.400   3.543  17.178  2.0334 -2.2363  0.0061
 7908SOL    HW235184   4.366   3.495  17.041 -0.6292  2.2146 -0.1648
 7909SOL     OW35185   1.653   3.144   6.295  0.7892 -0.6277 -0.2992
 7909SOL    HW135186   1.716   3.199   6.248 -0.0938 -0.5738 -1.4211
 7909SOL    HW235187   1.705   3.087   6.351 -0.0710 -0.7986  0.3299
 7910SOL     OW35188   2.816   2.367   8.088  0.3528  0.1035  0.0019
 7910SOL    HW135189   2.732   2.377   8.044  0.3541  0.1690  0.0138
 7910SOL    HW235190   2.796   2.405   8.174 -2.0630  1.6934 -1.2509
 7911SOL     OW35191   0.874   2.483   9.144 -0.0633  0.0314  0.5965
 7911SOL    HW135192   0.851   2.394   9.118  1.2807  0.1130 -0.9325
 7911SOL    HW235193   0.819   2.505   9.219 -1.8987  1.0201 -1.0360
 7912SOL     OW35194   2.719   4.307   7.821 -0.8765  0.4968  0.0582
 7912SOL    HW135195   2.650   4.362   7.859 -0.1385 -0.1051  2.3103
 7912SOL    HW235196   2.675   4.222   7.821  0.1811 -0.0459  0.7332
 7913SOL     OW35197   4.203   4.595  12.358  0.1460 -0.5859 -0.1424
 7913SOL    HW135198   4.213   4.551  12.442  0.9434  0.3792  0.2669
 7913SOL    HW235199   4.125   4.650  12.370  0.1929 -0.2181 -1.5378
 7914SOL     OW35200   3.138   0.088  17.040  0.2920  0.8589 -0.2117
 7914SOL    HW135201   3.093   0.054  16.963 -2.0197 -1.3370  2.0952
 7914SOL    HW235202   3.205   0.020  17.045 -0.3851  0.2069 -0.0109
 7915SOL     OW35203   0.996   1.161   8.080 -0.0590 -0.1154 -0.4777
 7915SOL    HW135204   0.985   1.207   8.163  1.2306 -1.1724  0.2898
 7915SOL    HW235205   1.063   1.217   8.041 -1.0913 -1.0190 -3.5860
 7916SOL     OW35206   2.885   2.067   5.744  0.6779  0.3648  0.3517
 7916SOL    HW135207   2.792   2.090   5.749  0.6010  0.0155  0.5119
 7916SOL    HW235208   2.898   2.103   5.832 -0.1461 -0.7301  0.9211
 7917SOL     OW35209   4.408   3.705   7.553  0.3084  0.5580 -0.0547
 7917SOL    HW135210   4.388   3.719   7.460  2.6485 -0.5568 -0.7195
 7917SOL    HW235211   4.324   3.670   7.584  1.5523 -3.3478 -1.0351
 7918SOL     OW35212   1.752   4.192   2.418 -0.1973 -0.3611  0.6418
 7918SOL    HW135213   1.808   4.170   2.343 -1.8108 -1.7500 -0.1637
 7918SOL    HW235214   1.665   4.156   2.396 -1.1309  1.4477  1.4004
 7919SOL     OW35215   3.869   3.192   6.964 -0.1445 -0.4038  0.2343
 7919SOL    HW135216   3.856   3.185   7.058  0.6886 -2.8883  0.1501
 7919SOL    HW235217   3.856   3.287   6.962 -1.9368 -0.6628 -0.2543
 7920SOL     OW35218   0.577   2.403   0.686  0.0121 -0.1818 -0.4412
 7920SOL    HW135219   0.619   2.322   0.657 -1.4064 -0.9054 -0.4702
 7920SOL    HW235220   0.614   2.414   0.774 -2.1960  0.6712  0.3768
 7921SOL     OW35221   2.498   3.537   3.239  0.4374  0.0545  0.6768
 7921SOL    HW135222   2.496   3.510   3.148 -0.2702  1.2401  0.3352
 7921SOL    HW235223   2.420   3.492   3.272  1.3501 -1.0554  1.3266
 7922SOL     OW35224   2.005   4.625   8.403 -0.4629 -0.1585 -0.2532
 7922SOL    HW135225   2.008   4.559   8.472  1.5071  0.4028  0.2020
 7922SOL    HW235226   2.095   4.656   8.409 -1.0589  1.6344 -0.4800
 7923SOL     OW35227   0.990   2.376   1.041 -0.0129  0.4996  0.2781
 7923SOL    HW135228   1.022   2.452   1.090  1.0026  0.4923 -0.3751
 7923SOL    HW235229   0.907   2.359   1.086  1.8533  1.4647  4.0833
 7924SOL     OW35230   2.368   0.598  10.999  0.1863 -0.3032  0.6363
 7924SOL    HW135231   2.425   0.624  10.926  1.8252  0.3746  2.1301
 7924SOL    HW235232   2.380   0.664  11.068 -2.4495  0.0201  0.7887
 7925SOL     OW35233   0.673   4.380   8.717 -0.1318 -0.0792  0.1469
 7925SOL    HW135234   0.644   4.454   8.772 -1.9024  1.2919 -2.6265
 7925SOL    HW235235   0.620   4.388   8.637  0.7363  0.3806 -0.3839
 7926SOL     OW35236   1.050   0.184  14.906  0.4265  0.1258 -0.1237
 7926SOL    HW135237   1.062   0.111  14.845  0.4460 -2.0462  2.5175
 7926SOL    HW235238   1.144   0.199  14.920  0.4648 -0.8398  0.6557
 7927SOL     OW35239   2.168   3.096   3.824 -0.0711  0.5356  0.3107
 7927SOL    HW135240   2.208   3.165   3.878 -1.7111  1.8305 -0.1202
 7927SOL    HW235241   2.075   3.117   3.823 -0.6769 -2.2393  0.3886
 7928SOL     OW35242   2.089   3.816  11.491 -0.0681  0.6469  0.5160
 7928SOL    HW135243   2.093   3.881  11.420  0.1817 -0.5517 -0.5682
 7928SOL    HW235244   2.000   3.789  11.466  0.1387  1.7264 -1.4619
 7929SOL     OW35245   0.839   1.424   1.280  0.1175  0.4044 -0.2233
 7929SOL    HW135246   0.860   1.390   1.367 -0.1299  1.1158  0.1138
 7929SOL    HW235247   0.926   1.419   1.241  1.3452 -0.7189  2.6464
 7930SOL     OW35248   3.589   1.772   5.501  0.4759  0.0205  0.2759
 7930SOL    HW135249   3.664   1.742   5.554  0.3174 -0.1549  0.4019
 7930SOL    HW235250   3.632   1.804   5.422  1.4600 -1.0286  0.3787
 7931SOL     OW35251   1.245   4.597   4.172  0.3731 -0.0445  0.1037
 7931SOL    HW135252   1.217   4.511   4.142  1.1878 -0.0427 -0.6625
 7931SOL    HW235253   1.162   4.617   4.216  0.1046 -0.4132 -0.2414
 7932SOL     OW35254   0.096   3.511   1.429  0.3110 -0.7807  0.3947
 7932SOL    HW135255   0.170   3.565   1.403 -0.0999 -0.0130  0.8014
 7932SOL    HW235256   0.098   3.534   1.522  0.0204 -1.8709  0.6711
 7933SOL     OW35257   4.092   1.360  14.882  0.2723 -0.5005  0.4994
 7933SOL    HW135258   4.127   1.430  14.936 -0.1308  0.3986 -0.4102
 7933SOL    HW235259   4.060   1.303  14.952  0.5646 -0.4473  0.6766
 7934SOL     OW35260   3.697   2.645   4.810 -0.1319  0.3976 -0.1104
 7934SOL    HW135261   3.700   2.720   4.752  0.8554  1.4341  1.2912
 7934SOL    HW235262   3.688   2.582   4.738  3.4061  0.8528 -0.9557
 7935SOL     OW35263   3.212   2.932  15.999  0.0661  0.0100  0.1474
 7935SOL    HW135264   3.284   2.995  16.007  0.9729 -0.9456 -0.6167
 7935SOL    HW235265   3.251   2.847  16.017  1.5744  0.5159 -0.6946
 7936SOL     OW35266   3.828   4.056  11.526  0.3433 -0.5105  0.3675
 7936SOL    HW135267   3.886   4.129  11.548  0.3882  1.1544 -5.3690
 7936SOL    HW235268   3.897   3.996  11.499 -0.8137 -1.4659 -0.4422
 7937SOL     OW35269   3.440   3.822   8.606  0.2955  0.0385  0.2687
 7937SOL    HW135270   3.350   3.791   8.608  0.3431 -0.2238 -1.3056
 7937SOL    HW235271   3.452   3.857   8.694  0.9040 -0.7160  0.4807
 7938SOL     OW35272   4.424   0.402  11.687 -0.1702  0.1522  0.2810
 7938SOL    HW135273   4.350   0.444  11.732  0.5218  0.3950  1.2034
 7938SOL    HW235274   4.373   0.330  11.651  1.5624 -0.4482 -0.9197
 7939SOL     OW35275   4.267   1.173  14.003 -0.0942 -0.0173 -0.3421
 7939SOL    HW135276   4.325   1.206  13.934 -0.0112 -1.0749 -0.7774
 7939SOL    HW235277   4.335   1.143  14.064 -0.6932  0.1789  0.4223
 7940SOL     OW35278   2.758   3.437   5.868 -0.0756  0.2237 -0.5054
 7940SOL    HW135279   2.766   3.467   5.778 -0.2010  0.3637 -0.4691
 7940SOL    HW235280   2.750   3.343   5.849 -2.1717  0.4770 -0.8372
 7941SOL     OW35281   0.750   4.197   1.078 -0.0834  0.2881  0.6547
 7941SOL    HW135282   0.706   4.241   1.151  1.2061 -0.4466  1.8745
 7941SOL    HW235283   0.822   4.257   1.059  0.6755 -1.0186 -0.5606
 7942SOL     OW35284   3.201   0.498   6.464  0.0786  0.4853 -0.0039
 7942SOL    HW135285   3.257   0.421   6.455 -2.5879 -1.6569  1.7139
 7942SOL    HW235286   3.117   0.452   6.470  0.4248 -0.1269  0.1666
 7943SOL     OW35287   2.598   3.456   2.366 -0.0784  0.6770  0.4406
 7943SOL    HW135288   2.595   3.451   2.270  0.6382  0.3095  0.4394
 7943SOL    HW235289   2.666   3.390   2.381 -1.2371 -0.2702  1.5579
 7944SOL     OW35290   4.183   1.483  12.726 -0.0103  0.1513  0.1769
 7944SOL    HW135291   4.104   1.537  12.721 -0.7491 -0.7652  1.6976
 7944SOL    HW235292   4.258   1.539  12.745  0.2262 -0.3577  0.7734
 7945SOL     OW35293   1.460   1.085   7.518 -0.0935 -0.2253  0.4577
 7945SOL    HW135294   1.519   1.139   7.571  0.5908 -2.3028  1.7745
 7945SOL    HW235295   1.454   1.137   7.437  0.0415  0.1611  0.6944
 7946SOL     OW35296   3.447   3.653   3.828 -0.3521  0.1568 -0.2491
 7946SOL    HW135297   3.428   3.596   3.902  0.5967  1.0166  0.6487
 7946SOL    HW235298   3.495   3.589   3.776  2.3013  1.1378  0.9542
 7947SOL     OW35299   1.018   2.217  10.373 -0.7956  0.6205  0.5137
 7947SOL    HW135300   0.925   2.195  10.375 -0.6346 -0.0450  0.8140
 7947SOL    HW235301   1.044   2.137  10.419 -0.7578  1.0428  1.2275
 7948SOL     OW35302   2.021   2.227   7.439 -0.3066 -0.2539  0.4614
 7948SOL    HW135303   1.962   2.157   7.410 -1.3819  1.1398 -0.6944
 7948SOL    HW235304   2.095   2.186   7.485 -1.6126 -1.9372  1.0470
 7949SOL     OW35305   1.786   2.250   7.726 -0.4253  0.0185  0.8093
 7949SOL    HW135306   1.856   2.303   7.764  0.8420  0.3766 -2.0295
 7949SOL    HW235307   1.770   2.289   7.640  0.6635  0.2298  0.6953
 7950SOL     OW35308   1.222   2.957  15.377  0.0173  0.6457 -0.2213
 7950SOL    HW135309   1.128   2.971  15.366  0.0509  0.8971 -0.1856
 7950SOL    HW235310   1.245   3.024  15.442  0.6801 -1.9574  2.2240
 7951SOL     OW35311   0.023   2.028  17.498 -0.1589 -0.5590 -0.3058
 7951SOL    HW135312   0.035   1.933  17.496 -1.7056 -0.7656 -0.4390
 7951SOL    HW235313   4.654   2.029  17.530  0.0983  0.9981  0.3774
 7952SOL     OW35314   0.203   4.611  15.246 -0.2546  0.4681 -0.4396
 7952SOL    HW135315   0.147   4.673  15.200  0.6632 -0.2683 -2.5240
 7952SOL    HW235316   0.187   4.532  15.195  0.7204 -2.7350  4.1554
 7953SOL     OW35317   0.709   1.316   1.036 -0.2704 -0.5135  0.5614
 7953SOL    HW135318   0.751   1.280   1.114  3.4738  0.3728 -1.0251
 7953SOL    HW235319   0.777   1.371   0.997  0.1801 -2.6030 -1.5940
 7954SOL     OW35320   3.534   2.993   5.626  0.6835 -0.3331 -0.1873
 7954SOL    HW135321   3.510   2.934   5.698 -1.6471  0.9339  0.0864
 7954SOL    HW235322   3.537   2.935   5.550 -1.1467  0.1016 -0.6055
 7955SOL     OW35323   0.098   1.635   8.521  0.1469 -0.4042 -0.0356
 7955SOL    HW135324   0.094   1.539   8.526  1.4273 -0.4223  0.6773
 7955SOL    HW235325   0.176   1.657   8.572  1.0451 -1.5708 -0.9204
 7956SOL     OW35326   2.810   3.564   2.961 -0.1657  0.3775 -0.2072
 7956SOL    HW135327   2.755   3.640   2.945 -0.8207 -0.1116 -0.2593
 7956SOL    HW235328   2.891   3.604   2.929  1.1878 -0.5022  2.1187
 7957SOL     OW35329   2.454   4.279   3.668 -0.4708 -0.0929  0.1014
 7957SOL    HW135330   2.428   4.189   3.686 -0.8519 -0.0554 -0.2614
 7957SOL    HW235331   2.441   4.279   3.573  0.2917 -0.2030 -0.0076
 7958SOL     OW35332   0.044   1.518   8.972  0.7185 -0.1788  0.2928
 7958SOL    HW135333   0.083   1.480   9.050  0.4159 -1.6119 -0.2580
 7958SOL    HW235334   0.030   1.435   8.927 -0.2185  0.5921 -0.8442
 7959SOL     OW35335   2.306   1.922  16.736 -0.6075 -0.4961 -0.1503
 7959SOL    HW135336   2.314   1.886  16.648  0.1773  0.0589 -0.3000
 7959SOL    HW235337   2.339   2.012  16.729  0.8064 -1.2898 -3.4604
 7960SOL     OW35338   4.473   1.398   8.730  0.0643 -0.6119 -0.2620
 7960SOL    HW135339   4.411   1.423   8.661 -1.0484  4.4496  2.5456
 7960SOL    HW235340   4.413   1.400   8.804  0.1817  0.2959 -0.1854
 7961SOL     OW35341   4.499   3.074   4.323 -0.0658 -0.1063 -0.1601
 7961SOL    HW135342   4.473   2.997   4.274 -1.4148  0.3414 -0.1282
 7961SOL    HW235343   4.442   3.134   4.275 -2.2563 -2.9829 -1.1063
 7962SOL     OW35344   0.652   1.490   8.246 -0.6158  0.5331  0.1335
 7962SOL    HW135345   0.669   1.546   8.323  1.6855  1.0643 -0.7651
 7962SOL    HW235346   0.699   1.537   8.178 -2.7932  0.0838 -1.6854
 7963SOL     OW35347   2.465   0.527  14.324  0.1110  0.2513  0.0046
 7963SOL    HW135348   2.381   0.563  14.294  0.5218  1.5214  0.3717
 7963SOL    HW235349   2.494   0.483  14.244  1.8582  1.0904  0.1954
 7964SOL     OW35350   2.154   4.183   2.927 -0.0065 -0.4730  0.2624
 7964SOL    HW135351   2.243   4.211   2.905  0.7013 -1.0788  2.3347
 7964SOL    HW235352   2.165   4.109   2.986 -0.4580 -0.2141  0.6676
 7965SOL     OW35353   4.495   1.426   7.705 -0.2543 -0.3924  0.4977
 7965SOL    HW135354   4.467   1.504   7.754  0.9559 -0.0233  0.6176
 7965SOL    HW235355   4.441   1.354   7.737  1.4956 -1.3662  1.2409
 7966SOL     OW35356   0.436   0.041   8.469  0.8781 -0.2419  0.6559
 7966SOL    HW135357   0.494   0.116   8.454  0.3700 -0.1379 -0.7447
 7966SOL    HW235358   0.484   4.688   8.431  0.4009  0.2739 -0.9492
 7967SOL     OW35359   3.863   3.222   1.059 -0.0442  0.1675 -0.3711
 7967SOL    HW135360   3.866   3.127   1.072 -0.7479 -0.0361 -1.6889
 7967SOL    HW235361   3.768   3.225   1.048 -0.3446 -1.3600  1.9187
 7968SOL     OW35362   0.367   2.565  13.232 -0.4655  0.2543  0.0429
 7968SOL    HW135363   0.365   2.522  13.147 -1.9471  0.8026 -0.2000
 7968SOL    HW235364   0.304   2.507  13.274  0.4045 -2.0145 -1.7982
 7969SOL     OW35365   3.451   3.994   7.526 -0.5937 -0.8519 -0.2649
 7969SOL    HW135366   3.440   4.058   7.456  2.5288  1.1801  1.1004
 7969SOL    HW235367   3.367   4.002   7.570 -0.4537 -1.3141  0.0878
 7970SOL     OW35368   1.713   0.645   8.754 -0.1189 -0.1639  0.1344
 7970SOL    HW135369   1.676   0.686   8.832 -1.3308  1.1202 -1.1264
 7970SOL    HW235370   1.806   0.658   8.774 -0.2314 -0.6440  1.0026
 7971SOL     OW35371   2.418   2.358   2.408 -0.0507  0.5467  0.0474
 7971SOL    HW135372   2.497   2.349   2.461  1.5290  0.1601 -2.3794
 7971SOL    HW235373   2.384   2.269   2.398  0.5988  0.1419  1.4484
 7972SOL     OW35374   1.622   2.918   5.214  0.5898 -0.0897  0.3120
 7972SOL    HW135375   1.644   2.826   5.204  1.0550 -0.1176  1.6828
 7972SOL    HW235376   1.531   2.898   5.194  0.1719  2.7791 -0.6990
 7973SOL     OW35377   1.917   0.397   1.345  0.0340 -0.4660  0.6872
 7973SOL    HW135378   1.919   0.310   1.385  0.2066 -0.4367  0.7444
 7973SOL    HW235379   1.829   0.428   1.364 -0.0211 -1.0814  1.4251
 7974SOL     OW35380   0.700   1.093   2.178  0.5393  0.2417  0.0295
 7974SOL    HW135381   0.712   1.004   2.213 -0.9354 -0.3652 -1.0078
 7974SOL    HW235382   0.610   1.115   2.203  1.3894  2.1986  1.3572
 7975SOL     OW35383   3.469   0.647   3.750 -0.5665  0.2460 -0.8353
 7975SOL    HW135384   3.514   0.585   3.808 -0.9863  0.7667  0.0581
 7975SOL    HW235385   3.505   0.606   3.672 -0.1781 -2.0432  0.5445
 7976SOL     OW35386   3.792   2.010   9.445  0.4750 -0.3870  0.3726
 7976SOL    HW135387   3.730   1.972   9.382 -0.2138  0.5550  0.4752
 7976SOL    HW235388   3.752   2.093   9.470  2.6173  0.5341  0.6706
 7977SOL     OW35389   4.061   3.231   4.160 -0.1186  0.5257  0.1258
 7977SOL    HW135390   4.035   3.278   4.080 -1.4361 -0.4232 -0.0142
 7977SOL    HW235391   4.120   3.300   4.189  2.2616 -2.3993  2.1964
 7978SOL     OW35392   2.866   0.810   2.354  0.2015  0.6471 -0.2732
 7978SOL    HW135393   2.815   0.775   2.281  2.3594 -1.9061 -0.5308
 7978SOL    HW235394   2.945   0.777   2.311  1.1520  1.1204  1.1029
 7979SOL     OW35395   4.110   2.655   7.600 -0.6894  0.2820 -0.3597
 7979SOL    HW135396   4.035   2.715   7.598 -1.0374 -0.1354  0.3298
 7979SOL    HW235397   4.183   2.714   7.621 -0.1028  0.0053 -1.6099
 7980SOL     OW35398   0.395   2.686   5.878  0.0430 -0.2441 -0.1763
 7980SOL    HW135399   0.489   2.680   5.862 -0.0994 -1.5616 -0.4560
 7980SOL    HW235400   0.376   2.676   5.785  1.1254 -0.9702 -0.3088
 7981SOL     OW35401   4.054   4.542   7.145  0.1255  0.2684 -0.0178
 7981SOL    HW135402   4.004   4.548   7.064 -1.7619  0.3104  1.1521
 7981SOL    HW235403   3.997   4.490   7.202 -1.0725  2.9816  1.2673
 7982SOL     OW35404   2.884   2.453   7.726  0.7384  0.1821 -0.2502
 7982SOL    HW135405   2.968   2.483   7.692  0.3259 -0.1845 -1.5990
 7982SOL    HW235406   2.894   2.360   7.707  0.1131  0.2723 -1.0185
 7983SOL     OW35407   3.148   2.609  14.896 -0.2634 -0.2821 -0.6812
 7983SOL    HW135408   3.233   2.651  14.884  0.3419 -1.9443 -2.1825
 7983SOL    HW235409   3.100   2.643  14.821 -1.0622  1.3958  0.5712
 7984SOL     OW35410   3.996   0.972   8.683 -0.6360 -0.3857  0.4201
 7984SOL    HW135411   4.076   1.016   8.653  0.6904 -1.0970  2.9387
 7984SOL    HW235412   3.948   0.970   8.600 -0.7629  0.2528  0.4766
 7985SOL     OW35413   1.487   3.623  16.187  0.6624 -0.3719 -0.6003
 7985SOL    HW135414   1.410   3.586  16.231 -0.1823  0.8620 -1.0385
 7985SOL    HW235415   1.445   3.671  16.116  1.1049  0.1044 -0.5364
 7986SOL     OW35416   3.092   3.591   9.439  1.0100 -0.1821 -0.4806
 7986SOL    HW135417   3.157   3.523   9.455 -0.5010 -1.6477 -0.4476
 7986SOL    HW235418   3.042   3.582   9.520  0.9311 -0.7376 -0.5894
 7987SOL     OW35419   1.630   4.313   3.419 -0.0331  0.5618  0.5053
 7987SOL    HW135420   1.552   4.341   3.467 -0.2142 -0.1634  0.6438
 7987SOL    HW235421   1.655   4.391   3.369 -0.5202  0.5611  0.2680
 7988SOL     OW35422   4.341   3.168   4.798  0.1254  0.0318 -0.4975
 7988SOL    HW135423   4.356   3.142   4.707  0.9946  1.4641 -0.7677
 7988SOL    HW235424   4.329   3.262   4.782 -1.7673 -0.2194 -0.6200
 7989SOL     OW35425   1.770   3.772   4.391  0.2973 -0.4894  0.1296
 7989SOL    HW135426   1.845   3.713   4.387  0.9506  0.3088  0.8344
 7989SOL    HW235427   1.748   3.757   4.299 -1.5559  0.8252  0.3495
 7990SOL     OW35428   1.441   2.813  13.938  0.6594 -0.1044 -0.2148
 7990SOL    HW135429   1.501   2.858  13.879  1.1233 -1.3601 -0.6928
 7990SOL    HW235430   1.360   2.846  13.901 -0.2217 -3.1402 -0.9861
 7991SOL     OW35431   1.550   2.058   3.771  0.3159 -0.6407  0.0231
 7991SOL    HW135432   1.537   2.101   3.686  1.4643  0.8590  0.6175
 7991SOL    HW235433   1.634   2.099   3.793 -1.3297  1.3000  2.6383
 7992SOL     OW35434   3.314   4.213   8.211  0.0221 -0.2983  1.0712
 7992SOL    HW135435   3.366   4.240   8.287  1.7876  1.0225 -0.5974
 7992SOL    HW235436   3.295   4.298   8.170  1.9064 -0.6772 -0.5913
 7993SOL     OW35437   2.531   2.942  12.985  0.0789  0.2587 -0.6149
 7993SOL    HW135438   2.501   2.981  13.067 -1.3655 -1.4649 -0.3377
 7993SOL    HW235439   2.512   2.849  12.998  3.0972 -0.2799 -0.0717
 7994SOL     OW35440   3.598   0.692  14.516 -0.4393 -0.3864 -0.1728
 7994SOL    HW135441   3.642   0.609  14.495  1.4071  0.7154 -0.7113
 7994SOL    HW235442   3.670   0.735  14.563 -0.0774 -0.8791 -0.2675
 7995SOL     OW35443   3.037   1.934   0.902 -0.5623 -0.1384 -0.3088
 7995SOL    HW135444   3.007   2.018   0.937  0.6411 -0.7563  2.2480
 7995SOL    HW235445   3.131   1.945   0.889 -0.5737 -0.1791 -0.4267
 7996SOL     OW35446   2.643   0.445  11.806  0.2593  0.0328  0.1185
 7996SOL    HW135447   2.607   0.460  11.894  0.7620  0.9895  0.1566
 7996SOL    HW235448   2.564   0.458  11.754 -0.2508 -0.8027  0.6755
 7997SOL     OW35449   4.246   3.601   6.892  0.1323  0.1122  0.4327
 7997SOL    HW135450   4.303   3.653   6.949  0.5361  0.6064 -0.4176
 7997SOL    HW235451   4.306   3.603   6.817 -3.2027 -0.0853 -2.2355
 7998SOL     OW35452   2.096   0.683   2.675 -0.0856  0.6131  0.6106
 7998SOL    HW135453   2.073   0.651   2.762  2.4510  0.0300  1.0665
 7998SOL    HW235454   2.184   0.647   2.664 -1.2705 -2.0866 -0.0701
 7999SOL     OW35455   3.473   2.028   5.020 -0.0037 -0.3285 -0.1128
 7999SOL    HW135456   3.566   2.047   5.029 -0.3467  1.1155  0.3866
 7999SOL    HW235457   3.474   1.934   5.039 -0.6916 -0.6639 -1.6501
 8000SOL     OW35458   1.520   2.715   3.425  0.0046  0.4851  0.3315
 8000SOL    HW135459   1.540   2.809   3.421  1.1872  0.1730 -1.3846
 8000SOL    HW235460   1.434   2.717   3.383  0.5833 -0.4257 -0.9186
 8001SOL     OW35461   2.539   1.018  14.445 -0.5420 -0.2372 -0.2512
 8001SOL    HW135462   2.583   0.948  14.397  0.7291  0.9787 -0.8499
 8001SOL    HW235463   2.523   1.087  14.380  0.2851  0.1219 -0.0693
 8002SOL     OW35464   2.953   0.282   4.979 -0.1884 -0.1550 -0.2788
 8002SOL    HW135465   2.905   0.246   5.054 -1.0331 -1.5462 -1.4788
 8002SOL    HW235466   2.945   0.213   4.913  0.4764 -0.0312 -0.4815
 8003SOL     OW35467   0.928   4.137   3.098 -0.6378 -0.1004  0.2848
 8003SOL    HW135468   0.959   4.221   3.131 -1.5692  0.3954 -0.1069
 8003SOL    HW235469   1.013   4.094   3.100 -0.8523 -0.4995  0.7843
 8004SOL     OW35470   4.304   4.103   2.704  0.5045  0.1663 -0.2251
 8004SOL    HW135471   4.386   4.128   2.661  0.7454 -0.3812 -0.0861
 8004SOL    HW235472   4.268   4.185   2.739  0.0183 -0.6421  1.1843
 8005SOL     OW35473   0.839   1.671  14.589  0.3248  0.4028  0.1044
 8005SOL    HW135474   0.789   1.707  14.662 -0.6419 -1.1886  0.2344
 8005SOL    HW235475   0.801   1.724  14.519 -1.0676 -1.0821 -0.2713
 8006SOL     OW35476   2.850   4.556  13.924  0.2864 -0.0312  0.0239
 8006SOL    HW135477   2.828   4.468  13.893 -1.3985  0.6355 -0.6719
 8006SOL    HW235478   2.869   4.595  13.838 -0.4450 -0.3980 -0.3016
 8007SOL     OW35479   2.299   1.079   3.600  0.4487  0.2817  0.1259
 8007SOL    HW135480   2.268   0.998   3.560 -1.0469  0.8869  0.0638
 8007SOL    HW235481   2.247   1.149   3.559  2.2703  1.1273 -0.7392
 8008SOL     OW35482   4.658   4.680  10.251  0.3212  0.1408  0.4089
 8008SOL    HW135483   4.701   0.042  10.273  0.8118  0.1322 -0.5240
 8008SOL    HW235484   4.593   4.708  10.187  0.4317  0.2523  0.3459
 8009SOL     OW35485   2.006   2.180  15.616 -0.0399  0.9487  0.0239
 8009SOL    HW135486   2.057   2.250  15.657  0.3662 -0.5809  2.1168
 8009SOL    HW235487   1.998   2.218  15.529 -0.6656  1.3754  0.2658
 8010SOL     OW35488   0.360   1.294   8.864 -0.7049  0.0147  0.1791
 8010SOL    HW135489   0.410   1.228   8.911 -1.5583 -0.0642  0.9751
 8010SOL    HW235490   0.323   1.240   8.794  0.4392  0.2476 -0.6087
 8011SOL     OW35491   0.301   2.994   2.970  0.1182  0.8141 -0.4911
 8011SOL    HW135492   0.226   2.988   2.911  1.4149  0.8523 -2.1493
 8011SOL    HW235493   0.364   2.933   2.931  0.3525  0.7903 -0.0731
 8012SOL     OW35494   1.425   4.158   3.034  0.0062 -0.2578 -0.3481
 8012SOL    HW135495   1.486   4.227   3.007 -0.4799 -1.1790 -3.8852
 8012SOL    HW235496   1.382   4.215   3.098 -0.4651 -1.1307  0.1052
 8013SOL     OW35497   2.087   4.333   1.006 -0.5334  0.6120  0.7460
 8013SOL    HW135498   2.093   4.238   0.998  0.6512  0.3958  4.2711
 8013SOL    HW235499   2.049   4.344   1.093  0.3953 -1.8841  1.4683
 8014SOL     OW35500   0.349   1.120   4.968 -0.0760  0.1338  0.8487
 8014SOL    HW135501   0.303   1.047   4.927 -0.5230  0.6325  0.4874
 8014SOL    HW235502   0.427   1.072   4.998 -0.1731  0.6863  1.9874
 8015SOL     OW35503   1.715   2.205   4.604  0.2557  0.2746 -0.4831
 8015SOL    HW135504   1.780   2.270   4.576 -0.3604  1.7009  1.3461
 8015SOL    HW235505   1.741   2.139   4.541 -1.5711 -1.0233  0.1375
 8016SOL     OW35506   3.141   2.178   3.286 -0.0068 -0.8494 -0.0093
 8016SOL    HW135507   3.234   2.191   3.269 -0.9630  1.7055 -3.2981
 8016SOL    HW235508   3.106   2.267   3.281  0.4860 -0.6491  0.1013
 8017SOL     OW35509   1.805   2.584   2.869  0.3090 -0.0935  0.4722
 8017SOL    HW135510   1.736   2.575   2.803  1.5795 -0.6577 -0.7852
 8017SOL    HW235511   1.883   2.594   2.815  2.2325  0.0663  3.2628
 8018SOL     OW35512   2.347   2.544   8.456 -1.0328 -0.1359 -0.3061
 8018SOL    HW135513   2.418   2.482   8.435 -0.0137  0.7843  0.4065
 8018SOL    HW235514   2.281   2.482   8.486  1.1883 -2.6689 -0.5555
 8019SOL     OW35515   0.178   4.018   2.970  0.7907 -0.6187 -0.6803
 8019SOL    HW135516   0.198   4.022   2.877  0.3747 -0.1228 -0.7471
 8019SOL    HW235517   0.097   3.966   2.970  0.0268  0.5693 -1.5244
 8020SOL     OW35518   0.882   0.444   4.287 -0.2308  0.1462 -0.0731
 8020SOL    HW135519   0.798   0.404   4.265  0.4364  0.1189 -2.5944
 8020SOL    HW235520   0.878   0.465   4.380  1.9827 -1.2254  0.3395
 8021SOL     OW35521   3.280   3.178   7.438  0.2635 -0.3130 -0.4635
 8021SOL    HW135522   3.335   3.216   7.506 -0.1287 -1.0162  0.2410
 8021SOL    HW235523   3.316   3.216   7.358 -0.1068 -0.2020 -0.5774
 8022SOL     OW35524   0.554   1.598   4.126 -0.1616 -0.2171 -0.1665
 8022SOL    HW135525   0.638   1.555   4.109 -0.8162 -1.6085  0.1211
 8022SOL    HW235526   0.522   1.615   4.037 -0.2754 -1.6443 -0.3918
 8023SOL     OW35527   1.115   1.478  10.660 -0.1789  0.1977 -0.4924
 8023SOL    HW135528   1.193   1.515  10.618  0.0617 -2.4792 -2.4247
 8023SOL    HW235529   1.046   1.526  10.614  0.5870 -0.2327 -2.1031
 8024SOL     OW35530   2.756   0.414   4.254  0.4955 -0.6651 -0.5180
 8024SOL    HW135531   2.777   0.503   4.226 -0.6424  0.2338  1.4908
 8024SOL    HW235532   2.848   0.390   4.269  0.8017  0.2361 -0.9505
 8025SOL     OW35533   2.650   2.644  15.863 -0.0305 -0.0489 -0.6827
 8025SOL    HW135534   2.639   2.574  15.799  0.1864  1.6542 -2.6133
 8025SOL    HW235535   2.579   2.638  15.926  2.0771 -2.1162  1.4879
 8026SOL     OW35536   3.738   1.310   3.849 -0.2324 -0.3182  0.2126
 8026SOL    HW135537   3.811   1.269   3.895  0.0983  0.8056  0.7013
 8026SOL    HW235538   3.750   1.402   3.873  0.5705 -0.0699 -1.1093
 8027SOL     OW35539   1.700   0.968   4.860  0.0984  0.7283  0.0565
 8027SOL    HW135540   1.751   0.893   4.889 -2.8839 -0.8435  1.2263
 8027SOL    HW235541   1.613   0.929   4.865  1.2551 -1.9233 -1.0306
 8028SOL     OW35542   1.642   0.912   1.073  0.4655  1.0191  0.1005
 8028SOL    HW135543   1.691   0.913   1.155  3.1205 -0.4909 -1.4867
 8028SOL    HW235544   1.697   0.977   1.029  0.3847  1.0548  0.0495
 8029SOL     OW35545   3.664   3.941   6.500 -0.0464 -0.4019 -0.2381
 8029SOL    HW135546   3.673   3.868   6.439  0.4772  0.5926 -1.3622
 8029SOL    HW235547   3.716   3.915   6.576 -2.3553 -1.2682  1.0628
 8030SOL     OW35548   3.161   4.179   2.303 -0.3713  0.2390  0.5143
 8030SOL    HW135549   3.073   4.214   2.317 -1.5412 -2.4601 -0.1567
 8030SOL    HW235550   3.148   4.159   2.210 -0.1676  2.2383  0.0560
 8031SOL     OW35551   1.544   0.287   1.923 -0.3239 -0.3670  0.1069
 8031SOL    HW135552   1.577   0.273   1.834 -1.3414  1.9509 -0.6176
 8031SOL    HW235553   1.559   0.380   1.938 -1.0837 -0.4422  1.3144
 8032SOL     OW35554   3.270   2.445   3.092  0.0785 -0.1317  0.2777
 8032SOL    HW135555   3.349   2.473   3.139 -0.2479 -2.9313  2.4974
 8032SOL    HW235556   3.239   2.523   3.047  0.3434 -1.1693 -1.7313
 8033SOL     OW35557   2.514   4.476   9.229  0.6224  0.2748 -0.0270
 8033SOL    HW135558   2.433   4.485   9.278  1.3747  2.2286  0.8455
 8033SOL    HW235559   2.497   4.523   9.147 -3.2231 -0.5518  0.3156
 8034SOL     OW35560   3.262   2.734   4.276  0.1278 -0.5711 -0.0082
 8034SOL    HW135561   3.256   2.643   4.304  0.6015 -0.5424  0.1891
 8034SOL    HW235562   3.180   2.738   4.227 -1.0278 -0.4446  1.9261
 8035SOL     OW35563   1.919   2.732  11.935 -0.1767 -0.6580 -0.1940
 8035SOL    HW135564   1.852   2.738  11.867  1.2136 -0.0911 -1.5192
 8035SOL    HW235565   1.922   2.637  11.934 -1.4780 -0.7103  1.3741
 8036SOL     OW35566   0.059   1.494   7.957 -0.4207  0.0196  0.0871
 8036SOL    HW135567   0.011   1.569   7.922 -0.6994  0.1023  0.6502
 8036SOL    HW235568   0.047   1.507   8.051  0.0867 -1.0506  0.3008
 8037SOL     OW35569   3.683   1.827   7.941  0.4368  0.3100  0.2504
 8037SOL    HW135570   3.652   1.743   7.904  1.7877 -1.0682  2.2555
 8037SOL    HW235571   3.620   1.848   8.010 -0.2773  0.8825 -0.5744
 8038SOL     OW35572   1.362   1.593  16.310 -0.0082  0.4042  0.3703
 8038SOL    HW135573   1.271   1.567  16.298 -0.1353  1.2485 -0.4355
 8038SOL    HW235574   1.360   1.676  16.262 -0.6492  0.2586  0.1547
 8039SOL     OW35575   0.883   1.039  10.891 -0.2326  0.0278  0.3731
 8039SOL    HW135576   0.889   1.127  10.928  0.1607 -1.0745  2.8693
 8039SOL    HW235577   0.953   1.044  10.826 -1.1675  0.8125 -0.5870
 8040SOL     OW35578   2.238   3.973   9.951 -0.4017 -0.2370  0.5076
 8040SOL    HW135579   2.179   3.898   9.959 -2.3552  1.0855 -1.1918
 8040SOL    HW235580   2.275   3.980  10.039  1.3074 -1.0903 -0.1601
 8041SOL     OW35581   2.685   1.880   5.300 -0.2502  0.3087 -0.1485
 8041SOL    HW135582   2.609   1.835   5.336  0.4355  0.4857  1.4792
 8041SOL    HW235583   2.708   1.910   5.388 -1.3462  1.2760 -0.1791
 8042SOL     OW35584   1.906   1.877   3.401  1.1713 -0.1639 -0.3959
 8042SOL    HW135585   1.997   1.864   3.375  1.0982  0.4511 -0.9335
 8042SOL    HW235586   1.913   1.870   3.496 -1.4390 -0.9201 -0.2674
 8043SOL     OW35587   1.477   0.702   7.736 -0.6572 -0.0989 -0.2137
 8043SOL    HW135588   1.441   0.636   7.678 -1.7098 -0.2412  0.5892
 8043SOL    HW235589   1.551   0.650   7.768 -1.0065  0.0928  0.9032
 8044SOL     OW35590   2.261   3.020   3.323  0.0271  0.6453  0.2712
 8044SOL    HW135591   2.222   3.088   3.378 -4.6891 -1.7294 -0.1012
 8044SOL    HW235592   2.203   2.949   3.351  1.3055 -1.2570 -1.9372
 8045SOL     OW35593   1.733   3.898   6.517 -0.2533  0.2171 -0.3979
 8045SOL    HW135594   1.729   3.936   6.429 -2.1933 -1.4863 -1.0419
 8045SOL    HW235595   1.713   3.805   6.506  1.0972 -0.1551  0.2186
 8046SOL     OW35596   1.039   3.841   8.632  0.1546 -0.9634  0.1846
 8046SOL    HW135597   1.045   3.879   8.720  1.3876  0.6503 -0.6172
 8046SOL    HW235598   1.108   3.778   8.655 -0.2464 -1.0581  1.1260
 8047SOL     OW35599   0.550   1.129   5.364  0.3065  0.0544 -0.2073
 8047SOL    HW135600   0.564   1.059   5.427 -0.0816 -0.7365 -1.0071
 8047SOL    HW235601   0.467   1.103   5.325  1.3105 -2.6276 -0.5401
 8048SOL     OW35602   2.417   3.497   0.983  0.3584  0.2344 -0.4967
 8048SOL    HW135603   2.477   3.494   0.908 -0.1301 -2.9537 -0.7607
 8048SOL    HW235604   2.483   3.529   1.044  0.0843  0.8259 -0.5136
 8049SOL     OW35605   1.306   0.717   8.676 -0.3813 -0.3878  0.8741
 8049SOL    HW135606   1.241   0.647   8.678 -0.8978 -0.0120 -3.1190
 8049SOL    HW235607   1.374   0.683   8.735  0.5281 -0.5588 -0.2771
 8050SOL     OW35608   3.333   0.624   9.435 -0.1399  0.4564 -0.8079
 8050SOL    HW135609   3.260   0.612   9.374  0.1878 -0.6448 -0.9937
 8050SOL    HW235610   3.393   0.684   9.391 -0.1264 -0.0092 -1.4232
 8051SOL     OW35611   4.600   4.136  15.820 -0.7965 -0.9362  0.8639
 8051SOL    HW135612   4.584   4.063  15.760  2.0471 -1.2294  0.4680
 8051SOL    HW235613   4.695   4.124  15.828 -0.6627 -0.5020 -0.1643
 8052SOL     OW35614   2.452   0.667  14.955  0.8396  0.2196 -0.5393
 8052SOL    HW135615   2.365   0.704  14.940  0.4856  0.6101  2.4409
 8052SOL    HW235616   2.434   0.574  14.967 -2.6622  0.5950 -2.8497
 8053SOL     OW35617   1.315   3.365   1.600  0.0024  0.1976  0.1361
 8053SOL    HW135618   1.382   3.424   1.565 -0.7541  0.5641 -0.6880
 8053SOL    HW235619   1.237   3.419   1.585 -0.6830 -1.2156 -1.2778
 8054SOL     OW35620   1.676   3.030   9.337  0.1041  0.1776  0.0171
 8054SOL    HW135621   1.641   2.989   9.416 -0.6758  1.3325  0.2793
 8054SOL    HW235622   1.757   2.983   9.315 -0.6160  0.0447 -2.3889
 8055SOL     OW35623   2.330   2.715  16.573 -0.1287  0.2083  0.9678
 8055SOL    HW135624   2.386   2.774  16.522 -1.8158 -0.1322 -1.2875
 8055SOL    HW235625   2.393   2.665  16.625 -0.4241 -0.6417  0.5119
 8056SOL     OW35626   2.547   2.566   2.658 -0.1476 -0.1271  0.0682
 8056SOL    HW135627   2.575   2.576   2.567  3.4711 -1.9480  0.9619
 8056SOL    HW235628   2.472   2.511   2.636  0.4138 -0.6385 -0.5970
 8057SOL     OW35629   3.494   0.901   9.991 -0.2292  0.4201 -0.3718
 8057SOL    HW135630   3.589   0.898   9.980 -0.3595  0.1232 -1.3866
 8057SOL    HW235631   3.473   0.990   9.965 -0.1426  0.7720  0.7652
 8058SOL     OW35632   2.053   0.425   0.845  0.1500  0.1941 -0.0875
 8058SOL    HW135633   2.083   0.384   0.926 -3.1950  0.6030  1.3771
 8058SOL    HW235634   2.059   0.349   0.787  1.1938 -0.1187  0.4285
 8059SOL     OW35635   2.129   0.915   5.747 -0.1307 -0.4605 -0.4825
 8059SOL    HW135636   2.059   0.980   5.744 -1.2051 -1.5989 -0.1533
 8059SOL    HW235637   2.194   0.938   5.681 -0.7007 -1.6078 -1.4398
 8060SOL     OW35638   1.572   3.222   3.191  0.0739 -0.2319  0.3315
 8060SOL    HW135639   1.485   3.194   3.221  0.0748 -0.9559 -0.3308
 8060SOL    HW235640   1.632   3.163   3.236 -0.6406  0.2290  1.8887
 8061SOL     OW35641   1.579   2.280  11.569  0.4742  0.3971 -0.4890
 8061SOL    HW135642   1.521   2.355  11.586  1.6069  1.0615  0.4758
 8061SOL    HW235643   1.562   2.265  11.476 -0.2315  0.1124 -0.3103
 8062SOL     OW35644   3.048   4.142   8.301 -0.1812 -0.5727 -0.5032
 8062SOL    HW135645   3.139   4.167   8.318  0.1689 -2.4259  0.4048
 8062SOL    HW235646   3.039   4.149   8.206 -2.8648  1.7683 -0.0572
 8063SOL     OW35647   3.902   0.360   7.762  0.0218  0.7220 -0.3541
 8063SOL    HW135648   3.969   0.293   7.777 -0.5595 -0.1386 -1.6458
 8063SOL    HW235649   3.840   0.330   7.827  2.1525  0.5019  1.5848
 8064SOL     OW35650   0.810   4.228   8.051  0.2915  0.4204  0.1663
 8064SOL    HW135651   0.885   4.216   7.993 -0.6854 -1.1074 -0.7586
 8064SOL    HW235652   0.752   4.154   8.035  0.5258  0.3454 -0.3528
 8065SOL     OW35653   1.096   1.493   3.554  0.3406 -0.2607  0.3216
 8065SOL    HW135654   1.046   1.421   3.592 -2.4199  0.5400 -1.7668
 8065SOL    HW235655   1.187   1.468   3.572 -0.0384 -1.4815  0.4862
 8066SOL     OW35656   3.432   3.909   4.549  0.1731  0.0841 -0.6204
 8066SOL    HW135657   3.446   3.870   4.636  0.3781 -1.3187 -1.2927
 8066SOL    HW235658   3.439   3.834   4.490  1.3018 -1.2487  1.2129
 8067SOL     OW35659   2.933   1.296  11.011 -0.3849 -0.2923 -0.0664
 8067SOL    HW135660   2.866   1.352  10.972  0.5070 -1.7771 -3.7650
 8067SOL    HW235661   3.003   1.360  11.022  1.7962 -2.3873 -1.4984
 8068SOL     OW35662   2.467   0.346   8.454  0.0189 -0.0148 -0.0664
 8068SOL    HW135663   2.499   0.268   8.500  0.5573  0.3938  0.2530
 8068SOL    HW235664   2.519   0.422   8.478  0.8893 -0.5768 -0.1538
 8069SOL     OW35665   2.083   3.819   6.440 -0.2004 -0.6496  0.3703
 8069SOL    HW135666   2.012   3.878   6.412  0.3488  0.2359  0.8603
 8069SOL    HW235667   2.084   3.751   6.372 -1.4636  0.1943 -0.5170
 8070SOL     OW35668   2.137   2.959   7.451 -0.3861  0.5260  0.0110
 8070SOL    HW135669   2.055   2.934   7.409 -0.1004  0.8344 -0.7256
 8070SOL    HW235670   2.124   2.920   7.537  0.1659  2.0780  0.8008
 8071SOL     OW35671   3.837   0.277  16.815 -0.0014  0.1389  0.0217
 8071SOL    HW135672   3.900   0.313  16.752 -0.8305  1.4724 -0.0389
 8071SOL    HW235673   3.779   0.348  16.842  1.6331  0.3526  2.9399
 8072SOL     OW35674   3.047   1.743   8.996  0.3729 -0.1915  0.4312
 8072SOL    HW135675   3.055   1.729   9.091  2.4534 -3.1330 -0.1837
 8072SOL    HW235676   3.066   1.654   8.966  0.5430 -0.6393  1.8677
 8073SOL     OW35677   4.203   4.667   8.037  0.1445 -0.3717  0.9540
 8073SOL    HW135678   4.114   4.640   8.063 -0.5848  0.7952 -0.3255
 8073SOL    HW235679   4.194   0.039   8.016 -0.8573 -0.5849  0.4277
 8074SOL     OW35680   0.790   2.790   4.629 -0.5989  0.3788 -0.6555
 8074SOL    HW135681   0.883   2.802   4.615 -0.8331  0.2574 -2.2440
 8074SOL    HW235682   0.757   2.878   4.611 -1.0434  0.3449 -0.0480
 8075SOL     OW35683   1.860   1.569   9.142 -0.0734  0.3024 -0.4355
 8075SOL    HW135684   1.778   1.521   9.149  0.2706  0.1042  2.1912
 8075SOL    HW235685   1.918   1.496   9.121  1.5916  1.8303 -1.1015
 8076SOL     OW35686   2.361   0.792   3.054 -0.1861  0.0760  0.4298
 8076SOL    HW135687   2.432   0.802   2.991  1.0469 -1.8919  1.5137
 8076SOL    HW235688   2.350   0.698   3.037 -0.4207 -0.0747  1.3937
 8077SOL     OW35689   4.148   3.257   2.340 -0.3358 -0.4663  0.6744
 8077SOL    HW135690   4.154   3.169   2.378 -0.5542 -0.6450  0.2910
 8077SOL    HW235691   4.115   3.236   2.253 -1.7783 -0.9435  1.3476
 8078SOL     OW35692   2.222   1.506   2.211 -0.1182  0.7310  0.2254
 8078SOL    HW135693   2.188   1.520   2.122  0.4442 -0.8492 -0.2260
 8078SOL    HW235694   2.286   1.439   2.188  0.7405  1.4574  0.4920
 8079SOL     OW35695   0.740   4.169   4.895 -0.4218 -0.2872  0.1118
 8079SOL    HW135696   0.734   4.077   4.871 -1.5207  0.7747 -3.7086
 8079SOL    HW235697   0.650   4.200   4.884 -0.2778 -0.3243 -1.2353
 8080SOL     OW35698   2.344   1.204  17.319  0.5535  0.1404  0.4966
 8080SOL    HW135699   2.264   1.255  17.303  0.7845  0.3040 -0.1146
 8080SOL    HW235700   2.315   1.133  17.376  0.9283  0.2246  0.7924
 8081SOL     OW35701   0.370   1.753  16.097 -0.4044  0.3587  0.1333
 8081SOL    HW135702   0.285   1.710  16.085 -0.0807 -0.2158 -0.1255
 8081SOL    HW235703   0.342   1.844  16.097  1.6787  0.9947  1.3079
 8082SOL     OW35704   3.537   0.737   9.321 -0.1175  0.5173 -0.4812
 8082SOL    HW135705   3.605   0.802   9.334  0.3473  0.3858 -2.1879
 8082SOL    HW235706   3.587   0.659   9.298  0.6533  1.3640 -1.6774
 8083SOL     OW35707   1.971   0.385  12.398 -0.0206 -0.6178  0.3749
 8083SOL    HW135708   1.921   0.462  12.368  1.0682  1.1576  3.1357
 8083SOL    HW235709   1.953   0.342  12.314 -0.2518  0.7912 -0.3030
 8084SOL     OW35710   1.531   0.139   2.313  0.0463  0.7473  0.5895
 8084SOL    HW135711   1.610   0.171   2.269  0.2979 -1.8007 -0.8204
 8084SOL    HW235712   1.481   0.112   2.236 -0.4841  0.7760  0.9257
 8085SOL     OW35713   2.782   4.554   0.936 -0.6485  0.3018  0.2226
 8085SOL    HW135714   2.869   4.527   0.907  0.1621  0.4040  2.5579
 8085SOL    HW235715   2.732   4.522   0.861  0.2142 -1.5596  0.4397
 8086SOL     OW35716   3.032   3.517   6.297  0.0788  0.6820 -0.2562
 8086SOL    HW135717   2.980   3.498   6.375  1.0186  1.4685  0.5632
 8086SOL    HW235718   3.091   3.442   6.307  2.4652  2.3502 -1.8367
 8087SOL     OW35719   2.450   3.844   0.226 -0.4901  0.0249  0.6392
 8087SOL    HW135720   2.427   3.802   0.143  0.5555 -0.7877  0.7561
 8087SOL    HW235721   2.427   3.934   0.203  0.2782 -0.0463 -0.4409
 8088SOL     OW35722   3.310   1.980   8.247  0.2737  0.5749  0.1779
 8088SOL    HW135723   3.276   1.953   8.332  2.0530 -0.5388  0.5618
 8088SOL    HW235724   3.299   2.074   8.255  3.8948  1.0314 -0.1431
 8089SOL     OW35725   1.330   0.204  14.594 -0.1910  0.1044  0.3334
 8089SOL    HW135726   1.263   0.198  14.526  0.9439  0.3095 -0.8173
 8089SOL    HW235727   1.292   0.142  14.656 -0.2509  0.4531  0.6428
 8090SOL     OW35728   2.658   2.213   5.778  0.3247 -0.5119  0.2354
 8090SOL    HW135729   2.639   2.290   5.833  0.4301 -0.0499 -0.3750
 8090SOL    HW235730   2.603   2.246   5.707 -1.3941 -0.2677  1.6857
 8091SOL     OW35731   4.484   2.818   6.882  0.1319  0.4463 -0.4260
 8091SOL    HW135732   4.456   2.831   6.973 -0.0193 -1.1297 -0.2420
 8091SOL    HW235733   4.462   2.904   6.845 -2.4301 -0.7658 -1.7552
 8092SOL     OW35734   4.577   4.238   0.153 -0.0690 -0.4539 -0.2595
 8092SOL    HW135735   4.526   4.190   0.219 -0.3077 -1.0003 -0.8423
 8092SOL    HW235736   4.660   4.194   0.168  0.3507  0.4823  0.2124
 8093SOL     OW35737   1.750   3.047  16.193  0.4573 -0.8830  0.1237
 8093SOL    HW135738   1.677   3.101  16.223  0.7700 -1.4640  1.9784
 8093SOL    HW235739   1.774   3.081  16.107 -3.1377  1.4786  0.0974
 8094SOL     OW35740   2.499   2.060   7.838 -0.3144  0.1489 -0.2028
 8094SOL    HW135741   2.456   1.990   7.789  0.4897 -1.8544  1.9289
 8094SOL    HW235742   2.443   2.056   7.915 -0.9999 -2.4860 -0.8319
 8095SOL     OW35743   3.606   2.300   0.109  0.1629  0.3660 -0.1585
 8095SOL    HW135744   3.608   2.301   0.014 -3.7799  1.6996 -0.2539
 8095SOL    HW235745   3.671   2.368   0.127  0.6737  0.4250 -2.2830
 8096SOL     OW35746   3.306   0.743   8.005  0.0230 -0.3656 -0.2610
 8096SOL    HW135747   3.347   0.794   8.075  0.5587  1.8320 -2.1546
 8096SOL    HW235748   3.375   0.749   7.940  1.0190 -0.9732  0.7493
 8097SOL     OW35749   2.546   3.417   8.798  0.1575 -0.0650  0.1518
 8097SOL    HW135750   2.609   3.426   8.869  0.6347  2.7085 -0.6195
 8097SOL    HW235751   2.487   3.346   8.825 -3.1185  2.9724  0.9633
 8098SOL     OW35752   3.189   3.756   8.612 -0.1248  0.3392  0.2894
 8098SOL    HW135753   3.141   3.674   8.628 -0.3388  0.7700  1.8450
 8098SOL    HW235754   3.115   3.812   8.587 -0.5477 -1.0113 -1.4883
 8099SOL     OW35755   2.010   1.011   7.130  0.4303 -0.2530 -0.4276
 8099SOL    HW135756   1.946   1.071   7.092 -0.0940  0.7993  2.1400
 8099SOL    HW235757   2.031   0.959   7.052 -0.1999 -2.0600  0.6018
 8100SOL     OW35758   0.308   4.337   2.138  0.1675  0.2526  0.0865
 8100SOL    HW135759   0.317   4.392   2.060 -2.2477 -0.8361 -0.9801
 8100SOL    HW235760   0.216   4.313   2.137 -0.2675  1.9405 -0.3522
 8101SOL     OW35761   2.671   3.907  14.947  0.0022  0.2256  0.2102
 8101SOL    HW135762   2.599   3.851  14.919 -0.8343  0.0423  2.7452
 8101SOL    HW235763   2.719   3.913  14.864 -0.8443 -0.7626 -0.3404
 8102SOL     OW35764   2.535   4.285   8.568  0.1045  0.4154  0.2146
 8102SOL    HW135765   2.535   4.190   8.573 -0.6881  0.3960 -0.0199
 8102SOL    HW235766   2.473   4.307   8.638  0.1396  1.0961  0.0379
 8103SOL     OW35767   2.780   2.861   8.366 -0.0191 -0.1027 -0.5044
 8103SOL    HW135768   2.829   2.940   8.391 -0.3590  0.7828 -2.6241
 8103SOL    HW235769   2.696   2.906   8.366  0.5305  0.9273  1.4553
 8104SOL     OW35770   0.759   2.038  15.249  0.4288 -0.3184 -0.2430
 8104SOL    HW135771   0.681   1.992  15.280 -0.7821  0.7445 -1.7048
 8104SOL    HW235772   0.716   2.123  15.239 -1.7273 -1.3014  0.6001
 8105SOL     OW35773   4.181   1.155   6.495 -0.0331 -0.5042 -0.0438
 8105SOL    HW135774   4.146   1.070   6.524  0.2350 -0.6163 -0.0429
 8105SOL    HW235775   4.225   1.176   6.577  1.3925 -0.7346 -0.7379
 8106SOL     OW35776   4.143   0.996   7.399 -0.1262 -0.1260  0.0888
 8106SOL    HW135777   4.163   0.975   7.490  0.6668  0.4057  0.0405
 8106SOL    HW235778   4.201   1.069   7.375 -1.6386  1.1545  0.3261
 8107SOL     OW35779   2.447   2.816   2.562  0.2869  0.5124  0.2522
 8107SOL    HW135780   2.511   2.754   2.526  0.7537  0.1156  1.7309
 8107SOL    HW235781   2.492   2.892   2.599  1.2833  0.0617 -0.0330
 8108SOL     OW35782   0.694   4.620   8.069 -0.5394  0.6290 -0.0841
 8108SOL    HW135783   0.614   4.576   8.040 -0.9887  1.2760  0.1822
 8108SOL    HW235784   0.721   4.660   7.986  1.2493 -0.3511  0.0183
 8109SOL     OW35785   2.995   2.479   9.399  0.4529  0.3527 -0.3939
 8109SOL    HW135786   3.018   2.408   9.459  1.9582  0.6548 -0.6172
 8109SOL    HW235787   2.910   2.448   9.366 -0.1708  0.3177  1.2406
 8110SOL     OW35788   1.310   0.291   1.534 -0.0402  0.4923  0.0195
 8110SOL    HW135789   1.300   0.237   1.612  0.2953 -1.0214 -0.9784
 8110SOL    HW235790   1.341   0.226   1.471 -1.3914 -0.3767  0.2507
 8111SOL     OW35791   0.845   1.755   5.656  0.3252 -0.4026 -0.1182
 8111SOL    HW135792   0.888   1.794   5.732 -1.2968  0.7720  0.1856
 8111SOL    HW235793   0.755   1.784   5.673 -0.1336 -2.1258  0.4264
 8112SOL     OW35794   0.071   4.417   1.565 -0.1609 -0.6535  0.8502
 8112SOL    HW135795   0.153   4.381   1.599  3.0101  3.4878 -2.3784
 8112SOL    HW235796   0.023   4.338   1.539  0.3396  0.1449 -2.5389
 8113SOL     OW35797   4.324   2.767  12.306  0.2108 -0.8727  0.2126
 8113SOL    HW135798   4.335   2.854  12.269 -1.2582  0.3576  2.6481
 8113SOL    HW235799   4.396   2.715  12.268  1.8913 -0.3597  2.6788
 8114SOL     OW35800   2.591   3.883   3.598 -0.1992  0.0761 -0.4616
 8114SOL    HW135801   2.620   3.969   3.568  0.5664 -0.5539 -1.5196
 8114SOL    HW235802   2.650   3.873   3.674  0.1824  0.9482 -0.6456
 8115SOL     OW35803   2.366   4.605   0.198 -0.7615  0.2953 -0.2713
 8115SOL    HW135804   2.280   4.573   0.225 -0.4018  1.1706  1.9409
 8115SOL    HW235805   2.345   4.655   0.120 -0.2863  1.7037  0.5007
 8116SOL     OW35806   1.473   4.350  10.282  0.2880 -0.1298 -0.0518
 8116SOL    HW135807   1.532   4.362  10.207  0.8437 -2.4843  0.0348
 8116SOL    HW235808   1.399   4.305  10.242  0.5529  0.5267 -1.2907
 8117SOL     OW35809   3.814   2.400   0.244  0.0662  0.1699  0.1822
 8117SOL    HW135810   3.872   2.469   0.276 -0.9378  0.6339  1.0398
 8117SOL    HW235811   3.809   2.339   0.317  1.3132 -1.9882 -1.5352
 8118SOL     OW35812   0.296   2.425   6.005  0.1296 -0.3664 -0.2664
 8118SOL    HW135813   0.305   2.511   5.965  2.6036 -0.6367 -0.2795
 8118SOL    HW235814   0.318   2.368   5.931 -0.1125  0.0546 -0.6653
 8119SOL     OW35815   1.459   0.345  13.953 -0.6127  0.0139  0.2527
 8119SOL    HW135816   1.477   0.396  14.032  3.2114  0.2076 -0.7638
 8119SOL    HW235817   1.381   0.295  13.977  0.8979 -1.8367  1.3204
 8120SOL     OW35818   4.020   1.459   6.618 -0.0009  0.1548  0.0477
 8120SOL    HW135819   3.979   1.378   6.647  0.3531  0.5808  1.7465
 8120SOL    HW235820   4.061   1.486   6.700  0.3815 -2.6663  0.7573
 8121SOL     OW35821   2.353   2.013   5.245  0.2841 -0.2317 -0.0172
 8121SOL    HW135822   2.384   2.065   5.171  0.5484 -1.3079 -0.6570
 8121SOL    HW235823   2.412   2.038   5.316  2.3253 -0.5714 -1.5945
 8122SOL     OW35824   3.014   2.477   1.751 -1.0653 -0.4974  0.1060
 8122SOL    HW135825   3.057   2.549   1.705  0.0500  0.5468  2.8090
 8122SOL    HW235826   3.012   2.507   1.842  1.4608 -1.1455  0.3620
 8123SOL     OW35827   2.840   4.054   8.691 -0.3125  0.0375 -0.1108
 8123SOL    HW135828   2.896   4.118   8.736  0.1958 -0.8301  0.4957
 8123SOL    HW235829   2.790   4.024   8.767 -3.1618  2.3342 -1.0555
 8124SOL     OW35830   4.675   4.665   7.233  0.0718  0.1264  0.2689
 8124SOL    HW135831   4.650   0.033   7.257  2.5638  0.8229  0.2236
 8124SOL    HW235832   4.603   4.652   7.171  0.3781 -0.1481 -0.0280
 8125SOL     OW35833   2.598   3.337  16.845  0.4144  0.9248  0.5748
 8125SOL    HW135834   2.553   3.307  16.924  0.9360  0.4566  0.6897
 8125SOL    HW235835   2.604   3.431  16.863  0.6194  1.2754 -1.2793
 8126SOL     OW35836   4.259   3.802  11.423  0.5276 -0.1344 -0.0113
 8126SOL    HW135837   4.171   3.816  11.387 -0.2836 -0.5763  1.8351
 8126SOL    HW235838   4.246   3.724  11.476  0.6606 -0.1387  0.0137
 8127SOL     OW35839   3.271   2.130   2.428  0.3108  0.3653 -0.4939
 8127SOL    HW135840   3.262   2.208   2.374 -1.5220  0.4523 -0.0506
 8127SOL    HW235841   3.365   2.112   2.419 -0.4760 -3.2441 -1.3801
 8128SOL     OW35842   1.021   3.304   6.765  0.1352  0.2011  0.1563
 8128SOL    HW135843   1.070   3.242   6.711 -1.3562 -1.1568  0.3776
 8128SOL    HW235844   0.962   3.346   6.702 -0.2798 -0.8830 -0.1760
 8129SOL     OW35845   2.253   0.031   3.528 -0.2727 -0.1832  0.3813
 8129SOL    HW135846   2.300   0.058   3.449 -0.2377 -2.1115 -0.2539
 8129SOL    HW235847   2.322   0.051   3.591  0.5995  2.3815 -1.3582
 8130SOL     OW35848   0.516   0.839   5.258 -0.3823  0.7773  0.3295
 8130SOL    HW135849   0.464   0.908   5.216 -2.5945 -1.4667 -0.5564
 8130SOL    HW235850   0.562   0.796   5.186 -3.2198 -1.3933 -0.1469
 8131SOL     OW35851   0.172   2.595   6.331 -0.0899 -0.5483 -0.2833
 8131SOL    HW135852   0.193   2.648   6.254  0.2005  0.1625  0.2902
 8131SOL    HW235853   0.076   2.600   6.337 -0.0206  1.0447 -0.4449
 8132SOL     OW35854   4.422   3.252   1.589 -0.0150 -0.0423 -0.5745
 8132SOL    HW135855   4.465   3.172   1.562  0.5770  0.6381 -1.6476
 8132SOL    HW235856   4.473   3.284   1.663  0.1789  0.9447 -1.1270
 8133SOL     OW35857   1.867   2.396   2.514 -0.0409 -0.2445 -0.3701
 8133SOL    HW135858   1.952   2.423   2.479  1.0402 -0.9027  1.7658
 8133SOL    HW235859   1.866   2.303   2.494  0.5814 -0.2920 -0.1802
 8134SOL     OW35860   4.404   3.300   1.007 -0.5396  0.0130  0.1308
 8134SOL    HW135861   4.313   3.272   1.019 -0.8962  0.6221 -1.1041
 8134SOL    HW235862   4.430   3.244   0.933  2.8477 -1.2641  2.3049
 8135SOL     OW35863   2.144   4.590   1.302 -0.4568 -0.1474 -0.0872
 8135SOL    HW135864   2.202   4.534   1.250  2.0678  1.5301  0.8979
 8135SOL    HW235865   2.123   4.656   1.236 -3.1212  0.9732  1.8794
 8136SOL     OW35866   1.734   4.309   8.989  0.3079  0.0170  0.4017
 8136SOL    HW135867   1.694   4.394   8.971  2.4584  0.7660 -0.8138
 8136SOL    HW235868   1.659   4.269   9.035  2.1562 -1.8404  1.8035
 8137SOL     OW35869   2.543   3.584   2.641 -0.0753  0.5562  0.1206
 8137SOL    HW135870   2.539   3.560   2.549  0.8816 -2.2292  0.8182
 8137SOL    HW235871   2.593   3.511   2.676 -1.0785 -0.1098  0.1658
 8138SOL     OW35872   4.140   3.978   7.912  0.1767  0.3497 -0.2039
 8138SOL    HW135873   4.169   3.896   7.954  0.6610  1.4233  1.5416
 8138SOL    HW235874   4.056   3.946   7.877 -0.2159  2.0123 -0.7675
 8139SOL     OW35875   3.131   4.601   2.440 -0.4085  0.1265  0.0956
 8139SOL    HW135876   3.202   4.568   2.385 -1.7322 -1.8989 -0.3703
 8139SOL    HW235877   3.064   4.626   2.377 -0.9705 -1.3929  0.0864
 8140SOL     OW35878   0.085   2.293   3.302 -0.3272  0.4679 -0.2653
 8140SOL    HW135879   0.117   2.284   3.212  1.2933 -1.9786  0.5677
 8140SOL    HW235880   0.093   2.207   3.343  1.3962  0.6743 -0.1701
 8141SOL     OW35881   2.034   3.069  13.991  0.5465  0.4874  0.1585
 8141SOL    HW135882   2.087   3.071  13.912 -0.3964  1.3673 -0.4499
 8141SOL    HW235883   2.086   3.116  14.056 -1.0740 -0.8602  2.4495
 8142SOL     OW35884   0.702   2.803   7.716 -0.0027 -0.0505 -0.2233
 8142SOL    HW135885   0.749   2.885   7.702 -0.4430  0.2567  0.0789
 8142SOL    HW235886   0.643   2.819   7.643 -0.8145  0.4353  0.5330
 8143SOL     OW35887   3.329   4.449   8.041  0.4645  0.0315 -0.6319
 8143SOL    HW135888   3.397   4.510   8.012 -1.0130  2.1333  0.3392
 8143SOL    HW235889   3.281   4.509   8.097  0.2477 -0.9621  0.2599
 8144SOL     OW35890   3.759   1.735  12.613  0.1329 -0.2179  0.1435
 8144SOL    HW135891   3.836   1.702  12.659 -1.0388 -2.0189  0.8407
 8144SOL    HW235892   3.740   1.661  12.555  0.0028 -0.4123  0.4309
 8145SOL     OW35893   3.662   4.242  15.015  0.2362 -0.5839  0.2527
 8145SOL    HW135894   3.696   4.164  15.059  1.5292  0.3447  0.9115
 8145SOL    HW235895   3.741   4.260  14.964  0.7481 -0.3445  1.1173
 8146SOL     OW35896   2.757   1.879   6.018  0.5610 -0.6149  0.5456
 8146SOL    HW135897   2.694   1.942   5.983  3.5905  0.3059 -3.2828
 8146SOL    HW235898   2.719   1.800   5.979  0.2136 -0.2049  0.0447
 8147SOL     OW35899   3.946   0.074   3.471 -0.4822  0.1364 -0.3742
 8147SOL    HW135900   3.893   0.045   3.545 -2.3659 -0.1877 -1.8513
 8147SOL    HW235901   4.012   0.133   3.509 -1.9924  1.4917  0.1289
 8148SOL     OW35902   3.857   4.672   9.254 -0.0794  0.0844  0.1312
 8148SOL    HW135903   3.828   4.580   9.254  3.8601 -1.1576  0.5953
 8148SOL    HW235904   3.773   4.716   9.242 -0.7877 -1.5000 -0.7823
 8149SOL     OW35905   1.520   2.552   6.509  0.0817  0.0495  0.3391
 8149SOL    HW135906   1.523   2.556   6.604 -0.0122  0.9737  0.3088
 8149SOL    HW235907   1.524   2.645   6.483 -2.2710 -0.1995 -0.9571
 8150SOL     OW35908   0.729   0.848   4.395 -0.7373  0.0480  0.1394
 8150SOL    HW135909   0.649   0.899   4.407  0.0942  1.2342  0.7511
 8150SOL    HW235910   0.711   0.842   4.301  0.0513 -0.9995  0.0635
 8151SOL     OW35911   2.401   2.809   6.373 -0.0705 -0.2421  0.4207
 8151SOL    HW135912   2.422   2.901   6.357 -1.5622  0.1635  0.7299
 8151SOL    HW235913   2.457   2.791   6.448  2.2583 -3.3900 -2.1065
 8152SOL     OW35914   4.367   4.158   6.383  0.2479 -0.5139  0.2553
 8152SOL    HW135915   4.378   4.219   6.456  0.2108 -0.9427  0.6126
 8152SOL    HW235916   4.351   4.075   6.428 -1.0127  0.0783  0.9209
 8153SOL     OW35917   1.230   0.228   1.164  0.1486 -0.0162 -0.3741
 8153SOL    HW135918   1.208   0.142   1.201  0.6541 -0.4839 -1.1636
 8153SOL    HW235919   1.184   0.287   1.223  0.1759 -0.7758  0.4072
 8154SOL     OW35920   0.770   0.903  14.770  0.2901  0.5209  0.0450
 8154SOL    HW135921   0.722   0.966  14.823  0.5427 -0.6117  1.6095
 8154SOL    HW235922   0.825   0.857  14.833 -0.2564 -0.3823 -0.1298
 8155SOL     OW35923   1.114   3.902  13.090 -0.1498  0.2708  0.1033
 8155SOL    HW135924   1.095   3.935  13.003 -1.6379 -2.3669 -0.5877
 8155SOL    HW235925   1.095   3.808  13.080  0.6386 -0.0241  1.4074
 8156SOL     OW35926   1.501   3.299   8.205 -0.1906 -0.0180 -0.0002
 8156SOL    HW135927   1.596   3.313   8.213  0.1348 -0.7852 -2.3301
 8156SOL    HW235928   1.503   3.213   8.247  1.1195  1.2483  2.5456
 8157SOL     OW35929   0.563   2.521   7.053  0.4952 -0.0659 -0.5663
 8157SOL    HW135930   0.501   2.458   7.091 -0.2234  1.1692  0.2836
 8157SOL    HW235931   0.604   2.471   6.982 -0.2641 -2.2941  0.5311
 8158SOL     OW35932   0.127   2.893   3.332 -0.4840  0.0535  0.5935
 8158SOL    HW135933   0.080   2.880   3.414 -1.2783  1.4908  0.3690
 8158SOL    HW235934   0.210   2.845   3.340 -0.2319  0.5376  0.8671
 8159SOL     OW35935   1.397   3.661   3.774  0.2633 -0.0320  0.6466
 8159SOL    HW135936   1.487   3.662   3.740  0.4437  1.6891  1.1628
 8159SOL    HW235937   1.347   3.644   3.695 -2.6201  0.5843  2.3423
 8160SOL     OW35938   3.981   0.122   4.488  0.1028 -0.0160 -0.0680
 8160SOL    HW135939   3.962   0.046   4.433 -0.8555 -0.9797  1.5716
 8160SOL    HW235940   3.942   0.090   4.570 -0.3103  0.7372  0.0357
 8161SOL     OW35941   0.882   2.779   5.461  0.0735 -0.4211  0.4082
 8161SOL    HW135942   0.957   2.794   5.404 -0.8084 -3.7449 -1.6518
 8161SOL    HW235943   0.858   2.687   5.448  1.3960 -0.5886 -0.7814
 8162SOL     OW35944   3.943   0.042  11.522 -0.2648 -0.4658 -0.3198
 8162SOL    HW135945   3.889   0.100  11.577 -1.9089 -1.9145 -0.4060
 8162SOL    HW235946   3.959   0.092  11.442  1.4185 -1.4312 -0.5966
 8163SOL     OW35947   0.568   2.396  13.004 -0.0825 -0.0512  0.0766
 8163SOL    HW135948   0.597   2.305  13.005  2.9035  0.9413  1.6738
 8163SOL    HW235949   0.476   2.385  12.979  0.1541 -1.2520 -0.2773
 8164SOL     OW35950   3.118   1.416   7.708 -0.0983  0.0775  0.5672
 8164SOL    HW135951   3.169   1.335   7.709  1.1344  0.8302 -0.5153
 8164SOL    HW235952   3.114   1.434   7.802  0.9456 -1.3446  0.8761
 8165SOL     OW35953   2.999   0.701   7.740  0.0375  0.0427  0.3530
 8165SOL    HW135954   3.081   0.711   7.692  0.2604 -1.8196  0.3420
 8165SOL    HW235955   3.017   0.649   7.818  0.6468 -0.5069 -0.1506
 8166SOL     OW35956   3.561   2.489   2.088 -0.6574 -0.1445  0.4175
 8166SOL    HW135957   3.564   2.517   2.179 -2.3044 -2.6877  1.2679
 8166SOL    HW235958   3.468   2.468   2.078 -1.3550  2.2176  2.0250
 8167SOL     OW35959   1.892   0.821   2.332  0.2272  0.6518  0.5284
 8167SOL    HW135960   1.985   0.831   2.351 -0.1395  1.6837  1.7310
 8167SOL    HW235961   1.848   0.889   2.383 -1.4824  0.5525 -0.8032
 8168SOL     OW35962   0.143   3.145  13.317 -0.5497  0.0209  0.3516
 8168SOL    HW135963   0.074   3.178  13.259  0.3847 -1.1522 -1.4343
 8168SOL    HW235964   0.094   3.082  13.370 -0.6232 -0.2071  0.0105
 8169SOL     OW35965   4.417   0.186   6.416 -0.0796 -0.0737 -0.2516
 8169SOL    HW135966   4.492   0.132   6.395 -0.8661 -1.4187  0.3858
 8169SOL    HW235967   4.353   0.132   6.371 -0.7914  1.2250 -0.7991
 8170SOL     OW35968   0.222   1.340   8.205  0.3132  0.1595  0.3082
 8170SOL    HW135969   0.294   1.308   8.260  0.4498 -0.0235  0.0232
 8170SOL    HW235970   0.211   1.263   8.148  1.9441  0.9601 -1.0930
 8171SOL     OW35971   2.423   3.717   6.496 -0.7246  0.0238 -0.2360
 8171SOL    HW135972   2.337   3.677   6.481 -2.0240  2.5848  0.2478
 8171SOL    HW235973   2.489   3.650   6.481 -1.2358 -0.6955  0.7239
 8172SOL     OW35974   1.369   1.839  10.835 -0.2715  0.2672  0.8847
 8172SOL    HW135975   1.337   1.749  10.839 -0.4023  0.2723 -0.1581
 8172SOL    HW235976   1.308   1.890  10.888 -1.4316 -2.0044  1.7371
 8173SOL     OW35977   2.301   3.605   2.761  0.0025  0.6905  0.1416
 8173SOL    HW135978   2.243   3.575   2.691 -1.1142  0.4421  1.1774
 8173SOL    HW235979   2.385   3.586   2.720  0.2954 -0.8473  1.4659
 8174SOL     OW35980   2.364   3.919  10.220 -0.6262 -0.2023 -0.0114
 8174SOL    HW135981   2.306   3.957  10.286 -1.5173  0.0005 -0.9026
 8174SOL    HW235982   2.419   3.851  10.259 -0.5776 -0.1438  0.0225
 8175SOL     OW35983   2.161   3.343   2.183  0.0005  0.2585 -0.2376
 8175SOL    HW135984   2.246   3.373   2.216 -1.1302  2.8766  0.3237
 8175SOL    HW235985   2.119   3.420   2.145  2.0326  1.3672 -0.2843
 8176SOL     OW35986   3.367   3.683   5.376  0.2315  0.3528  0.5243
 8176SOL    HW135987   3.462   3.672   5.367  0.3841  1.6515  0.6211
 8176SOL    HW235988   3.346   3.669   5.468  1.0325 -0.7272  0.5327
 8177SOL     OW35989   2.953   0.616   1.951  0.1799  0.2138 -0.8658
 8177SOL    HW135990   2.860   0.595   1.939  0.3849 -0.9781 -0.3199
 8177SOL    HW235991   2.967   0.693   1.896  4.8541 -0.2530 -0.2899
 8178SOL     OW35992   3.465   0.934   4.029  0.2666  0.4314 -0.2922
 8178SOL    HW135993   3.509   0.850   4.011  2.1409  1.1325  0.9900
 8178SOL    HW235994   3.416   0.909   4.107 -1.3829 -0.5607 -1.6662
 8179SOL     OW35995   0.980   3.738  13.594 -0.1684  0.0293 -0.5144
 8179SOL    HW135996   1.043   3.798  13.635  1.6178 -1.4037 -1.1520
 8179SOL    HW235997   0.952   3.681  13.666  1.7667 -0.4841 -0.1688
 8180SOL     OW35998   1.555   3.805   3.401 -0.0020 -0.1016  0.1264
 8180SOL    HW135999   1.492   3.842   3.463  0.3985 -1.1163  1.1492
 8180SOL    HW236000   1.530   3.842   3.316 -1.8377 -0.5678  0.4515
 8181SOL     OW36001   3.643   0.511  13.011  0.2916  0.5187  0.3715
 8181SOL    HW136002   3.656   0.514  12.916 -1.5644 -1.0765  0.0890
 8181SOL    HW236003   3.729   0.533  13.048  0.7485 -1.3645  0.4399
 8182SOL     OW36004   1.826   1.135   6.987 -0.3407  0.8305  0.3161
 8182SOL    HW136005   1.865   1.219   6.963  0.8166  0.5729  1.2845
 8182SOL    HW236006   1.774   1.119   6.908 -0.8947  0.6118  0.7235
 8183SOL     OW36007   1.581   2.094   1.205 -0.2230  0.1560 -0.1045
 8183SOL    HW136008   1.547   2.124   1.121  1.2441  1.4723 -0.2337
 8183SOL    HW236009   1.503   2.074   1.256 -0.3922 -0.7732 -0.7289
 8184SOL     OW36010   1.695   2.938   3.825 -0.1600 -0.2064  0.1179
 8184SOL    HW136011   1.740   2.893   3.753 -0.9702 -0.7384 -0.0560
 8184SOL    HW236012   1.622   2.877   3.835 -0.0990 -0.5453 -1.4903
 8185SOL     OW36013   1.679   3.628  17.655  0.2005 -0.3319 -0.0272
 8185SOL    HW136014   1.642   3.712  17.629 -0.2155 -1.0254 -1.6891
 8185SOL    HW236015   1.639   3.632   0.055  2.0907  0.1396  0.8227
 8186SOL     OW36016   3.000   0.832   1.793  0.2724  0.5169 -0.1449
 8186SOL    HW136017   3.096   0.833   1.796  0.2933 -0.5815 -0.2252
 8186SOL    HW236018   2.984   0.914   1.747  1.0660 -0.0874 -1.4974
 8187SOL     OW36019   0.000   1.238   4.894  0.0427  0.2126 -0.3212
 8187SOL    HW136020   0.044   1.196   4.820 -0.4988  0.3500 -0.7241
 8187SOL    HW236021   4.641   1.272   4.854 -0.7198 -2.0397 -0.6675
 8188SOL     OW36022   4.056   1.370  13.456 -0.2164  0.3601  0.0511
 8188SOL    HW136023   4.142   1.333  13.436  0.5829 -0.3090  4.7523
 8188SOL    HW236024   4.013   1.359  13.371 -2.4508 -1.9626  1.5027
 8189SOL     OW36025   3.157   0.448   0.386 -0.1640 -0.0491 -0.1433
 8189SOL    HW136026   3.222   0.384   0.416  0.0294 -0.0253 -0.5111
 8189SOL    HW236027   3.202   0.465   0.303  1.3163  1.6552  1.0317
 8190SOL     OW36028   3.259   0.940   2.468  0.6305  0.0152  0.3346
 8190SOL    HW136029   3.298   1.028   2.462 -0.1934  0.2987 -0.6902
 8190SOL    HW236030   3.334   0.886   2.444 -0.1569  0.1750 -2.4868
 8191SOL     OW36031   0.734   3.741   9.102  0.0715  0.1387  0.0921
 8191SOL    HW136032   0.699   3.711   9.185 -2.6783  1.0735 -0.7367
 8191SOL    HW236033   0.706   3.833   9.096 -0.8628 -0.3189 -2.4899
 8192SOL     OW36034   1.585   2.240   2.930  0.2255  0.0819 -0.1585
 8192SOL    HW136035   1.541   2.198   2.855 -1.2693  0.9046  0.2509
 8192SOL    HW236036   1.510   2.221   2.987  0.7126  0.2468  0.5252
 8193SOL     OW36037   0.191   1.964   5.363 -0.2098 -0.0961  0.3153
 8193SOL    HW136038   0.169   1.872   5.377 -1.6801  0.2155  0.1430
 8193SOL    HW236039   0.276   1.967   5.406  0.5479  0.0160 -1.2164
 8194SOL     OW36040   3.757   4.527   4.463 -0.2600 -0.1587 -0.6430
 8194SOL    HW136041   3.732   4.506   4.553  0.7133 -2.5466 -0.9480
 8194SOL    HW236042   3.673   4.516   4.419 -1.3482  1.1686  1.0722
 8195SOL     OW36043   1.007   2.107  11.080  0.3841  0.1037 -0.6653
 8195SOL    HW136044   1.042   2.196  11.080  0.4719  0.0668  1.5740
 8195SOL    HW236045   0.924   2.120  11.036  0.2815 -2.5694 -1.2405
 8196SOL     OW36046   1.024   3.766   7.356  0.6205  0.0865 -0.2016
 8196SOL    HW136047   1.002   3.744   7.446  0.2376 -0.5479 -0.4502
 8196SOL    HW236048   1.031   3.675   7.327  2.5638  0.1820 -0.0036
 8197SOL     OW36049   2.508   0.335  17.404  0.1856 -0.2615  0.3027
 8197SOL    HW136050   2.601   0.358  17.413 -0.0522  0.2093  1.4880
 8197SOL    HW236051   2.506   0.293  17.317  0.6983  0.1211  0.1076
 8198SOL     OW36052   0.963   2.881   0.826 -0.2890 -0.5617  0.2516
 8198SOL    HW136053   0.902   2.820   0.868 -0.8376  0.9416  1.6585
 8198SOL    HW236054   0.959   2.953   0.890 -1.3306  1.4613 -2.0701
 8199SOL     OW36055   3.028   3.516   5.927 -0.1272 -0.2894 -0.0927
 8199SOL    HW136056   3.092   3.444   5.938  1.7846  1.2642 -1.0384
 8199SOL    HW236057   2.948   3.475   5.894 -0.8587  0.9455  0.1857
 8200SOL     OW36058   3.851   3.791   5.603 -0.2911  0.5794 -0.0399
 8200SOL    HW136059   3.926   3.847   5.622  0.9018 -0.4386 -1.7526
 8200SOL    HW236060   3.889   3.706   5.582 -2.5603 -0.4665  0.1430
 8201SOL     OW36061   1.709   0.860   6.878  0.2604  0.9842  1.0099
 8201SOL    HW136062   1.677   0.909   6.953 -3.0274  0.2540  0.0830
 8201SOL    HW236063   1.643   0.791   6.883 -0.0206  1.2216  0.6273
 8202SOL     OW36064   2.819   3.893   5.372  0.2939  0.6224  0.4718
 8202SOL    HW136065   2.860   3.806   5.380 -0.8159  0.0008 -0.5396
 8202SOL    HW236066   2.795   3.912   5.281  1.6661 -0.9726 -0.2225
 8203SOL     OW36067   3.229   0.615   5.065 -0.8329  0.2384 -0.0765
 8203SOL    HW136068   3.303   0.650   5.014 -2.9949  2.8501 -1.4526
 8203SOL    HW236069   3.214   0.531   5.022  1.4739 -0.2151 -0.0020
 8204SOL     OW36070   0.322   4.274   2.930  0.5132 -0.7769  0.2790
 8204SOL    HW136071   0.251   4.226   2.973 -0.0476 -0.2377 -0.0339
 8204SOL    HW236072   0.361   4.212   2.869 -1.8933 -0.7380 -1.3031
 8205SOL     OW36073   1.692   0.280   0.525  0.4229 -0.5062  0.1589
 8205SOL    HW136074   1.749   0.355   0.545  1.0726 -0.6045 -1.2915
 8205SOL    HW236075   1.605   0.307   0.552 -0.6598 -2.7923 -1.0498
 8206SOL     OW36076   2.611   3.358   8.317 -0.1455  0.7563  0.0547
 8206SOL    HW136077   2.644   3.411   8.245 -0.5286  0.0480 -0.6423
 8206SOL    HW236078   2.642   3.402   8.396 -0.6624  0.1003  0.6312
 8207SOL     OW36079   4.198   0.701   3.878  0.1753  0.7985 -0.0120
 8207SOL    HW136080   4.138   0.641   3.834  1.8338 -0.0923 -1.0496
 8207SOL    HW236081   4.169   0.686   3.968 -2.4779 -2.5861 -1.4296
 8208SOL     OW36082   4.476   2.248   6.069 -0.7827 -0.2594  0.0424
 8208SOL    HW136083   4.418   2.242   5.994 -0.2679  1.7338 -0.5330
 8208SOL    HW236084   4.531   2.171   6.058  1.4656  1.4279 -0.5368
 8209SOL     OW36085   0.979   3.686  17.651  0.1580  0.9367 -0.1694
 8209SOL    HW136086   1.071   3.672  17.626 -0.1970 -1.8885  0.1348
 8209SOL    HW236087   0.984   3.679   0.060  0.4180  2.7938 -0.0554
 8210SOL     OW36088   0.570   3.273   6.370 -0.2346 -0.3109 -0.3469
 8210SOL    HW136089   0.501   3.296   6.309  0.5250  0.8043 -0.7765
 8210SOL    HW236090   0.614   3.207   6.315 -0.7570 -1.0439  0.1123
 8211SOL     OW36091   2.989   2.385   0.461 -0.1967 -0.1289  0.0340
 8211SOL    HW136092   2.894   2.389   0.465 -0.2098 -0.1386 -0.2754
 8211SOL    HW236093   3.007   2.438   0.538 -0.9602 -0.8712  0.7346
 8212SOL     OW36094   3.700   2.157   6.472  0.6963 -0.4915  0.0994
 8212SOL    HW136095   3.740   2.210   6.402 -1.9224 -0.2242 -1.1806
 8212SOL    HW236096   3.644   2.220   6.517  2.0224  0.4354  0.4648
 8213SOL     OW36097   2.362   2.773   8.793 -0.1291  0.0495 -0.6666
 8213SOL    HW136098   2.394   2.855   8.756  0.2045  0.2556  0.0738
 8213SOL    HW236099   2.334   2.792   8.883 -2.2676  1.4258 -1.6286
 8214SOL     OW36100   4.147   3.620   1.648 -0.0452  0.2295 -0.4836
 8214SOL    HW136101   4.239   3.645   1.659 -0.4386  2.7401 -3.0483
 8214SOL    HW236102   4.134   3.652   1.559  1.1616  0.4724 -0.5763
 8215SOL     OW36103   2.289   3.792   4.421 -0.0827 -0.5706  0.6181
 8215SOL    HW136104   2.358   3.796   4.487  0.1178 -0.0193  0.3759
 8215SOL    HW236105   2.335   3.746   4.351 -0.2995 -2.0177  1.4469
 8216SOL     OW36106   2.448   1.597   8.538  0.5623 -0.1189  0.1546
 8216SOL    HW136107   2.358   1.628   8.546  0.6107 -1.1280  4.8366
 8216SOL    HW236108   2.486   1.662   8.479 -2.2208 -2.6710 -4.3705
 8217SOL     OW36109   4.214   2.359   8.226  0.0209  0.4803 -0.2937
 8217SOL    HW136110   4.187   2.270   8.247  0.1581  0.1345 -1.5802
 8217SOL    HW236111   4.138   2.396   8.180  0.7200 -0.8521 -2.5460
 8218SOL     OW36112   0.627   0.265   3.426 -0.5943  0.1033  0.1505
 8218SOL    HW136113   0.718   0.273   3.453 -1.1110 -1.2106  2.2630
 8218SOL    HW236114   0.612   0.359   3.414  2.3873  0.6881  1.1131
 8219SOL     OW36115   1.616   0.248   5.135  0.0797 -0.1877  0.0362
 8219SOL    HW136116   1.558   0.255   5.211  0.3745  0.3597  0.2114
 8219SOL    HW236117   1.683   0.316   5.138 -1.6873  1.4997  0.8623
 8220SOL     OW36118   0.075   0.192  16.658 -0.0953  0.1174  0.5496
 8220SOL    HW136119   0.060   0.117  16.601 -3.1659 -1.1790  3.0929
 8220SOL    HW236120   0.105   0.263  16.600 -0.4246  0.0301  0.2754
 8221SOL     OW36121   0.654   2.344  12.371 -0.4769  0.7504  0.0140
 8221SOL    HW136122   0.736   2.378  12.333 -0.6670  1.6715  0.4440
 8221SOL    HW236123   0.667   2.249  12.369 -0.7807  0.6862  1.1265
 8222SOL     OW36124   1.691   4.194   6.256 -0.1565 -0.1197  0.0824
 8222SOL    HW136125   1.755   4.126   6.276  1.2415  1.0455 -0.4386
 8222SOL    HW236126   1.744   4.268   6.285  0.4505  0.3049 -2.1167
 8223SOL     OW36127   0.055   0.510   7.075  0.0377  0.0918 -0.2483
 8223SOL    HW136128   0.012   0.517   6.990  0.3924 -0.2452 -0.4547
 8223SOL    HW236129   0.097   0.596   7.070 -0.5520  0.4828  1.5264
 8224SOL     OW36130   2.409   2.048  14.438 -0.4899  0.0036 -0.0848
 8224SOL    HW136131   2.486   2.098  14.411 -1.1430 -0.4305 -2.7063
 8224SOL    HW236132   2.380   2.098  14.515 -1.0824 -0.1350 -0.2205
 8225SOL     OW36133   4.117   0.885   5.831  0.1208 -0.2079  0.5105
 8225SOL    HW136134   4.106   0.848   5.919  0.4505 -1.9567 -0.1730
 8225SOL    HW236135   4.107   0.978   5.847  0.5245 -0.2982  1.2891
 8226SOL     OW36136   2.759   3.048   5.271 -0.0307  1.0520 -0.0401
 8226SOL    HW136137   2.764   2.978   5.336 -0.0534  1.1793  0.0968
 8226SOL    HW236138   2.710   2.998   5.205  1.4972 -2.4932  1.4775
 8227SOL     OW36139   1.628   3.164   2.223 -0.5538  0.9244  0.1401
 8227SOL    HW136140   1.674   3.084   2.197 -1.6992  0.1416  0.4676
 8227SOL    HW236141   1.572   3.178   2.146 -0.3125  1.7734  0.1264
 8228SOL     OW36142   2.320   0.559   2.630  0.3322  0.1071 -0.2674
 8228SOL    HW136143   2.324   0.484   2.570  2.0212 -0.2358  0.2621
 8228SOL    HW236144   2.321   0.508   2.711  0.0874  2.8589  1.4595
 8229SOL     OW36145   0.163   2.647   3.005 -0.1853 -0.7237 -0.3150
 8229SOL    HW136146   0.109   2.654   2.926 -0.1189 -0.2987 -0.3253
 8229SOL    HW236147   0.248   2.685   2.984 -0.3616  0.3482  0.8828
 8230SOL     OW36148   1.979   0.606   3.757  0.7496 -0.2026 -0.0029
 8230SOL    HW136149   1.942   0.521   3.781 -2.5849  1.1264 -0.4573
 8230SOL    HW236150   1.959   0.666   3.828  0.2488 -0.8492  0.3987
 8231SOL     OW36151   2.138   2.151  12.472  0.1377  0.1034  0.2217
 8231SOL    HW136152   2.163   2.215  12.538 -0.8578  0.2909  0.4161
 8231SOL    HW236153   2.193   2.174  12.397 -2.1774 -1.1455 -1.8913
 8232SOL     OW36154   1.567   1.410   6.861  0.2505  0.5820  0.1342
 8232SOL    HW136155   1.476   1.427   6.886  0.1565 -0.3479  0.4325
 8232SOL    HW236156   1.563   1.314   6.865  0.6142  0.3486 -4.8660
 8233SOL     OW36157   4.212   0.971   2.245  0.1253 -0.2792  0.2056
 8233SOL    HW136158   4.233   1.046   2.299 -0.3167 -0.4215  0.5729
 8233SOL    HW236159   4.131   0.940   2.286  1.9268 -2.1088  2.3805
 8234SOL     OW36160   4.639   3.624   5.927 -0.1323  0.0981 -0.5453
 8234SOL    HW136161   4.553   3.583   5.935 -0.3520  0.7228  0.2297
 8234SOL    HW236162   4.610   3.715   5.932  1.6660  0.5907  0.8292
 8235SOL     OW36163   1.050   2.240  12.033  0.0629 -0.5206 -0.2060
 8235SOL    HW136164   1.094   2.156  12.046  0.2090  0.2070  3.9254
 8235SOL    HW236165   1.015   2.253  12.121  0.8648  2.0989 -0.2868
 8236SOL     OW36166   3.068   3.206   8.670 -0.0532  0.8924 -0.5066
 8236SOL    HW136167   3.064   3.133   8.608  1.3009  0.1829  0.2134
 8236SOL    HW236168   3.155   3.240   8.649  0.0569  0.1474 -1.2609
 8237SOL     OW36169   3.556   4.130  10.439 -0.3986  0.1316  0.7704
 8237SOL    HW136170   3.546   4.121  10.344  0.0654  0.0505  0.7302
 8237SOL    HW236171   3.650   4.114  10.447  0.2637  3.9588  0.9558
 8238SOL     OW36172   3.399   1.741   3.557 -0.3185 -0.1270  0.2207
 8238SOL    HW136173   3.307   1.750   3.532 -0.5958 -0.3066  1.1690
 8238SOL    HW236174   3.441   1.761   3.473  0.3113 -0.2991  0.4984
 8239SOL     OW36175   3.013   4.500   0.806 -0.2778  0.1342  0.4629
 8239SOL    HW136176   3.059   4.430   0.853  3.4978  0.4837 -2.7699
 8239SOL    HW236177   3.009   4.453   0.723  0.3276 -1.2189  1.1869
 8240SOL     OW36178   2.117   2.789   3.345  0.2412 -0.1662  0.5226
 8240SOL    HW136179   2.029   2.800   3.309  0.1044  1.9146  1.4940
 8240SOL    HW236180   2.103   2.700   3.378 -0.7175 -0.4660 -0.6860
 8241SOL     OW36181   1.430   4.144  17.320 -0.1938 -0.2097 -0.3599
 8241SOL    HW136182   1.485   4.066  17.325  0.1490 -0.0526 -1.6248
 8241SOL    HW236183   1.358   4.123  17.379 -0.0854 -2.1173 -0.9101
 8242SOL     OW36184   2.232   3.477  16.809 -0.2256 -0.7903 -0.3643
 8242SOL    HW136185   2.249   3.438  16.723 -1.9489  1.7613 -1.8884
 8242SOL    HW236186   2.315   3.463  16.854  0.4506  2.0015 -0.7371
 8243SOL     OW36187   3.910   3.795  15.682  0.1857  0.0594 -0.3085
 8243SOL    HW136188   3.989   3.827  15.725  0.3130 -0.8726  0.1545
 8243SOL    HW236189   3.921   3.703  15.706  0.7399 -0.3368 -2.0145
 8244SOL     OW36190   3.911   0.466  17.132 -0.5630 -0.5590  0.1182
 8244SOL    HW136191   3.984   0.502  17.081 -0.9329  0.6945  0.4533
 8244SOL    HW236192   3.958   0.441  17.211 -0.8851 -0.0661  0.4727
 8245SOL     OW36193   1.981   3.151   9.189  0.1522  0.2148  0.0099
 8245SOL    HW136194   1.960   3.148   9.283  0.0182 -0.9571 -0.0556
 8245SOL    HW236195   1.899   3.182   9.150 -0.1465  0.0416  0.4957
 8246SOL     OW36196   1.743   1.603  16.821 -0.2771 -0.4954 -0.2543
 8246SOL    HW136197   1.803   1.563  16.759 -2.0991 -3.3495 -0.1471
 8246SOL    HW236198   1.715   1.677  16.767  0.5258 -0.5319 -0.7205
 8247SOL     OW36199   4.501   2.551   2.017  0.0330  0.2832  0.2045
 8247SOL    HW136200   4.524   2.592   2.101  0.8081  2.4798 -1.0912
 8247SOL    HW236201   4.545   2.613   1.959  0.6529 -0.8785 -0.5659
 8248SOL     OW36202   3.773   1.544   6.411  0.2920 -0.2508 -0.9814
 8248SOL    HW136203   3.773   1.494   6.492 -0.4554  2.1072  0.4735
 8248SOL    HW236204   3.833   1.617   6.426  1.7895 -1.7260  0.2499
 8249SOL     OW36205   2.178   0.090   2.099 -0.0592 -0.3850 -0.2734
 8249SOL    HW136206   2.182   0.179   2.066 -2.6285  1.0024  3.1386
 8249SOL    HW236207   2.239   0.048   2.038 -0.9716 -2.1699  0.0379
 8250SOL     OW36208   2.693   0.257   0.269 -0.7848 -0.3124  0.3273
 8250SOL    HW136209   2.787   0.250   0.254 -0.8403 -2.9391  1.2024
 8250SOL    HW236210   2.680   0.166   0.296 -2.0431 -0.3118 -0.2880
 8251SOL     OW36211   2.972   2.633   4.370 -0.1193 -0.4654 -1.1481
 8251SOL    HW136212   2.954   2.686   4.292 -0.4860 -1.5555 -1.8109
 8251SOL    HW236213   3.059   2.595   4.355  0.5661  0.3933  0.7202
 8252SOL     OW36214   3.751   1.047   6.038 -0.2158  0.1237  0.0930
 8252SOL    HW136215   3.795   1.090   6.112 -1.5820 -1.1297  1.6261
 8252SOL    HW236216   3.736   0.957   6.067 -1.8329 -0.5048 -2.6454
 8253SOL     OW36217   2.943   4.180  13.386 -0.2505 -0.6902 -0.2747
 8253SOL    HW136218   2.941   4.237  13.309 -2.2193 -1.2434 -0.6379
 8253SOL    HW236219   2.847   4.176  13.387 -0.1185 -2.9775  2.4098
 8254SOL     OW36220   0.093   3.243   8.208  0.0426  0.0325  0.1465
 8254SOL    HW136221   0.130   3.182   8.272  0.5024 -1.9125 -1.9864
 8254SOL    HW236222   0.108   3.187   8.132 -2.1718 -2.3229  1.4318
 8255SOL     OW36223   4.540   0.665  13.067  0.1350  0.0156 -0.1519
 8255SOL    HW136224   4.550   0.715  12.986  2.7718 -1.4659 -0.7400
 8255SOL    HW236225   4.514   0.582  13.027  1.9910 -0.2483 -0.8328
 8256SOL     OW36226   1.405   0.823   4.169 -0.2025 -0.0890 -0.2522
 8256SOL    HW136227   1.353   0.902   4.157 -0.3534 -0.2108 -0.4101
 8256SOL    HW236228   1.486   0.844   4.217 -1.1011  0.4905  1.0104
 8257SOL     OW36229   1.024   0.974   3.974  0.7673 -0.0363 -0.6749
 8257SOL    HW136230   1.025   0.884   3.943 -0.0736  0.4449 -2.1507
 8257SOL    HW236231   0.932   0.997   3.960  1.2707  2.5796  0.3505
 8258SOL     OW36232   3.953   2.709  15.024 -0.2426 -0.2318 -0.3786
 8258SOL    HW136233   3.945   2.771  15.097  2.2312 -0.6170  0.2167
 8258SOL    HW236234   3.912   2.631  15.063 -0.1494  0.9488  2.1245
 8259SOL     OW36235   3.212   3.874   9.746  0.0117  0.0187 -0.6495
 8259SOL    HW136236   3.151   3.948   9.750  0.7472  0.6557 -1.2421
 8259SOL    HW236237   3.209   3.836   9.834  1.5940  2.6143  0.5335
 8260SOL     OW36238   0.289   0.778  16.100 -0.4578 -0.8610 -0.0216
 8260SOL    HW136239   0.223   0.764  16.031 -1.3486  1.2639  0.4098
 8260SOL    HW236240   0.261   0.866  16.125 -2.8384 -1.6215  0.0462
 8261SOL     OW36241   1.407   0.816   4.584 -0.1205  0.7206  0.1954
 8261SOL    HW136242   1.322   0.781   4.557  0.2369  0.5818 -0.7484
 8261SOL    HW236243   1.378   0.895   4.630  0.9249  2.2904 -1.8296
 8262SOL     OW36244   1.116   1.586   7.216  0.3660  0.3172 -0.3140
 8262SOL    HW136245   1.069   1.657   7.173 -2.0803 -0.2439  1.4384
 8262SOL    HW236246   1.117   1.521   7.145 -0.0541  1.1572 -1.0829
 8263SOL     OW36247   1.377   3.337  15.396 -0.2782  0.1574 -0.0093
 8263SOL    HW136248   1.449   3.281  15.366 -0.1057 -0.1010  0.8814
 8263SOL    HW236249   1.302   3.277  15.395 -0.2385  0.1053  0.5008
 8264SOL     OW36250   0.006   2.234  16.259  0.0945  0.5524 -0.4181
 8264SOL    HW136251   4.676   2.180  16.320  0.8736  1.2141  0.8063
 8264SOL    HW236252   0.096   2.212  16.283 -0.1644  1.2258  1.2171
 8265SOL     OW36253   3.550   0.059  17.592 -0.5359  0.2896  0.3112
 8265SOL    HW136254   3.458   0.059  17.567 -1.0699  0.5389  2.3222
 8265SOL    HW236255   3.571   0.142  17.547  0.7305  0.0261  0.4218
 8266SOL     OW36256   2.004   0.821   6.011  0.0662 -0.3805 -0.4620
 8266SOL    HW136257   2.064   0.869   5.954 -0.1142 -2.2438 -2.2311
 8266SOL    HW236258   1.921   0.868   6.005  0.8111  0.7924 -1.5568
 8267SOL     OW36259   2.864   3.506   5.019 -0.1223 -0.1226  0.3365
 8267SOL    HW136260   2.798   3.484   4.953 -0.6324  0.4150  0.6635
 8267SOL    HW236261   2.892   3.416   5.037 -0.4265 -0.1102  0.8844
 8268SOL     OW36262   2.711   0.586  14.185 -0.1610 -0.0474 -0.3187
 8268SOL    HW136263   2.702   0.572  14.091 -1.3920 -1.8903  0.0630
 8268SOL    HW236264   2.743   0.500  14.212 -2.4846 -0.7198  0.2354
 8269SOL     OW36265   3.477   3.059  12.712 -0.1643  0.4330 -1.0861
 8269SOL    HW136266   3.471   2.984  12.771 -0.5607  0.1984 -1.4244
 8269SOL    HW236267   3.402   3.113  12.738 -1.4418 -2.1586  0.5950
 8270SOL     OW36268   3.355   0.199   8.825 -0.4036  0.5231 -0.2877
 8270SOL    HW136269   3.391   0.281   8.791 -0.3339  0.1998 -0.9922
 8270SOL    HW236270   3.435   0.162   8.861 -0.1535  0.3298 -1.0387
 8271SOL     OW36271   0.872   1.315   2.214  0.0199  0.4582  0.1299
 8271SOL    HW136272   0.813   1.241   2.200 -0.2774  0.5300  1.0299
 8271SOL    HW236273   0.813   1.387   2.189 -1.3938 -1.0218 -0.8235
 8272SOL     OW36274   1.211   3.024   3.016  0.0014  0.2526  0.1635
 8272SOL    HW136275   1.154   2.947   3.021  0.4063 -0.0926 -0.5779
 8272SOL    HW236276   1.271   3.000   2.945 -0.1354  0.7317 -0.1103
 8273SOL     OW36277   4.004   0.872   2.056 -0.3298 -0.4312  0.4483
 8273SOL    HW136278   4.095   0.875   2.085 -0.7027  1.0001  1.4697
 8273SOL    HW236279   3.987   0.960   2.020 -1.1381 -0.2284  1.3456
 8274SOL     OW36280   4.498   0.688  14.429 -0.1353  0.2216  0.3583
 8274SOL    HW136281   4.538   0.709  14.344  0.9098 -0.6585  0.6248
 8274SOL    HW236282   4.580   0.683  14.478  0.0402 -2.0034 -0.1220
 8275SOL     OW36283   3.136   2.036  14.871 -0.4984 -0.7303 -0.1064
 8275SOL    HW136284   3.164   1.957  14.824  1.0169 -0.3039  0.0819
 8275SOL    HW236285   3.148   2.003  14.960  0.7380  1.4625  0.5512
 8276SOL     OW36286   4.254   4.101   5.195 -0.1344 -0.3376  0.2675
 8276SOL    HW136287   4.208   4.151   5.262  0.1227  0.2393  0.0096
 8276SOL    HW236288   4.343   4.124   5.220 -0.5730  0.4110  1.1435
 8277SOL     OW36289   0.238   3.996   2.062  0.1272  0.2928  0.5668
 8277SOL    HW136290   0.318   3.960   2.100  0.9925  1.7760  0.1510
 8277SOL    HW236291   0.263   3.963   1.975 -0.3298  1.3717  0.0313
 8278SOL     OW36292   1.383   0.406   0.385  0.0568  0.3843 -0.7034
 8278SOL    HW136293   1.432   0.487   0.395 -0.3132  0.6505 -1.0485
 8278SOL    HW236294   1.397   0.379   0.476 -1.4026  0.9787 -0.2877
 8279SOL     OW36295   3.419   3.301   7.254 -0.5280  0.6139  0.0754
 8279SOL    HW136296   3.434   3.386   7.214 -0.4178  1.2052  1.3664
 8279SOL    HW236297   3.510   3.283   7.280 -0.9275 -0.3577  0.7968
 8280SOL     OW36298   4.542   4.182   3.347 -0.5067 -0.4460 -0.0953
 8280SOL    HW136299   4.542   4.216   3.258 -1.3051 -1.0046 -0.3067
 8280SOL    HW236300   4.631   4.147   3.345 -0.8123 -1.3295  1.3236
 8281SOL     OW36301   0.530   4.690   7.213  0.1270 -0.2383  0.2590
 8281SOL    HW136302   0.444   4.702   7.174 -0.7072 -1.0748  1.8405
 8281SOL    HW236303   0.584   4.673   7.136 -0.9981  0.9084 -0.7887
 8282SOL     OW36304   1.960   1.751  13.695  0.6785  0.4064  0.1023
 8282SOL    HW136305   2.017   1.729  13.622 -2.7893  1.3927 -2.9007
 8282SOL    HW236306   2.019   1.790  13.759  0.8702 -0.7247  0.6069
 8283SOL     OW36307   4.273   4.478   2.474 -0.2452  0.2141  0.4500
 8283SOL    HW136308   4.306   4.543   2.412 -1.0844  0.1940 -0.0236
 8283SOL    HW236309   4.355   4.460   2.519  0.2515  1.7452  0.1458
 8284SOL     OW36310   3.803   4.376   7.649 -0.7338  0.0179 -0.8152
 8284SOL    HW136311   3.746   4.318   7.699  0.3949 -1.9751 -1.8842
 8284SOL    HW236312   3.874   4.321   7.617  0.0138  1.8590 -2.3149
 8285SOL     OW36313   0.512   2.731   4.550 -0.0225 -0.0504 -0.6635
 8285SOL    HW136314   0.602   2.745   4.521  0.5776 -3.3072 -0.3592
 8285SOL    HW236315   0.504   2.809   4.604  0.0160  0.1595 -0.9650
 8286SOL     OW36316   0.375   1.484   9.050  0.1518  0.0932 -0.4019
 8286SOL    HW136317   0.299   1.462   9.104  1.9811 -2.3740  1.2257
 8286SOL    HW236318   0.367   1.418   8.981 -1.4377  0.7366 -0.8176
 8287SOL     OW36319   1.633   3.069  13.109  0.1747  0.5932  0.1381
 8287SOL    HW136320   1.689   3.016  13.052  1.9058  2.5433  0.0315
 8287SOL    HW236321   1.663   3.036  13.193  0.3728 -1.9981 -0.9427
 8288SOL     OW36322   4.294   1.877   9.862 -0.5256  0.1223 -0.4348
 8288SOL    HW136323   4.311   1.946   9.927 -1.5396  0.8598 -0.9607
 8288SOL    HW236324   4.262   1.808   9.920  0.7379  0.8575  1.1434
 8289SOL     OW36325   3.835   4.383   3.170  0.0349 -0.2084 -0.0620
 8289SOL    HW136326   3.822   4.336   3.088  2.7984 -1.7909  0.4053
 8289SOL    HW236327   3.928   4.365   3.180  0.0825 -0.4614 -1.0038
 8290SOL     OW36328   3.288   4.294  16.447 -0.4247 -0.2252  0.1158
 8290SOL    HW136329   3.295   4.207  16.487  0.0165 -1.4860 -2.6956
 8290SOL    HW236330   3.209   4.294  16.394 -1.0705  1.3111  1.0814
 8291SOL     OW36331   0.700   3.779   2.058 -0.2619  0.1311 -0.3657
 8291SOL    HW136332   0.786   3.808   2.090 -0.2508  1.4612 -1.5734
 8291SOL    HW236333   0.721   3.689   2.036  0.4029  0.7306 -2.1968
 8292SOL     OW36334   1.321   4.210   0.091  0.3617 -0.1269 -0.2134
 8292SOL    HW136335   1.281   4.161   0.019 -1.3432 -0.9673  1.2810
 8292SOL    HW236336   1.320   4.296   0.049  2.5965  0.6489  1.3358
 8293SOL     OW36337   2.143   4.668  11.519 -0.1686 -0.2612 -0.2650
 8293SOL    HW136338   2.091   4.588  11.528 -0.6239 -0.2954 -3.3134
 8293SOL    HW236339   2.207   4.646  11.452 -0.3025 -0.8982 -0.1862
 8294SOL     OW36340   0.464   1.283   6.681  0.3249 -0.1163 -0.7858
 8294SOL    HW136341   0.560   1.280   6.679  0.3524  0.7297 -0.8415
 8294SOL    HW236342   0.455   1.215   6.748  1.7299  0.5708  0.1074
 8295SOL     OW36343   4.230   0.145  15.797 -0.2783 -0.2769 -0.2524
 8295SOL    HW136344   4.241   0.165  15.704  0.1361 -1.3369 -0.4335
 8295SOL    HW236345   4.141   0.173  15.818 -0.5484 -1.4861  0.2273
 8296SOL     OW36346   0.266   2.237   1.753  0.1948 -0.0724 -0.2443
 8296SOL    HW136347   0.191   2.220   1.697  0.9824 -1.7942 -0.7898
 8296SOL    HW236348   0.304   2.314   1.709 -0.1936  0.0401 -0.3814
 8297SOL     OW36349   4.598   1.697   9.065 -0.3171  0.0520  0.4503
 8297SOL    HW136350   4.666   1.667   9.004 -1.6094  2.4112 -2.2053
 8297SOL    HW236351   4.543   1.623   9.091  0.6316 -1.4839 -1.8926
 8298SOL     OW36352   2.703   3.617  16.810  0.1647  0.8126 -0.1042
 8298SOL    HW136353   2.726   3.638  16.901 -0.5767  1.3249 -0.0357
 8298SOL    HW236354   2.669   3.697  16.770  0.4103  1.2252  0.5091
 8299SOL     OW36355   1.543   3.462  10.111  0.4562  0.0354 -0.0300
 8299SOL    HW136356   1.499   3.490  10.031  1.7066 -1.0242 -1.0845
 8299SOL    HW236357   1.633   3.449  10.081  0.9893  1.8480  0.7631
 8300SOL     OW36358   4.452   3.920   6.846 -0.1662 -0.5300 -0.1374
 8300SOL    HW136359   4.478   4.008   6.819  3.0379 -1.5979 -0.4965
 8300SOL    HW236360   4.535   3.873   6.850  0.5965  0.8446  0.3060
 8301SOL     OW36361   4.569   3.364   8.237 -0.0698 -0.3117  0.6061
 8301SOL    HW136362   4.607   3.452   8.236 -0.7735 -0.0260 -0.5251
 8301SOL    HW236363   4.641   3.309   8.205 -0.7919 -0.4774 -0.6959
 8302SOL     OW36364   2.352   1.977   6.968  0.4690  0.3370  0.1394
 8302SOL    HW136365   2.432   2.029   6.959  1.2953 -0.9538  0.0195
 8302SOL    HW236366   2.384   1.901   7.017 -0.5177  0.4387  0.9597
 8303SOL     OW36367   3.407   4.703   2.917  0.2837  0.1314  0.3858
 8303SOL    HW136368   3.332   4.663   2.962  0.2372  0.8751  0.9867
 8303SOL    HW236369   3.474   4.687   2.984  0.5541  1.1191  0.3540
 8304SOL     OW36370   0.041   2.871   8.184  0.6241  0.0634 -0.6086
 8304SOL    HW136371   0.074   2.920   8.108 -1.4010  0.6108 -1.1257
 8304SOL    HW236372   0.096   2.910   8.251 -1.3875  2.3998 -0.3481
 8305SOL     OW36373   4.006   0.783  13.236  0.1903  0.1565 -0.1685
 8305SOL    HW136374   4.095   0.752  13.220  0.8691  1.4554  1.0529
 8305SOL    HW236375   3.989   0.755  13.326  2.0714 -2.3350 -0.5944
 8306SOL     OW36376   3.874   0.630   1.969 -0.3834  0.4634  0.3671
 8306SOL    HW136377   3.881   0.577   2.048  3.5170  1.9243  1.0163
 8306SOL    HW236378   3.916   0.707   2.008  0.1291  0.0321  0.6609
 8307SOL     OW36379   1.694   0.056   6.568 -0.2316  0.2536  0.3131
 8307SOL    HW136380   1.626   0.107   6.611  0.2772  0.3748  0.9627
 8307SOL    HW236381   1.703   0.099   6.483  0.3456  2.1841  1.3414
 8308SOL     OW36382   4.216   1.740   5.483 -0.0296  0.2945 -0.1414
 8308SOL    HW136383   4.138   1.697   5.517 -0.5668  0.8410 -0.6872
 8308SOL    HW236384   4.238   1.684   5.409  1.0544  0.0063  0.4019
 8309SOL     OW36385   2.060   0.530  15.552  0.0571 -0.0949 -0.1063
 8309SOL    HW136386   2.093   0.619  15.554 -1.0375  0.2582  2.6234
 8309SOL    HW236387   2.060   0.511  15.458 -0.2204 -1.7287  0.2221
 8310SOL     OW36388   2.796   4.525   5.306 -0.1534  0.0250 -0.0830
 8310SOL    HW136389   2.766   4.520   5.216 -1.3649  0.0870  0.3151
 8310SOL    HW236390   2.717   4.496   5.352 -0.0076 -0.5002 -0.1706
 8311SOL     OW36391   2.539   4.248   6.484 -0.5238  0.0548 -0.0656
 8311SOL    HW136392   2.532   4.251   6.389  1.6548  0.5086 -0.2016
 8311SOL    HW236393   2.485   4.170   6.496  1.1523 -0.9991  0.6823
 8312SOL     OW36394   2.605   2.401   5.553  0.2214  0.1393  0.2844
 8312SOL    HW136395   2.568   2.488   5.573 -3.6176 -1.6301  0.9748
 8312SOL    HW236396   2.697   2.426   5.552  0.5462 -1.0992 -0.6370
 8313SOL     OW36397   0.013   1.841  15.515 -0.0772  0.0894 -0.3555
 8313SOL    HW136398   0.104   1.840  15.547 -0.1162  1.8310 -0.1887
 8313SOL    HW236399   4.695   1.916  15.559  0.2510 -0.2505  0.5282
 8314SOL     OW36400   1.412   4.580   7.960 -0.6590 -0.2444  1.0868
 8314SOL    HW136401   1.462   4.659   7.982  0.0956 -0.2576 -0.5982
 8314SOL    HW236402   1.334   4.584   8.016 -0.8398  0.1571  0.8005
 8315SOL     OW36403   2.745   1.802  16.941  0.4604 -0.4249  0.8418
 8315SOL    HW136404   2.730   1.847  16.858 -1.3420 -2.3486  0.1526
 8315SOL    HW236405   2.825   1.759  16.911  0.6504 -1.1070  2.3364
 8316SOL     OW36406   0.691   0.243  10.622 -0.5107  0.8786  0.8188
 8316SOL    HW136407   0.599   0.268  10.623 -1.5658 -2.9772 -1.6783
 8316SOL    HW236408   0.703   0.252  10.528  0.1184  0.4887  0.8635
 8317SOL     OW36409   4.135   3.607  17.370  0.0182 -0.0646  0.1218
 8317SOL    HW136410   4.190   3.681  17.343 -0.3066 -0.1563 -0.7993
 8317SOL    HW236411   4.187   3.580  17.446 -0.8540 -1.5641  0.1769
 8318SOL     OW36412   2.390   3.880   7.809  0.6377 -0.0920 -0.2938
 8318SOL    HW136413   2.340   3.894   7.728 -0.3985  0.1260  0.3946
 8318SOL    HW236414   2.345   3.940   7.867  2.3414 -0.7329  1.6761
 8319SOL     OW36415   3.569   3.380  10.288  0.0855  0.1615  0.3987
 8319SOL    HW136416   3.528   3.354  10.371 -0.3548  0.0747  0.1528
 8319SOL    HW236417   3.624   3.301  10.283 -0.8663 -0.5707  1.6498
 8320SOL     OW36418   0.149   2.992   7.248 -0.8816  0.2535  0.1611
 8320SOL    HW136419   0.138   2.900   7.269  0.4549 -0.0286 -0.3500
 8320SOL    HW236420   0.160   2.995   7.153  1.0133  3.0902  0.4636
 8321SOL     OW36421   0.087   4.296   8.920 -0.5591 -0.6248  0.2167
 8321SOL    HW136422   0.021   4.364   8.929  0.1315  0.1951 -0.9647
 8321SOL    HW236423   0.114   4.276   9.010  0.9347  0.0945 -0.0666
 8322SOL     OW36424   2.878   1.997   1.704  0.8362 -0.2920  0.0982
 8322SOL    HW136425   2.797   2.029   1.742  0.3680 -0.0907 -1.0713
 8322SOL    HW236426   2.861   2.025   1.614  1.4786 -0.5327 -0.1001
 8323SOL     OW36427   0.630   1.700  13.766 -0.1692 -0.0170  0.2621
 8323SOL    HW136428   0.677   1.758  13.707  0.7176 -1.5068 -0.5015
 8323SOL    HW236429   0.566   1.663  13.706 -0.3325 -1.6172  1.4063
 8324SOL     OW36430   1.222   2.529   3.612  0.5704  0.1894 -0.4833
 8324SOL    HW136431   1.202   2.451   3.665  0.7541  0.2744 -0.2902
 8324SOL    HW236432   1.129   2.531   3.590  0.2162 -0.5094  0.9216
 8325SOL     OW36433   2.051   1.014   5.104  0.0230 -0.1348  0.6648
 8325SOL    HW136434   2.106   1.044   5.032  0.0974  3.2274  2.0834
 8325SOL    HW236435   2.100   1.051   5.178  0.1260  0.5350  0.2599
 8326SOL     OW36436   1.471   3.773   6.073  0.7693 -0.1903  0.0963
 8326SOL    HW136437   1.515   3.803   5.993  0.3150 -0.9436 -0.4362
 8326SOL    HW236438   1.520   3.699   6.108  2.1959  0.1638 -1.1348
 8327SOL     OW36439   1.273   3.241   4.286  0.2013  0.3581 -0.3153
 8327SOL    HW136440   1.344   3.284   4.335  0.2941 -1.1368  0.8471
 8327SOL    HW236441   1.274   3.160   4.336 -0.5380  0.1049 -0.7192
 8328SOL     OW36442   1.557   3.173  16.863  0.2239 -0.5780 -0.1288
 8328SOL    HW136443   1.640   3.222  16.862  0.5440 -1.1128  0.1500
 8328SOL    HW236444   1.548   3.176  16.959  2.1619 -0.5999  0.0702
 8329SOL     OW36445   3.805   1.347  17.455 -0.2402  0.2509  0.2440
 8329SOL    HW136446   3.721   1.345  17.409 -0.8335  0.7836  1.3114
 8329SOL    HW236447   3.791   1.419  17.516 -2.2366  0.8586 -0.9602
 8330SOL     OW36448   3.462   2.985   6.572 -0.2532 -0.4877  0.3802
 8330SOL    HW136449   3.525   2.996   6.643  0.7686 -1.1428 -0.4285
 8330SOL    HW236450   3.413   3.068   6.574 -0.9372 -0.8859 -0.1071
 8331SOL     OW36451   3.666   4.266   4.071 -0.1765  0.5146 -0.4581
 8331SOL    HW136452   3.683   4.197   4.007 -1.9573  0.3189 -0.7150
 8331SOL    HW236453   3.745   4.319   4.060  0.7143 -0.1273  2.7471
 8332SOL     OW36454   1.692   2.405   1.233  0.0013 -0.1960  0.2640
 8332SOL    HW136455   1.647   2.371   1.155 -0.1324 -1.4780  0.8904
 8332SOL    HW236456   1.616   2.416   1.290  0.0616 -0.8472  0.4749
 8333SOL     OW36457   0.532   2.780  16.054  0.0890 -0.3556  0.4062
 8333SOL    HW136458   0.437   2.786  16.067 -0.0975 -0.7689 -0.7497
 8333SOL    HW236459   0.547   2.874  16.051  1.6292 -0.6377 -0.8093
 8334SOL     OW36460   4.441   0.790   3.459  0.3010  0.3238 -0.0933
 8334SOL    HW136461   4.467   0.721   3.398  0.5330 -0.0934  0.4859
 8334SOL    HW236462   4.487   0.765   3.538 -1.6746 -1.5665  0.4445
 8335SOL     OW36463   3.552   2.424   5.805  0.6914 -0.3196  0.1658
 8335SOL    HW136464   3.518   2.475   5.731  0.8349  1.4651  1.3355
 8335SOL    HW236465   3.551   2.490   5.874 -3.9577 -1.8312  1.5550
 8336SOL     OW36466   2.097   1.405   2.426 -0.3698 -0.3783  0.4509
 8336SOL    HW136467   2.121   1.312   2.417  0.7512 -0.1700  1.3569
 8336SOL    HW236468   2.129   1.455   2.351 -2.7381 -0.4111 -0.5888
 8337SOL     OW36469   3.960   1.600  11.506  0.3192  0.4350 -0.0325
 8337SOL    HW136470   4.011   1.533  11.460 -2.6803 -0.2590 -2.3675
 8337SOL    HW236471   3.874   1.579  11.470  1.0077  2.0604 -2.6746
 8338SOL     OW36472   4.673   1.971   3.727 -0.3438 -0.0070 -0.5079
 8338SOL    HW136473   4.614   2.029   3.678 -1.0326 -1.7459 -1.7359
 8338SOL    HW236474   0.016   2.039   3.744 -0.4302  0.2491 -1.1919
 8339SOL     OW36475   1.758   3.099   5.030 -0.2565 -0.1203 -0.4977
 8339SOL    HW136476   1.715   3.042   5.094 -2.3038  0.6491 -1.2030
 8339SOL    HW236477   1.731   3.182   5.069  1.7127  0.6836 -0.8257
 8340SOL     OW36478   0.018   4.659   1.647  0.2701  0.1990 -0.2487
 8340SOL    HW136479   0.043   4.574   1.610 -1.1778  0.2625 -1.3545
 8340SOL    HW236480   0.092   4.675   1.705  1.9261  0.1924 -2.3497
 8341SOL     OW36481   4.417   2.619   9.513 -0.3282 -0.7602  0.6074
 8341SOL    HW136482   4.477   2.571   9.570 -0.0987 -0.2093  0.8229
 8341SOL    HW236483   4.374   2.674   9.579  0.5485  2.4917 -1.5375
 8342SOL     OW36484   3.902   0.022  15.768 -0.5296  0.5118 -0.4674
 8342SOL    HW136485   3.948   0.105  15.785  0.9523  0.4314 -4.1792
 8342SOL    HW236486   3.832   0.058  15.714 -1.1730  1.9426  1.3041
 8343SOL     OW36487   3.815   3.927  13.866 -0.2267 -0.2429 -0.8179
 8343SOL    HW136488   3.761   3.851  13.844 -2.2985  0.5137  1.7217
 8343SOL    HW236489   3.757   3.999  13.891  0.5082  0.2843 -0.6488
 8344SOL     OW36490   0.158   0.768   4.272  0.5982 -0.0397 -0.2709
 8344SOL    HW136491   0.072   0.795   4.240 -0.0391  0.4484  1.8633
 8344SOL    HW236492   0.207   0.851   4.273  1.8646 -0.7916  0.3085
 8345SOL     OW36493   1.910   1.118   4.821  0.7528  0.5940  0.2464
 8345SOL    HW136494   1.878   1.167   4.746  0.5061  0.9798  0.6046
 8345SOL    HW236495   1.829   1.077   4.853  0.1493  0.9135 -0.8776
 8346SOL     OW36496   3.300   3.212   6.511  0.5351 -0.3357 -0.4878
 8346SOL    HW136497   3.247   3.142   6.473  0.0390 -1.7634  2.9248
 8346SOL    HW236498   3.290   3.284   6.448  1.1811 -0.6661 -0.9737
 8347SOL     OW36499   3.092   3.711   6.142 -0.0288 -0.2401  0.3556
 8347SOL    HW136500   3.057   3.654   6.210  0.0964  0.3258  0.9057
 8347SOL    HW236501   3.101   3.648   6.071  1.6262  0.5701 -0.1515
 8348SOL     OW36502   3.385   1.117  13.147  0.8309 -0.5578 -0.3352
 8348SOL    HW136503   3.432   1.200  13.155  1.0465 -0.8876  1.7763
 8348SOL    HW236504   3.296   1.139  13.118  0.9638  1.5171  0.8463
 8349SOL     OW36505   1.740   4.474   5.074 -0.1981  0.1802  0.4186
 8349SOL    HW136506   1.795   4.519   5.138 -0.1487 -1.5641  1.6182
 8349SOL    HW236507   1.802   4.405   5.051  1.1159  1.1311  1.0911
 8350SOL     OW36508   1.870   2.537  11.460  0.0291 -0.0777 -0.5256
 8350SOL    HW136509   1.876   2.618  11.512  0.8332 -0.9872  0.7990
 8350SOL    HW236510   1.930   2.481  11.510 -2.1649 -1.5721  0.4278
 8351SOL     OW36511   4.032   1.035   6.191 -0.1518 -0.4177 -0.3294
 8351SOL    HW136512   4.106   0.981   6.217 -0.1187 -0.5117 -0.6280
 8351SOL    HW236513   4.076   1.095   6.130 -1.1120 -0.9123 -1.5004
 8352SOL     OW36514   0.510   1.495   1.109  0.3067 -0.7630  0.6547
 8352SOL    HW136515   0.585   1.443   1.079  1.4523  1.5196 -0.4865
 8352SOL    HW236516   0.548   1.583   1.110  0.6597 -0.8892 -1.9395
 8353SOL     OW36517   3.450   3.019   2.632  0.0952  0.6703  0.0451
 8353SOL    HW136518   3.435   3.022   2.726  0.6703 -2.6181  0.2526
 8353SOL    HW236519   3.545   3.016   2.635  0.0862  1.3403  0.8543
 8354SOL     OW36520   4.169   4.499   8.394  0.2924  0.2605  0.9587
 8354SOL    HW136521   4.230   4.560   8.352  0.1763 -2.0998 -2.6885
 8354SOL    HW236522   4.210   4.472   8.476  0.8988  2.4819  1.3971
 8355SOL     OW36523   3.438   4.385  14.901  0.4938 -0.2109  0.7334
 8355SOL    HW136524   3.515   4.330  14.916  0.4621  0.3481  3.0325
 8355SOL    HW236525   3.367   4.343  14.951  0.6995 -1.6385 -0.1560
 8356SOL     OW36526   3.241   0.525   2.653 -0.7508  0.2214  0.2917
 8356SOL    HW136527   3.260   0.615   2.677 -1.3676  1.2383 -2.9549
 8356SOL    HW236528   3.154   0.537   2.614 -0.4491  0.0623 -0.4359
 8357SOL     OW36529   3.275   4.480  15.960  0.3249 -0.0238  0.1913
 8357SOL    HW136530   3.292   4.563  16.004 -1.3616  0.7216 -0.5876
 8357SOL    HW236531   3.266   4.494  15.865 -3.0807  2.3627  0.9072
 8358SOL     OW36532   0.505   1.763   7.125 -0.0352 -0.2783  0.1923
 8358SOL    HW136533   0.524   1.770   7.219 -0.8397  2.9360  0.1150
 8358SOL    HW236534   0.454   1.842   7.110  2.5212  1.2422 -0.5140
 8359SOL     OW36535   0.483   1.816   2.245 -0.4546 -0.6156 -0.3924
 8359SOL    HW136536   0.537   1.809   2.324  0.0696  0.6296 -0.6423
 8359SOL    HW236537   0.507   1.736   2.197 -0.4142 -0.4938 -0.5770
 8360SOL     OW36538   3.153   4.247  16.775 -0.0426 -0.2508  0.1099
 8360SOL    HW136539   3.220   4.200  16.725 -0.3909 -1.4444  0.7817
 8360SOL    HW236540   3.153   4.216  16.865  2.0272 -0.0817  0.1673
 8361SOL     OW36541   2.958   3.972  11.908  0.1514 -0.1445 -0.2971
 8361SOL    HW136542   2.996   3.985  11.821  2.3252 -0.4318  0.6054
 8361SOL    HW236543   3.034   3.950  11.962 -1.9072  2.6251  3.6991
 8362SOL     OW36544   2.882   2.193   6.018  0.3087 -0.0624 -0.3331
 8362SOL    HW136545   2.864   2.199   6.112  3.0565  0.5358  0.1674
 8362SOL    HW236546   2.855   2.282   5.995 -1.1338 -1.1669 -2.7819
 8363SOL     OW36547   2.039   4.196   8.342  0.1264  0.6450 -0.1906
 8363SOL    HW136548   2.088   4.263   8.295 -1.0637 -0.4095 -2.8914
 8363SOL    HW236549   1.980   4.251   8.393  0.8357  0.8846  0.3865
 8364SOL     OW36550   0.383   3.138   3.199 -0.1860 -0.5327 -0.3773
 8364SOL    HW136551   0.359   3.097   3.117  1.6378  0.6588 -1.4956
 8364SOL    HW236552   0.306   3.122   3.254  0.3124  0.1040  0.5211
 8365SOL     OW36553   2.864   2.375   1.499  0.1512  0.4969 -0.6061
 8365SOL    HW136554   2.922   2.393   1.573 -0.5797  0.5511 -0.0595
 8365SOL    HW236555   2.932   2.390   1.433  0.5071 -1.9120 -0.7850
 8366SOL     OW36556   4.519   0.165  13.396  0.0955  0.5072 -0.6169
 8366SOL    HW136557   4.595   0.174  13.339  1.0603  0.9578  0.7571
 8366SOL    HW236558   4.453   0.162  13.326 -1.1538 -0.8426  0.6169
 8367SOL     OW36559   2.296   1.501  10.892  0.0503  0.4850  1.2840
 8367SOL    HW136560   2.286   1.466  10.804 -0.7356  0.9952  1.1695
 8367SOL    HW236561   2.211   1.539  10.914  0.1828  0.6308  1.5475
 8368SOL     OW36562   0.572   1.281  15.610  0.1546 -0.0508  0.3227
 8368SOL    HW136563   0.554   1.234  15.528  1.3911  1.1798 -0.6744
 8368SOL    HW236564   0.515   1.249  15.680 -2.0928  2.2260 -0.4505
 8369SOL     OW36565   2.055   1.755   3.816 -0.0365  0.3546 -0.8290
 8369SOL    HW136566   2.120   1.786   3.753  1.0507 -0.8275 -0.2717
 8369SOL    HW236567   2.111   1.706   3.876 -0.6155  0.3609 -0.2855
 8370SOL     OW36568   3.429   3.185  10.757  0.0346 -0.6255 -0.1599
 8370SOL    HW136569   3.368   3.204  10.829 -0.3469  2.2445 -1.2572
 8370SOL    HW236570   3.370   3.216  10.688 -0.5278 -1.9284 -0.2791
 8371SOL     OW36571   2.074   1.839   2.677 -0.1773  0.2349  0.0423
 8371SOL    HW136572   2.136   1.771   2.651 -1.8182 -0.9815 -0.6760
 8371SOL    HW236573   1.998   1.784   2.695 -0.3008  0.7181  1.0335
 8372SOL     OW36574   2.382   1.275   1.827  0.0607 -0.7261  0.0614
 8372SOL    HW136575   2.290   1.252   1.818  0.2179 -0.4148 -2.2475
 8372SOL    HW236576   2.387   1.367   1.801  3.9446 -1.0943 -0.5277
 8373SOL     OW36577   1.760   4.627   4.041 -0.6394 -0.2688 -0.1509
 8373SOL    HW136578   1.734   4.571   4.113  0.8765  0.0208  0.6202
 8373SOL    HW236579   1.790   4.709   4.082  1.3226 -1.4326  0.7417
 8374SOL     OW36580   4.717   4.544   0.643  0.2410 -0.1857 -0.3280
 8374SOL    HW136581   4.685   4.586   0.564  0.8657  1.0373  0.0699
 8374SOL    HW236582   4.666   4.463   0.641  0.7670 -0.5759  1.8841
 8375SOL     OW36583   2.701   0.299   1.834  0.5433  0.4537 -0.6589
 8375SOL    HW136584   2.787   0.268   1.806  1.0456  1.0868  0.1643
 8375SOL    HW236585   2.705   0.308   1.929 -0.5381  1.2534 -0.6877
 8376SOL     OW36586   4.282   2.597  10.023 -0.2983 -0.1434  0.5835
 8376SOL    HW136587   4.374   2.623  10.012 -1.0255  1.9428 -0.7397
 8376SOL    HW236588   4.258   2.640  10.105  0.0705  1.8054 -0.3189
 8377SOL     OW36589   4.186   1.316   8.425  0.4611  0.1511 -0.1476
 8377SOL    HW136590   4.162   1.332   8.334 -1.0334  2.0558  0.5831
 8377SOL    HW236591   4.281   1.310   8.422  0.4425  0.0751 -0.5163
 8378SOL     OW36592   1.336   2.212  12.365 -0.4654 -0.2763 -0.0174
 8378SOL    HW136593   1.407   2.176  12.313 -2.3688  0.7173 -3.2827
 8378SOL    HW236594   1.261   2.218  12.306 -0.9510 -1.4599  0.4883
 8379SOL     OW36595   1.594   2.233  10.398  0.0396 -0.3055 -0.2110
 8379SOL    HW136596   1.524   2.280  10.354 -0.4290 -0.7240  0.0789
 8379SOL    HW236597   1.653   2.222  10.324 -1.0722  0.6789 -1.2328
 8380SOL     OW36598   2.626   1.456   3.290  0.4981  0.2552 -0.2549
 8380SOL    HW136599   2.543   1.472   3.334  0.2116 -0.8184 -0.3902
 8380SOL    HW236600   2.609   1.494   3.204  0.0222 -1.0372 -0.7391
 8381SOL     OW36601   3.563   4.572   9.834 -0.1995  0.2354  0.2983
 8381SOL    HW136602   3.517   4.519   9.769 -0.3004 -1.2027  1.5390
 8381SOL    HW236603   3.656   4.581   9.816 -0.2172  1.2480  0.6678
 8382SOL     OW36604   3.594   0.514   3.540  0.6185 -0.4099  0.2753
 8382SOL    HW136605   3.525   0.503   3.475  1.2992  1.4043 -0.7877
 8382SOL    HW236606   3.671   0.510   3.483  1.0379 -1.6053  0.9243
 8383SOL     OW36607   1.005   0.976   8.369 -0.7897  0.1898 -0.5022
 8383SOL    HW136608   1.043   1.064   8.374 -1.5300  0.5799 -1.6243
 8383SOL    HW236609   1.058   0.934   8.301  1.0511  0.0830  1.0245
 8384SOL     OW36610   2.343   0.557  14.680  0.0255 -0.6656  0.0623
 8384SOL    HW136611   2.258   0.577  14.720 -0.4352  0.1233 -1.2884
 8384SOL    HW236612   2.380   0.640  14.651 -1.7933 -0.4053 -1.5350
 8385SOL     OW36613   3.155   1.306  17.197  0.1443 -0.0253  0.3059
 8385SOL    HW136614   3.250   1.317  17.197  0.5372 -3.2841 -2.2333
 8385SOL    HW236615   3.125   1.326  17.285 -0.8522 -0.8718  0.1545
 8386SOL     OW36616   4.617   3.562   4.671  0.0944  0.0021 -0.5628
 8386SOL    HW136617   4.618   3.651   4.705  0.2758 -0.5580  0.9157
 8386SOL    HW236618   4.605   3.511   4.752  0.7256  2.1910  0.9061
 8387SOL     OW36619   2.493   0.078   8.565  0.3728  0.8005 -0.0414
 8387SOL    HW136620   2.419   0.018   8.569  0.0371  1.2215  0.0521
 8387SOL    HW236621   2.535   0.071   8.651 -0.0007  2.5294  0.2674
 8388SOL     OW36622   4.304   1.188  11.864  0.0973  0.0669 -0.3558
 8388SOL    HW136623   4.396   1.215  11.860 -0.2077  0.9023 -1.8091
 8388SOL    HW236624   4.315   1.103  11.823 -2.6623  0.2450 -1.4515
 8389SOL     OW36625   3.937   2.088  16.371  0.3165  0.0503 -0.7952
 8389SOL    HW136626   3.961   2.025  16.304  1.7969 -0.1805 -0.0346
 8389SOL    HW236627   3.844   2.092  16.349 -0.2897 -1.7928  1.3672
 8390SOL     OW36628   0.951   0.857   5.974  0.5694  0.4901  0.4094
 8390SOL    HW136629   0.999   0.940   5.983  0.0077  1.2098 -3.1316
 8390SOL    HW236630   0.998   0.812   5.904 -0.4931 -0.8629  0.5669
 8391SOL     OW36631   3.791   0.295  13.721 -0.8111  0.6649  0.1299
 8391SOL    HW136632   3.730   0.242  13.670 -1.9711  0.0824  2.1258
 8391SOL    HW236633   3.731   0.367  13.742  1.8763  2.0610  3.0294
 8392SOL     OW36634   2.713   0.040  16.817 -0.3497  0.2701  0.0507
 8392SOL    HW136635   2.649   0.081  16.875 -0.7049 -0.6227  0.2892
 8392SOL    HW236636   2.676   0.058  16.731  2.3474  1.7315 -0.8258
 8393SOL     OW36637   1.188   1.738  12.976 -0.0927 -0.2509  0.0916
 8393SOL    HW136638   1.275   1.768  13.002  0.1753 -5.2318  4.8942
 8393SOL    HW236639   1.145   1.727  13.060 -0.9944 -0.8182 -0.4490
 8394SOL     OW36640   0.765   0.273   2.350  0.7708  0.0087 -0.2309
 8394SOL    HW136641   0.766   0.192   2.299  1.2143 -1.1133  1.5283
 8394SOL    HW236642   0.725   0.246   2.432 -1.9423  0.3607 -1.4600
 8395SOL     OW36643   4.617   3.115   9.181  0.5175 -0.3557  0.4564
 8395SOL    HW136644   4.698   3.166   9.178 -0.5029  1.2041 -0.4598
 8395SOL    HW236645   4.604   3.119   9.087  0.3817  0.1542  0.4947
 8396SOL     OW36646   0.210   3.816   8.140  0.2131  0.5643 -0.4516
 8396SOL    HW136647   0.148   3.879   8.177 -0.2055 -0.0311 -0.1385
 8396SOL    HW236648   0.276   3.886   8.143 -1.8971  2.5662 -1.0716
 8397SOL     OW36649   1.555   0.575   9.407  0.1302 -0.4352  0.6464
 8397SOL    HW136650   1.573   0.615   9.493 -0.0375 -0.9595  0.9267
 8397SOL    HW236651   1.577   0.484   9.427  1.5180 -0.2994 -0.2864
 8398SOL     OW36652   2.797   0.313   3.312  0.6726  0.4731  0.0027
 8398SOL    HW136653   2.859   0.251   3.351 -1.3819 -0.5559  1.6140
 8398SOL    HW236654   2.831   0.330   3.224 -0.2695 -0.9609 -0.6549
 8399SOL     OW36655   2.815   0.522   4.837 -0.4664  0.2218  0.3243
 8399SOL    HW136656   2.852   0.490   4.754 -2.7018  1.9947 -1.3381
 8399SOL    HW236657   2.855   0.464   4.902 -0.1429 -0.4134 -0.4336
 8400SOL     OW36658   1.692   2.661   7.858  0.5274 -0.1211 -0.2189
 8400SOL    HW136659   1.784   2.640   7.843  1.1233  0.5908  2.4697
 8400SOL    HW236660   1.656   2.572   7.864  1.4683 -0.4972 -0.2395
 8401SOL     OW36661   2.755   1.739  16.605 -0.0300  0.2985  0.8395
 8401SOL    HW136662   2.674   1.701  16.570  0.6009  0.8486 -1.2004
 8401SOL    HW236663   2.813   1.663  16.597 -0.7792 -0.3180  1.1197
 8402SOL     OW36664   3.408   1.777   8.723 -0.0262  0.2108 -0.0998
 8402SOL    HW136665   3.343   1.810   8.785 -1.1491 -0.2360 -1.0371
 8402SOL    HW236666   3.438   1.864   8.695 -1.3001 -0.0803 -2.3438
 8403SOL     OW36667   4.671   1.916  16.200 -0.4649  0.2880  0.0585
 8403SOL    HW136668   4.646   1.986  16.260  0.4797 -1.4367  2.4584
 8403SOL    HW236669   4.681   1.961  16.116  3.0307 -0.7841 -0.1258
 8404SOL     OW36670   2.007   2.475   9.071 -0.3799  0.0551  0.6733
 8404SOL    HW136671   2.016   2.568   9.051 -1.1656 -0.3219 -1.4569
 8404SOL    HW236672   2.028   2.438   8.985  0.4316 -1.1316  1.3761
 8405SOL     OW36673   2.661   4.259   8.913 -0.0919  0.1450  0.2232
 8405SOL    HW136674   2.724   4.306   8.858 -1.7682  1.2783 -0.7138
 8405SOL    HW236675   2.598   4.331   8.924  0.3152  0.5279  0.0631
 8406SOL     OW36676   3.991   1.971   1.848 -0.3430 -0.8264  0.0895
 8406SOL    HW136677   4.006   1.995   1.939  1.0427  0.5687 -0.4972
 8406SOL    HW236678   4.080   1.954   1.819  0.0590  0.3912  0.6170
 8407SOL     OW36679   0.228   3.961   5.245  0.3320 -0.4651  0.0410
 8407SOL    HW136680   0.303   3.980   5.189 -0.2039 -0.2455 -0.5949
 8407SOL    HW236681   0.219   3.868   5.223 -0.9740 -0.9134  2.4422
 8408SOL     OW36682   1.534   4.342   7.885  0.6936 -0.1178 -0.1009
 8408SOL    HW136683   1.621   4.374   7.861 -0.2650  1.7935 -0.9833
 8408SOL    HW236684   1.506   4.406   7.950  1.1770  1.4446 -1.4569
 8409SOL     OW36685   4.430   0.325   4.361 -0.7725  0.4554  0.5753
 8409SOL    HW136686   4.336   0.338   4.372 -0.8742 -1.7926  2.4578
 8409SOL    HW236687   4.434   0.370   4.277  0.0556  0.9701  0.8988
 8410SOL     OW36688   3.985   2.243   0.769  0.2515 -0.5066  0.1113
 8410SOL    HW136689   4.051   2.312   0.757 -2.9041  2.6865  1.0979
 8410SOL    HW236690   4.042   2.168   0.748 -0.0489 -0.2518 -1.6188
 8411SOL     OW36691   3.320   2.783   1.323  0.2651  0.8325  0.0006
 8411SOL    HW136692   3.370   2.847   1.273  1.2802 -0.7523 -1.0302
 8411SOL    HW236693   3.315   2.828   1.407  0.8885 -0.5820  0.7891
 8412SOL     OW36694   3.313   3.227   3.932  0.3387 -0.2728 -0.3848
 8412SOL    HW136695   3.258   3.245   3.856 -0.1496 -1.0073 -0.2056
 8412SOL    HW236696   3.379   3.170   3.893  1.6860 -0.0864  1.5842
 8413SOL     OW36697   1.241   0.248   0.908  0.2797  0.1580  0.2833
 8413SOL    HW136698   1.169   0.306   0.885  1.2460  0.7304 -1.3133
 8413SOL    HW236699   1.229   0.239   1.003  1.2494  0.6119  0.4565
 8414SOL     OW36700   0.942   0.737   6.599 -0.6415  0.3857 -0.1889
 8414SOL    HW136701   0.951   0.646   6.628 -1.3633  0.0926 -0.8985
 8414SOL    HW236702   0.988   0.739   6.515 -2.8739  1.0543 -1.3878
 8415SOL     OW36703   1.332   0.289   2.690  0.1098  0.3824  0.2387
 8415SOL    HW136704   1.251   0.245   2.666  0.0413 -0.4379  2.0214
 8415SOL    HW236705   1.306   0.316   2.778 -0.8562 -1.0349  0.3878
 8416SOL     OW36706   0.442   0.007  12.401 -0.0362  0.3471 -0.0082
 8416SOL    HW136707   0.537   4.721  12.385 -0.2278 -0.3288 -0.8868
 8416SOL    HW236708   0.435   4.688  12.487  0.1384  0.6297  0.1353
 8417SOL     OW36709   1.347   3.339   2.886  0.0627  0.6505  0.1196
 8417SOL    HW136710   1.432   3.309   2.918  1.2490 -0.1903 -3.8359
 8417SOL    HW236711   1.362   3.341   2.792 -0.3401  2.1868  0.0845
 8418SOL     OW36712   1.105   2.632   6.045 -0.1478 -0.2486  0.5976
 8418SOL    HW136713   1.037   2.566   6.056  1.2141 -1.5238  1.4681
 8418SOL    HW236714   1.179   2.581   6.012  0.6478  1.2486  0.0702
 8419SOL     OW36715   3.994   0.135   6.266  0.2605  0.9487 -0.5825
 8419SOL    HW136716   4.056   0.179   6.208  1.7692 -1.7009 -0.9930
 8419SOL    HW236717   4.019   0.180   6.346 -0.5308  1.0103 -0.3678
 8420SOL     OW36718   1.598   1.506  10.481  0.7687  0.5205  1.2130
 8420SOL    HW136719   1.661   1.437  10.502 -0.9325 -1.9493 -1.8626
 8420SOL    HW236720   1.654   1.581  10.498 -0.6830  1.8789 -0.0105
 8421SOL     OW36721   3.062   3.413   5.484  0.0100 -0.1615  0.7678
 8421SOL    HW136722   3.082   3.350   5.553 -0.8775 -0.7839  0.4506
 8421SOL    HW236723   2.989   3.369   5.440 -0.0553  0.1618  0.5549
 8422SOL     OW36724   2.272   1.425  10.617 -0.1488 -0.4022 -0.6717
 8422SOL    HW136725   2.311   1.364  10.555  2.5751 -0.1541  0.8352
 8422SOL    HW236726   2.305   1.511  10.590  0.2327 -0.0928  0.7708
 8423SOL     OW36727   3.715   1.540   7.406  0.7421 -0.1517  0.5291
 8423SOL    HW136728   3.720   1.626   7.364 -3.7625 -0.6761 -1.1016
 8423SOL    HW236729   3.749   1.482   7.338 -0.9899 -0.4739 -0.0793
 8424SOL     OW36730   0.263   1.138   8.668  0.1566  0.2159 -0.1695
 8424SOL    HW136731   0.328   1.072   8.695 -0.2396 -0.3692 -0.6405
 8424SOL    HW236732   0.196   1.072   8.647 -1.1804  1.2160  0.9698
 8425SOL     OW36733   1.394   4.488   5.794 -0.0929  0.1832 -0.2391
 8425SOL    HW136734   1.351   4.450   5.870  0.6264  1.6514  0.8910
 8425SOL    HW236735   1.373   4.581   5.804 -0.0493  0.2749 -0.9902
 8426SOL     OW36736   0.965   3.427  15.262  0.0077 -0.0978  0.4523
 8426SOL    HW136737   0.981   3.514  15.225  1.6877 -1.8605 -2.9117
 8426SOL    HW236738   0.881   3.418  15.307 -0.2659 -0.8574 -0.2013
 8427SOL     OW36739   1.320   4.716   5.947  0.2697  0.0175 -0.0902
 8427SOL    HW136740   1.231   0.031   5.943 -0.0216 -0.8274 -1.4206
 8427SOL    HW236741   1.370   0.056   5.893 -1.0757  0.2170 -1.1045
 8428SOL     OW36742   4.182   1.620  15.334  0.0396  0.1374  0.1551
 8428SOL    HW136743   4.096   1.609  15.293  0.6640  1.2754 -1.4421
 8428SOL    HW236744   4.202   1.541  15.384  2.5599  1.7103  1.6121
 8429SOL     OW36745   0.095   4.114   3.977  0.6898 -0.3049 -0.8619
 8429SOL    HW136746   0.166   4.062   4.016 -1.2266 -1.6691  0.8056
 8429SOL    HW236747   0.026   4.108   4.043  1.7004 -0.3742  0.1962
 8430SOL     OW36748   1.398   1.467   4.928 -0.1723  0.0769 -0.4460
 8430SOL    HW136749   1.455   1.533   4.968 -0.1973 -0.5649  0.6456
 8430SOL    HW236750   1.461   1.406   4.890  0.7353  1.1881 -0.7443
 8431SOL     OW36751   2.580   4.479  14.947 -0.0314 -0.0640 -0.4987
 8431SOL    HW136752   2.513   4.411  14.936 -0.3410 -0.0772  1.3324
 8431SOL    HW236753   2.643   4.439  14.888 -0.9194 -1.7814 -0.2892
 8432SOL     OW36754   3.333   1.456   2.444 -0.2384 -0.2438  0.1883
 8432SOL    HW136755   3.249   1.430   2.406  0.3408  0.3964 -1.5424
 8432SOL    HW236756   3.371   1.513   2.377  0.7008 -3.1271 -1.7475
 8433SOL     OW36757   3.983   1.937   4.742  0.8674 -0.2647 -0.3034
 8433SOL    HW136758   4.008   2.011   4.798 -2.1374  0.9891 -0.6204
 8433SOL    HW236759   3.911   1.976   4.692  1.5842  1.6687  0.1829
 8434SOL     OW36760   4.664   0.424  12.470  0.7546  0.6534 -0.2837
 8434SOL    HW136761   4.597   0.480  12.509 -0.5599 -2.0413  1.3142
 8434SOL    HW236762   4.641   0.446  12.379 -0.6613  3.3904  0.7291
 8435SOL     OW36763   1.843   3.501   3.819 -0.1528 -0.5212 -0.1619
 8435SOL    HW136764   1.772   3.451   3.777  0.2968  0.1603 -1.7348
 8435SOL    HW236765   1.814   3.591   3.805 -0.5271 -0.8491 -1.5593
 8436SOL     OW36766   4.053   3.316   5.894  0.6218 -0.1054  0.5596
 8436SOL    HW136767   4.138   3.312   5.852  1.0275  0.4182  1.3221
 8436SOL    HW236768   4.003   3.252   5.845 -1.4044  0.4923  1.8303
 8437SOL     OW36769   1.321   4.412  17.291  0.2089 -0.2621 -0.2200
 8437SOL    HW136770   1.308   4.406  17.386 -0.9051  0.9913 -0.3011
 8437SOL    HW236771   1.336   4.319  17.277  0.4237 -0.3974  0.8891
 8438SOL     OW36772   4.575   0.815   3.067 -0.3072 -0.3357 -0.7178
 8438SOL    HW136773   4.623   0.890   3.031 -4.4381  1.6268 -2.1812
 8438SOL    HW236774   4.526   0.774   2.996  1.3244  1.7333 -3.0417
 8439SOL     OW36775   4.059   0.392  16.741 -0.3916  0.0290 -0.0705
 8439SOL    HW136776   4.086   0.322  16.801 -0.9444  0.7145  0.9822
 8439SOL    HW236777   4.139   0.441  16.723 -0.9151  0.4216 -1.3214
 8440SOL     OW36778   1.730   1.308   5.738  0.4602 -0.5366  0.7035
 8440SOL    HW136779   1.717   1.256   5.659 -0.9805  1.7038 -0.5395
 8440SOL    HW236780   1.671   1.260   5.795 -1.4780  2.0966  0.9391
 8441SOL     OW36781   1.250   2.258   2.766 -0.7517 -0.1540 -0.7028
 8441SOL    HW136782   1.313   2.186   2.762 -0.6627 -0.2527  1.8719
 8441SOL    HW236783   1.255   2.294   2.678  1.9503  0.3334 -0.3573
 8442SOL     OW36784   3.209   2.076   9.710 -0.0985  0.0167  0.6772
 8442SOL    HW136785   3.289   2.088   9.658  0.4247 -0.0439  1.4527
 8442SOL    HW236786   3.248   2.041   9.791  0.9047  1.3959  0.7945
 8443SOL     OW36787   2.718   4.546  15.749 -0.0989  0.0363 -0.6424
 8443SOL    HW136788   2.712   4.618  15.811  1.6474 -0.8932  0.5909
 8443SOL    HW236789   2.812   4.531  15.742  0.0158  0.6863 -0.5306
 8444SOL     OW36790   1.886   3.433   4.910 -0.3566 -0.4921 -0.1541
 8444SOL    HW136791   1.917   3.426   4.820  1.0599  2.4340  0.0805
 8444SOL    HW236792   1.866   3.526   4.918 -0.8372 -0.8031  2.4308
 8445SOL     OW36793   4.218   3.359   1.747  0.2901  1.0273 -0.1876
 8445SOL    HW136794   4.191   3.435   1.696 -1.7116 -0.2011 -0.9513
 8445SOL    HW236795   4.289   3.317   1.700  1.9474  0.9580  2.3432
 8446SOL     OW36796   1.256   4.056   0.316 -0.3719 -0.6488 -0.1996
 8446SOL    HW136797   1.264   3.969   0.277  0.8577  0.8910 -3.3570
 8446SOL    HW236798   1.250   4.114   0.240 -2.1409 -0.6278 -0.0420
 8447SOL     OW36799   2.659   3.420   3.800 -0.4402  0.1370 -0.4075
 8447SOL    HW136800   2.600   3.410   3.725  0.3893  1.4259 -1.2314
 8447SOL    HW236801   2.650   3.327   3.821  1.0540  0.8265  3.3124
 8448SOL     OW36802   2.926   4.487   4.740 -0.5795 -0.0186 -0.9218
 8448SOL    HW136803   2.899   4.412   4.793  0.2264 -1.4384 -2.5446
 8448SOL    HW236804   2.846   4.519   4.698 -1.2055  0.4259  0.6041
 8449SOL     OW36805   1.475   0.870   6.302  0.2580  0.0274 -0.0361
 8449SOL    HW136806   1.501   0.850   6.212 -0.4444 -0.6723 -0.0934
 8449SOL    HW236807   1.383   0.885   6.279 -0.8009 -2.3531  2.5851
 8450SOL     OW36808   0.069   0.190  10.298 -0.1897  0.6101 -0.0162
 8450SOL    HW136809   0.086   0.224  10.210  2.1952  0.3478  0.3374
 8450SOL    HW236810   0.138   0.242  10.340  0.2428 -1.1041  1.3619
 8451SOL     OW36811   1.472   2.101   8.627  0.0964  0.2618 -0.5892
 8451SOL    HW136812   1.458   2.181   8.677 -2.9383 -1.7875  1.9090
 8451SOL    HW236813   1.556   2.078   8.666 -0.1724 -1.1008 -0.8022
 8452SOL     OW36814   1.336   0.732   1.259  0.0746 -0.2764 -0.2137
 8452SOL    HW136815   1.383   0.658   1.295  1.9664  0.2521 -1.6027
 8452SOL    HW236816   1.292   0.759   1.340  0.7742  3.6130 -1.0893
 8453SOL     OW36817   3.734   3.474   3.151  0.3340 -0.4866 -0.4494
 8453SOL    HW136818   3.750   3.430   3.234  1.5063 -1.9462 -1.4385
 8453SOL    HW236819   3.760   3.563   3.173  0.8284 -0.9486  0.8511
 8454SOL     OW36820   2.813   1.472   3.503 -0.4362 -0.4821 -0.1599
 8454SOL    HW136821   2.786   1.486   3.412  0.5117 -1.1044 -0.5304
 8454SOL    HW236822   2.739   1.520   3.541 -1.1747 -0.9771 -0.9542
 8455SOL     OW36823   2.723   1.989   7.966  0.1883 -0.1663  0.3104
 8455SOL    HW136824   2.792   1.966   7.903 -2.4428 -0.5621 -2.3979
 8455SOL    HW236825   2.657   2.015   7.902  0.3602 -1.5941 -0.4546
 8456SOL     OW36826   3.701   3.660   8.758  0.1542  0.0265  0.3162
 8456SOL    HW136827   3.703   3.665   8.853  2.2987 -0.7866  0.3127
 8456SOL    HW236828   3.607   3.650   8.743  0.5018 -1.5176 -0.7704
 8457SOL     OW36829   0.018   3.633  13.360 -0.3113  0.0070  0.5197
 8457SOL    HW136830   0.003   3.691  13.286  0.4245 -0.9329 -0.3670
 8457SOL    HW236831   4.655   3.587  13.354 -0.3525  0.1446  0.0524
 8458SOL     OW36832   0.232   2.616   1.040 -0.2125  0.1362  0.2523
 8458SOL    HW136833   0.161   2.578   0.988  0.1646 -0.8432  0.4560
 8458SOL    HW236834   0.309   2.562   1.025 -0.6942  0.2409 -2.6014
 8459SOL     OW36835   2.518   3.083  16.605  0.8091  0.1419  0.0684
 8459SOL    HW136836   2.531   3.004  16.553 -0.1710  0.7288 -1.0617
 8459SOL    HW236837   2.428   3.099  16.578  0.2115 -0.9417  1.4319
 8460SOL     OW36838   0.500   0.503   8.536 -0.6779  0.6863  0.4244
 8460SOL    HW136839   0.540   0.587   8.558 -1.0378  1.1651 -0.7488
 8460SOL    HW236840   0.475   0.513   8.444 -0.2977  0.4227  0.2929
 8461SOL     OW36841   2.536   1.306   4.435  0.3276 -0.1898 -0.2225
 8461SOL    HW136842   2.512   1.217   4.461  0.5974 -0.4395 -0.8203
 8461SOL    HW236843   2.632   1.305   4.437  0.3106  0.7611  1.2840
 8462SOL     OW36844   1.132   3.164  13.633 -0.0295 -0.1172  0.0464
 8462SOL    HW136845   1.210   3.211  13.661 -0.2848  0.5725 -0.3845
 8462SOL    HW236846   1.113   3.222  13.560 -0.0748  0.2538  0.3522
 8463SOL     OW36847   0.721   0.832   7.028  0.4373 -1.1215 -0.3822
 8463SOL    HW136848   0.781   0.831   7.103 -1.0177  0.2678  0.7975
 8463SOL    HW236849   0.741   0.918   6.992  1.3414 -1.7473 -1.3704
 8464SOL     OW36850   1.466   2.970   1.785  0.3896 -0.5954  0.0254
 8464SOL    HW136851   1.458   2.874   1.787  2.3509 -0.7322  0.8041
 8464SOL    HW236852   1.454   2.982   1.691  0.8789  0.9972  0.1765
 8465SOL     OW36853   3.530   3.034  13.623  0.3155  0.8786 -0.0097
 8465SOL    HW136854   3.569   3.070  13.703  1.4686 -0.9308  0.2294
 8465SOL    HW236855   3.532   3.112  13.567 -1.6803  0.1574 -1.0953
 8466SOL     OW36856   4.046   4.228   2.265 -0.6519  0.6775 -0.5410
 8466SOL    HW136857   4.066   4.268   2.350 -0.5438 -0.4343 -0.0463
 8466SOL    HW236858   4.046   4.302   2.204  3.8937 -0.2319 -1.6424
 8467SOL     OW36859   0.222   3.139   6.067 -0.4780 -0.0446  0.6207
 8467SOL    HW136860   0.316   3.131   6.085 -0.1772  2.0177 -0.0504
 8467SOL    HW236861   0.203   3.207   6.132 -1.8496 -1.2580  1.4984
 8468SOL     OW36862   1.002   2.960   3.777  0.2734  0.5216 -1.0813
 8468SOL    HW136863   1.043   2.989   3.859 -2.0690  2.8043 -0.7090
 8468SOL    HW236864   0.987   3.041   3.729 -1.1551  0.8995 -0.0093
 8469SOL     OW36865   3.838   4.337   8.874 -0.3859 -0.5983 -0.3759
 8469SOL    HW136866   3.756   4.326   8.923  1.1998 -1.6122  2.0512
 8469SOL    HW236867   3.891   4.360   8.951 -1.6267  1.9836 -0.2834
 8470SOL     OW36868   3.284   1.677   8.064 -0.1312  0.4137 -0.3663
 8470SOL    HW136869   3.237   1.659   8.145  0.8572  0.0221  0.1281
 8470SOL    HW236870   3.324   1.592   8.046 -0.2985 -0.7102  4.5586
 8471SOL     OW36871   3.423   1.976   4.637 -0.5320 -0.2718  0.6638
 8471SOL    HW136872   3.373   2.028   4.574  1.7494 -0.2214 -1.1193
 8471SOL    HW236873   3.455   2.050   4.690 -0.0766  0.1247 -0.1579
 8472SOL     OW36874   1.295   0.635  11.988  0.1988 -0.3121 -0.2411
 8472SOL    HW136875   1.201   0.623  11.997  0.1783 -0.4824 -0.6602
 8472SOL    HW236876   1.306   0.721  12.028 -0.5535 -0.3906  0.1233
 8473SOL     OW36877   0.715   1.864   2.852 -0.3137 -0.1312  0.5075
 8473SOL    HW136878   0.800   1.835   2.819  0.3208  0.6212  1.4920
 8473SOL    HW236879   0.712   1.798   2.922  0.0642 -0.8605 -0.1595
 8474SOL     OW36880   1.681   1.551   0.866  0.2507  0.0208 -0.4112
 8474SOL    HW136881   1.593   1.515   0.875  0.0868  0.4533 -0.2734
 8474SOL    HW236882   1.713   1.479   0.811 -0.8838 -1.6184  1.1011
 8475SOL     OW36883   0.871   1.001  11.636 -0.1312 -0.3350 -0.1001
 8475SOL    HW136884   0.779   0.976  11.626 -0.8064  1.5481  1.4129
 8475SOL    HW236885   0.895   0.997  11.729 -0.4854  0.6048  0.0379
 8476SOL     OW36886   0.900   1.800  10.489  0.3383 -0.2471  0.2586
 8476SOL    HW136887   0.934   1.784  10.401  2.2550 -1.9434  1.2983
 8476SOL    HW236888   0.970   1.857  10.522  1.6696 -2.1491  0.7089
 8477SOL     OW36889   3.443   0.760   4.970 -0.3324  0.1193  0.4771
 8477SOL    HW136890   3.398   0.809   5.039 -0.2189  0.3057  0.4175
 8477SOL    HW236891   3.496   0.823   4.921 -0.5349 -0.3660 -0.3720
 8478SOL     OW36892   3.870   2.491   0.543  0.0654  0.0462  0.0945
 8478SOL    HW136893   3.900   2.581   0.533  0.8518 -0.4559 -2.0856
 8478SOL    HW236894   3.806   2.504   0.613  1.4323  0.7434  1.2140
 8479SOL     OW36895   2.438   1.976   1.895  0.2083 -0.2274 -0.0681
 8479SOL    HW136896   2.422   1.882   1.904 -4.5007  0.7582  1.4820
 8479SOL    HW236897   2.439   2.002   1.987 -1.3178  1.3701 -0.5016
 8480SOL     OW36898   1.866   3.428  14.279  0.3282 -0.2011  0.3138
 8480SOL    HW136899   1.777   3.417  14.246  0.4646  0.4284 -0.2458
 8480SOL    HW236900   1.918   3.371  14.223 -1.7852 -1.2924 -0.5303
 8481SOL     OW36901   4.152   0.520  17.021 -0.5639  0.0211 -0.0439
 8481SOL    HW136902   4.179   0.604  16.983  1.0990 -1.1267 -1.4035
 8481SOL    HW236903   4.231   0.467  17.014  0.8813  2.2914 -0.7550
 8482SOL     OW36904   2.408   3.840   6.964 -0.6534  0.2706  0.2912
 8482SOL    HW136905   2.412   3.765   7.023 -0.2691  1.1353  1.3693
 8482SOL    HW236906   2.444   3.798   6.887 -1.4616  0.5278 -0.2238
 8483SOL     OW36907   1.407   2.573   2.499 -0.1846 -0.1801  0.2272
 8483SOL    HW136908   1.351   2.496   2.510 -0.1436 -0.2345  0.0454
 8483SOL    HW236909   1.425   2.572   2.405 -3.2206  0.4556 -0.3629
 8484SOL     OW36910   1.756   3.009   2.570  0.3469  0.2987 -0.4670
 8484SOL    HW136911   1.769   2.940   2.505  3.1378  0.3480  0.0367
 8484SOL    HW236912   1.849   3.026   2.583 -0.0779  2.6694 -0.5678
 8485SOL     OW36913   3.861   0.860   8.920  0.0379 -0.2611 -0.4806
 8485SOL    HW136914   3.805   0.935   8.940 -0.9033 -1.6562  2.1625
 8485SOL    HW236915   3.886   0.879   8.830 -0.5016  2.9148  0.0183
 8486SOL     OW36916   1.473   1.608  15.261  0.2431 -0.0761 -0.0585
 8486SOL    HW136917   1.537   1.538  15.249  0.3425 -0.3412  2.0265
 8486SOL    HW236918   1.527   1.684  15.282  1.9154 -0.8627 -1.5751
 8487SOL     OW36919   3.984   1.179   0.853  0.1121  0.4053 -0.4727
 8487SOL    HW136920   4.076   1.154   0.851  0.2378  0.6964  1.2030
 8487SOL    HW236921   3.940   1.103   0.814  1.9566 -1.6311  1.3768
 8488SOL     OW36922   1.433   4.399   7.461 -0.7451  0.3596  0.3637
 8488SOL    HW136923   1.354   4.371   7.415 -0.3623  0.5555 -0.4150
 8488SOL    HW236924   1.404   4.432   7.546 -1.7024 -0.1283  0.2308
 8489SOL     OW36925   0.638   0.714   2.652 -0.1646  0.5334  0.8533
 8489SOL    HW136926   0.654   0.753   2.565  2.1938 -0.4710  0.8334
 8489SOL    HW236927   0.549   0.745   2.667 -0.8229 -1.7590  1.5611
 8490SOL     OW36928   4.287   0.488   6.144  0.9422  0.3053 -0.5145
 8490SOL    HW136929   4.254   0.398   6.150  0.0345  0.6482 -0.3784
 8490SOL    HW236930   4.268   0.527   6.229 -1.3676  0.1326 -0.9531
 8491SOL     OW36931   0.670   4.411   6.452 -0.0325 -0.4072  0.4250
 8491SOL    HW136932   0.603   4.348   6.479 -1.3928 -0.1435 -2.3208
 8491SOL    HW236933   0.739   4.386   6.513 -1.0472  0.2271  1.8329
 8492SOL     OW36934   1.448   3.166  12.452 -0.0087  0.5937  0.1373
 8492SOL    HW136935   1.466   3.232  12.519 -0.2449  1.0326 -0.2308
 8492SOL    HW236936   1.516   3.185  12.388  1.2398 -0.3488  1.1920
 8493SOL     OW36937   0.187   0.397   7.797  0.2904  0.0848 -0.0584
 8493SOL    HW136938   0.176   0.405   7.702 -0.4305  0.3249  0.0481
 8493SOL    HW236939   0.093   0.410   7.810  0.3542 -0.9817  1.5203
 8494SOL     OW36940   1.782   4.512   8.665 -0.0117 -0.1861  0.4149
 8494SOL    HW136941   1.749   4.598   8.638 -2.0204 -0.5456  1.7031
 8494SOL    HW236942   1.750   4.524   8.754 -0.2850  0.3265  0.2474
 8495SOL     OW36943   4.448   2.981  17.468  0.2317 -0.0399 -0.3703
 8495SOL    HW136944   4.537   2.981  17.433  0.5356 -0.3524  0.3930
 8495SOL    HW236945   4.458   2.960  17.561 -0.7368 -3.2162 -1.0060
 8496SOL     OW36946   3.017   1.324   3.840  0.0164  0.1818 -0.2789
 8496SOL    HW136947   3.043   1.360   3.755  2.8458  1.7389  1.2569
 8496SOL    HW236948   2.952   1.259   3.813 -2.0107  1.9455  0.3379
 8497SOL     OW36949   4.340   4.134  11.440 -0.2958  0.2621 -0.3573
 8497SOL    HW136950   4.338   4.111  11.533 -2.1142  2.2532  0.0797
 8497SOL    HW236951   4.415   4.191  11.430 -0.9074  0.9446 -1.0761
 8498SOL     OW36952   3.745   3.605   0.717  0.0131  0.0401 -0.0847
 8498SOL    HW136953   3.710   3.546   0.650 -0.2486 -0.2160  0.2744
 8498SOL    HW236954   3.672   3.626   0.775 -1.6466 -2.2483 -1.3225
 8499SOL     OW36955   4.571   0.711   7.893  0.3945  0.5820 -0.4203
 8499SOL    HW136956   4.599   0.770   7.823  0.6959  0.7117 -0.1854
 8499SOL    HW236957   4.606   0.630   7.855 -0.0248 -0.0809  0.5958
 8500SOL     OW36958   4.240   4.167   9.222 -0.1575  0.1594  0.1533
 8500SOL    HW136959   4.295   4.109   9.274 -1.2643 -1.4478 -0.4809
 8500SOL    HW236960   4.308   4.200   9.162 -0.5714 -0.5309 -0.7060
 8501SOL     OW36961   1.394   1.044   0.565  0.3347  0.3649 -0.4202
 8501SOL    HW136962   1.358   1.008   0.647 -0.1907 -2.9715 -2.1030
 8501SOL    HW236963   1.460   0.977   0.549 -1.0290 -0.9486 -0.6237
 8502SOL     OW36964   4.643   3.387  16.449 -0.1077  0.3792 -0.5775
 8502SOL    HW136965   4.579   3.413  16.515  0.9729  2.8297 -0.4886
 8502SOL    HW236966   0.002   3.377  16.501 -0.2204 -0.6275 -0.5875
 8503SOL     OW36967   2.325   1.319   5.419 -0.5548 -0.2192 -0.0789
 8503SOL    HW136968   2.281   1.316   5.504 -1.5432 -0.7051 -0.6172
 8503SOL    HW236969   2.310   1.413   5.405 -1.2538 -0.2470  0.5092
 8504SOL     OW36970   3.425   0.285  15.821  0.0432 -0.1154  1.0521
 8504SOL    HW136971   3.444   0.265  15.729  2.0396  1.6203  1.0924
 8504SOL    HW236972   3.334   0.255  15.829  0.0945 -0.6959 -0.4136
 8505SOL     OW36973   3.782   2.069  10.029  0.2289 -0.4972  0.2332
 8505SOL    HW136974   3.868   2.103  10.004  0.0176 -0.8421 -0.9637
 8505SOL    HW236975   3.727   2.146  10.013 -0.4569 -0.5029  2.5484
 8506SOL     OW36976   4.510   1.130   9.068  0.3032 -0.0431 -0.4004
 8506SOL    HW136977   4.524   1.076   9.146 -0.1492 -0.1749 -0.4117
 8506SOL    HW236978   4.599   1.141   9.036  0.5382 -1.4065 -0.1898
 8507SOL     OW36979   0.561   3.881  10.058  0.1806  0.2541 -0.0064
 8507SOL    HW136980   0.629   3.844  10.114 -0.1079 -0.5632 -0.1814
 8507SOL    HW236981   0.602   3.888   9.971  1.5307  1.4159  0.7320
 8508SOL     OW36982   2.263   3.097   2.302 -0.1347 -0.4304 -0.0106
 8508SOL    HW136983   2.194   3.066   2.360 -0.4328  0.0897 -0.0803
 8508SOL    HW236984   2.214   3.151   2.239  1.1122 -0.6337 -1.1556
 8509SOL     OW36985   1.170   1.809   6.609  0.7391 -0.1613 -1.1225
 8509SOL    HW136986   1.077   1.831   6.611  0.7906 -0.4659  3.2916
 8509SOL    HW236987   1.201   1.899   6.597 -0.9220  0.7204  1.3963
 8510SOL     OW36988   0.374   1.559   8.114  0.0698 -0.6047  0.0060
 8510SOL    HW136989   0.456   1.531   8.155 -0.9231 -1.6125  1.3231
 8510SOL    HW236990   0.312   1.501   8.157 -0.9218 -0.7219 -1.6040
 8511SOL     OW36991   2.715   3.914   4.697  0.1167 -0.2036  0.1057
 8511SOL    HW136992   2.789   3.913   4.758  2.1548 -1.9886 -2.4411
 8511SOL    HW236993   2.737   3.992   4.645  1.0689 -0.3296  0.3229
 8512SOL     OW36994   2.571   1.893  11.057  0.1337  0.0577 -0.1405
 8512SOL    HW136995   2.649   1.910  11.003 -0.1258  2.2185  0.1627
 8512SOL    HW236996   2.607   1.876  11.144 -1.4504 -0.9427  0.3257
 8513SOL     OW36997   3.640   4.587  11.315 -0.1499  0.0453  0.3298
 8513SOL    HW136998   3.685   4.570  11.232 -1.3430 -0.9191 -0.1233
 8513SOL    HW236999   3.703   4.644  11.357 -1.3263  0.9610  0.8504
 8514SOL     OW37000   3.132   3.539   0.767  0.1995 -0.5253 -0.0485
 8514SOL    HW137001   3.161   3.575   0.683  0.8291  0.9554  0.8052
 8514SOL    HW237002   3.100   3.621   0.804  3.5066  0.1180  1.4476
 8515SOL     OW37003   3.520   2.973   2.050 -0.0937  0.1769  0.0776
 8515SOL    HW137004   3.498   3.046   2.108 -1.1543  1.0871 -1.4805
 8515SOL    HW237005   3.613   2.991   2.039 -0.1990 -0.2270 -1.5640
 8516SOL     OW37006   0.054   2.685   7.274  0.5313 -0.0791  0.2067
 8516SOL    HW137007   0.103   2.622   7.221  0.2602  0.0679 -0.2215
 8516SOL    HW237008   0.044   2.646   7.361  1.8008 -1.3531 -0.2244
 8517SOL     OW37009   4.431   2.015  17.293 -0.6894 -0.5841  0.4958
 8517SOL    HW137010   4.451   1.950  17.225  0.6468  2.0556 -1.6439
 8517SOL    HW237011   4.501   2.078  17.274  0.1930 -1.2985  1.3794
 8518SOL     OW37012   4.176   0.374   5.789  0.1777 -0.1538 -0.2751
 8518SOL    HW137013   4.114   0.440   5.758 -1.2997 -0.6224  1.7079
 8518SOL    HW237014   4.209   0.326   5.713  1.6005  0.6131 -0.1621
 8519SOL     OW37015   2.273   2.779  17.573 -0.2940 -0.3407 -0.4126
 8519SOL    HW137016   2.288   2.759  17.480  0.8472  0.5855 -0.4302
 8519SOL    HW237017   2.178   2.780  17.570 -0.3464  0.7686  1.7973
 8520SOL     OW37018   3.630   3.467   5.864  0.0265  0.5182  0.1139
 8520SOL    HW137019   3.624   3.376   5.834  0.9250  1.1873 -2.1352
 8520SOL    HW237020   3.633   3.512   5.779 -0.1886 -3.4420 -2.0029
 8521SOL     OW37021   0.822   4.366   7.451  0.0304 -0.1779  0.3263
 8521SOL    HW137022   0.814   4.302   7.381 -0.3160 -0.0287  0.2269
 8521SOL    HW237023   0.907   4.343   7.489  0.2572  0.9931  0.5454
 8522SOL     OW37024   1.578   0.459   3.211  0.0589 -0.2804  0.1634
 8522SOL    HW137025   1.568   0.538   3.265  0.6921 -1.1598  1.5629
 8522SOL    HW237026   1.553   0.401   3.283  0.1146  0.4734  0.7950
 8523SOL     OW37027   0.150   2.504   0.151  0.4791 -0.2536 -0.2380
 8523SOL    HW137028   0.068   2.506   0.103  0.7148 -2.6295 -0.7420
 8523SOL    HW237029   0.152   2.409   0.163  0.2924 -0.3478 -0.9758
 8524SOL     OW37030   0.804   1.953   7.065  0.1783 -0.1311 -0.4034
 8524SOL    HW137031   0.774   1.862   7.065  2.5148 -0.8899 -1.4232
 8524SOL    HW237032   0.749   1.990   7.134 -1.9531 -1.6066 -1.2893
 8525SOL     OW37033   0.449   0.853   8.568 -0.4829 -0.3094  0.0591
 8525SOL    HW137034   0.458   0.933   8.620  0.1258  0.6353 -1.5054
 8525SOL    HW237035   0.523   0.804   8.605  0.1210 -0.5529 -1.4441
 8526SOL     OW37036   2.194   2.233   8.545 -0.7484  0.1607  0.1652
 8526SOL    HW137037   2.104   2.203   8.558 -1.6035  2.6538  0.0087
 8526SOL    HW237038   2.231   2.216   8.632  0.1432  3.2863  0.3831
 8527SOL     OW37039   2.585   0.404  12.175 -0.4113  0.2511  0.1775
 8527SOL    HW137040   2.531   0.351  12.233  0.6674  1.0614  1.9142
 8527SOL    HW237041   2.514   0.438  12.121  1.9559  2.2436 -1.6654
 8528SOL     OW37042   2.124   4.437  11.134 -0.2620  0.0591  0.4200
 8528SOL    HW137043   2.149   4.526  11.107 -3.3377  0.1746 -2.0538
 8528SOL    HW237044   2.201   4.391  11.101  0.1195 -0.6593  2.3083
 8529SOL     OW37045   2.406   3.913  13.080 -0.2702 -0.2989 -0.0253
 8529SOL    HW137046   2.332   3.874  13.034  0.8061 -0.2951 -1.7784
 8529SOL    HW237047   2.423   3.982  13.017  1.1851  1.0560  1.8492
 8530SOL     OW37048   0.236   2.909   4.827 -0.0267 -0.2411  0.1500
 8530SOL    HW137049   0.317   2.895   4.778 -0.5148 -1.0738 -0.4120
 8530SOL    HW237050   0.246   3.003   4.842  1.0643 -0.1353 -1.2153
 8531SOL     OW37051   0.143   1.770  11.160 -0.2957  0.2467  0.7348
 8531SOL    HW137052   0.158   1.864  11.165 -0.9487  0.4375 -0.8011
 8531SOL    HW237053   0.134   1.759  11.065  1.2127  3.3627  0.2427
 8532SOL     OW37054   3.331   1.390  12.908 -0.3864  0.8016  0.6075
 8532SOL    HW137055   3.285   1.365  12.988 -1.1379 -0.5965 -0.2536
 8532SOL    HW237056   3.353   1.305  12.870 -1.0843  0.7981  0.2155
 8533SOL     OW37057   3.905   2.751   0.533  0.4266  0.3361  0.3160
 8533SOL    HW137058   3.911   2.832   0.483  2.3049  0.6932  1.1320
 8533SOL    HW237059   3.991   2.761   0.574 -0.4885  2.1592  1.7972
 8534SOL     OW37060   2.301   1.186   4.378 -0.0532 -0.9752 -1.1522
 8534SOL    HW137061   2.248   1.112   4.348 -1.5104 -0.2601 -0.3681
 8534SOL    HW237062   2.326   1.205   4.287 -0.5391  1.7328 -0.7272
 8535SOL     OW37063   2.514   1.485   2.573  0.1442 -0.5068 -0.4172
 8535SOL    HW137064   2.581   1.456   2.635  0.9043  1.4713 -0.3133
 8535SOL    HW237065   2.499   1.399   2.535  0.2055 -0.0317 -1.5113
 8536SOL     OW37066   0.422   2.268   8.535  0.6175 -0.3718  0.6875
 8536SOL    HW137067   0.432   2.278   8.441  0.8890 -2.1595  0.5212
 8536SOL    HW237068   0.444   2.359   8.555 -1.0296 -0.0466  1.0371
 8537SOL     OW37069   1.477   0.756   3.260 -0.6004 -0.1811  0.3834
 8537SOL    HW137070   1.531   0.738   3.183 -0.1706  0.7807  0.4639
 8537SOL    HW237071   1.486   0.851   3.264 -0.0478 -0.3236  2.2245
 8538SOL     OW37072   0.836   2.104   5.120 -0.7002 -0.1856 -0.1103
 8538SOL    HW137073   0.778   2.171   5.084 -0.5569  0.2150  0.4093
 8538SOL    HW237074   0.882   2.079   5.040 -0.0424 -0.4673  0.3596
 8539SOL     OW37075   0.143   3.573   4.526 -0.0361  0.5103  0.2168
 8539SOL    HW137076   0.076   3.542   4.587  0.0430  1.0135  0.5575
 8539SOL    HW237077   0.214   3.547   4.585 -0.1673  0.6930  0.4568
 8540SOL     OW37078   0.730   0.802   2.422  0.1234  0.5670  0.0651
 8540SOL    HW137079   0.697   0.891   2.436  0.9360  1.0838 -1.2681
 8540SOL    HW237080   0.777   0.821   2.341 -0.3435  1.0521 -0.0919
 8541SOL     OW37081   3.356   0.557   5.647 -0.4642 -0.2005  0.1415
 8541SOL    HW137082   3.361   0.651   5.633 -0.1949 -0.4107 -1.1314
 8541SOL    HW237083   3.326   0.553   5.738  1.0304  3.4406  0.7972
 8542SOL     OW37084   0.912   2.057   8.535 -0.5835  0.2771  0.1408
 8542SOL    HW137085   0.956   2.105   8.605 -0.7594  1.0127 -0.2527
 8542SOL    HW237086   0.978   2.015   8.481 -0.0298  0.9107  0.3325
 8543SOL     OW37087   2.047   3.027   8.942 -0.1565  0.0670  0.4937
 8543SOL    HW137088   2.035   3.052   9.033  0.8011 -2.2478  1.2366
 8543SOL    HW237089   2.130   2.981   8.948  0.6505  1.7472  2.2078
 8544SOL     OW37090   4.321   2.801   5.085  0.2211 -0.0698  0.4768
 8544SOL    HW137091   4.372   2.872   5.046 -1.2736  0.1211 -1.1153
 8544SOL    HW237092   4.352   2.724   5.037  0.8177  0.8520 -0.6133
 8545SOL     OW37093   4.062   3.127   8.845  0.9698 -0.0146  0.0771
 8545SOL    HW137094   4.019   3.152   8.926  1.4346 -2.4324  1.0756
 8545SOL    HW237095   4.154   3.143   8.870  1.8619 -1.9496 -1.9699
 8546SOL     OW37096   3.332   3.118   3.390  0.0229 -0.3931  0.5010
 8546SOL    HW137097   3.289   3.114   3.475 -1.6174 -1.2038 -0.3500
 8546SOL    HW237098   3.354   3.211   3.389 -0.0614 -0.3525  3.6677
 8547SOL     OW37099   0.635   0.863   3.676  0.9300 -0.0687  0.0781
 8547SOL    HW137100   0.555   0.814   3.661  0.0371  1.2234  0.6814
 8547SOL    HW237101   0.650   0.890   3.585  0.0805  2.2213  0.6176
 8548SOL     OW37102   3.144   2.022   3.887 -0.5031  0.1593 -0.5771
 8548SOL    HW137103   3.212   1.961   3.860  0.1149 -0.1014  1.5290
 8548SOL    HW237104   3.070   1.961   3.883 -1.2780  0.9325  1.5773
 8549SOL     OW37105   4.355   3.484   3.957 -0.3085  0.6065 -0.4139
 8549SOL    HW137106   4.442   3.466   3.922 -0.6925  1.3785 -1.7680
 8549SOL    HW237107   4.303   3.419   3.911 -0.4666  0.0207  0.5895
 8550SOL     OW37108   3.106   2.153   5.078 -0.1580  0.1960 -0.3278
 8550SOL    HW137109   3.156   2.097   5.137  2.6491  0.7600 -2.2020
 8550SOL    HW237110   3.022   2.156   5.125 -0.4850 -0.8365 -0.8345
 8551SOL     OW37111   0.476   0.399   5.426  0.0765  0.3992  0.2203
 8551SOL    HW137112   0.538   0.418   5.496  0.0581  0.2407  0.2791
 8551SOL    HW237113   0.517   0.322   5.386  1.7232  0.9508  0.8466
 8552SOL     OW37114   2.570   1.796   3.641 -0.2395  0.1212  0.2436
 8552SOL    HW137115   2.555   1.828   3.552 -0.2193  1.4273  0.7092
 8552SOL    HW237116   2.661   1.771   3.629  0.6910  3.2134  0.9365
 8553SOL     OW37117   0.618   3.100  10.216 -0.0456  0.1997  0.4472
 8553SOL    HW137118   0.676   3.034  10.179  1.2853  0.5602  1.8682
 8553SOL    HW237119   0.684   3.159  10.254 -1.0878  0.8457  1.2516
 8554SOL     OW37120   0.597   1.239   7.997  0.6360 -0.3139 -0.1435
 8554SOL    HW137121   0.568   1.228   8.088 -0.4906  1.0784 -0.3306
 8554SOL    HW237122   0.519   1.266   7.950  0.5732 -2.3976 -1.2171
 8555SOL     OW37123   2.861   2.592   7.458  0.2684  0.4133 -0.7855
 8555SOL    HW137124   2.782   2.642   7.476  1.2698  1.6670  0.1585
 8555SOL    HW237125   2.872   2.548   7.542 -2.8318  2.2710  0.5420
 8556SOL     OW37126   0.699   3.247   7.986  0.3098 -0.6798  0.1191
 8556SOL    HW137127   0.724   3.272   8.075 -1.5312  1.7700 -0.0625
 8556SOL    HW237128   0.788   3.215   7.973 -0.7111 -3.8410  0.9824
 8557SOL     OW37129   1.001   2.495   4.205 -0.1553 -0.0976  0.1338
 8557SOL    HW137130   1.049   2.543   4.138 -0.4470 -2.4599 -1.7472
 8557SOL    HW237131   0.958   2.567   4.253 -0.8014 -1.5232  1.7016
 8558SOL     OW37132   1.335   4.220   2.563 -0.1890  0.6276  0.1251
 8558SOL    HW137133   1.272   4.247   2.630  1.9260  2.5716  1.3332
 8558SOL    HW237134   1.388   4.296   2.541 -0.1874  0.4829 -0.3638
 8559SOL     OW37135   4.250   2.112   4.285 -0.2030 -0.7105  0.5097
 8559SOL    HW137136   4.187   2.133   4.354 -1.6020 -0.8967 -0.7073
 8559SOL    HW237137   4.214   2.023   4.277  0.5047 -0.9878  0.4339
 8560SOL     OW37138   2.557   1.565   1.208  0.1448 -0.4080  0.2842
 8560SOL    HW137139   2.564   1.491   1.269  0.7385  1.3762  2.3905
 8560SOL    HW237140   2.528   1.522   1.127  0.4503 -0.2619  0.0995
 8561SOL     OW37141   2.912   0.727  12.210 -0.1683 -0.1837 -0.0225
 8561SOL    HW137142   2.904   0.640  12.248 -0.8247 -0.7514 -1.4643
 8561SOL    HW237143   2.842   0.723  12.145 -0.7286  2.6900  0.3950
 8562SOL     OW37144   4.005   4.428   5.382  0.5399 -0.7182 -0.2398
 8562SOL    HW137145   3.942   4.463   5.318  0.0017 -3.2497 -1.0815
 8562SOL    HW237146   4.058   4.507   5.396 -0.7621  0.6169 -2.8142
 8563SOL     OW37147   2.555   3.975   5.485 -0.1325 -0.1714 -0.3640
 8563SOL    HW137148   2.633   3.921   5.469 -0.5534 -0.3670 -1.7628
 8563SOL    HW237149   2.589   4.064   5.494  0.9115 -0.8678  2.6936
 8564SOL     OW37150   4.520   1.503   1.890  0.1483 -0.6298 -0.1500
 8564SOL    HW137151   4.544   1.411   1.880 -0.3051 -0.5622 -1.8847
 8564SOL    HW237152   4.459   1.481   1.961  2.6809  0.9773  2.5231
 8565SOL     OW37153   4.359   3.592   1.301 -0.0028  0.0468  0.1976
 8565SOL    HW137154   4.445   3.552   1.286  0.5179  0.9795  0.6906
 8565SOL    HW237155   4.313   3.590   1.217 -0.1353 -1.6637  0.2951
 8566SOL     OW37156   3.843   0.730   4.592  0.1651  0.4714  0.1676
 8566SOL    HW137157   3.769   0.677   4.623 -1.9024  2.1604 -1.8903
 8566SOL    HW237158   3.848   0.789   4.668 -2.8047 -0.6221  1.2126
 8567SOL     OW37159   1.745   0.280  13.952  0.3418  0.2467 -0.6552
 8567SOL    HW137160   1.743   0.198  14.001 -1.7223  0.1182 -0.9357
 8567SOL    HW237161   1.653   0.288  13.927  0.1370  0.1708  0.0656
 8568SOL     OW37162   1.710   4.501   5.953 -0.0264 -0.4701  0.1384
 8568SOL    HW137163   1.655   4.450   5.893 -1.2092  0.3550  0.5159
 8568SOL    HW237164   1.669   4.585   5.933 -1.6639 -1.3962 -0.4194
 8569SOL     OW37165   2.731   0.153   4.170  0.5108  0.3698 -0.1504
 8569SOL    HW137166   2.726   0.248   4.177  0.4663  0.1119  3.0584
 8569SOL    HW237167   2.672   0.137   4.243  0.5043 -1.1777 -0.4859
 8570SOL     OW37168   1.994   0.544   2.443  0.6340  0.3433 -0.2408
 8570SOL    HW137169   1.933   0.602   2.396 -0.1991 -0.4231 -0.0906
 8570SOL    HW237170   2.006   0.593   2.525  3.5803  0.2388 -0.6167
 8571SOL     OW37171   2.912   0.045   6.146  0.0015 -0.6038 -0.8908
 8571SOL    HW137172   2.912   0.064   6.053  3.7418 -1.4177 -1.0779
 8571SOL    HW237173   3.000   0.078   6.163 -0.1380 -1.2208  1.0488
 8572SOL     OW37174   3.849   2.697   7.938  0.1258  0.1337  0.3619
 8572SOL    HW137175   3.911   2.689   8.010  1.0092 -0.9770 -0.5288
 8572SOL    HW237176   3.771   2.672   7.988 -0.2473  3.0659  1.2405
 8573SOL     OW37177   3.465   2.923  17.657 -0.3338  0.3157 -0.2828
 8573SOL    HW137178   3.501   2.999   0.015 -0.9437 -1.3464  3.0351
 8573SOL    HW237179   3.484   2.858   0.038 -2.2952 -0.0726 -0.1198
 8574SOL     OW37180   4.041   3.358   7.884 -0.1653 -0.1623  0.3705
 8574SOL    HW137181   4.033   3.442   7.839 -1.4102 -0.2047  0.5144
 8574SOL    HW237182   3.949   3.336   7.900  0.4848 -2.0992  1.4291
 8575SOL     OW37183   4.118   2.064   2.843  0.2589  0.6290 -0.4089
 8575SOL    HW137184   4.204   2.075   2.883 -0.9601  2.2321  1.7313
 8575SOL    HW237185   4.120   1.971   2.821  1.6595  0.0767  2.0569
 8576SOL     OW37186   2.128   2.179   3.693  0.2572 -0.2291  0.1109
 8576SOL    HW137187   2.115   2.241   3.622  1.9851  0.3951  0.3476
 8576SOL    HW237188   2.184   2.231   3.752  0.4365 -2.6579  2.0933
 8577SOL     OW37189   2.887   0.119  13.668 -0.3238  0.3515  0.4742
 8577SOL    HW137190   2.901   0.200  13.718 -0.3362  1.3690 -1.1890
 8577SOL    HW237191   2.975   0.081  13.661 -0.9963 -0.8620 -1.3998
 8578SOL     OW37192   4.553   2.426   5.174 -0.0959  0.1401  0.0946
 8578SOL    HW137193   4.584   2.508   5.137 -0.6823  2.1244  3.9416
 8578SOL    HW237194   4.634   2.382   5.200  0.2981  1.8236  1.7390
 8579SOL     OW37195   2.194   4.213   0.371 -0.2429 -0.2998 -0.0500
 8579SOL    HW137196   2.200   4.137   0.313 -0.9815 -0.9240  0.6940
 8579SOL    HW237197   2.287   4.226   0.390 -0.4189 -0.1250  0.6939
 8580SOL     OW37198   1.704   2.780  15.112 -0.2832 -0.2223  0.4109
 8580SOL    HW137199   1.743   2.711  15.058  1.8431  0.3653  1.1791
 8580SOL    HW237200   1.618   2.783  15.070  0.5059  0.3267 -1.1792
 8581SOL     OW37201   3.731   3.771   1.832  0.4865  0.2782  0.3252
 8581SOL    HW137202   3.766   3.845   1.881  1.8418 -0.5785  0.6343
 8581SOL    HW237203   3.799   3.756   1.766  0.6532 -0.6946  0.7147
 8582SOL     OW37204   0.715   0.088   4.467  0.5396 -0.2251 -0.3554
 8582SOL    HW137205   0.783   0.106   4.532 -1.3555  0.5675  1.4015
 8582SOL    HW237206   0.676   0.175   4.460 -0.9370 -0.7327  1.5655
 8583SOL     OW37207   3.780   3.581   6.078  0.3175 -0.0341 -0.5821
 8583SOL    HW137208   3.697   3.554   6.040 -0.1548  1.2202 -0.4135
 8583SOL    HW237209   3.830   3.584   5.996 -0.4083  0.6788 -0.9919
 8584SOL     OW37210   3.764   1.789   9.923  0.3667  0.4153  0.0463
 8584SOL    HW137211   3.782   1.819   9.834  0.0893 -0.5256 -0.3250
 8584SOL    HW237212   3.772   1.871   9.971  0.4414 -0.7079  1.9756
 8585SOL     OW37213   1.237   0.073   9.425  0.0273 -0.1970  0.4602
 8585SOL    HW137214   1.169   0.133   9.394 -0.4396 -1.2501 -0.5651
 8585SOL    HW237215   1.216   0.077   9.519  1.2774  1.8125  0.6455
 8586SOL     OW37216   3.883   3.454   5.350 -0.8853 -0.2881  0.7447
 8586SOL    HW137217   3.946   3.418   5.287 -1.4464 -2.1683  1.2513
 8586SOL    HW237218   3.848   3.524   5.295 -0.7365 -1.7372 -1.1925
 8587SOL     OW37219   1.858   2.817   5.691 -0.4978 -0.2756 -0.1356
 8587SOL    HW137220   1.931   2.859   5.736 -0.0082 -0.9966 -0.2439
 8587SOL    HW237221   1.797   2.891   5.693 -1.2326 -0.9006  0.7647
 8588SOL     OW37222   3.306   2.962   8.531 -0.2463 -0.2171  0.5885
 8588SOL    HW137223   3.376   2.996   8.586  0.8186 -0.4801 -0.6170
 8588SOL    HW237224   3.247   2.940   8.604  0.4833 -1.2901  0.8447
 8589SOL     OW37225   2.062   2.899  12.095 -0.2301 -0.2194 -0.0080
 8589SOL    HW137226   2.021   2.883  12.180 -2.1665  0.5819 -0.7847
 8589SOL    HW237227   1.990   2.866  12.041  1.2592 -2.6047 -0.5149
 8590SOL     OW37228   2.401   1.107   2.309  0.0260  0.2156  0.1651
 8590SOL    HW137229   2.391   1.192   2.267  0.8173  1.0957  1.7299
 8590SOL    HW237230   2.310   1.093   2.336 -0.6337  1.0486 -1.6344
 8591SOL     OW37231   1.258   3.817   0.174 -0.2416 -0.6026 -0.0381
 8591SOL    HW137232   1.351   3.814   0.151 -0.2033 -0.5549  0.1139
 8591SOL    HW237233   1.237   3.739   0.122 -0.8420  0.1170 -0.8770
 8592SOL     OW37234   3.211   0.002   5.130 -0.1695 -0.1586  0.2493
 8592SOL    HW137235   3.205   4.630   5.152 -0.4486 -0.2193 -0.0793
 8592SOL    HW237236   3.128   0.006   5.083 -0.2602  1.8176  0.5902
 8593SOL     OW37237   3.093   2.553   3.554 -0.1728  0.4418  0.3969
 8593SOL    HW137238   3.079   2.458   3.548  2.0615  0.0991  0.5993
 8593SOL    HW237239   3.111   2.571   3.646  0.0808  0.7070  0.2957
 8594SOL     OW37240   0.846   0.837   2.170 -0.6944 -0.1960  0.2523
 8594SOL    HW137241   0.918   0.893   2.142  0.7349 -2.2977 -0.2660
 8594SOL    HW237242   0.847   0.788   2.087 -1.1140  0.3242 -0.0606
 8595SOL     OW37243   0.354   4.223   4.620 -0.1319  0.0557 -0.2821
 8595SOL    HW137244   0.320   4.184   4.539 -1.5629  0.1568  0.2681
 8595SOL    HW237245   0.395   4.295   4.572 -0.0239  0.6765  0.7413
 8596SOL     OW37246   1.945   3.476   7.335  0.0187  0.0384  0.6411
 8596SOL    HW137247   1.883   3.547   7.319  0.6314 -0.4023 -3.8832
 8596SOL    HW237248   2.019   3.536   7.345 -0.3312  0.4555  0.7345
 8597SOL     OW37249   4.649   2.361   6.962  0.0204 -0.2749 -0.0436
 8597SOL    HW137250   4.678   2.300   6.895 -0.3508 -1.1117  0.5558
 8597SOL    HW237251   4.578   2.401   6.911  0.4264 -1.3003 -1.4103
 8598SOL     OW37252   1.157   0.410   0.655 -0.6009 -0.5541  0.3803
 8598SOL    HW137253   1.105   0.397   0.734 -3.2427 -1.6882 -1.5280
 8598SOL    HW237254   1.175   0.503   0.665  1.3932 -1.1439  2.3160
 8599SOL     OW37255   3.337   4.687   7.637  0.3900  0.2128  0.4240
 8599SOL    HW137256   3.264   0.025   7.653  0.8266  1.1847 -1.1477
 8599SOL    HW237257   3.295   4.604   7.660 -0.3846 -0.6211 -4.0354
 8600SOL     OW37258   0.842   0.847   7.547  0.3193 -0.5962 -0.2649
 8600SOL    HW137259   0.919   0.818   7.498  0.1688 -1.1054 -0.1987
 8600SOL    HW237260   0.880   0.871   7.631 -1.6116 -0.3124  0.5315
 8601SOL     OW37261   0.597   3.734   5.248 -0.0044  0.0383 -0.3750
 8601SOL    HW137262   0.505   3.710   5.238  0.1081 -0.7011  0.3384
 8601SOL    HW237263   0.617   3.668   5.315  1.5773  0.1742 -0.7141
 8602SOL     OW37264   1.858   0.555   6.571  0.5460  0.1326  0.2238
 8602SOL    HW137265   1.927   0.525   6.630  0.4740 -0.1030  0.1889
 8602SOL    HW237266   1.896   0.642   6.559  0.4284  0.3401  1.3008
 8603SOL     OW37267   1.470   0.739   5.480 -0.2553 -0.3163  0.0307
 8603SOL    HW137268   1.401   0.676   5.502 -0.0905 -0.3717  0.3917
 8603SOL    HW237269   1.461   0.800   5.554 -1.4550  0.0099 -0.3708
 8604SOL     OW37270   3.326   2.876   8.110  0.0136 -0.0297 -0.1694
 8604SOL    HW137271   3.400   2.921   8.152  1.2436 -0.7442 -1.5784
 8604SOL    HW237272   3.254   2.914   8.160 -0.6388 -0.5745 -0.7068
 8605SOL     OW37273   3.279   4.143   3.160 -0.0582  0.4471 -0.1293
 8605SOL    HW137274   3.238   4.198   3.093 -0.8604  1.9623  1.5990
 8605SOL    HW237275   3.325   4.206   3.214  3.5694 -2.7989  0.5516
 8606SOL     OW37276   1.258   0.079   8.448 -0.3277 -0.3867  0.5723
 8606SOL    HW137277   1.331   0.113   8.500 -0.1264  0.1204 -0.0501
 8606SOL    HW237278   1.312   0.046   8.377 -0.4986  0.0632  0.2346
 8607SOL     OW37279   4.423   3.123  15.714  0.3939 -0.2190  0.3514
 8607SOL    HW137280   4.429   3.181  15.638 -0.2227  1.6554  1.7417
 8607SOL    HW237281   4.497   3.069  15.687  1.9322  1.9617  0.1434
 8608SOL     OW37282   3.477   0.877  13.019 -0.1310  1.0311 -0.2380
 8608SOL    HW137283   3.560   0.859  13.063  0.1739  0.6960 -0.9356
 8608SOL    HW237284   3.455   0.957  13.066 -2.3651 -0.6958  1.6095
 8609SOL     OW37285   2.723   4.706   7.504 -0.2134  0.0093  0.4284
 8609SOL    HW137286   2.640   4.719   7.458  0.4671  1.1865 -0.4362
 8609SOL    HW237287   2.719   4.611   7.514  0.7453 -0.2643 -1.7961
 8610SOL     OW37288   3.656   0.605   8.846  0.6006  0.1745  0.0316
 8610SOL    HW137289   3.637   0.652   8.927 -0.0197  0.5596 -0.3395
 8610SOL    HW237290   3.739   0.562   8.866 -0.1064 -0.6701  1.1341
 8611SOL     OW37291   2.490   2.553   7.656  0.0483  0.1569  0.4232
 8611SOL    HW137292   2.558   2.614   7.628  3.2071 -3.6307 -0.0314
 8611SOL    HW237293   2.418   2.614   7.672 -0.9029 -0.7150 -0.5332
 8612SOL     OW37294   1.102   0.180  14.444  0.0895  0.8334  0.1568
 8612SOL    HW137295   1.079   0.112  14.381  0.3261  0.1042  0.8585
 8612SOL    HW237296   1.057   0.258  14.412  0.9331  1.2835  0.0734
 8613SOL     OW37297   2.637   1.023  14.694  0.3351  0.0997  0.4821
 8613SOL    HW137298   2.668   0.950  14.748 -1.0225 -0.9080 -0.0816
 8613SOL    HW237299   2.619   0.981  14.609  1.8439 -0.1701  0.3094
 8614SOL     OW37300   4.034   3.893   3.276 -0.3640 -0.3547  0.2749
 8614SOL    HW137301   4.039   3.972   3.329  1.1115  0.4205 -1.0244
 8614SOL    HW237302   4.068   3.828   3.338 -0.8991 -1.4733 -0.5888
 8615SOL     OW37303   2.715   1.749   6.806  0.2140 -0.3209  0.2656
 8615SOL    HW137304   2.803   1.744   6.768  0.5231 -1.9500  1.2251
 8615SOL    HW237305   2.724   1.678   6.870 -0.1093  0.3706  1.0798
 8616SOL     OW37306   4.016   1.364   1.038  0.1143 -0.2530 -0.1285
 8616SOL    HW137307   3.996   1.308   0.963 -2.0817  1.3140 -0.7132
 8616SOL    HW237308   4.033   1.292   1.099  1.8346 -1.2104 -1.6966
 8617SOL     OW37309   0.354   1.712   7.500  0.6371  0.9364 -0.1404
 8617SOL    HW137310   0.343   1.621   7.473 -0.6347  1.3486 -0.9809
 8617SOL    HW237311   0.287   1.709   7.569  0.7663 -1.2250 -0.1086
 8618SOL     OW37312   1.072   2.294   9.574  0.3116  0.1476 -0.6162
 8618SOL    HW137313   1.078   2.359   9.504 -1.7562  1.8754  0.7757
 8618SOL    HW237314   1.048   2.215   9.526 -0.3845 -0.7331  1.1648
 8619SOL     OW37315   3.325   1.258   4.286 -0.1946 -0.3370  0.2040
 8619SOL    HW137316   3.305   1.315   4.360  1.1059  0.5319 -0.1184
 8619SOL    HW237317   3.243   1.266   4.237 -0.7618  2.7000  1.6717
 8620SOL     OW37318   4.000   2.349   5.350  0.7992  0.1751  0.5448
 8620SOL    HW137319   4.087   2.352   5.310 -0.4429  1.1781 -2.0628
 8620SOL    HW237320   4.015   2.367   5.443 -1.1309 -0.4292  0.9790
 8621SOL     OW37321   2.936   4.262  13.912  0.1975  0.8028 -0.0255
 8621SOL    HW137322   2.924   4.274  14.006 -0.4206  1.3225 -0.1697
 8621SOL    HW237323   3.024   4.297  13.894  0.6877 -0.4983 -0.1776
 8622SOL     OW37324   1.707   0.261   6.064  0.1727  0.2217 -0.2648
 8622SOL    HW137325   1.770   0.319   6.108  2.3688 -2.0520 -0.4289
 8622SOL    HW237326   1.726   0.270   5.971 -0.4762  0.8639 -0.3328
 8623SOL     OW37327   3.606   3.290   0.746  0.6108 -0.5454 -0.8340
 8623SOL    HW137328   3.561   3.375   0.748  0.8746 -0.4244 -0.3153
 8623SOL    HW237329   3.670   3.320   0.681  1.1747 -1.7493 -0.8319
 8624SOL     OW37330   2.779   2.351  13.823 -0.2953 -0.0516 -0.0616
 8624SOL    HW137331   2.869   2.360  13.793  0.2524 -0.8188  1.3037
 8624SOL    HW237332   2.719   2.332  13.750  0.6362 -3.0725 -0.0630
 8625SOL     OW37333   4.012   2.173   9.374 -0.1787  0.1916 -0.3871
 8625SOL    HW137334   3.931   2.125   9.393  0.5446 -0.4541  1.0088
 8625SOL    HW237335   3.981   2.256   9.339 -0.5634 -0.0168 -0.5411
 8626SOL     OW37336   0.140   1.934   3.066 -0.5084  0.3177  0.3573
 8626SOL    HW137337   0.183   1.849   3.057 -0.0835  0.5716  0.0137
 8626SOL    HW237338   0.204   1.991   3.023  0.3158 -0.7929  0.1110
 8627SOL     OW37339   2.841   3.637   3.771 -0.6126  0.6965 -0.5121
 8627SOL    HW137340   2.772   3.572   3.780 -0.0173  0.4765  2.4755
 8627SOL    HW237341   2.795   3.716   3.801  0.4681  0.2907  2.2796
 8628SOL     OW37342   3.224   2.880   5.147 -0.6769 -0.1384 -0.7476
 8628SOL    HW137343   3.148   2.931   5.173 -0.1467 -0.3530  1.2132
 8628SOL    HW237344   3.179   2.824   5.084 -2.3058  1.8717 -1.3927
 8629SOL     OW37345   2.858   0.186   2.327  0.1812 -0.2367  0.8492
 8629SOL    HW137346   2.856   0.244   2.403  1.5660 -1.0715  1.5357
 8629SOL    HW237347   2.948   0.188   2.295  0.6885  1.7420  2.4199
 8630SOL     OW37348   0.501   0.874   5.549 -0.3920  0.2287  0.5105
 8630SOL    HW137349   0.438   0.815   5.590 -0.7148  0.4798  0.3739
 8630SOL    HW237350   0.473   0.870   5.457 -1.5029 -1.6828  0.9272
 8631SOL     OW37351   0.109   4.124  10.709  0.6731  0.0108  0.0262
 8631SOL    HW137352   0.143   4.195  10.764 -0.0993  0.4945 -0.1224
 8631SOL    HW237353   0.097   4.167  10.624 -0.6982 -0.7264 -0.1516
 8632SOL     OW37354   3.991   0.689   2.728  0.2170 -0.6483  0.1621
 8632SOL    HW137355   4.080   0.669   2.757  0.3255 -0.6369 -0.1650
 8632SOL    HW237356   3.956   0.605   2.699 -0.5783 -0.4333  0.5106
 8633SOL     OW37357   4.325   4.046   6.628 -0.6016 -0.5830  0.6691
 8633SOL    HW137358   4.346   3.998   6.708 -1.6829  0.6836  1.7130
 8633SOL    HW237359   4.231   4.056   6.644 -0.4643 -0.3538  1.3587
 8634SOL     OW37360   1.316   1.617  17.659  0.3318 -0.4610 -0.0419
 8634SOL    HW137361   1.293   1.685   0.036 -0.1664  0.3777 -1.1197
 8634SOL    HW237362   1.354   1.678  17.595 -1.1064  1.0878  0.5836
 8635SOL     OW37363   2.066   1.433  16.991 -0.2304  0.4494 -0.2949
 8635SOL    HW137364   2.036   1.426  16.901  0.2583 -0.3882 -0.3969
 8635SOL    HW237365   1.992   1.412  17.049  0.7648 -1.0048  0.4319
 8636SOL     OW37366   0.883   2.935   3.395  0.3789  0.2191 -0.6172
 8636SOL    HW137367   0.823   2.863   3.381  1.0073 -0.5520  0.5911
 8636SOL    HW237368   0.952   2.889   3.443  0.1510  1.6550  1.0814
 8637SOL     OW37369   0.241   4.128   5.462  0.0241 -0.2654  0.3934
 8637SOL    HW137370   0.256   4.073   5.385 -0.9917 -1.4287  1.0312
 8637SOL    HW237371   0.304   4.199   5.451 -0.1391 -0.1326  0.3092
 8638SOL     OW37372   1.212   0.813   1.494  0.3702  0.1053  0.0405
 8638SOL    HW137373   1.234   0.882   1.557  1.1625  0.1622 -0.3098
 8638SOL    HW237374   1.151   0.767   1.553  0.3672 -1.0620 -0.8709
 8639SOL     OW37375   3.641   3.517   4.762 -0.2909 -0.1523  0.3621
 8639SOL    HW137376   3.723   3.540   4.804 -0.1578 -1.7470  0.9947
 8639SOL    HW237377   3.628   3.423   4.775  0.6925 -0.0805  1.8166
 8640SOL     OW37378   3.290   0.147  16.725  0.2159  0.3249  0.5811
 8640SOL    HW137379   3.267   0.220  16.783 -1.5836 -0.7562  1.2483
 8640SOL    HW237380   3.245   0.174  16.645  0.6691  1.6140  0.7528
 8641SOL     OW37381   4.355   1.146   1.612  0.5655 -0.1005 -0.2249
 8641SOL    HW137382   4.357   1.242   1.610  0.8984 -0.1291 -1.0153
 8641SOL    HW237383   4.339   1.121   1.521 -0.4865 -1.2847  0.2749
 8642SOL     OW37384   4.237   3.157   0.738 -0.0519  0.4018 -0.0752
 8642SOL    HW137385   4.324   3.134   0.772 -0.1254  0.1943 -0.0269
 8642SOL    HW237386   4.247   3.248   0.711 -1.5460  1.0514  1.5831
 8643SOL     OW37387   0.878   0.699   1.938 -0.0037  0.3386 -0.0894
 8643SOL    HW137388   0.916   0.611   1.931 -1.3496 -0.0320 -2.4158
 8643SOL    HW237389   0.810   0.693   1.871  0.9462 -0.8647 -0.9389
 8644SOL     OW37390   2.291   1.509   9.370  0.0006 -0.0464  0.2696
 8644SOL    HW137391   2.288   1.416   9.351 -1.6217 -0.3705  2.1117
 8644SOL    HW237392   2.242   1.517   9.452 -0.8356  2.3243 -0.4641
 8645SOL     OW37393   4.181   0.965  13.163 -0.1747 -0.8724  0.1282
 8645SOL    HW137394   4.235   0.887  13.173  0.4250 -0.6778 -1.5556
 8645SOL    HW237395   4.109   0.944  13.223 -0.5241 -1.0091 -0.3456
 8646SOL     OW37396   0.810   2.102   6.235  0.2763 -0.3576  0.1791
 8646SOL    HW137397   0.848   2.172   6.287 -1.0916  0.9284 -0.5578
 8646SOL    HW237398   0.716   2.118   6.231  0.4593  0.8051  0.4777
 8647SOL     OW37399   4.703   1.272   8.865 -0.1541 -0.0558  0.2364
 8647SOL    HW137400   4.628   1.315   8.825 -0.0294 -0.1300 -0.0718
 8647SOL    HW237401   4.713   1.194   8.811 -1.8272  1.1560 -1.7962
 8648SOL     OW37402   4.212   3.564  11.854 -0.0983 -0.1567  0.3794
 8648SOL    HW137403   4.224   3.470  11.865  2.0146  0.4557  3.2275
 8648SOL    HW237404   4.297   3.588  11.817  0.4709 -1.6563  0.7467
 8649SOL     OW37405   3.904   1.753   3.020 -0.2757 -0.4033  0.3725
 8649SOL    HW137406   3.818   1.718   3.042  0.2411 -1.5448  0.6000
 8649SOL    HW237407   3.953   1.729   3.099 -2.0590 -2.8756  0.7189
 8650SOL     OW37408   1.881   1.369  11.122 -0.0110 -0.6051  0.0097
 8650SOL    HW137409   1.909   1.288  11.078 -0.7825 -1.1085  0.4444
 8650SOL    HW237410   1.819   1.330  11.183  1.1322 -0.5024  1.2385
 8651SOL     OW37411   1.924   3.682   3.409 -0.1082  0.4989 -0.1463
 8651SOL    HW137412   1.931   3.614   3.476 -1.8326  0.0899 -0.3920
 8651SOL    HW237413   1.989   3.646   3.349 -0.1513 -2.2814  1.4735
 8652SOL     OW37414   2.428   0.233   5.521  0.4912  0.3552 -0.2271
 8652SOL    HW137415   2.400   0.237   5.613  1.5328 -1.4440  0.1586
 8652SOL    HW237416   2.384   0.311   5.487 -0.5950 -0.7333 -1.3219
 8653SOL     OW37417   1.869   1.792   1.460 -0.1118  0.3128  0.6348
 8653SOL    HW137418   1.961   1.783   1.482  0.3698  0.4276 -1.2919
 8653SOL    HW237419   1.840   1.786   1.551 -0.3831  3.0324  0.7388
 8654SOL     OW37420   4.095   1.318   1.501  0.0824 -0.2629  0.4606
 8654SOL    HW137421   4.175   1.368   1.518 -0.1052  0.2772 -0.2872
 8654SOL    HW237422   4.108   1.258   1.575 -1.7869 -0.9070  0.2723
 8655SOL     OW37423   0.957   3.690  13.314 -0.1759 -0.8765  0.1429
 8655SOL    HW137424   0.912   3.771  13.291 -1.5281 -1.7050 -0.1492
 8655SOL    HW237425   0.958   3.699  13.410  1.2097  0.0921  0.0264
 8656SOL     OW37426   2.833   0.645   5.312 -0.1665  0.5479 -0.3304
 8656SOL    HW137427   2.927   0.634   5.294  0.1116  1.5400  0.5417
 8656SOL    HW237428   2.798   0.557   5.296 -0.8948  0.9049 -0.6707
 8657SOL     OW37429   3.204   4.607  15.734 -0.0044 -0.3437 -0.5465
 8657SOL    HW137430   3.236   4.594  15.644 -0.0509 -0.5903 -0.5277
 8657SOL    HW237431   3.191   4.701  15.722  1.2611 -0.5251 -3.2504
 8658SOL     OW37432   4.495   1.678   4.894  0.0893  0.4332 -0.3531
 8658SOL    HW137433   4.525   1.768   4.878  2.0291 -0.0867  0.4048
 8658SOL    HW237434   4.409   1.696   4.933  0.0061  0.3539 -0.5019
 8659SOL     OW37435   1.571   1.838   4.938  0.3187  0.3505 -0.1338
 8659SOL    HW137436   1.546   1.767   4.878  1.2681 -1.4082  1.5753
 8659SOL    HW237437   1.616   1.907   4.890  0.0937  1.4728  1.2644
 8660SOL     OW37438   1.430   0.053   1.418 -0.1982 -0.3321 -0.2578
 8660SOL    HW137439   1.507   0.030   1.367 -2.5946 -2.7752 -2.8368
 8660SOL    HW237440   1.446   0.006   1.499  1.4677 -1.0346 -1.0119
 8661SOL     OW37441   0.291   4.359   8.273  0.4432 -0.1188 -0.2810
 8661SOL    HW137442   0.239   4.282   8.249  0.9343 -0.1315 -1.2908
 8661SOL    HW237443   0.246   4.383   8.354  0.2438 -2.1084  0.1893
 8662SOL     OW37444   1.776   1.800  14.363 -0.0630 -0.6504  0.0889
 8662SOL    HW137445   1.753   1.707  14.361 -2.8325  0.0282  1.0334
 8662SOL    HW237446   1.725   1.819  14.442 -1.4572 -2.6616 -0.3334
 8663SOL     OW37447   2.561   2.801   6.584 -0.0795 -0.8105  0.1944
 8663SOL    HW137448   2.605   2.738   6.642  1.9981  0.7927  0.3596
 8663SOL    HW237449   2.543   2.879   6.637 -0.3606 -0.6364 -0.1652
 8664SOL     OW37450   3.793   4.229   9.899 -0.9226 -0.4248 -0.1493
 8664SOL    HW137451   3.865   4.236   9.836 -1.2062  0.9050 -0.3076
 8664SOL    HW237452   3.845   4.261   9.972 -0.0018  0.9746 -1.4181
 8665SOL     OW37453   1.574   0.771  17.333 -0.1751 -0.8846 -0.3138
 8665SOL    HW137454   1.576   0.677  17.317 -3.1421 -0.8407 -1.0163
 8665SOL    HW237455   1.503   0.777  17.397 -1.6550  0.2214 -2.0428
 8666SOL     OW37456   1.008   3.731   5.941  0.3778 -0.4827  0.2468
 8666SOL    HW137457   1.065   3.715   6.016  1.5210 -0.1772 -0.5664
 8666SOL    HW237458   0.944   3.796   5.971 -0.6201 -0.8455 -1.1036
 8667SOL     OW37459   3.367   2.981   3.790 -0.1535 -0.7288 -0.2019
 8667SOL    HW137460   3.413   2.904   3.756  0.6058 -0.5364  0.3856
 8667SOL    HW237461   3.304   3.006   3.722  0.9480  2.1215 -0.1848
 8668SOL     OW37462   4.160   3.568   7.590  0.4253  0.2639  0.4688
 8668SOL    HW137463   4.114   3.600   7.667 -2.7137 -2.8598 -0.1332
 8668SOL    HW237464   4.092   3.506   7.565  1.6909 -1.2001  0.7037
 8669SOL     OW37465   3.496   3.265   7.645 -0.1173 -0.2214  0.3160
 8669SOL    HW137466   3.555   3.293   7.715  3.4194 -1.5495 -2.0941
 8669SOL    HW237467   3.436   3.227   7.708  0.2254  0.3368  0.9761
 8670SOL     OW37468   3.790   0.551   7.960  0.9651  0.0455  0.8147
 8670SOL    HW137469   3.863   0.515   7.909  1.0268 -0.2815  1.1319
 8670SOL    HW237470   3.736   0.472   7.961  1.4078 -0.2713 -0.1633
 8671SOL     OW37471   2.871   0.779   9.259 -0.3747 -0.0681 -0.4010
 8671SOL    HW137472   2.778   0.756   9.259 -1.1896  3.2153  2.2922
 8671SOL    HW237473   2.898   0.756   9.348 -1.2652  0.0982 -0.0912
 8672SOL     OW37474   3.112   1.063   8.706  0.2252  0.5819  0.5720
 8672SOL    HW137475   3.094   0.987   8.651 -1.0215  1.9938 -0.9745
 8672SOL    HW237476   3.067   1.041   8.788 -1.8510 -1.5338 -1.1445
 8673SOL     OW37477   1.860   4.012   5.890  0.0252  0.6377  0.0305
 8673SOL    HW137478   1.786   4.064   5.922 -0.1049  1.1280 -1.0731
 8673SOL    HW237479   1.880   4.070   5.816 -0.7869  2.8446  1.5353
 8674SOL     OW37480   2.105   3.713   4.112  0.0695 -0.4623  0.0704
 8674SOL    HW137481   2.053   3.707   4.192 -0.4576  3.2650  0.0233
 8674SOL    HW237482   2.197   3.727   4.135  0.3251  0.4576 -1.4750
 8675SOL     OW37483   4.643   4.098   1.647 -0.3153 -0.2529  0.3716
 8675SOL    HW137484   0.017   4.084   1.647 -0.3251 -0.3519 -2.0771
 8675SOL    HW237485   4.610   4.017   1.608 -0.3663 -0.2004  0.3042
 8676SOL     OW37486   1.619   0.038   7.082 -0.0358 -0.2318  0.0670
 8676SOL    HW137487   1.651   4.708   7.008 -3.0211 -1.3983 -0.4181
 8676SOL    HW237488   1.532   4.720   7.094  0.9829 -2.3907  0.5704
 8677SOL     OW37489   3.142   1.945   1.729 -0.5253  0.6687 -0.0029
 8677SOL    HW137490   3.049   1.967   1.718 -1.0545 -0.4545  2.1635
 8677SOL    HW237491   3.161   1.922   1.638 -0.6974  0.8012 -0.0736
 8678SOL     OW37492   3.610   4.692  16.445  0.6707  0.1003 -0.2244
 8678SOL    HW137493   3.648   0.013  16.522  0.7018  0.4791 -0.4487
 8678SOL    HW237494   3.669   0.004  16.378 -1.9611 -0.9198 -3.0183
 8679SOL     OW37495   2.074   0.102   1.736  0.4647  0.2367 -0.0477
 8679SOL    HW137496   2.152   0.058   1.772  1.5901  2.4591  0.2458
 8679SOL    HW237497   2.066   0.041   1.662 -1.2311  0.3087  0.0855
 8680SOL     OW37498   0.690   0.025   2.710 -0.4300  0.1794 -0.3060
 8680SOL    HW137499   0.772   0.021   2.661  0.1291 -2.0882  0.7894
 8680SOL    HW237500   0.631   4.699   2.652 -0.6195  0.1073 -0.0546
 8681SOL     OW37501   3.601   1.592   1.918 -0.2958  0.0570  0.0411
 8681SOL    HW137502   3.592   1.496   1.915  0.5997 -0.0449  0.5027
 8681SOL    HW237503   3.615   1.610   2.011  0.6978  0.1967 -0.1396
 8682SOL     OW37504   3.506   2.610   7.673  0.2181  0.1772  0.2551
 8682SOL    HW137505   3.469   2.622   7.761  1.8028  1.4003  0.7625
 8682SOL    HW237506   3.585   2.663   7.677 -0.4044  1.0692  0.8521
 8683SOL     OW37507   3.793   0.671   3.878 -0.1236  0.2317  0.1021
 8683SOL    HW137508   3.801   0.576   3.870 -1.0925  0.0559  1.1053
 8683SOL    HW237509   3.831   0.696   3.794 -2.7194 -0.3067 -1.2178
 8684SOL     OW37510   1.288   1.138   1.402 -0.1513 -0.3909 -0.0680
 8684SOL    HW137511   1.384   1.139   1.399 -0.1492 -2.0788 -0.3228
 8684SOL    HW237512   1.269   1.122   1.494 -1.5266  0.6761 -0.1676
 8685SOL     OW37513   3.675   0.793   6.151 -0.7196  0.3356 -0.0923
 8685SOL    HW137514   3.733   0.725   6.116  1.1178  1.5761  0.5150
 8685SOL    HW237515   3.592   0.746   6.147 -0.5745  0.1697 -1.1526
 8686SOL     OW37516   1.298   0.760   2.625  0.3773  0.3242  0.2352
 8686SOL    HW137517   1.366   0.822   2.599  0.5076  0.0918  0.0102
 8686SOL    HW237518   1.351   0.734   2.700  1.3233 -1.5194 -1.0590
 8687SOL     OW37519   3.294   3.229  13.242 -0.1368  0.3901  0.4133
 8687SOL    HW137520   3.345   3.309  13.254  1.6177  0.0343 -4.4658
 8687SOL    HW237521   3.260   3.201  13.327 -1.9399  0.3126 -0.3437
 8688SOL     OW37522   0.730   2.047  17.204  0.4532  0.1080 -0.1316
 8688SOL    HW137523   0.702   1.967  17.249  2.3165  1.5786  3.6229
 8688SOL    HW237524   0.718   2.115  17.270  0.0888 -1.4875  1.4419
 8689SOL     OW37525   4.269   2.345   8.620 -0.5953  0.1171 -0.4156
 8689SOL    HW137526   4.273   2.439   8.637 -2.2016  0.4350 -1.7718
 8689SOL    HW237527   4.329   2.345   8.545  0.7527  2.2823  0.6731
 8690SOL     OW37528   1.796   2.108   0.632 -0.2046  0.1200  0.0374
 8690SOL    HW137529   1.701   2.108   0.639 -0.2970  2.5438 -1.2832
 8690SOL    HW237530   1.822   2.196   0.656 -1.8558  0.2257  1.4204
 8691SOL     OW37531   2.808   1.294   4.435  0.2500 -0.7790  0.2794
 8691SOL    HW137532   2.848   1.239   4.502  0.2024 -1.1205  0.0241
 8691SOL    HW237533   2.876   1.279   4.369  0.9104  1.3135  0.4674
 8692SOL     OW37534   4.336   3.544  13.238  0.1043 -0.1682 -0.1636
 8692SOL    HW137535   4.253   3.552  13.284  0.7286  0.4507  0.8443
 8692SOL    HW237536   4.299   3.589  13.162 -2.5136 -1.1052  0.5602
 8693SOL     OW37537   0.662   3.785   6.305 -0.0768 -0.4643  0.6046
 8693SOL    HW137538   0.597   3.846   6.272  0.5813 -0.2548 -0.3276
 8693SOL    HW237539   0.713   3.770   6.225  0.0166 -1.2935  0.8183
 8694SOL     OW37540   4.402   4.494   4.341  0.1163  0.6111  0.1776
 8694SOL    HW137541   4.454   4.476   4.420  0.6887  0.2503 -0.2868
 8694SOL    HW237542   4.468   4.464   4.279 -0.6282 -2.4776  0.8721
 8695SOL     OW37543   1.733   0.696   5.090 -0.8014 -0.2632  0.4159
 8695SOL    HW137544   1.711   0.774   5.140  1.0052 -0.3515  1.3586
 8695SOL    HW237545   1.770   0.644   5.162  1.1883 -0.1029 -0.4805
 8696SOL     OW37546   1.791   2.528   5.356 -0.0425 -0.3019 -0.0302
 8696SOL    HW137547   1.860   2.582   5.393 -0.3816  0.0802  0.0387
 8696SOL    HW237548   1.850   2.464   5.316  0.9955  0.2632  0.5986
 8697SOL     OW37549   0.876   1.115  17.203 -0.7461 -0.0363 -0.0218
 8697SOL    HW137550   0.878   1.173  17.126  0.5806  0.1368  0.1434
 8697SOL    HW237551   0.948   1.158  17.250 -0.0921 -1.2301  0.0520
 8698SOL     OW37552   3.027   0.384   4.249  0.0028  0.2070 -0.0198
 8698SOL    HW137553   3.084   0.383   4.173 -0.2973 -1.2873 -0.2305
 8698SOL    HW237554   3.075   0.448   4.302  0.1314  0.5158 -0.5129
 8699SOL     OW37555   4.105   1.774   9.328  0.1088  0.2202  1.0468
 8699SOL    HW137556   4.120   1.857   9.283 -0.9862 -0.3049 -0.2764
 8699SOL    HW237557   4.010   1.763   9.319  0.4739 -1.6292 -0.4202
 8700SOL     OW37558   3.068   1.386   8.691  0.2913  0.2118 -0.0230
 8700SOL    HW137559   3.013   1.463   8.679 -1.3100 -0.8829  0.2256
 8700SOL    HW237560   3.040   1.330   8.618  1.0065 -0.3772  0.1525
 8701SOL     OW37561   4.599   0.110   4.295 -0.3198 -0.4937  0.4935
 8701SOL    HW137562   4.542   0.186   4.311  0.2907  0.3971 -1.6019
 8701SOL    HW237563   4.683   0.115   4.340  0.3693 -0.1872 -0.8259
 8702SOL     OW37564   2.140   1.133   2.374 -0.5801 -0.4614 -0.0803
 8702SOL    HW137565   2.076   1.131   2.302  1.5702 -4.0919 -1.9088
 8702SOL    HW237566   2.104   1.063   2.429  0.1323 -1.0638 -0.3819
 8703SOL     OW37567   2.487   4.069  15.152 -0.0755  0.1860  0.0333
 8703SOL    HW137568   2.542   3.993  15.133  0.0615  0.5070 -0.8794
 8703SOL    HW237569   2.520   4.101  15.236  2.3469 -1.7743 -0.1808
 8704SOL     OW37570   3.814   0.905   7.096 -0.5868  0.3771  0.1757
 8704SOL    HW137571   3.853   0.931   7.180 -0.4769 -2.1329  0.9240
 8704SOL    HW237572   3.757   0.834   7.125 -1.1551  1.1946  1.0502
 8705SOL     OW37573   4.379   3.095   3.879  0.7363 -0.3469 -0.3417
 8705SOL    HW137574   4.328   3.173   3.857 -0.6278 -0.2031  3.2439
 8705SOL    HW237575   4.316   3.028   3.853 -0.1912 -0.2506  1.6271
 8706SOL     OW37576   3.303   4.593  16.744 -0.3109 -0.4731  0.2188
 8706SOL    HW137577   3.247   4.555  16.676 -1.4513  0.6696  0.5196
 8706SOL    HW237578   3.314   4.686  16.722 -1.3407 -0.8007 -1.6579
 8707SOL     OW37579   0.623   1.512   4.450  0.1556  0.0991 -0.0617
 8707SOL    HW137580   0.568   1.588   4.431  1.7573  1.0713 -0.7517
 8707SOL    HW237581   0.711   1.546   4.433  1.4735 -2.4316  1.6206
 8708SOL     OW37582   1.391   3.070   1.551 -0.0097  0.0250  0.8601
 8708SOL    HW137583   1.375   3.162   1.531 -1.0680 -0.3660 -0.0951
 8708SOL    HW237584   1.357   3.034   1.469  0.8947  0.6657  0.2037
 8709SOL     OW37585   1.186   0.478   3.355  0.2564  0.1038  0.2435
 8709SOL    HW137586   1.222   0.523   3.431  1.9314 -1.3136  0.2753
 8709SOL    HW237587   1.228   0.392   3.353 -1.0329 -0.4657 -2.1380
 8710SOL     OW37588   4.352   4.439   3.305 -0.2822  0.1653 -0.0564
 8710SOL    HW137589   4.441   4.464   3.279 -0.4848  2.1190  1.1446
 8710SOL    HW237590   4.352   4.472   3.395 -0.6725 -1.6298  0.5915
 8711SOL     OW37591   2.562   2.367  17.300 -0.5150  0.5774 -0.2379
 8711SOL    HW137592   2.540   2.276  17.321 -0.0430  0.5495  0.1184
 8711SOL    HW237593   2.621   2.341  17.228  0.9612  1.4155  0.6715
 8712SOL     OW37594   2.034   2.249   6.536  0.5026  0.3881 -0.0620
 8712SOL    HW137595   1.949   2.292   6.541 -1.0272 -2.6536  0.2338
 8712SOL    HW237596   2.045   2.214   6.625  0.1511 -3.0769 -1.3559
 8713SOL     OW37597   4.436   1.625   5.276  0.2830  0.0170 -0.0610
 8713SOL    HW137598   4.424   1.592   5.187  0.3821 -1.1536  0.3538
 8713SOL    HW237599   4.458   1.539   5.312 -2.7197 -0.0078  1.7737
 8714SOL     OW37600   4.211   0.391   4.677  0.2168 -0.0098  0.3292
 8714SOL    HW137601   4.148   0.430   4.616  2.1247  0.1508 -1.5559
 8714SOL    HW237602   4.231   0.456   4.745  2.0880 -1.7085  1.3964
 8715SOL     OW37603   3.299   2.972  11.671  0.4135  0.1218  0.0820
 8715SOL    HW137604   3.373   2.967  11.730  0.1286 -0.0919  0.4240
 8715SOL    HW237605   3.267   3.057  11.700  1.7227  0.1761  1.3378
 8716SOL     OW37606   0.866   0.345   6.368 -0.1752  0.7173 -0.0814
 8716SOL    HW137607   0.844   0.438   6.362  0.6990  1.0870  2.7193
 8716SOL    HW237608   0.838   0.308   6.452  2.2847  2.2088  1.3694
 8717SOL     OW37609   3.624   3.488   6.662 -0.4253 -0.5069  0.1348
 8717SOL    HW137610   3.617   3.404   6.618 -1.6511 -0.9767  1.2181
 8717SOL    HW237611   3.626   3.454   6.752  1.1853 -0.2565  0.1940
 8718SOL     OW37612   2.890   1.925   6.231 -0.2239  0.0152  0.7391
 8718SOL    HW137613   2.814   1.942   6.288 -0.0198 -0.8627  1.2634
 8718SOL    HW237614   2.847   1.919   6.146  0.2592 -1.0958  0.5758
 8719SOL     OW37615   1.233   3.838  13.722  0.6737  0.2058 -0.3380
 8719SOL    HW137616   1.212   3.747  13.747 -0.4532  0.5789  0.0892
 8719SOL    HW237617   1.266   3.832  13.633 -3.8156 -0.5536 -1.9620
 8720SOL     OW37618   2.254   4.200  11.882  0.1298  0.1637 -0.1190
 8720SOL    HW137619   2.280   4.177  11.793 -2.8550 -3.6442 -0.0149
 8720SOL    HW237620   2.167   4.161  11.883 -1.1639  3.0961  1.1907
 8721SOL     OW37621   2.792   1.008  11.345 -0.8350 -0.9201 -0.0864
 8721SOL    HW137622   2.845   1.087  11.339 -3.0007  0.6218  0.9596
 8721SOL    HW237623   2.856   0.952  11.302 -1.2283 -1.5560  0.1496
 8722SOL     OW37624   1.170   4.294   4.638  0.1531  0.4893  0.5480
 8722SOL    HW137625   1.186   4.236   4.713 -1.4436  0.0908  0.5778
 8722SOL    HW237626   1.255   4.336   4.653  1.9868 -1.4790 -4.1380
 8723SOL     OW37627   0.036   4.005   3.299  0.6385 -0.4402  0.2803
 8723SOL    HW137628   0.059   4.031   3.210 -3.0118  1.6377 -0.0508
 8723SOL    HW237629   0.122   3.978   3.331 -0.0415 -0.8980  1.6899
 8724SOL     OW37630   2.080   0.197   0.649  0.0833  0.1568  0.2449
 8724SOL    HW137631   2.063   0.137   0.577  2.8888 -1.5271  0.9638
 8724SOL    HW237632   2.074   0.126   0.713 -1.9154 -0.9349 -1.1510
 8725SOL     OW37633   0.304   4.402   5.119  0.5420  0.3595 -0.6556
 8725SOL    HW137634   0.341   4.391   5.031 -2.1646 -2.6503 -1.4112
 8725SOL    HW237635   0.210   4.417   5.114  0.2704 -1.1105  0.0109
 8726SOL     OW37636   0.910   1.676  10.792  1.0013 -0.1093  0.0660
 8726SOL    HW137637   0.939   1.697  10.703  2.0726 -3.0048 -0.2781
 8726SOL    HW237638   0.829   1.625  10.781  2.0677 -1.4322 -1.8081
 8727SOL     OW37639   2.809   3.016   3.328  0.9898 -0.5675 -0.2079
 8727SOL    HW137640   2.902   3.010   3.306  0.9095  0.3803 -0.8428
 8727SOL    HW237641   2.812   3.010   3.423  0.1766  0.1534 -0.1388
 8728SOL     OW37642   0.238   3.408  10.751  0.0211  0.0768  0.1379
 8728SOL    HW137643   0.284   3.492  10.759 -0.6610  0.3741  0.9536
 8728SOL    HW237644   0.320   3.362  10.766 -1.2321 -1.6691  1.5662
 8729SOL     OW37645   3.947   3.264   9.454  0.2469 -0.1999  0.6560
 8729SOL    HW137646   3.972   3.313   9.375  3.5055  1.0330  2.4589
 8729SOL    HW237647   4.036   3.246   9.485  0.8154  3.9088  1.4866
 8730SOL     OW37648   4.350   1.413   1.555 -0.5712 -0.0709 -0.2026
 8730SOL    HW137649   4.346   1.504   1.586  2.2405  0.7628 -2.2815
 8730SOL    HW237650   4.437   1.414   1.515 -0.9119 -1.8505 -1.0027
 8731SOL     OW37651   2.739   3.871  12.062 -0.1233 -0.3950 -0.2191
 8731SOL    HW137652   2.796   3.881  11.985 -0.9016  1.2353 -0.5809
 8731SOL    HW237653   2.787   3.930  12.121  1.2665 -2.8122  1.0677
 8732SOL     OW37654   0.888   4.411   9.072 -0.6102  0.4255 -0.0301
 8732SOL    HW137655   0.903   4.439   8.982 -1.5272  0.4372 -0.1715
 8732SOL    HW237656   0.960   4.455   9.119 -0.4511 -0.7433  0.8234
 8733SOL     OW37657   2.853   0.568   6.318 -0.0010 -0.0634 -0.3233
 8733SOL    HW137658   2.879   0.515   6.243 -3.2421  1.8904 -2.8306
 8733SOL    HW237659   2.778   0.515   6.344  0.0704  0.7505  1.5295
 8734SOL     OW37660   2.071   1.286  10.348  0.1058 -0.2318  0.0165
 8734SOL    HW137661   2.015   1.362  10.334  4.1144  2.7193  0.1847
 8734SOL    HW237662   2.049   1.247  10.433 -0.9981 -0.2221 -0.2711
 8735SOL     OW37663   2.399   2.068   3.528  0.0567 -0.5662 -0.1727
 8735SOL    HW137664   2.454   2.141   3.501 -0.7780  0.0099 -0.3090
 8735SOL    HW237665   2.337   2.106   3.590 -1.3330 -1.5193 -0.9884
 8736SOL     OW37666   1.105   0.691   2.937 -0.3358 -0.1125 -0.0317
 8736SOL    HW137667   1.061   0.646   3.010 -0.2578  0.3389  0.2935
 8736SOL    HW237668   1.111   0.624   2.869 -2.4199 -0.3798  0.0272
 8737SOL     OW37669   0.455   2.979   2.652 -0.2635 -0.0537 -0.2675
 8737SOL    HW137670   0.450   3.055   2.709  1.2666 -0.4658  0.3938
 8737SOL    HW237671   0.550   2.982   2.661 -0.3312  0.0738  0.3819
 8738SOL     OW37672   4.407   1.619   6.399  0.4972  0.0547 -0.4965
 8738SOL    HW137673   4.492   1.620   6.442  0.1715 -0.9700  0.1733
 8738SOL    HW237674   4.346   1.624   6.473 -0.4454  0.4431 -1.3025
 8739SOL     OW37675   4.527   4.393  15.795  0.0499  0.7485  0.2793
 8739SOL    HW137676   4.506   4.399  15.701  1.5798 -0.1239 -0.1122
 8739SOL    HW237677   4.579   4.314  15.809 -2.2544 -0.6350  1.0652
 8740SOL     OW37678   3.569   3.447   3.685 -0.2238  0.1283 -0.2042
 8740SOL    HW137679   3.576   3.492   3.601 -0.5069  1.1421  0.3132
 8740SOL    HW237680   3.621   3.368   3.672  0.3598  0.1881  1.8343
 8741SOL     OW37681   1.814   3.326   4.025 -0.2232  0.0340  0.4534
 8741SOL    HW137682   1.725   3.316   3.990 -0.3106 -0.7586  0.9030
 8741SOL    HW237683   1.832   3.409   3.981 -2.0954 -1.3097 -2.9045
 8742SOL     OW37684   3.889   0.458  15.129 -0.4855  0.6587 -0.3979
 8742SOL    HW137685   3.901   0.489  15.039  1.8774 -0.9353 -0.6548
 8742SOL    HW237686   3.801   0.427  15.110  0.1266 -1.9573  1.0138
 8743SOL     OW37687   0.347   2.950   2.405 -0.1080  0.0572 -0.3804
 8743SOL    HW137688   0.356   2.949   2.500  0.5454  0.7954 -0.4367
 8743SOL    HW237689   0.333   3.041   2.378 -1.2677  0.0516  0.1745
 8744SOL     OW37690   2.141   0.537  11.991 -0.0236 -0.2408 -0.5876
 8744SOL    HW137691   2.088   0.458  11.975 -0.9417  0.1172  0.6214
 8744SOL    HW237692   2.095   0.595  11.931  1.0920  0.3653 -0.8511
 8745SOL     OW37693   2.632   3.899  17.460  0.2576  0.3242  0.0824
 8745SOL    HW137694   2.548   3.913  17.416 -0.3776 -2.8247  0.2725
 8745SOL    HW237695   2.631   3.806  17.484 -0.4699  0.1951 -0.4349
 8746SOL     OW37696   4.198   3.612  14.784 -0.6459 -0.4225 -0.2197
 8746SOL    HW137697   4.240   3.526  14.781  1.5510  0.6644 -0.5290
 8746SOL    HW237698   4.260   3.669  14.739 -1.4072 -0.1882 -0.9753
 8747SOL     OW37699   1.300   2.270  13.257 -0.0662 -0.6986  0.1373
 8747SOL    HW137700   1.278   2.354  13.218 -0.8348 -1.5376 -1.2298
 8747SOL    HW237701   1.270   2.211  13.188 -2.4234 -0.1594  0.6641
 8748SOL     OW37702   2.136   4.487   0.282 -0.0072 -0.5746  0.2099
 8748SOL    HW137703   2.156   4.393   0.276  1.9447 -0.2526  1.7056
 8748SOL    HW237704   2.041   4.482   0.275 -0.1059  0.0746  1.1333
 8749SOL     OW37705   3.276   3.569   3.574 -0.1137  0.9910 -0.1477
 8749SOL    HW137706   3.260   3.619   3.655  1.5501 -2.3355  2.2434
 8749SOL    HW237707   3.234   3.626   3.510  0.0908 -0.4615 -1.5758
 8750SOL     OW37708   2.262   2.638   3.134 -0.0522  0.3315 -0.4320
 8750SOL    HW137709   2.218   2.553   3.138 -0.2155  0.4621  0.6011
 8750SOL    HW237710   2.320   2.637   3.057 -0.0058  0.3091 -0.3969
 8751SOL     OW37711   1.247   0.696   7.914 -0.1880 -0.0652  0.1959
 8751SOL    HW137712   1.322   0.703   7.856 -1.6745 -0.6393 -1.7788
 8751SOL    HW237713   1.282   0.752   7.983 -0.5456  0.8745 -0.3888
 8752SOL     OW37714   3.151   1.460   8.262  0.3387 -0.0563 -0.4220
 8752SOL    HW137715   3.061   1.492   8.276 -0.4915 -1.3692 -2.6829
 8752SOL    HW237716   3.188   1.458   8.350 -1.8716 -0.5999  0.4970
 8753SOL     OW37717   1.115   3.180   1.498  0.1001 -0.3151 -0.2659
 8753SOL    HW137718   1.046   3.232   1.456 -0.5693  0.1297  1.3741
 8753SOL    HW237719   1.149   3.148   1.414  1.8574  1.1057 -0.0847
 8754SOL     OW37720   4.465   4.551  16.636  0.0978  0.1657  0.1070
 8754SOL    HW137721   4.430   4.595  16.713 -1.9703 -0.5753 -0.4056
 8754SOL    HW237722   4.533   4.499  16.679 -0.4814 -1.5561 -1.0132
 8755SOL     OW37723   3.029   0.907   7.163 -0.0488 -0.4011 -0.0415
 8755SOL    HW137724   3.116   0.920   7.127 -0.0682  1.4780  0.5692
 8755SOL    HW237725   2.980   0.894   7.082  0.1984  1.1952 -0.4473
 8756SOL     OW37726   1.050   0.875   2.522 -0.6728  0.4805  0.0245
 8756SOL    HW137727   1.083   0.785   2.522  1.5718  1.3110 -0.8046
 8756SOL    HW237728   0.968   0.864   2.570  0.4234 -2.1574  1.2950
 8757SOL     OW37729   2.005   2.871   2.306 -0.1116 -0.6480  0.7749
 8757SOL    HW137730   2.015   2.939   2.373  1.7997 -0.8174  0.6624
 8757SOL    HW237731   2.023   2.916   2.224 -0.9106  0.0990  1.0113
 8758SOL     OW37732   2.197   0.696  16.404 -0.0378 -0.4263 -0.5702
 8758SOL    HW137733   2.120   0.672  16.352 -0.5442 -1.8886  0.8497
 8758SOL    HW237734   2.237   0.771  16.361  0.0852  0.8189  1.7386
 8759SOL     OW37735   0.154   1.401  11.240  0.4071 -0.1265  0.0850
 8759SOL    HW137736   0.118   1.483  11.274  0.8285 -0.1020  0.4729
 8759SOL    HW237737   0.104   1.330  11.281 -0.7067  0.4475 -0.2951
 8760SOL     OW37738   2.631   1.942   6.657  0.2379 -0.4352 -0.3744
 8760SOL    HW137739   2.539   1.920   6.670  0.1841  0.6728  1.1749
 8760SOL    HW237740   2.676   1.871   6.703  2.0358  1.1436  0.3122
 8761SOL     OW37741   3.779   0.350   5.008  0.4551  0.6145  0.3447
 8761SOL    HW137742   3.722   0.311   5.075 -1.0915 -0.0630 -1.3610
 8761SOL    HW237743   3.723   0.348   4.931 -0.2671  1.7892  0.8495
 8762SOL     OW37744   0.012   4.115   7.449 -0.1813 -0.2241 -0.0742
 8762SOL    HW137745   0.101   4.107   7.483 -0.1624 -0.3262 -0.1481
 8762SOL    HW237746   4.683   4.043   7.487 -0.6480  0.7443  1.1486
 8763SOL     OW37747   3.476   0.777   1.902 -0.3918  0.4731 -0.5489
 8763SOL    HW137748   3.488   0.813   1.990  0.5264 -1.1250 -0.0100
 8763SOL    HW237749   3.552   0.719   1.903  0.7380  1.9737  1.4979
 8764SOL     OW37750   0.362   1.218   5.864  0.3812 -0.4108 -0.3628
 8764SOL    HW137751   0.401   1.185   5.945 -1.3692 -2.2664 -0.2688
 8764SOL    HW237752   0.424   1.186   5.799  2.8153  0.3867  1.6056
 8765SOL     OW37753   4.309   1.174   2.464 -0.2220 -1.1288 -0.3672
 8765SOL    HW137754   4.371   1.118   2.510  0.0963  0.2694  0.9146
 8765SOL    HW237755   4.334   1.263   2.487 -1.5316 -0.9506  0.3773
 8766SOL     OW37756   4.675   0.029  15.877  0.0353  0.1957  0.9627
 8766SOL    HW137757   4.688   4.689  15.805  0.2095 -3.2471  3.8832
 8766SOL    HW237758   0.017   0.093  15.844 -2.7450  1.9306 -0.8791
 8767SOL     OW37759   3.468   0.964   7.294 -0.4112  0.2894 -0.0169
 8767SOL    HW137760   3.394   0.986   7.237 -1.5832 -3.3284  0.0739
 8767SOL    HW237761   3.429   0.921   7.371 -0.5082  0.9084  0.2753
 8768SOL     OW37762   3.462   1.273   8.230  0.0270  0.2488 -0.0949
 8768SOL    HW137763   3.550   1.243   8.253  0.4104  1.0584 -0.4921
 8768SOL    HW237764   3.468   1.357   8.276 -1.4119 -0.4822  1.4407
 8769SOL     OW37765   1.629   3.733  15.228  0.0251  0.1859 -0.1690
 8769SOL    HW137766   1.648   3.742  15.135  0.7432 -0.8803 -0.1254
 8769SOL    HW237767   1.534   3.737  15.237  0.0305 -2.6608  1.0648
 8770SOL     OW37768   3.078   1.770   0.666 -0.0938  0.1209 -0.4304
 8770SOL    HW137769   3.111   1.822   0.739 -3.2014  2.7557 -0.9359
 8770SOL    HW237770   3.147   1.769   0.600 -1.0071 -0.6478 -1.3802
 8771SOL     OW37771   3.815   0.884   9.961  0.6880  0.4417 -0.5094
 8771SOL    HW137772   3.895   0.869  10.011 -0.4564 -0.0912  1.1836
 8771SOL    HW237773   3.813   0.980   9.961 -0.3561  0.4213 -1.5398
 8772SOL     OW37774   1.923   0.376   5.796 -0.2487  0.2425 -0.1644
 8772SOL    HW137775   1.909   0.354   5.704  2.6042  2.1594 -1.0379
 8772SOL    HW237776   1.973   0.298   5.823  1.3257  1.1729 -0.3686
 8773SOL     OW37777   4.616   3.852   5.688  0.4777  0.1988 -0.4712
 8773SOL    HW137778   4.700   3.896   5.701 -0.9403  2.9144 -0.3469
 8773SOL    HW237779   4.564   3.912   5.741  0.8715 -0.2945  0.4577
 8774SOL     OW37780   3.304   4.040   5.891 -0.5739  0.0384  0.9448
 8774SOL    HW137781   3.317   3.983   5.966 -1.6005  0.7680  1.6866
 8774SOL    HW237782   3.273   3.973   5.831 -0.3272  0.9600 -0.2095
 8775SOL     OW37783   1.040   2.193   3.387 -0.3576 -0.2591  0.4408
 8775SOL    HW137784   1.056   2.152   3.472  0.4277 -0.7126  0.0669
 8775SOL    HW237785   1.120   2.241   3.366 -2.1505  1.6798 -1.9034
 8776SOL     OW37786   0.410   2.726   7.608 -0.4934 -0.2136  0.1714
 8776SOL    HW137787   0.468   2.782   7.555 -2.0955  1.8730  0.6331
 8776SOL    HW237788   0.471   2.660   7.642 -0.6002 -1.1642 -1.4720
 8777SOL     OW37789   0.862   0.480  16.523 -0.5115  0.0270  0.2654
 8777SOL    HW137790   0.924   0.552  16.515 -0.5819  0.0063 -0.4864
 8777SOL    HW237791   0.797   0.506  16.457  2.6679  1.7303 -2.1782
 8778SOL     OW37792   2.688   2.605  17.431 -0.4279  1.1005 -0.0040
 8778SOL    HW137793   2.645   2.613  17.517  1.8123 -0.2542  1.2515
 8778SOL    HW237794   2.638   2.537  17.386  2.6557 -1.2136  0.0985
 8779SOL     OW37795   4.483   1.314  11.696 -0.0496  0.5570  0.2044
 8779SOL    HW137796   4.537   1.387  11.663 -0.7629  0.6459 -0.7652
 8779SOL    HW237797   4.392   1.344  11.688  0.4417  1.9303 -0.2491
 8780SOL     OW37798   1.624   1.554   7.672  0.3424  0.1374 -0.3612
 8780SOL    HW137799   1.581   1.489   7.727  2.2435  0.9111  2.0569
 8780SOL    HW237800   1.620   1.506   7.589 -1.8130  0.7866 -0.6326
 8781SOL     OW37801   4.074   1.135  13.807 -0.1275  0.4032 -0.4910
 8781SOL    HW137802   4.005   1.196  13.832  1.6113  1.7655  1.0630
 8781SOL    HW237803   4.127   1.144  13.886 -1.9264 -0.0102  0.7539
 8782SOL     OW37804   4.118   1.989   9.191  0.0345 -0.0595  0.2000
 8782SOL    HW137805   4.096   2.013   9.101 -3.0817 -1.9047  0.4731
 8782SOL    HW237806   4.108   2.071   9.238 -1.3994  0.2680 -0.6789
 8783SOL     OW37807   3.082   2.515  12.999 -0.6906  0.0253  0.0651
 8783SOL    HW137808   3.005   2.527  12.943 -0.9086 -2.3228 -0.1558
 8783SOL    HW237809   3.132   2.594  12.979 -1.5815  0.6875  0.4664
 8784SOL     OW37810   1.910   4.020   6.296  0.6493 -0.2677  0.0476
 8784SOL    HW137811   1.965   4.085   6.340 -0.6655 -0.7635  2.3825
 8784SOL    HW237812   1.976   3.998   6.229  0.7990  1.7022 -0.4694
 8785SOL     OW37813   1.203   1.599   9.415 -0.0247 -0.1476 -0.1129
 8785SOL    HW137814   1.209   1.673   9.475  0.4397 -1.9416  2.0470
 8785SOL    HW237815   1.287   1.605   9.369  0.2507  0.9514  0.5398
 8786SOL     OW37816   4.037   2.216   3.512 -0.2885 -0.1646 -0.8699
 8786SOL    HW137817   3.995   2.134   3.484  1.7010 -1.2225 -0.7799
 8786SOL    HW237818   3.992   2.284   3.462 -0.8815  0.6708  0.8074
 8787SOL     OW37819   1.478   1.470   3.897  0.6309 -0.2370 -0.1195
 8787SOL    HW137820   1.555   1.445   3.947  0.3026 -2.4217 -0.7358
 8787SOL    HW237821   1.431   1.535   3.950  2.9340 -0.1618  1.7919
 8788SOL     OW37822   2.319   0.098  14.516  0.6647  0.3473 -0.2155
 8788SOL    HW137823   2.359   0.184  14.531 -1.6600  1.3733 -0.0222
 8788SOL    HW237824   2.318   0.062  14.605 -0.8152  0.3923 -0.2185
 8789SOL     OW37825   2.705   4.282   2.119  0.4592  0.0291  0.4638
 8789SOL    HW137826   2.660   4.364   2.100  1.4206  0.3695 -0.2828
 8789SOL    HW237827   2.797   4.309   2.119  0.7832 -1.0657  2.6177
 8790SOL     OW37828   0.744   4.176   7.278  0.4561  0.5618 -0.5494
 8790SOL    HW137829   0.803   4.109   7.244  1.3791  1.5061 -0.8166
 8790SOL    HW237830   0.703   4.221   7.204 -0.9723  0.3008  0.0896
 8791SOL     OW37831   3.867   4.416  15.850 -0.6132  0.2422  0.5241
 8791SOL    HW137832   3.913   4.449  15.772  0.4314 -0.8158  0.6851
 8791SOL    HW237833   3.909   4.469  15.918 -0.5006 -0.6236  1.1254
 8792SOL     OW37834   2.513   3.741   6.747  0.0267 -0.1432 -0.5225
 8792SOL    HW137835   2.604   3.729   6.719  0.5925  1.9649  0.3316
 8792SOL    HW237836   2.473   3.721   6.663  0.7482 -1.6404 -0.5049
 8793SOL     OW37837   3.999   1.478  11.750  0.1727 -0.0816 -0.3393
 8793SOL    HW137838   3.963   1.517  11.670  0.3169  1.1191  0.1736
 8793SOL    HW237839   4.062   1.411  11.724 -0.7111 -0.6526 -1.0099
 8794SOL     OW37840   2.114   0.651   4.402 -0.1451  0.1513  0.0310
 8794SOL    HW137841   2.195   0.702   4.405 -0.3001  0.2552  2.5277
 8794SOL    HW237842   2.153   0.564   4.402 -1.4391 -0.4315  0.7867
 8795SOL     OW37843   2.780   3.448  14.875 -0.0794 -0.2682 -0.3619
 8795SOL    HW137844   2.701   3.499  14.892 -0.1727 -0.5496  0.0489
 8795SOL    HW237845   2.747   3.366  14.839 -0.4652  0.1045 -0.8552
 8796SOL     OW37846   2.052   2.535   4.341 -0.2052  0.5001  0.0160
 8796SOL    HW137847   2.012   2.563   4.423  0.1301  0.4143  0.2100
 8796SOL    HW237848   1.976   2.519   4.284 -0.7487  1.6658  0.4131
 8797SOL     OW37849   3.785   1.510  11.947  0.5432 -0.3071 -0.4281
 8797SOL    HW137850   3.853   1.505  11.880  2.1974  3.2643  0.9839
 8797SOL    HW237851   3.829   1.464  12.018  0.4702 -1.3089 -1.0398
 8798SOL     OW37852   4.176   2.004   7.720 -0.1726  0.0852  0.1189
 8798SOL    HW137853   4.133   1.962   7.794 -0.2883  3.5126  2.0148
 8798SOL    HW237854   4.260   2.036   7.753 -0.2523 -1.4092  1.7780
 8799SOL     OW37855   2.016   4.689  12.808  0.3771 -0.5431  0.5315
 8799SOL    HW137856   2.095   4.656  12.851  0.3031 -1.2011  0.1659
 8799SOL    HW237857   1.976   4.606  12.781  1.5832 -0.8432 -0.3252
 8800SOL     OW37858   3.223   1.559   6.269 -0.2303  0.1903  0.0306
 8800SOL    HW137859   3.139   1.604   6.259  0.0045  0.1120 -2.3955
 8800SOL    HW237860   3.219   1.578   6.362  0.7057 -1.2564  0.3698
 8801SOL     OW37861   0.925   0.152   5.985 -0.5173 -0.1519 -0.0942
 8801SOL    HW137862   0.963   0.180   6.069 -1.9840 -0.0337  0.5328
 8801SOL    HW237863   0.831   0.143   5.999 -0.3341  0.6989  1.7036
 8802SOL     OW37864   4.319   3.281   5.755  0.4413  0.2160  0.1096
 8802SOL    HW137865   4.383   3.264   5.825 -0.1489  0.9348  0.8255
 8802SOL    HW237866   4.331   3.375   5.745 -0.5253  0.1433 -1.7155
 8803SOL     OW37867   2.618   4.540   3.171  0.2751  0.2147 -0.2000
 8803SOL    HW137868   2.590   4.453   3.197  1.2372 -0.2411 -0.6597
 8803SOL    HW237869   2.661   4.519   3.088  2.2005 -0.7198  1.0452
 8804SOL     OW37870   0.770   3.824   8.767  0.0501 -0.3221  1.0506
 8804SOL    HW137871   0.768   3.916   8.742 -2.0863 -0.5220  0.5497
 8804SOL    HW237872   0.709   3.824   8.841 -0.2590  0.4458  0.8010
 8805SOL     OW37873   4.249   1.278   4.917  0.4903  0.0230  0.2447
 8805SOL    HW137874   4.242   1.245   4.827  0.2726  0.7643 -0.0146
 8805SOL    HW237875   4.156   1.289   4.935  0.7235 -0.7437  1.8497
 8806SOL     OW37876   0.318   4.507   4.590 -0.7440 -0.3921  0.4300
 8806SOL    HW137877   0.407   4.520   4.557 -1.6548  1.3681 -1.3288
 8806SOL    HW237878   0.268   4.575   4.544 -1.5874 -0.0224  1.8773
 8807SOL     OW37879   3.261   2.353  12.827  0.1000  0.3199 -0.1735
 8807SOL    HW137880   3.178   2.382  12.864  0.3954  0.6778  0.2060
 8807SOL    HW237881   3.239   2.322  12.739 -1.4029 -0.4580  0.4765
 8808SOL     OW37882   3.833   1.395   5.895 -0.3566 -0.5454  0.1053
 8808SOL    HW137883   3.843   1.369   5.987 -0.9755 -0.2411  0.2590
 8808SOL    HW237884   3.738   1.403   5.891 -0.4419 -0.6262  1.8922
 8809SOL     OW37885   3.682   0.691   7.581 -0.1047  0.0151  0.3498
 8809SOL    HW137886   3.700   0.716   7.491  0.0201 -0.6379  0.1941
 8809SOL    HW237887   3.735   0.615   7.604 -0.7686 -0.4024  0.4853
 8810SOL     OW37888   4.324   2.278   9.772  0.5006 -0.1016  0.1586
 8810SOL    HW137889   4.291   2.239   9.691  0.0051  1.0826 -0.2030
 8810SOL    HW237890   4.241   2.285   9.819  0.5887 -0.2046  0.3296
 8811SOL     OW37891   0.921   0.818  16.603 -0.0758  1.0495 -0.0453
 8811SOL    HW137892   0.843   0.828  16.548 -1.6865 -1.0693  1.8508
 8811SOL    HW237893   0.878   0.784  16.681  0.4443  0.8450  0.1538
 8812SOL     OW37894   3.501   4.306  14.622  0.5924  0.0455 -0.1344
 8812SOL    HW137895   3.434   4.333  14.684  0.2196 -1.1818  0.0019
 8812SOL    HW237896   3.563   4.257  14.676  1.2002 -0.6166 -1.4170
 8813SOL     OW37897   2.569   3.308  12.308  0.6325  0.8909 -0.1286
 8813SOL    HW137898   2.491   3.319  12.253  1.2867 -0.0203 -1.2415
 8813SOL    HW237899   2.527   3.243  12.363  1.3417  0.1539 -0.4605
 8814SOL     OW37900   1.578   0.828  12.910 -0.3979  0.2613 -0.4646
 8814SOL    HW137901   1.637   0.902  12.895  1.4207 -1.1664 -0.3050
 8814SOL    HW237902   1.495   0.875  12.922 -2.3301 -3.0093 -1.0626
 8815SOL     OW37903   3.995   0.867  17.023  0.2791 -0.2012 -0.5010
 8815SOL    HW137904   3.918   0.853  17.078  1.1835 -1.8705  0.3296
 8815SOL    HW237905   3.993   0.794  16.961 -0.5442  0.4097 -1.1938
 8816SOL     OW37906   0.289   1.827   5.015 -0.5067 -0.3284  0.1048
 8816SOL    HW137907   0.252   1.911   4.988  0.2388 -0.6534 -1.9105
 8816SOL    HW237908   0.378   1.844   5.045 -0.7315 -0.4312  0.8140
 8817SOL     OW37909   2.857   1.424   6.430 -0.5874  0.1803  0.5519
 8817SOL    HW137910   2.911   1.407   6.353 -1.4614  0.8393 -0.2125
 8817SOL    HW237911   2.834   1.516   6.421 -2.2146 -0.3450 -0.7262
 8818SOL     OW37912   2.262   4.688   8.370 -0.2470  0.1126 -0.4771
 8818SOL    HW137913   2.323   0.014   8.314 -0.0724 -1.1952 -1.3716
 8818SOL    HW237914   2.322   4.617   8.393 -0.2800  0.3265  0.2812
 8819SOL     OW37915   2.035   0.843  14.536  0.1800  0.1596 -0.3145
 8819SOL    HW137916   1.985   0.818  14.614 -0.8499  0.0479 -1.0074
 8819SOL    HW237917   2.125   0.819  14.555 -0.4510 -2.4998 -0.6917
 8820SOL     OW37918   2.389   4.398   6.165 -0.2631 -0.0382  0.2532
 8820SOL    HW137919   2.471   4.360   6.197  0.3839  1.8952  0.8875
 8820SOL    HW237920   2.345   4.315   6.148  0.9564 -0.6601  0.1600
 8821SOL     OW37921   2.391   1.315   2.128 -0.4842 -0.0548 -0.4162
 8821SOL    HW137922   2.390   1.298   2.034  0.1687  2.0221 -0.7959
 8821SOL    HW237923   2.483   1.340   2.139 -0.4258 -0.3040 -0.3319
 8822SOL     OW37924   1.412   2.238  11.039  0.3980 -1.1613  0.0052
 8822SOL    HW137925   1.395   2.149  11.070  1.9754 -2.5361 -3.1253
 8822SOL    HW237926   1.326   2.271  11.013  1.2964  1.7033  0.6652
 8823SOL     OW37927   1.355   2.234   4.161  0.4410 -0.2239  0.1095
 8823SOL    HW137928   1.274   2.192   4.190  0.7469 -0.5574  0.4960
 8823SOL    HW237929   1.364   2.169   4.091  0.6709  1.0920 -1.0728
 8824SOL     OW37930   3.672   4.456   2.411 -0.3896  0.3965  0.4713
 8824SOL    HW137931   3.620   4.536   2.414  0.6525  1.0490  1.2218
 8824SOL    HW237932   3.742   4.487   2.353 -0.4974  2.3614  1.3860
 8825SOL     OW37933   1.601   2.053   5.824 -0.5449 -0.1401  0.3452
 8825SOL    HW137934   1.596   1.994   5.899 -0.8571 -1.9118 -1.0748
 8825SOL    HW237935   1.694   2.053   5.802 -0.5991 -1.6149  0.1109
 8826SOL     OW37936   4.492   4.265  11.826 -0.2505 -0.0423 -0.5369
 8826SOL    HW137937   4.429   4.216  11.878 -0.5912 -0.3308 -1.2299
 8826SOL    HW237938   4.436   4.328  11.782 -1.0999 -0.8917 -0.6668
 8827SOL     OW37939   0.012   0.788   0.206  0.3987 -0.0329  0.5704
 8827SOL    HW137940   0.022   0.874   0.248 -1.8264  0.2482  0.5105
 8827SOL    HW237941   0.045   0.811   0.119  0.0310  0.5729  0.5859
 8828SOL     OW37942   0.825   3.956   6.500  0.2079 -0.0124  0.4440
 8828SOL    HW137943   0.732   3.934   6.505  0.4533 -1.3382 -0.9823
 8828SOL    HW237944   0.844   3.980   6.591  0.7039  0.9440  0.0871
 8829SOL     OW37945   4.472   1.913  13.760 -0.2215 -0.1714 -0.4598
 8829SOL    HW137946   4.395   1.945  13.807 -0.0170  0.0672 -0.2874
 8829SOL    HW237947   4.538   1.905  13.829  0.0402  1.8422 -0.4564
 8830SOL     OW37948   4.408   1.490   2.421 -0.0389 -0.8526 -0.2568
 8830SOL    HW137949   4.490   1.518   2.461 -0.6513  0.9542 -0.2808
 8830SOL    HW237950   4.424   1.544   2.344 -0.0508  0.7069  0.8204
 8831SOL     OW37951   0.555   4.419   7.557 -0.2840 -0.3356  0.1554
 8831SOL    HW137952   0.611   4.422   7.635 -1.8972  0.2286  1.3027
 8831SOL    HW237953   0.614   4.386   7.490 -1.1596  1.8986 -1.7193
 8832SOL     OW37954   3.815   2.188  13.571 -0.1069 -0.0877 -0.2323
 8832SOL    HW137955   3.728   2.147  13.569  0.1107 -0.6208  0.9836
 8832SOL    HW237956   3.869   2.116  13.538  0.2734 -0.5223  1.3384
 8833SOL     OW37957   0.451   2.820   3.894  0.0639  0.2567 -0.5210
 8833SOL    HW137958   0.525   2.769   3.925  1.3472  1.8311 -0.9788
 8833SOL    HW237959   0.450   2.884   3.966  0.6994  0.2073 -0.4672
 8834SOL     OW37960   0.972   1.919   9.720 -0.3972 -0.3094 -0.0550
 8834SOL    HW137961   0.911   1.857   9.680  0.7493 -1.3332 -0.2257
 8834SOL    HW237962   0.997   1.969   9.642  3.0220  0.7897  1.7249
 8835SOL     OW37963   2.661   4.114   3.482 -0.0643  0.1947  0.3454
 8835SOL    HW137964   2.750   4.149   3.479 -0.2167  0.4164 -1.6944
 8835SOL    HW237965   2.611   4.191   3.456  1.4754  0.8306 -0.7617
 8836SOL     OW37966   1.913   1.457   8.035  0.6765  0.6621  0.1495
 8836SOL    HW137967   1.958   1.541   8.039  1.6830  0.1103  0.4223
 8836SOL    HW237968   1.823   1.475   8.064  0.5228  0.5509 -0.2529
 8837SOL     OW37969   1.341   3.025   6.927 -0.4618  0.0685  1.1759
 8837SOL    HW137970   1.302   3.018   7.014 -0.6149 -0.2005  1.0852
 8837SOL    HW237971   1.431   3.017   6.958 -0.3678  0.6838  1.0748
 8838SOL     OW37972   1.956   1.951   7.332 -0.4683  0.0687  0.0908
 8838SOL    HW137973   1.929   1.925   7.420 -4.4013  1.0008 -0.8466
 8838SOL    HW237974   1.882   1.913   7.285 -1.2725 -0.7417  1.9858
 8839SOL     OW37975   3.796   2.622   5.514  0.1497  0.1327  0.2796
 8839SOL    HW137976   3.705   2.640   5.490  0.2681  0.9789  0.4601
 8839SOL    HW237977   3.780   2.550   5.574  0.9167  0.1230  0.4814
 8840SOL     OW37978   2.499   1.859  13.354 -0.4453  0.6914 -0.2659
 8840SOL    HW137979   2.508   1.872  13.260 -0.5568  0.3340 -0.3254
 8840SOL    HW237980   2.588   1.885  13.375 -0.0861  0.9293 -2.1802
 8841SOL     OW37981   0.263   4.096  11.022 -0.2007 -0.0992 -0.5747
 8841SOL    HW137982   0.313   4.037  10.966  1.0093  0.5092 -0.1276
 8841SOL    HW237983   0.223   4.024  11.072  1.3286 -1.0675 -0.7600
 8842SOL     OW37984   3.077   0.209  11.946 -0.6217 -0.0891  0.1884
 8842SOL    HW137985   3.139   0.281  11.954 -1.7499  0.6088  2.6274
 8842SOL    HW237986   2.995   0.249  11.971 -1.3904 -0.2478 -2.0669
 8843SOL     OW37987   1.290   3.796   5.484  0.6086  0.2316  0.1413
 8843SOL    HW137988   1.256   3.843   5.408  0.2929 -1.6943 -0.9069
 8843SOL    HW237989   1.380   3.776   5.457  0.2189 -1.0723 -0.2082
 8844SOL     OW37990   3.809   1.465   8.565 -1.0119  0.6889 -0.3209
 8844SOL    HW137991   3.823   1.372   8.550  1.4631  0.4570  3.5823
 8844SOL    HW237992   3.713   1.462   8.560 -1.0759  1.4931  0.4845
 8845SOL     OW37993   1.289   0.524  16.871 -0.1236 -0.0038 -0.0015
 8845SOL    HW137994   1.267   0.534  16.964  0.9099 -0.2940  0.2733
 8845SOL    HW237995   1.217   0.562  16.821 -0.0944 -1.9180 -1.4562
 8846SOL     OW37996   4.020   1.735   0.428 -0.2321 -0.2592  0.1965
 8846SOL    HW137997   4.088   1.697   0.373 -0.8371 -4.4011  2.3115
 8846SOL    HW237998   4.035   1.830   0.431 -1.4276 -0.0426 -0.7119
 8847SOL     OW37999   0.255   3.475   4.298 -0.0701  0.6043  0.3312
 8847SOL    HW138000   0.228   3.501   4.386  0.4274  1.2632  0.2903
 8847SOL    HW238001   0.271   3.381   4.308 -2.0542  0.3332  1.0294
 8848SOL     OW38002   1.227   0.642   4.257 -0.2063  0.0266  0.3087
 8848SOL    HW138003   1.288   0.573   4.231 -1.4482 -1.6324  1.7337
 8848SOL    HW238004   1.260   0.721   4.215 -1.2413 -0.3987 -1.3306
 8849SOL     OW38005   4.462   1.642  15.086 -0.4370  0.0927 -0.3475
 8849SOL    HW138006   4.515   1.689  15.021  0.0581  1.0011  0.7086
 8849SOL    HW238007   4.503   1.556  15.087 -2.3053 -0.7829  1.4894
 8850SOL     OW38008   0.062   1.549   5.786 -0.0308  0.5024 -0.6896
 8850SOL    HW138009   0.126   1.584   5.847 -1.0965 -1.5221  1.5802
 8850SOL    HW238010   0.106   1.470   5.754 -0.4047  0.0665 -0.1284
 8851SOL     OW38011   1.695   2.395   3.766  0.0815 -0.0410 -0.0680
 8851SOL    HW138012   1.610   2.426   3.735  0.4274 -1.2981 -2.3022
 8851SOL    HW238013   1.726   2.347   3.689 -1.5944 -0.1152 -0.7089
 8852SOL     OW38014   3.348   2.767  12.719 -0.9319  0.3118  0.4421
 8852SOL    HW138015   3.267   2.748  12.767  0.4924 -1.0836  2.2755
 8852SOL    HW238016   3.311   2.836  12.663 -1.5455 -0.3745  0.0005
 8853SOL     OW38017   0.929   3.074   7.979 -0.0097 -0.3114  0.2230
 8853SOL    HW138018   0.886   2.992   7.955 -2.0950  0.4946  1.1443
 8853SOL    HW238019   1.007   3.043   8.024  0.4455  1.4369  0.6198
 8854SOL     OW38020   3.952   2.323  17.107 -0.2793  0.2087 -0.0423
 8854SOL    HW138021   4.032   2.271  17.097 -0.6247 -0.8950  3.2015
 8854SOL    HW238022   3.908   2.300  17.025 -1.3813  2.1914 -0.0015
 8855SOL     OW38023   3.033   2.709   9.280 -0.5684  0.3041  0.7351
 8855SOL    HW138024   2.959   2.735   9.335 -1.4229 -1.0968  0.2640
 8855SOL    HW238025   3.039   2.622   9.319 -1.3924  0.7137  1.7559
 8856SOL     OW38026   4.259   1.349   6.919  0.3181  0.4003 -0.6036
 8856SOL    HW138027   4.201   1.423   6.898 -1.9219 -1.4351 -0.9506
 8856SOL    HW238028   4.212   1.316   6.996 -0.1793  0.5141 -0.8555
 8857SOL     OW38029   3.741   1.098   9.027  0.1946 -0.0970  0.6370
 8857SOL    HW138030   3.748   1.187   9.060  1.1692 -1.0345  3.0115
 8857SOL    HW238031   3.654   1.100   8.988  0.7248 -0.3926 -0.5645
 8858SOL     OW38032   4.515   3.066   5.291 -0.0803 -0.2751 -0.6132
 8858SOL    HW138033   4.509   2.970   5.293  3.4728 -0.4903 -0.1406
 8858SOL    HW238034   4.508   3.080   5.385 -0.5583 -0.2155 -0.6546
 8859SOL     OW38035   2.438   0.301  10.899  0.0321  0.5460  0.3613
 8859SOL    HW138036   2.451   0.251  10.980  0.7540 -0.2530 -0.2379
 8859SOL    HW238037   2.527   0.311  10.864  0.1121 -0.1758  0.3522
 8860SOL     OW38038   4.517   1.478   8.118 -0.0128 -0.3190 -0.0672
 8860SOL    HW138039   4.605   1.497   8.149 -0.5776  1.5549  0.3717
 8860SOL    HW238040   4.467   1.504   8.196  0.2907  1.7823 -0.5876
 8861SOL     OW38041   1.070   3.683   3.786  0.6213 -0.3744 -0.2339
 8861SOL    HW138042   1.079   3.589   3.796  1.5410 -0.1982  0.6014
 8861SOL    HW238043   1.126   3.699   3.710  0.6871 -1.2801 -0.3706
 8862SOL     OW38044   3.837   3.282   1.356 -0.9721 -0.1187 -0.1809
 8862SOL    HW138045   3.826   3.257   1.264 -0.4010 -0.2419 -0.2163
 8862SOL    HW238046   3.747   3.288   1.388 -1.1136 -0.4522 -0.5137
 8863SOL     OW38047   2.412   1.877   4.864 -0.0852 -0.0654 -0.6479
 8863SOL    HW138048   2.479   1.810   4.854 -0.2159 -0.4728  1.3432
 8863SOL    HW238049   2.417   1.894   4.958  0.1174 -2.1062 -0.2950
 8864SOL     OW38050   1.707   2.718  11.748 -0.2531 -0.0672 -0.2748
 8864SOL    HW138051   1.687   2.757  11.663  1.2348 -0.1079 -0.6448
 8864SOL    HW238052   1.642   2.648  11.743  0.2805 -0.6451  0.9099
 8865SOL     OW38053   2.498   2.316   4.467 -0.4572  0.4177 -0.1763
 8865SOL    HW138054   2.549   2.308   4.387 -1.3880 -1.4138 -0.6176
 8865SOL    HW238055   2.410   2.328   4.430 -0.3906  0.0139 -0.4694
 8866SOL     OW38056   2.960   0.258   0.151  0.0213  0.2241  0.7432
 8866SOL    HW138057   3.005   0.272   0.068  0.3250  1.2196  1.0786
 8866SOL    HW238058   3.000   0.173   0.170  0.1010  0.1746  0.3377
 8867SOL     OW38059   2.928   1.556   0.012  0.4189 -0.1061 -0.4876
 8867SOL    HW138060   2.866   1.573   0.083  0.8966 -0.2623 -0.0312
 8867SOL    HW238061   2.872   1.502  17.643 -0.1712 -1.7279  1.6648
 8868SOL     OW38062   4.116   1.156   1.232 -0.2046 -0.6663 -0.2005
 8868SOL    HW138063   4.114   1.218   1.306  0.0853 -0.8806 -0.0151
 8868SOL    HW238064   4.036   1.104   1.240 -1.7766  1.9433  1.3428
 8869SOL     OW38065   1.358   4.291  13.498  0.1485  0.4561 -0.1663
 8869SOL    HW138066   1.333   4.368  13.448  0.3933  1.4561  1.2412
 8869SOL    HW238067   1.301   4.228  13.455  0.1673  0.7058 -0.5513
 8870SOL     OW38068   3.818   2.221   0.444  0.4750 -0.0643 -0.3435
 8870SOL    HW138069   3.796   2.253   0.532  0.9977 -2.3027  0.5936
 8870SOL    HW238070   3.904   2.180   0.452 -0.6279 -2.8521 -2.8414
 8871SOL     OW38071   1.553   1.445  15.475  0.6664 -0.1424  0.6175
 8871SOL    HW138072   1.471   1.451  15.426 -1.4864  0.6787  4.3441
 8871SOL    HW238073   1.625   1.440  15.413  2.1589 -0.2016  2.3743
 8872SOL     OW38074   2.348   0.811   7.253 -0.2429  0.5778 -0.3060
 8872SOL    HW138075   2.330   0.904   7.269 -0.4757  0.1478  1.9903
 8872SOL    HW238076   2.422   0.792   7.311  1.2529  2.0291 -1.7517
 8873SOL     OW38077   1.524   0.062   7.698 -0.1265 -0.2593 -0.1941
 8873SOL    HW138078   1.445   0.066   7.752 -0.8403 -1.8582 -1.1390
 8873SOL    HW238079   1.587   0.035   7.764  0.7062 -1.9328 -1.6678
 8874SOL     OW38080   2.438   3.658   4.241 -0.4184  0.0211 -0.3470
 8874SOL    HW138081   2.475   3.575   4.273 -0.5714  0.9920  2.3691
 8874SOL    HW238082   2.459   3.657   4.147 -0.6119  0.6358 -0.3949
 8875SOL     OW38083   3.350   3.773   4.138 -0.3756 -0.4452  0.3531
 8875SOL    HW138084   3.396   3.689   4.145  1.0482  0.2631 -0.5272
 8875SOL    HW238085   3.365   3.790   4.231 -0.3192  3.4709 -0.3887
 8876SOL     OW38086   3.022   1.428   4.746 -0.0990 -0.3680 -0.1209
 8876SOL    HW138087   2.992   1.506   4.699  3.2573  0.6730 -0.5383
 8876SOL    HW238088   2.977   1.353   4.707  1.3814 -1.6463  0.6065
 8877SOL     OW38089   4.184   4.648   5.410 -0.4025 -0.6766  0.2407
 8877SOL    HW138090   4.149   0.016   5.404  1.7841  0.0893 -1.2213
 8877SOL    HW238091   4.183   4.632   5.315  0.8863  1.1186 -0.0848
 8878SOL     OW38092   2.424   0.377   2.439 -0.0927  0.3118 -0.0736
 8878SOL    HW138093   2.330   0.368   2.455  0.4883 -2.0445  2.0411
 8878SOL    HW238094   2.451   0.286   2.428  2.2134  0.9269  0.4878
 8879SOL     OW38095   3.123   0.519  14.053  0.6936  0.1507 -0.6051
 8879SOL    HW138096   3.181   0.448  14.024  0.9264  1.2629 -2.8035
 8879SOL    HW238097   3.047   0.470  14.086 -0.9834  1.8145 -2.0377
 8880SOL     OW38098   4.495   1.453   4.005 -0.1301 -0.2652 -0.1312
 8880SOL    HW138099   4.471   1.492   4.089 -0.5059 -0.5862 -0.0858
 8880SOL    HW238100   4.414   1.402   3.995 -1.3064  1.1071  2.3003
 8881SOL     OW38101   4.355   2.788  14.955 -0.1669  0.4725  0.3687
 8881SOL    HW138102   4.409   2.710  14.942  0.1418  1.0225 -1.6992
 8881SOL    HW238103   4.273   2.752  14.919  1.8303 -3.0681 -0.6721
 8882SOL     OW38104   0.246   3.094  17.560 -1.0103  0.2786 -1.0313
 8882SOL    HW138105   0.293   3.085  17.643 -0.3699  0.8465 -1.3383
 8882SOL    HW238106   0.216   3.184  17.568 -1.5012  0.0624 -0.4445
 8883SOL     OW38107   0.244   4.051   6.436 -0.1172 -0.3402 -0.1488
 8883SOL    HW138108   0.231   4.109   6.361  0.7167 -0.1500 -0.1410
 8883SOL    HW238109   0.159   4.057   6.481 -0.1386 -1.5584 -0.0336
 8884SOL     OW38110   3.642   2.349   4.391 -0.0609  0.1451 -0.4936
 8884SOL    HW138111   3.599   2.288   4.331 -0.6987  2.0517 -1.9581
 8884SOL    HW238112   3.602   2.428   4.356  1.2340  1.3188  0.6602
 8885SOL     OW38113   1.974   0.136  10.432  0.2238  0.0093  0.3113
 8885SOL    HW138114   2.060   0.175  10.416 -0.0638  0.6107  0.2273
 8885SOL    HW238115   2.005   0.046  10.433 -2.6212 -0.9887 -0.3183
 8886SOL     OW38116   3.184   2.283   7.157 -0.7021  0.1451  0.6218
 8886SOL    HW138117   3.221   2.298   7.070  0.1806  2.1331  1.3281
 8886SOL    HW238118   3.205   2.368   7.195 -3.0645  0.6033  0.8747
 8887SOL     OW38119   0.256   1.706   6.562  0.2063 -0.5138 -0.1156
 8887SOL    HW138120   0.230   1.769   6.629 -1.9395 -0.1282 -1.2992
 8887SOL    HW238121   0.295   1.644   6.624  0.8241 -0.8323 -0.8245
 8888SOL     OW38122   3.248   3.315   0.489 -0.3467  0.5672  0.1024
 8888SOL    HW138123   3.260   3.405   0.518  1.4324  0.7646 -1.2356
 8888SOL    HW238124   3.195   3.285   0.563 -1.1554  1.6572 -0.0466
 8889SOL     OW38125   1.095   1.243   2.072  0.5241  0.2701 -0.8524
 8889SOL    HW138126   1.026   1.275   2.129  1.2636  1.3622 -0.5569
 8889SOL    HW238127   1.076   1.151   2.089 -1.0312  0.7316 -0.0855
 8890SOL     OW38128   4.182   4.248   7.128 -0.4618  0.1937 -0.1212
 8890SOL    HW138129   4.119   4.267   7.059 -0.1564  0.2366 -0.3880
 8890SOL    HW238130   4.249   4.316   7.122  0.7904 -1.1677 -1.4162
 8891SOL     OW38131   3.889   3.888   7.805  0.0871  0.5608  0.3086
 8891SOL    HW138132   3.808   3.879   7.855  0.0145  0.3686  0.1544
 8891SOL    HW238133   3.851   3.935   7.730  0.5606  0.6713  0.1357
 8892SOL     OW38134   1.803   4.500   6.573  0.5147 -0.0385  0.3634
 8892SOL    HW138135   1.761   4.586   6.570  1.0552  0.2458  0.9526
 8892SOL    HW238136   1.777   4.456   6.654  0.3146  0.3059  0.4842
 8893SOL     OW38137   1.013   1.404   4.133  0.3129  0.0010 -0.7864
 8893SOL    HW138138   0.979   1.431   4.218 -0.6738 -0.0417 -1.1705
 8893SOL    HW238139   1.103   1.373   4.147  1.1106  1.7869 -1.9839
 8894SOL     OW38140   3.338   1.638   5.578  0.4309  0.3857 -0.1219
 8894SOL    HW138141   3.344   1.544   5.557 -1.6560  0.4596 -1.0395
 8894SOL    HW238142   3.420   1.662   5.535  1.1499  0.5567  1.3491
 8895SOL     OW38143   1.253   3.874   3.842 -0.2864 -0.4305  0.2835
 8895SOL    HW138144   1.179   3.813   3.846  0.4203 -1.4459 -2.6824
 8895SOL    HW238145   1.322   3.826   3.797  0.9468 -0.5496  2.3228
 8896SOL     OW38146   1.118   0.429   1.376  0.2627  0.1732 -0.0151
 8896SOL    HW138147   1.195   0.422   1.434  0.3854  4.6983  0.3942
 8896SOL    HW238148   1.049   0.416   1.441 -1.0183 -0.3882 -1.5079
 8897SOL     OW38149   0.116   4.183  10.433  0.0753 -0.5899 -0.3084
 8897SOL    HW138150   0.042   4.235  10.402  0.4086  0.1030  0.0393
 8897SOL    HW238151   0.144   4.129  10.360 -2.2076 -0.4933 -1.2596
 8898SOL     OW38152   2.715   1.586   6.236  0.3204  0.0572  0.3452
 8898SOL    HW138153   2.629   1.604   6.198  1.7584  1.8927 -2.0727
 8898SOL    HW238154   2.714   1.490   6.225 -2.5929 -0.1502  2.4825
 8899SOL     OW38155   3.210   1.963   2.671  0.6278 -0.2315 -0.3954
 8899SOL    HW138156   3.251   2.022   2.734  0.7769 -0.2960 -0.4314
 8899SOL    HW238157   3.203   2.015   2.591 -0.1187  1.7033  0.9350
 8900SOL     OW38158   3.910   0.429   8.556  0.1767  0.3598 -0.8170
 8900SOL    HW138159   3.845   0.404   8.622  1.5648 -1.1126 -0.0348
 8900SOL    HW238160   3.973   0.479   8.608  1.1976 -0.1318 -1.5765
 8901SOL     OW38161   4.568   1.265  17.462 -0.2014  0.0352 -0.2499
 8901SOL    HW138162   4.618   1.229  17.389 -1.8582  0.6227 -1.6708
 8901SOL    HW238163   4.479   1.270  17.426  0.6049 -0.7472 -2.3141
 8902SOL     OW38164   2.762   4.225  10.776 -0.4769 -0.1102 -0.0672
 8902SOL    HW138165   2.819   4.302  10.777  1.1521 -1.3255 -1.0366
 8902SOL    HW238166   2.786   4.179  10.696  1.4052 -0.6376  0.7995
 8903SOL     OW38167   1.138   1.310   1.255  0.0183 -0.2702  0.1362
 8903SOL    HW138168   1.136   1.366   1.333  0.5172  0.5660 -0.4449
 8903SOL    HW238169   1.193   1.240   1.289  0.3157 -0.7571 -1.3510
 8904SOL     OW38170   3.566   0.227   6.677 -0.1145  0.0813  0.4117
 8904SOL    HW138171   3.592   0.154   6.621 -1.9900 -1.1999  1.2365
 8904SOL    HW238172   3.484   0.193   6.713 -0.2802  1.8879  1.7324
 8905SOL     OW38173   3.867   1.893   9.686  0.4966 -0.4894 -0.1508
 8905SOL    HW138174   3.928   1.953   9.727 -0.6189 -0.5132  1.5433
 8905SOL    HW238175   3.845   1.928   9.599 -1.3041 -0.8546  0.1494
 8906SOL     OW38176   2.442   4.388   8.824 -0.1278 -0.4715  0.0292
 8906SOL    HW138177   2.361   4.362   8.868  0.5014 -0.2897  1.3140
 8906SOL    HW238178   2.410   4.468   8.784 -1.4985 -0.1638  1.7525
 8907SOL     OW38179   0.931   1.151   1.705 -0.6739 -0.8066 -0.6804
 8907SOL    HW138180   0.901   1.073   1.659 -3.3105 -0.7346  0.9149
 8907SOL    HW238181   0.880   1.135   1.783  0.7963 -0.8914  0.2712
 8908SOL     OW38182   1.425   2.622   7.571  0.5663  0.1467 -0.4839
 8908SOL    HW138183   1.510   2.632   7.614 -0.5495 -0.0093  1.7823
 8908SOL    HW238184   1.400   2.713   7.561  1.3032  0.4169  0.0603
 8909SOL     OW38185   4.682   2.982   4.723  1.0504  0.5772 -0.4970
 8909SOL    HW138186   0.047   2.948   4.749  0.1134 -1.2980  0.0942
 8909SOL    HW238187   4.697   2.941   4.638 -0.8490 -1.3051  0.0880
 8910SOL     OW38188   3.398   0.777  12.600  0.5375  0.3557 -0.1096
 8910SOL    HW138189   3.327   0.723  12.564  0.6504  0.4849 -0.5316
 8910SOL    HW238190   3.450   0.797  12.523  0.2708 -0.0890 -0.4062
 8911SOL     OW38191   0.996   3.503   5.737  0.4021 -0.2022 -0.7123
 8911SOL    HW138192   0.971   3.568   5.802 -2.3499 -2.4477  0.4561
 8911SOL    HW238193   1.037   3.555   5.668 -0.3465  0.9598 -0.2865
 8912SOL     OW38194   4.057   4.369   6.889 -0.0070 -0.2985  0.3232
 8912SOL    HW138195   4.085   4.283   6.860  2.2213  0.7289 -0.5731
 8912SOL    HW238196   4.035   4.409   6.805 -1.7950 -0.2553  0.8056
 8913SOL     OW38197   4.264   2.367   2.256 -0.7242 -0.5851 -0.1827
 8913SOL    HW138198   4.230   2.401   2.339  1.6380 -1.0845  1.0198
 8913SOL    HW238199   4.232   2.277   2.263  0.8805 -1.2473 -1.4428
 8914SOL     OW38200   1.674   3.025   3.378 -0.0308 -0.2858 -0.6881
 8914SOL    HW138201   1.719   2.942   3.361  1.1125  0.6390 -2.2241
 8914SOL    HW238202   1.734   3.071   3.436 -3.8515  1.5230  1.7781
 8915SOL     OW38203   4.229   2.123   0.698 -0.1272 -0.2017  0.0566
 8915SOL    HW138204   4.191   2.042   0.734 -1.1378  0.1116 -0.3162
 8915SOL    HW238205   4.266   2.093   0.615 -2.2748 -0.7028 -0.7119
 8916SOL     OW38206   4.458   0.138   7.046  0.0223  0.0475  0.1096
 8916SOL    HW138207   4.537   0.189   7.065 -0.3550 -0.5054  3.1332
 8916SOL    HW238208   4.425   0.128   7.135  1.1267  2.6648  0.8010
 8917SOL     OW38209   4.078   1.140   1.707 -0.3572  0.1460 -0.6507
 8917SOL    HW138210   4.150   1.157   1.767  1.1841 -1.7443 -1.9651
 8917SOL    HW238211   4.060   1.046   1.701  1.4426 -0.4203  2.8628
 8918SOL     OW38212   1.015   0.365   2.449 -0.3749 -0.2554 -0.0902
 8918SOL    HW138213   0.981   0.359   2.538  1.4897  1.0776  0.6985
 8918SOL    HW238214   0.932   0.358   2.402 -0.8444  0.7970  0.5911
 8919SOL     OW38215   1.353   0.892  15.246  0.4214 -0.0495 -0.4955
 8919SOL    HW138216   1.260   0.884  15.266  0.3701  0.4439 -0.5534
 8919SOL    HW238217   1.373   0.798  15.247  0.5782 -0.0110 -0.1131
 8920SOL     OW38218   4.351   1.316  17.308  0.1514 -0.0085 -0.0713
 8920SOL    HW138219   4.397   1.276  17.235  1.8254 -0.6324  1.3372
 8920SOL    HW238220   4.265   1.323  17.266  0.3243  1.5034 -0.1684
 8921SOL     OW38221   2.158   2.212  14.128  0.0011 -0.4975 -0.0604
 8921SOL    HW138222   2.151   2.128  14.173  1.8991  0.1139  1.3594
 8921SOL    HW238223   2.253   2.221  14.133 -0.0347  0.0609 -0.3630
 8922SOL     OW38224   0.066   3.223   7.765 -0.0528  0.0833  1.2028
 8922SOL    HW138225   0.149   3.175   7.771  0.5687  0.8463 -1.6389
 8922SOL    HW238226   0.093   3.305   7.725 -0.3057  0.6215  2.1420
 8923SOL     OW38227   3.579   3.682  15.904  0.9970  0.2713  0.3413
 8923SOL    HW138228   3.640   3.747  15.868 -0.0822  0.9178 -0.3173
 8923SOL    HW238229   3.607   3.684  15.996 -0.0581  0.8368  0.6478
 8924SOL     OW38230   2.314   0.323   8.765  0.1574 -0.3180 -0.1391
 8924SOL    HW138231   2.364   0.246   8.791 -0.1155 -0.4666 -0.0495
 8924SOL    HW238232   2.226   0.291   8.745  0.8709 -1.1425 -1.8827
 8925SOL     OW38233   3.154   1.314   3.358  0.0664  0.4169  0.4788
 8925SOL    HW138234   3.082   1.274   3.309  1.2986 -2.8183  1.3107
 8925SOL    HW238235   3.165   1.399   3.315 -0.9366  1.1837  1.7440
 8926SOL     OW38236   0.503   1.384  15.162 -0.5931  0.4377 -0.3991
 8926SOL    HW138237   0.521   1.354  15.073 -1.1946 -0.5217 -0.1927
 8926SOL    HW238238   0.476   1.473  15.139  0.1017  0.8009  0.1928
 8927SOL     OW38239   1.177   2.795  11.924  0.5390 -0.6059 -0.1295
 8927SOL    HW138240   1.216   2.720  11.969  1.5565  0.4097  0.6795
 8927SOL    HW238241   1.168   2.766  11.833 -0.4115 -0.4000 -0.0956
 8928SOL     OW38242   1.154   4.354  10.569  0.0420 -0.1923 -0.0863
 8928SOL    HW138243   1.123   4.265  10.581  0.1465 -0.1587  0.4280
 8928SOL    HW238244   1.246   4.339  10.591  0.1448  1.8529  0.9175
 8929SOL     OW38245   4.297   0.724  13.194  0.7575 -0.0133 -0.0600
 8929SOL    HW138246   4.375   0.697  13.146  0.1039 -0.8070 -0.6925
 8929SOL    HW238247   4.298   0.657  13.263  0.2717  1.6115  1.5114
 8930SOL     OW38248   3.552   4.220   2.419  0.4157 -0.3218 -0.2965
 8930SOL    HW138249   3.601   4.165   2.359  1.7171 -1.3158  1.6885
 8930SOL    HW238250   3.607   4.299   2.419 -1.2141  0.8126  1.6657
 8931SOL     OW38251   1.353   4.179   7.663  0.2758 -0.1815 -0.4905
 8931SOL    HW138252   1.259   4.193   7.669  0.3245  0.0900 -0.3280
 8931SOL    HW238253   1.383   4.267   7.687  1.4713 -1.9429  4.3709
 8932SOL     OW38254   3.866   3.765   8.106  0.5456  0.4402 -0.4612
 8932SOL    HW138255   3.927   3.821   8.154  0.6559 -1.0746  1.1676
 8932SOL    HW238256   3.789   3.813   8.136 -0.3285 -0.2609 -1.6456
 8933SOL     OW38257   3.911   0.167  17.152  0.3366  0.1111  0.3292
 8933SOL    HW138258   3.917   0.259  17.126  1.3531  0.6041  2.3276
 8933SOL    HW238259   3.916   0.113  17.073 -0.1390  1.1531 -0.4157
 8934SOL     OW38260   0.984   2.908   5.991  0.8241  0.2775  1.0436
 8934SOL    HW138261   0.916   2.923   6.056  2.4111 -0.5997  2.9334
 8934SOL    HW238262   0.998   2.819   6.024 -0.6669 -0.4503 -0.2793
 8935SOL     OW38263   0.901   2.968  16.876  0.8212  0.0284 -0.4881
 8935SOL    HW138264   0.963   3.039  16.864  0.9866 -0.0625 -0.1827
 8935SOL    HW238265   0.946   2.910  16.938 -1.8439 -1.3924  0.1205
 8936SOL     OW38266   4.707   1.059   9.366  0.0613 -0.4389  0.1809
 8936SOL    HW138267   4.616   1.053   9.396 -0.5652 -0.1787 -1.6495
 8936SOL    HW238268   0.029   0.991   9.418  0.4533  0.8991  1.5924
 8937SOL     OW38269   4.434   3.784   3.754 -0.2927 -0.0812 -0.3694
 8937SOL    HW138270   4.421   3.794   3.849  1.4361 -0.7038 -0.0744
 8937SOL    HW238271   4.507   3.722   3.748 -0.4476 -0.5540  2.5455
 8938SOL     OW38272   1.895   2.613  13.762  0.2725 -0.2952 -0.1552
 8938SOL    HW138273   1.946   2.560  13.823 -1.7428 -1.3355  0.6522
 8938SOL    HW238274   1.825   2.554  13.733  0.0543 -0.3205  0.4354
 8939SOL     OW38275   4.405   2.123   6.953  0.2548 -0.0453 -0.5483
 8939SOL    HW138276   4.488   2.109   6.907  0.6605  1.8059 -0.3819
 8939SOL    HW238277   4.408   2.218   6.941 -3.3373  0.2263  0.9665
 8940SOL     OW38278   1.205   1.902  16.765 -0.0348  0.5970  0.0107
 8940SOL    HW138279   1.152   1.977  16.737  0.7885  0.1387 -2.8150
 8940SOL    HW238280   1.166   1.836  16.707 -0.4023  1.7756 -1.0803
 8941SOL     OW38281   3.399   0.965  17.006  0.3573 -0.3967 -0.1990
 8941SOL    HW138282   3.437   0.878  16.994 -0.8095 -1.0765  1.0371
 8941SOL    HW238283   3.306   0.944  17.004 -0.1996  1.7377  3.9795
 8942SOL     OW38284   4.327   2.159   4.785 -0.4469  0.3349 -0.0078
 8942SOL    HW138285   4.309   2.253   4.783  2.1763  0.8406  0.4179
 8942SOL    HW238286   4.372   2.164   4.869 -0.6575 -1.3317  0.2078
 8943SOL     OW38287   0.725   3.662   7.861 -0.8790 -0.4999 -0.2095
 8943SOL    HW138288   0.689   3.666   7.773  1.7573 -2.4296 -1.3484
 8943SOL    HW238289   0.645   3.637   7.908 -0.7563 -1.6781 -0.6220
 8944SOL     OW38290   1.116   3.091   8.840 -0.2918 -0.1542  0.2509
 8944SOL    HW138291   1.098   3.147   8.915  3.2727  1.7696 -0.3298
 8944SOL    HW238292   1.172   3.138   8.778  1.9561  1.0226  3.1755
 8945SOL     OW38293   1.587   0.444   2.470  0.3897  0.6117 -0.0407
 8945SOL    HW138294   1.628   0.521   2.510  0.2287  0.3591  0.6069
 8945SOL    HW238295   1.605   0.377   2.537  0.2161  1.3145  0.7104
 8946SOL     OW38296   3.583   1.335   8.652  0.1271 -0.3171 -0.0501
 8946SOL    HW138297   3.521   1.288   8.707 -1.1198  2.6921  1.1358
 8946SOL    HW238298   3.663   1.309   8.697 -1.6341 -3.6303  1.1344
 8947SOL     OW38299   4.674   3.086   1.453 -0.5547  0.0185 -0.4832
 8947SOL    HW138300   4.691   3.013   1.393 -1.3625 -1.7789  1.4746
 8947SOL    HW238301   4.610   3.137   1.403  2.1409  2.0368 -1.8798
 8948SOL     OW38302   0.831   2.524  10.009 -0.8057  0.1743  0.0916
 8948SOL    HW138303   0.745   2.482  10.004 -0.3233 -0.8568  0.3802
 8948SOL    HW238304   0.812   2.585  10.080  1.5199  0.9491  0.0403
 8949SOL     OW38305   0.046   4.105  13.544 -0.1506 -0.1175  0.1753
 8949SOL    HW138306   4.715   4.082  13.622 -0.7388  1.0070  0.1106
 8949SOL    HW238307   4.698   4.099  13.478 -0.2671  1.4966  0.1544
 8950SOL     OW38308   2.620   4.018   7.398 -0.0828 -0.2949 -0.2638
 8950SOL    HW138309   2.569   4.069   7.462 -0.3749 -1.1318  0.1641
 8950SOL    HW238310   2.694   3.998   7.455 -0.0053  1.7762  0.3791
 8951SOL     OW38311   0.582   0.930  11.337 -0.5066 -0.0036 -0.3264
 8951SOL    HW138312   0.618   1.017  11.320 -0.1047 -0.0637  0.2032
 8951SOL    HW238313   0.584   0.934  11.433 -0.7577 -2.1662 -0.2175
 8952SOL     OW38314   1.262   2.899  13.769  0.2540 -0.3261  0.1006
 8952SOL    HW138315   1.303   2.891  13.683  2.0090  1.4683  0.7858
 8952SOL    HW238316   1.214   2.982  13.759 -0.5527 -0.8587 -0.5091
 8953SOL     OW38317   0.768   2.278   9.022 -0.7929 -0.4349  0.0981
 8953SOL    HW138318   0.792   2.201   9.073  1.6551  0.5937  0.5092
 8953SOL    HW238319   0.677   2.252   9.007 -1.1824 -0.0711  1.8256
 8954SOL     OW38320   0.428   4.277   8.543  0.1139  0.3191  0.2305
 8954SOL    HW138321   0.372   4.312   8.612  0.4306 -0.1819  0.7395
 8954SOL    HW238322   0.397   4.187   8.532  0.6832  0.2868 -1.0385
 8955SOL     OW38323   2.012   2.300  14.818 -0.3018 -0.0892 -0.2663
 8955SOL    HW138324   2.063   2.353  14.757 -1.8996  1.7740  0.0372
 8955SOL    HW238325   2.012   2.218  14.768 -0.3963 -0.5503  0.4936
 8956SOL     OW38326   3.413   3.886  15.721  0.4031  1.0674 -0.4611
 8956SOL    HW138327   3.507   3.902  15.726  0.5790 -0.7472  2.4020
 8956SOL    HW238328   3.401   3.820  15.789  0.4558  2.7316  1.1749
 8957SOL     OW38329   1.751   0.985   7.991 -0.7551  0.2180  0.2188
 8957SOL    HW138330   1.751   0.929   8.069 -1.6283 -0.2807 -0.1389
 8957SOL    HW238331   1.802   1.053   8.035  0.3214 -1.5532  1.7249
 8958SOL     OW38332   4.409   2.411   0.529 -0.2601  0.9365 -0.3982
 8958SOL    HW138333   4.409   2.460   0.447 -0.3654 -0.6909 -1.3477
 8958SOL    HW238334   4.329   2.360   0.535  1.4032 -1.6346 -0.1554
 8959SOL     OW38335   0.823   0.507   8.743  0.0363 -0.4394  0.5276
 8959SOL    HW138336   0.796   0.417   8.760 -1.2644  0.1109  1.2837
 8959SOL    HW238337   0.812   0.535   8.834 -1.3049  2.4388 -0.5326
 8960SOL     OW38338   3.710   2.768   7.706  0.4639  0.2008  0.6119
 8960SOL    HW138339   3.779   2.810   7.654 -1.1311  0.3698 -1.3742
 8960SOL    HW238340   3.769   2.743   7.776 -0.1590  0.6188  1.2805
 8961SOL     OW38341   1.121   3.373  10.982 -0.7569  0.0102 -0.3099
 8961SOL    HW138342   1.084   3.461  10.987  0.6634  0.5549  0.7215
 8961SOL    HW238343   1.127   3.352  10.889 -0.2302  0.1974 -0.3215
 8962SOL     OW38344   2.194   3.150  17.432 -0.0785  0.5347  0.1549
 8962SOL    HW138345   2.222   3.074  17.483 -0.2117  0.0344 -0.5146
 8962SOL    HW238346   2.109   3.166  17.473  0.2049 -1.1212  1.3956
 8963SOL     OW38347   2.100   0.708   8.659 -0.1733  0.0323 -0.3630
 8963SOL    HW138348   2.147   0.692   8.741  1.1644  2.8742 -0.5547
 8963SOL    HW238349   2.069   0.621   8.637 -0.9682  0.7125 -1.9038
 8964SOL     OW38350   2.559   3.590  12.626 -0.0301  0.4459  0.2475
 8964SOL    HW138351   2.630   3.600  12.689  1.3840 -0.3991 -1.2056
 8964SOL    HW238352   2.490   3.611  12.689  0.3066  1.0427  0.4231
 8965SOL     OW38353   4.597   4.529   8.627 -0.0992  0.0531  0.0626
 8965SOL    HW138354   4.504   4.537   8.606 -0.0242  1.1978  0.1588
 8965SOL    HW238355   4.635   4.611   8.597 -0.2554 -0.0614 -0.4522
 8966SOL     OW38356   0.892   4.265  10.765 -0.6560 -0.6858  0.8438
 8966SOL    HW138357   0.927   4.316  10.839 -1.8368 -2.0439  2.3191
 8966SOL    HW238358   0.974   4.225  10.737  0.3674  1.4739  0.7224
 8967SOL     OW38359   0.226   2.374   4.846 -0.6228 -0.6311  0.2647
 8967SOL    HW138360   0.214   2.416   4.932 -1.2122  1.0216 -0.6257
 8967SOL    HW238361   0.301   2.417   4.805 -1.2437  1.0279  0.8548
 8968SOL     OW38362   1.692   0.978   3.531  0.0333  0.4003  0.5987
 8968SOL    HW138363   1.702   1.032   3.452  1.1464  1.2215  1.2910
 8968SOL    HW238364   1.764   0.915   3.522  0.7956  1.4879 -0.9333
 8969SOL     OW38365   1.742   1.816   0.792 -0.3141 -0.8122  0.4790
 8969SOL    HW138366   1.677   1.854   0.852 -0.7791  1.6942 -1.6143
 8969SOL    HW238367   1.735   1.724   0.819 -1.5260 -1.4460 -1.9716
 8970SOL     OW38368   2.262   4.492   4.372  0.8429 -0.0263 -0.2610
 8970SOL    HW138369   2.176   4.532   4.356  0.3839 -0.8393  0.1328
 8970SOL    HW238370   2.302   4.518   4.289  0.6308 -1.0350 -0.6867
 8971SOL     OW38371   1.658   3.157  11.639 -0.5713 -0.3943  0.5537
 8971SOL    HW138372   1.644   3.149  11.545 -4.0174 -0.8860  1.1135
 8971SOL    HW238373   1.585   3.102  11.667 -0.8567 -0.9225 -1.2634
 8972SOL     OW38374   2.831   2.105   1.449 -0.2505 -0.0044  0.1399
 8972SOL    HW138375   2.856   2.192   1.481  0.8424  0.4947 -2.0688
 8972SOL    HW238376   2.872   2.112   1.362 -0.7396 -0.2354 -0.1096
 8973SOL     OW38377   2.364   0.550   4.619 -0.0278  0.1445 -0.0836
 8973SOL    HW138378   2.430   0.616   4.597 -1.0694  0.9773 -0.7361
 8973SOL    HW238379   2.425   0.504   4.676  0.5863  0.6179 -0.3624
 8974SOL     OW38380   1.828   2.356  11.263  0.5569 -0.3001 -0.1896
 8974SOL    HW138381   1.845   2.435  11.314  1.2384  1.5935 -3.3778
 8974SOL    HW238382   1.857   2.289  11.326  0.9888  0.3498  0.2986
 8975SOL     OW38383   1.746   0.348  17.465  0.2461 -0.3168  0.3267
 8975SOL    HW138384   1.763   0.278  17.401  0.9481 -0.1778  0.3630
 8975SOL    HW238385   1.704   0.294  17.532 -1.0068  1.1977  0.7500
 8976SOL     OW38386   3.940   3.918   1.915  0.1904 -0.2223  0.7663
 8976SOL    HW138387   4.033   3.924   1.895  0.8961 -0.4826  4.0210
 8976SOL    HW238388   3.930   4.001   1.961 -0.3305 -0.2866  0.7747
 8977SOL     OW38389   4.506   3.012   3.643  0.1797 -0.0947 -0.1375
 8977SOL    HW138390   4.552   3.087   3.603 -0.0476  0.8428  1.3483
 8977SOL    HW238391   4.476   3.051   3.726 -0.8266  0.8430 -0.9486
 8978SOL     OW38392   1.776   1.218   2.234  0.0790  0.5591 -0.1532
 8978SOL    HW138393   1.730   1.264   2.164  0.0281  0.4644 -0.1823
 8978SOL    HW238394   1.854   1.181   2.192  0.6078 -0.3994  1.6780
 8979SOL     OW38395   3.676   3.189  13.829  0.3674 -0.7299  0.4264
 8979SOL    HW138396   3.747   3.253  13.836 -1.7377  1.6488 -0.3160
 8979SOL    HW238397   3.690   3.139  13.910  1.6041 -0.4541  0.3875
 8980SOL     OW38398   3.491   4.451   0.155  0.2538 -0.4369 -0.4279
 8980SOL    HW138399   3.536   4.389   0.212 -1.2841 -0.4350  0.8195
 8980SOL    HW238400   3.498   4.418   0.066  2.4383 -0.8120 -0.0963
 8981SOL     OW38401   1.202   3.546   3.009  0.2096  0.1371 -0.4071
 8981SOL    HW138402   1.269   3.585   3.065  1.5666 -1.2137 -1.0880
 8981SOL    HW238403   1.264   3.502   2.952  2.5959  1.3897  1.1926
 8982SOL     OW38404   2.756   1.592   0.925  0.0314  0.6863  0.1271
 8982SOL    HW138405   2.781   1.500   0.923 -2.0512  0.2371 -4.0378
 8982SOL    HW238406   2.663   1.577   0.912  0.3316 -0.0521 -1.1353
 8983SOL     OW38407   1.519   1.177  10.682 -0.2830 -0.5298  0.1331
 8983SOL    HW138408   1.583   1.121  10.726 -0.6423 -0.8014  0.3106
 8983SOL    HW238409   1.482   1.223  10.758 -0.2117  1.3051 -0.9502
 8984SOL     OW38410   1.672   1.521   8.440  0.4596 -0.4757  0.6299
 8984SOL    HW138411   1.679   1.604   8.488  2.3967  0.3910 -1.1492
 8984SOL    HW238412   1.686   1.452   8.505  0.6170  0.6454  1.7974
 8985SOL     OW38413   1.220   4.561   2.576 -0.1246  0.1416  0.1498
 8985SOL    HW138414   1.273   4.627   2.532  0.0699  0.8129  1.4123
 8985SOL    HW238415   1.147   4.534   2.519 -0.1264 -2.9364  1.5710
 8986SOL     OW38416   1.258   3.267   8.658 -0.2164  0.0835  0.7934
 8986SOL    HW138417   1.324   3.335   8.643  0.8329 -1.0625  0.1285
 8986SOL    HW238418   1.183   3.306   8.613 -0.7607 -1.9354 -0.0591
 8987SOL     OW38419   2.545   4.349   7.054  0.1910 -0.1556  0.1943
 8987SOL    HW138420   2.604   4.276   7.069  2.9457  1.7390 -1.4748
 8987SOL    HW238421   2.468   4.331   7.109 -0.7682  1.2415 -0.6985
 8988SOL     OW38422   0.754   2.614  14.439 -0.0996 -0.0154  0.1885
 8988SOL    HW138423   0.787   2.531  14.472  0.6104 -0.1479 -0.8441
 8988SOL    HW238424   0.837   2.662  14.439  0.5538 -1.1548  0.9324
 8989SOL     OW38425   1.912   0.558   5.536 -0.1640  0.5267 -0.2589
 8989SOL    HW138426   1.865   0.630   5.494 -1.0356  1.4937  2.3622
 8989SOL    HW238427   1.845   0.491   5.553  1.2198 -1.0540 -0.9868
 8990SOL     OW38428   2.817   4.361  12.068  0.7547 -0.2208 -0.1523
 8990SOL    HW138429   2.910   4.346  12.055  0.4315 -0.1428 -2.5036
 8990SOL    HW238430   2.814   4.431  12.133  0.0099 -0.4715  0.0949
 8991SOL     OW38431   0.499   1.756   4.372  0.5765 -0.1150 -0.6644
 8991SOL    HW138432   0.459   1.804   4.298  3.4285 -0.2889 -2.3081
 8991SOL    HW238433   0.426   1.703   4.404 -0.5410  1.6992 -0.1712
 8992SOL     OW38434   4.120   4.119   6.833  0.1239 -0.4566  0.2387
 8992SOL    HW138435   4.164   4.053   6.889  0.8118 -0.9822 -0.9248
 8992SOL    HW238436   4.061   4.064   6.782 -0.7720  0.7737 -0.0464
 8993SOL     OW38437   0.303   0.861   5.918 -0.0253  0.6251 -0.1361
 8993SOL    HW138438   0.380   0.913   5.942 -0.1126  0.7008 -0.0196
 8993SOL    HW238439   0.242   0.872   5.990  0.8829  1.5964  0.4908
 8994SOL     OW38440   3.705   2.339  10.018  0.1436 -0.5709 -0.3690
 8994SOL    HW138441   3.709   2.379   9.932 -1.2815 -0.5358 -0.4160
 8994SOL    HW238442   3.664   2.406  10.072 -0.3560  1.7810 -3.6934
 8995SOL     OW38443   0.898   2.340  15.411  0.4651 -0.6984 -0.4749
 8995SOL    HW138444   0.850   2.301  15.338  0.0329 -0.1744 -0.4759
 8995SOL    HW238445   0.980   2.372  15.373 -0.4032 -1.3668 -2.9418
 8996SOL     OW38446   2.929   3.893   4.925 -0.1987  0.5160 -0.0078
 8996SOL    HW138447   2.957   3.903   5.016  0.0922 -0.9471  0.0718
 8996SOL    HW238448   2.945   3.799   4.916 -1.1814 -0.0221  3.6529
 8997SOL     OW38449   3.185   0.988   2.016  0.0290  0.0635  0.2608
 8997SOL    HW138450   3.194   0.955   1.927  1.0894 -1.1777  0.8414
 8997SOL    HW238451   3.241   1.066   2.007 -2.7293  1.9869 -0.4904
 8998SOL     OW38452   2.454   1.534   1.786  0.5845 -0.3425 -0.6340
 8998SOL    HW138453   2.538   1.498   1.815  2.0491  1.6224 -2.5011
 8998SOL    HW238454   2.487   1.590   1.716 -0.0744 -0.9087 -1.4089
 8999SOL     OW38455   3.379   4.509   5.790 -0.3974  0.7798  0.4566
 8999SOL    HW138456   3.428   4.446   5.843  0.3752 -0.1790 -1.3947
 8999SOL    HW238457   3.446   4.556   5.740 -0.1654 -1.6365 -1.5086
 9000SOL     OW38458   1.353   4.431   0.507  0.5283 -0.8872 -0.4862
 9000SOL    HW138459   1.311   4.517   0.508  1.5418 -0.3893 -0.4012
 9000SOL    HW238460   1.430   4.458   0.456 -0.7758  0.1984 -1.8729
 9001SOL     OW38461   2.134   2.397  11.445 -0.3371  0.1587 -0.1100
 9001SOL    HW138462   2.126   2.324  11.385 -2.3784  1.0331 -0.8990
 9001SOL    HW238463   2.208   2.445  11.409 -2.2461  1.6452 -2.0968
 9002SOL     OW38464   4.607   1.951   5.074 -0.3633  0.5021 -0.2180
 9002SOL    HW138465   4.649   1.865   5.074 -0.8893  0.2422  0.2889
 9002SOL    HW238466   4.658   1.998   5.009  0.8645 -0.5453 -0.0111
 9003SOL     OW38467   0.501   2.300   8.272 -0.1842 -0.3069 -0.0652
 9003SOL    HW138468   0.520   2.292   8.179 -1.1488 -0.9671 -0.2101
 9003SOL    HW238469   0.587   2.331   8.302  0.2035 -2.5629  1.1888
 9004SOL     OW38470   3.026   2.327   6.398  0.3237 -0.7244  0.4007
 9004SOL    HW138471   2.933   2.306   6.401  0.1871 -0.0328  0.9209
 9004SOL    HW238472   3.041   2.370   6.313 -2.1738 -2.4934 -0.9558
 9005SOL     OW38473   3.778   2.229   2.806 -0.4943  0.4403  0.3751
 9005SOL    HW138474   3.785   2.285   2.884  1.1831  1.6749 -0.6334
 9005SOL    HW238475   3.846   2.270   2.752  0.8891  0.9656  2.4782
 9006SOL     OW38476   1.607   0.754   9.025 -0.1918 -0.1319 -0.4039
 9006SOL    HW138477   1.512   0.764   9.031 -0.2183 -0.5157 -0.1774
 9006SOL    HW238478   1.636   0.809   9.098  1.3137 -0.1151 -1.0247
 9007SOL     OW38479   2.055   1.620  14.273  0.0480 -0.5713 -0.2386
 9007SOL    HW138480   2.095   1.549  14.222 -0.3336  1.6623 -3.7021
 9007SOL    HW238481   1.968   1.587  14.296 -0.1229  0.7999  1.0646
 9008SOL     OW38482   4.174   1.222  15.209  0.1713 -0.0386  0.0005
 9008SOL    HW138483   4.153   1.180  15.293  0.9166 -1.9094 -0.7492
 9008SOL    HW238484   4.121   1.302  15.217 -0.3566 -0.2400 -1.5060
 9009SOL     OW38485   4.015   3.280  13.630 -0.0712  0.0275 -0.5333
 9009SOL    HW138486   4.072   3.316  13.562  2.8295  0.9489  2.3519
 9009SOL    HW238487   3.974   3.205  13.586 -0.5999 -0.0424  0.0921
 9010SOL     OW38488   3.681   3.042   0.947  0.4867  0.4942  0.4275
 9010SOL    HW138489   3.593   3.023   0.915  0.6930 -0.3386  0.3554
 9010SOL    HW238490   3.673   3.035   1.042  1.0946  0.7944  0.5023
 9011SOL     OW38491   0.233   3.953   2.698  0.3084  0.0297  0.0150
 9011SOL    HW138492   0.216   3.919   2.610  0.7723 -0.1773  0.0084
 9011SOL    HW238493   0.310   4.008   2.690  1.6763 -1.8869  0.1722
 9012SOL     OW38494   1.337   1.878   9.201  0.3618 -0.2389  0.2651
 9012SOL    HW138495   1.320   1.890   9.107 -2.1857 -2.0837  0.4889
 9012SOL    HW238496   1.428   1.849   9.202  0.9700  1.6410 -0.5240
 9013SOL     OW38497   0.531   1.049   8.746 -0.2490 -0.4108 -0.3412
 9013SOL    HW138498   0.605   1.097   8.708 -1.3019  2.2545  0.9287
 9013SOL    HW238499   0.550   1.047   8.840 -1.5564  0.7764 -0.0532
 9014SOL     OW38500   3.655   3.052   9.173 -0.5451  0.0105  0.0945
 9014SOL    HW138501   3.632   3.061   9.266  1.0955 -2.1949  0.7301
 9014SOL    HW238502   3.598   2.977   9.161 -0.3324 -0.4416  1.8207
 9015SOL     OW38503   3.727   2.725  17.355 -0.5220 -0.0418 -0.2933
 9015SOL    HW138504   3.815   2.762  17.346 -1.2772  1.1024 -3.3322
 9015SOL    HW238505   3.685   2.775  17.285  0.5572 -0.3618 -1.1711
 9016SOL     OW38506   2.609   0.318   3.525 -0.0695  1.0290  0.3312
 9016SOL    HW138507   2.616   0.402   3.571  1.5738  0.4054  1.2361
 9016SOL    HW238508   2.674   0.332   3.456  0.1261 -1.0537  0.1078
 9017SOL     OW38509   4.316   1.809   7.495 -0.3740 -0.2406 -0.0911
 9017SOL    HW138510   4.298   1.898   7.465  1.0310  0.8462  2.3375
 9017SOL    HW238511   4.231   1.774   7.470  0.5303 -1.6331 -1.1943
 9018SOL     OW38512   1.752   2.792   1.765  0.2324 -0.6275 -0.3848
 9018SOL    HW138513   1.734   2.699   1.781 -1.3200 -0.2073  0.3501
 9018SOL    HW238514   1.836   2.796   1.720  0.5492  1.4282  0.3986
 9019SOL     OW38515   0.220   4.326  10.854 -0.0554  0.0395 -0.4253
 9019SOL    HW138516   0.274   4.404  10.867  1.3838 -0.7699 -1.4930
 9019SOL    HW238517   0.242   4.270  10.929 -0.3333  0.6781  0.1300
 9020SOL     OW38518   3.127   3.317   2.935 -0.1097 -0.4245  0.4470
 9020SOL    HW138519   3.111   3.327   2.841  1.3766 -1.7186  0.0512
 9020SOL    HW238520   3.206   3.371   2.934 -0.7872  0.5774  2.0245
 9021SOL     OW38521   4.063   1.381   6.374  0.7159 -0.2245  0.4006
 9021SOL    HW138522   4.077   1.288   6.392  0.8335 -0.4735 -0.9044
 9021SOL    HW238523   4.042   1.410   6.462 -1.8469  1.8425 -0.8897
 9022SOL     OW38524   3.176   3.115  13.458  0.2928 -0.1504  0.1463
 9022SOL    HW138525   3.210   3.174  13.525  1.7538  0.1545 -0.8560
 9022SOL    HW238526   3.104   3.069  13.501 -0.4734 -0.2167 -1.2115
 9023SOL     OW38527   3.497   2.517  13.491 -0.3940 -0.3282  0.2290
 9023SOL    HW138528   3.483   2.542  13.583  0.6123  0.9892  0.0228
 9023SOL    HW238529   3.432   2.447  13.482 -1.7813  1.0255 -0.3071
 9024SOL     OW38530   4.013   2.506  13.320  0.2039  0.7053 -0.5567
 9024SOL    HW138531   3.939   2.452  13.294 -0.1154  1.0886 -0.4509
 9024SOL    HW238532   3.988   2.536  13.408 -4.2783  1.4248 -2.1101
 9025SOL     OW38533   3.204   0.337  16.917  0.7863 -0.0069  0.3638
 9025SOL    HW138534   3.265   0.393  16.964  0.0345 -0.0285  1.3694
 9025SOL    HW238535   3.174   0.274  16.982 -0.8156  1.7360  1.3211
 9026SOL     OW38536   3.537   0.899   2.134 -0.0385 -0.2359  0.1888
 9026SOL    HW138537   3.590   0.916   2.212 -0.5408 -3.1420  1.1691
 9026SOL    HW238538   3.479   0.976   2.138  1.7294  1.0462  0.9000
 9027SOL     OW38539   1.968   4.217   5.356  0.5438 -0.6956  0.0745
 9027SOL    HW138540   2.000   4.133   5.389  1.9452 -0.0176  0.4581
 9027SOL    HW238541   2.030   4.280   5.391 -0.1457  0.1635 -0.2599
 9028SOL     OW38542   1.970   1.228   8.686  0.2262 -0.4639 -0.4605
 9028SOL    HW138543   1.983   1.138   8.714  1.3650 -0.1603 -0.0194
 9028SOL    HW238544   2.050   1.273   8.714  0.1269  0.1601 -1.1546
 9029SOL     OW38545   0.724   2.481   4.505 -0.2236  0.1311 -0.3507
 9029SOL    HW138546   0.737   2.435   4.588 -2.3210 -2.3786 -1.4107
 9029SOL    HW238547   0.698   2.413   4.444  0.9131  0.2099 -0.9192
 9030SOL     OW38548   3.245   2.576   7.208  0.3805  0.2152  0.5593
 9030SOL    HW138549   3.304   2.622   7.268  1.5326 -0.6507  0.1049
 9030SOL    HW238550   3.162   2.624   7.213  0.5221  0.8007 -2.5600
 9031SOL     OW38551   0.251   2.869  16.671  0.8788  0.5303 -0.5402
 9031SOL    HW138552   0.197   2.939  16.708  0.4421 -0.1276  0.0635
 9031SOL    HW238553   0.341   2.886  16.701  1.1236  0.8771 -1.4715
 9032SOL     OW38554   4.155   1.843   6.851  0.1953 -0.4378 -0.0861
 9032SOL    HW138555   4.213   1.878   6.919 -0.3180 -0.9253  0.6057
 9032SOL    HW238556   4.096   1.917   6.836  0.5301 -0.2241 -0.3336
 9033SOL     OW38557   2.129   1.989   6.194 -0.1942 -0.0501  0.2758
 9033SOL    HW138558   2.036   1.972   6.180 -0.4941  0.3070  1.7869
 9033SOL    HW238559   2.146   1.924   6.262 -1.6928  0.6633  1.3370
 9034SOL     OW38560   2.227   0.345   7.063  0.0894  0.3143 -0.8558
 9034SOL    HW138561   2.226   0.356   6.968 -1.6505 -0.2858 -0.9073
 9034SOL    HW238562   2.230   0.250   7.072  3.6453  0.5618  0.4442
 9035SOL     OW38563   3.782   2.390   5.666  0.4797 -0.2950  0.1845
 9035SOL    HW138564   3.758   2.319   5.606 -0.0069  0.6613 -0.7545
 9035SOL    HW238565   3.701   2.398   5.715  0.4030 -0.6828  0.1214
 9036SOL     OW38566   3.115   1.094   4.783  0.4196 -0.3085  0.5594
 9036SOL    HW138567   3.195   1.065   4.738 -0.4162 -1.6822 -0.0091
 9036SOL    HW238568   3.124   1.049   4.867 -0.5143 -0.4778  0.5637
 9037SOL     OW38569   4.572   2.387   5.478 -0.4227  0.3649 -0.1035
 9037SOL    HW138570   4.626   2.310   5.462 -0.6712  0.2444 -0.3474
 9037SOL    HW238571   4.488   2.351   5.506 -0.6008  0.4699 -0.5107
 9038SOL     OW38572   2.180   0.191  17.017 -0.1196  0.3216 -0.2640
 9038SOL    HW138573   2.134   0.246  17.081  0.9727  0.3925  0.4595
 9038SOL    HW238574   2.174   0.244  16.938  1.3030  0.7750 -0.0656
 9039SOL     OW38575   1.519   1.247   4.517  0.0950 -0.2321  0.1877
 9039SOL    HW138576   1.428   1.277   4.528  0.1360  0.8042 -2.2852
 9039SOL    HW238577   1.544   1.291   4.436  1.8204 -0.7576  0.4400
 9040SOL     OW38578   2.358   3.499   3.936 -0.1720  0.9605  0.4163
 9040SOL    HW138579   2.292   3.467   3.998 -0.6504  1.4012  0.1305
 9040SOL    HW238580   2.299   3.514   3.862  0.5390  3.2750  0.3354
 9041SOL     OW38581   3.376   0.201   4.995 -0.0808 -0.2918  0.5299
 9041SOL    HW138582   3.448   0.212   5.058  0.3060 -2.7879  0.5215
 9041SOL    HW238583   3.312   0.162   5.054  1.1732 -1.6217  1.0365
 9042SOL     OW38584   0.341   0.581   5.257  0.8318  1.0535 -0.3544
 9042SOL    HW138585   0.424   0.630   5.259  0.4639  1.5629  3.1032
 9042SOL    HW238586   0.350   0.523   5.333  0.5503  0.4462 -0.7923
 9043SOL     OW38587   0.322   0.088  16.358  0.2534 -0.1122  0.3539
 9043SOL    HW138588   0.300   0.009  16.309  1.0155  0.5657 -1.0975
 9043SOL    HW238589   0.234   0.125  16.362 -0.0063 -0.6407 -0.5356
 9044SOL     OW38590   3.056   3.176   8.984 -0.1636 -0.7730  0.2504
 9044SOL    HW138591   3.025   3.261   8.953  0.5457 -0.7452 -0.3797
 9044SOL    HW238592   3.090   3.143   8.901 -0.9480  0.2188 -0.4667
 9045SOL     OW38593   0.541   3.769   3.362  0.2977 -0.6846 -0.0040
 9045SOL    HW138594   0.599   3.748   3.289 -1.0449 -1.8311 -0.7575
 9045SOL    HW238595   0.492   3.686   3.361 -0.9580  0.0579  0.2479
 9046SOL     OW38596   0.769   0.570  12.186  0.2946  0.3384  0.0267
 9046SOL    HW138597   0.711   0.646  12.181 -0.9455 -0.5867  0.2542
 9046SOL    HW238598   0.820   0.601  12.261 -0.3107  2.3718 -0.4125
 9047SOL     OW38599   4.672   0.496  12.189  0.7029 -0.5517 -0.1469
 9047SOL    HW138600   4.720   0.576  12.211  2.3585 -1.4921 -0.4095
 9047SOL    HW238601   4.595   0.528  12.140  0.5626 -0.4415  0.1447
 9048SOL     OW38602   0.536   1.875   5.079  0.3049  0.2702 -0.1890
 9048SOL    HW138603   0.545   1.958   5.032  0.3148 -0.5883 -1.7084
 9048SOL    HW238604   0.550   1.903   5.169  0.2440  3.0521 -1.0511
 9049SOL     OW38605   3.034   0.074  17.495  0.1770 -0.5478 -0.4480
 9049SOL    HW138606   3.008   0.059  17.405 -0.6412  1.6339 -0.5970
 9049SOL    HW238607   2.991   0.159  17.512  0.2381 -0.6466  0.2052
 9050SOL     OW38608   4.333   1.512   7.929  0.2393  0.2492  0.0286
 9050SOL    HW138609   4.350   1.606   7.938  1.3365 -0.2014  2.9247
 9050SOL    HW238610   4.400   1.478   7.990  0.7972  0.2945 -0.5590
 9051SOL     OW38611   4.324   1.839  15.435 -0.1475  0.8962 -0.0671
 9051SOL    HW138612   4.277   1.764  15.397  1.2605  0.2661 -0.5450
 9051SOL    HW238613   4.391   1.788  15.480 -1.8232 -1.9182 -0.7798
 9052SOL     OW38614   1.305   4.271   1.899 -0.5362  0.4583  0.2575
 9052SOL    HW138615   1.321   4.178   1.881 -2.2961  0.4565 -1.3805
 9052SOL    HW238616   1.212   4.259   1.919 -0.8471 -1.4204 -2.2889
 9053SOL     OW38617   3.164   2.826   6.886  0.5799  0.5413 -0.4293
 9053SOL    HW138618   3.149   2.769   6.810  0.9556  0.0726 -0.1501
 9053SOL    HW238619   3.086   2.808   6.938  0.5040 -0.2365 -0.8120
 9054SOL     OW38620   3.960   1.881   7.189 -0.2705  0.1792 -0.3676
 9054SOL    HW138621   3.940   1.973   7.203 -0.2439  0.1577 -0.1812
 9054SOL    HW238622   4.046   1.882   7.149  0.8880 -0.9037  2.0749
 9055SOL     OW38623   2.369   2.561   5.914  0.0605 -0.0594 -0.1232
 9055SOL    HW138624   2.283   2.518   5.907 -1.1623  2.3574 -0.0928
 9055SOL    HW238625   2.337   2.652   5.916 -0.7850 -0.3303 -1.0671
 9056SOL     OW38626   2.414   2.587  14.596  0.4030  0.0152 -0.7495
 9056SOL    HW138627   2.500   2.552  14.618 -0.4104 -0.4412  1.7615
 9056SOL    HW238628   2.424   2.599  14.502 -1.7089  1.1558 -0.8425
 9057SOL     OW38629   3.702   2.513  15.018 -0.2566 -0.1754  0.4372
 9057SOL    HW138630   3.640   2.439  15.016 -0.6407  0.1754 -0.7621
 9057SOL    HW238631   3.647   2.578  15.061 -1.6830 -0.3842 -1.0887
 9058SOL     OW38632   0.964   2.037   4.896 -0.2055 -0.4524 -0.3238
 9058SOL    HW138633   0.936   1.948   4.873  1.3889 -0.8493 -0.6647
 9058SOL    HW238634   1.055   2.022   4.921 -0.4875 -1.1967  0.2338
 9059SOL     OW38635   0.816   1.070   3.806 -0.0920 -0.3364  0.2367
 9059SOL    HW138636   0.760   1.001   3.772 -1.5204  0.0761  1.7775
 9059SOL    HW238637   0.757   1.117   3.865  1.9668  2.5872 -0.0129
 9060SOL     OW38638   1.957   1.136   5.752 -0.1950 -0.7471 -0.1466
 9060SOL    HW138639   1.894   1.090   5.696  0.3922  0.2339 -1.6099
 9060SOL    HW238640   1.908   1.205   5.796  0.9594  0.4906 -0.8062
 9061SOL     OW38641   1.904   1.857   6.136  0.3655 -0.0235 -0.0019
 9061SOL    HW138642   1.808   1.853   6.132  0.2518  1.2359  1.6368
 9061SOL    HW238643   1.922   1.818   6.050  0.4198 -1.5783  0.7302
 9062SOL     OW38644   3.617   4.589   4.758 -0.1762  0.7361  0.1829
 9062SOL    HW138645   3.595   4.498   4.777  0.4972  0.2525 -1.3904
 9062SOL    HW238646   3.536   4.637   4.778 -1.0285  0.1330 -1.7686
 9063SOL     OW38647   1.192   0.213   8.788 -0.3833 -0.7211 -0.0971
 9063SOL    HW138648   1.194   0.303   8.753 -3.3572  0.4736  2.7796
 9063SOL    HW238649   1.208   0.231   8.880 -2.9267 -0.7396  0.3483
 9064SOL     OW38650   2.765   3.616  12.190  0.2336  0.0621 -0.1372
 9064SOL    HW138651   2.808   3.538  12.225  1.2307  0.4507 -0.4957
 9064SOL    HW238652   2.798   3.626  12.101  3.5228 -0.7254  1.0193
 9065SOL     OW38653   3.316   1.116  10.402  0.4307 -0.4152  0.4249
 9065SOL    HW138654   3.397   1.167  10.406  0.3059 -0.2894  1.3853
 9065SOL    HW238655   3.343   1.030  10.369 -0.9852 -1.6256  2.3447
 9066SOL     OW38656   2.432   0.125   2.779 -0.6553 -0.4890 -0.1669
 9066SOL    HW138657   2.512   0.149   2.732 -0.5584 -1.3726 -0.4475
 9066SOL    HW238658   2.457   0.148   2.869  1.7784 -0.8351 -0.7471
 9067SOL     OW38659   1.619   4.407  10.065  0.2912 -0.2699  0.0645
 9067SOL    HW138660   1.584   4.346  10.000  1.8011 -2.9548  1.7877
 9067SOL    HW238661   1.546   4.468  10.053  0.1267 -0.6946 -1.1908
 9068SOL     OW38662   2.422   1.310   8.993  0.8017  0.2046  0.7983
 9068SOL    HW138663   2.398   1.276   8.906  0.8149  2.1615  0.0314
 9068SOL    HW238664   2.347   1.274   9.040  1.4690 -1.5520  0.5227
 9069SOL     OW38665   0.052   1.996   3.348 -0.2248  0.4610 -0.1083
 9069SOL    HW138666   0.037   1.906   3.379 -0.1079 -0.4555 -2.7082
 9069SOL    HW238667   0.079   1.967   3.261  1.5862  1.9288 -0.0311
 9070SOL     OW38668   1.865   2.939   8.629 -0.2635  0.0040 -0.1937
 9070SOL    HW138669   1.840   3.003   8.695 -0.6930 -0.3858  0.0248
 9070SOL    HW238670   1.879   2.858   8.679 -2.3948 -0.5224 -0.4583
 9071SOL     OW38671   2.959   4.445  15.655  0.5646 -0.3179 -0.4454
 9071SOL    HW138672   2.953   4.351  15.638 -0.6640 -0.0921 -1.2839
 9071SOL    HW238673   3.042   4.459  15.702  0.6304  1.3147 -1.0494
 9072SOL     OW38674   0.799   1.668   9.817 -0.6923 -0.2600 -0.4426
 9072SOL    HW138675   0.791   1.722   9.738  2.2229  1.3410  0.3647
 9072SOL    HW238676   0.726   1.607   9.804 -0.6812 -0.2712 -0.4532
 9073SOL     OW38677   0.196   4.455   1.143 -0.1350  0.3456  0.2181
 9073SOL    HW138678   0.194   4.359   1.141 -0.6889  0.3955 -2.1486
 9073SOL    HW238679   0.158   4.470   1.056  1.5735  0.4650 -0.5268
 9074SOL     OW38680   3.171   4.678   3.328 -0.2659  0.1413  0.1738
 9074SOL    HW138681   3.095   4.621   3.340  0.6369 -0.8719  1.0001
 9074SOL    HW238682   3.142   0.040   3.367  1.9747  0.7257  0.5804
 9075SOL     OW38683   0.702   2.210   4.382  0.4296 -0.7263  0.3341
 9075SOL    HW138684   0.725   2.192   4.473 -0.5861 -0.4046  0.6532
 9075SOL    HW238685   0.630   2.152   4.359  0.1985  1.1891 -3.8439
 9076SOL     OW38686   4.258   3.822   8.427  0.1359  0.3843 -0.2486
 9076SOL    HW138687   4.311   3.854   8.354  1.3466  1.4000  1.0780
 9076SOL    HW238688   4.280   3.891   8.490  1.4409 -2.2857  2.2010
 9077SOL     OW38689   1.315   3.705   4.784 -0.0857  0.0870  0.0421
 9077SOL    HW138690   1.265   3.623   4.773 -1.5670  0.7568  1.7351
 9077SOL    HW238691   1.406   3.678   4.794  0.2794  1.2261 -0.2249
 9078SOL     OW38692   4.112   2.188   7.525 -0.0569  0.0216 -0.5536
 9078SOL    HW138693   4.035   2.240   7.551 -0.4686 -0.7899 -0.1640
 9078SOL    HW238694   4.102   2.113   7.584 -0.5991 -1.0730 -2.0560
 9079SOL     OW38695   2.076   4.520   4.093  0.0858 -0.0287  0.1673
 9079SOL    HW138696   2.054   4.515   4.186  0.6731 -0.1585  0.2974
 9079SOL    HW238697   2.015   4.453   4.061 -2.2305  0.9139  2.5297
 9080SOL     OW38698   0.253   3.686   3.738  0.0914 -0.2007 -0.2691
 9080SOL    HW138699   0.251   3.772   3.697  1.1628  1.0344  2.2408
 9080SOL    HW238700   0.237   3.645   3.653 -0.1771  1.7831 -1.1587
 9081SOL     OW38701   2.528   4.666  11.405  0.4861  0.4045 -0.0773
 9081SOL    HW138702   2.595   4.653  11.472 -0.1570  1.7969  0.8494
 9081SOL    HW238703   2.519   4.574  11.381 -0.1715  0.2261  0.8261
 9082SOL     OW38704   3.647   1.069   1.593 -0.0430  0.1835 -0.3262
 9082SOL    HW138705   3.713   1.127   1.556 -1.9130  2.9331  0.6540
 9082SOL    HW238706   3.674   1.074   1.685 -0.1410 -1.5311 -0.2086
 9083SOL     OW38707   0.222   2.073   5.925 -0.1875 -0.0398  0.0859
 9083SOL    HW138708   0.241   2.061   6.018  0.3256  1.8508  0.2184
 9083SOL    HW238709   0.225   1.979   5.907 -0.5614  0.1503 -0.9365
 9084SOL     OW38710   2.944   4.406   2.128 -0.3257 -0.0427 -0.5431
 9084SOL    HW138711   3.011   4.340   2.112  0.6156  1.0486 -1.0954
 9084SOL    HW238712   2.985   4.490   2.150 -0.2655  0.6645 -3.2640
 9085SOL     OW38713   2.210   1.666   5.773 -0.1358 -0.3716  0.4252
 9085SOL    HW138714   2.167   1.584   5.797  0.7707 -0.8892  0.2703
 9085SOL    HW238715   2.299   1.635   5.791 -0.3688 -0.7832  0.8967
 9086SOL     OW38716   2.351   3.433   4.853 -0.1943 -0.1635  0.3885
 9086SOL    HW138717   2.407   3.356   4.865  1.0482  0.3038 -2.3202
 9086SOL    HW238718   2.334   3.434   4.759  0.2348  0.7278  0.3142
 9087SOL     OW38719   0.805   2.925  10.108 -0.9247  0.4370 -0.0771
 9087SOL    HW138720   0.884   2.896  10.063 -1.2508  0.6445 -0.7813
 9087SOL    HW238721   0.813   2.875  10.189  1.0986  0.9983  0.0539
 9088SOL     OW38722   3.876   2.507  12.038 -0.0800  0.5386 -0.4585
 9088SOL    HW138723   3.791   2.463  12.028  0.6542 -1.0658  0.3667
 9088SOL    HW238724   3.878   2.580  12.101 -0.2175  0.0900  0.0665
 9089SOL     OW38725   0.857   1.485   7.031  0.3286  0.0520 -0.2768
 9089SOL    HW138726   0.838   1.492   7.124 -0.9901  1.0493 -0.6249
 9089SOL    HW238727   0.934   1.428   7.034  2.1016  2.5007 -0.0453
 9090SOL     OW38728   1.785   4.263   8.518 -0.3686 -0.3879 -0.3314
 9090SOL    HW138729   1.811   4.192   8.576  1.6231  0.4476 -0.2005
 9090SOL    HW238730   1.801   4.342   8.569  0.3172 -2.1168  2.1166
 9091SOL     OW38731   0.089   0.439   4.309 -0.0722 -0.3869 -0.1384
 9091SOL    HW138732   0.091   0.402   4.398  2.2190 -0.4559 -0.2167
 9091SOL    HW238733   0.046   0.521   4.332 -1.3959 -1.1761  0.2329
 9092SOL     OW38734   0.971   4.615  13.115 -0.0697 -0.2315 -0.2734
 9092SOL    HW138735   0.918   4.665  13.053  2.0029  1.2456 -0.8689
 9092SOL    HW238736   1.053   4.663  13.104  0.3815 -1.2691 -1.3550
 9093SOL     OW38737   0.024   2.139   4.922  0.0117  0.5107 -0.1826
 9093SOL    HW138738   0.096   2.101   4.973 -0.9767  0.5239  1.2457
 9093SOL    HW238739   0.083   2.197   4.873  0.9363  0.4639  0.8683
 9094SOL     OW38740   3.148   4.161  10.761  0.5094  0.3444 -0.1853
 9094SOL    HW138741   3.160   4.076  10.719 -0.4339  1.0337 -1.8406
 9094SOL    HW238742   3.182   4.146  10.849  2.2268  1.3354 -0.6827
 9095SOL     OW38743   1.013   0.554   3.169  0.2096 -0.1224  0.4442
 9095SOL    HW138744   1.086   0.546   3.231  2.6117  2.1740 -2.1029
 9095SOL    HW238745   0.959   0.628   3.199  0.5230  0.3924 -0.2610
 9096SOL     OW38746   4.048   0.593  16.293 -0.2869 -0.1442  0.1314
 9096SOL    HW138747   3.982   0.573  16.227  0.9326 -1.6369 -0.6346
 9096SOL    HW238748   4.117   0.536  16.260 -0.7470 -1.1297  0.8682
 9097SOL     OW38749   2.013   1.316   3.713  0.4516 -0.3217  0.1511
 9097SOL    HW138750   2.090   1.346   3.666  1.0214 -2.9773 -0.6473
 9097SOL    HW238751   1.937   1.346   3.663  0.9715 -2.2548 -1.8021
 9098SOL     OW38752   0.498   3.439   3.349  0.4721  0.4480  0.0831
 9098SOL    HW138753   0.535   3.353   3.366 -0.2494 -0.1394 -1.3274
 9098SOL    HW238754   0.498   3.449   3.253  0.1528 -1.2790 -0.0812
 9099SOL     OW38755   3.666   3.222   5.711  0.0593  0.4293  1.1907
 9099SOL    HW138756   3.612   3.143   5.711  0.2679  0.2858  1.4280
 9099SOL    HW238757   3.751   3.182   5.728 -0.8292 -1.5767  0.8621
 9100SOL     OW38758   4.404   2.086   7.848 -0.0603  0.1133  0.2294
 9100SOL    HW138759   4.482   2.072   7.794  0.0631  0.5811  0.2791
 9100SOL    HW238760   4.433   2.042   7.928 -0.5443  1.4501  1.1452
 9101SOL     OW38761   3.003   1.610   3.328 -0.0355 -0.0668 -0.5724
 9101SOL    HW138762   2.927   1.587   3.276 -0.1818 -3.0425  0.9027
 9101SOL    HW238763   3.056   1.667   3.273  1.0318  1.1000  1.6463
 9102SOL     OW38764   0.296   0.429  15.451  0.3364 -0.5892  0.5693
 9102SOL    HW138765   0.270   0.355  15.505 -1.1066  1.7064  3.0462
 9102SOL    HW238766   0.269   0.404  15.363 -0.8079 -0.1546  0.7915
 9103SOL     OW38767   2.942   0.041   8.417 -1.1071 -0.4793 -0.6465
 9103SOL    HW138768   2.966   0.093   8.494  0.2322 -1.5913 -0.3161
 9103SOL    HW238769   2.848   0.059   8.410 -0.7595  1.0933 -1.1716
 9104SOL     OW38770   2.877   2.789  13.728 -0.1553  0.5656 -0.3688
 9104SOL    HW138771   2.874   2.760  13.819  1.4307 -0.0007 -0.4997
 9104SOL    HW238772   2.945   2.736  13.686  2.5193  1.0667  3.2723
 9105SOL     OW38773   2.982   4.645  13.293  0.2165  0.2188 -0.9412
 9105SOL    HW138774   3.020   4.558  13.278  2.4017  0.8237  1.0826
 9105SOL    HW238775   3.009   4.692  13.214 -0.0677  2.7756  0.4779
 9106SOL     OW38776   0.902   0.645   5.586 -0.1757  0.5324  0.1848
 9106SOL    HW138777   0.927   0.591   5.512 -1.3228  0.1846  0.0453
 9106SOL    HW238778   0.817   0.673   5.550 -0.4086 -0.4452 -0.0101
 9107SOL     OW38779   1.845   3.919   6.754  0.1349 -0.8814  0.2239
 9107SOL    HW138780   1.810   3.943   6.669  1.5890 -0.3316 -0.2188
 9107SOL    HW238781   1.879   3.831   6.736 -1.3331 -1.5271  0.5489
 9108SOL     OW38782   3.531   3.319   1.101  0.5341  0.2501 -0.1692
 9108SOL    HW138783   3.513   3.412   1.117  1.5686  0.0276  2.2536
 9108SOL    HW238784   3.522   3.286   1.190  0.5074  1.5262  0.3043
 9109SOL     OW38785   2.937   4.598   8.102 -0.8432  0.0896  0.0221
 9109SOL    HW138786   3.008   4.657   8.077 -0.0026 -0.7610  0.4433
 9109SOL    HW238787   2.903   4.653   8.173 -1.7414 -2.0783  1.2483
 9110SOL     OW38788   1.866   1.872   5.288  0.6925 -0.5015 -0.0924
 9110SOL    HW138789   1.845   1.837   5.201 -4.5438  0.3662  0.8511
 9110SOL    HW238790   1.822   1.955   5.273  0.5426 -0.4614  0.5754
 9111SOL     OW38791   2.055   2.715   8.683 -0.0081 -0.4747 -0.2439
 9111SOL    HW138792   2.059   2.624   8.710  0.9415 -0.1880  0.5436
 9111SOL    HW238793   2.142   2.744   8.710 -1.3590  1.0335  2.4540
 9112SOL     OW38794   1.436   3.915   3.181  0.5754 -0.4912  0.3553
 9112SOL    HW138795   1.476   3.938   3.097  1.0825 -0.0833  0.7082
 9112SOL    HW238796   1.378   3.987   3.206  2.7611  0.7284  1.8417
 9113SOL     OW38797   0.773   1.146   7.345  0.1980  0.5653  0.1722
 9113SOL    HW138798   0.738   1.144   7.434 -1.0000  0.8470 -0.2883
 9113SOL    HW238799   0.862   1.180   7.355 -0.7801  3.2440 -0.0971
 9114SOL     OW38800   1.323   2.808   3.687  0.8480 -0.1514 -0.4250
 9114SOL    HW138801   1.262   2.752   3.641  1.1352 -0.7638 -0.0642
 9114SOL    HW238802   1.371   2.847   3.614  2.0048 -3.3759 -1.3900
 9115SOL     OW38803   0.291   4.652   3.351  0.5355  0.4000  0.0002
 9115SOL    HW138804   0.361   4.595   3.383  0.8134  1.1708  0.7879
 9115SOL    HW238805   0.317   0.004   3.408  0.1285 -1.0273  2.0321
 9116SOL     OW38806   1.853   4.007   8.650  0.4085 -0.3661 -0.2701
 9116SOL    HW138807   1.927   3.983   8.706 -0.5376  0.6503  1.4467
 9116SOL    HW238808   1.786   4.000   8.719  0.3781  0.0577 -0.2518
 9117SOL     OW38809   2.827   1.286  14.890 -0.2283  0.3658  0.1242
 9117SOL    HW138810   2.892   1.337  14.842 -0.3209  1.4470  1.1533
 9117SOL    HW238811   2.895   1.257  14.951  0.2537  0.2563 -0.4691
 9118SOL     OW38812   1.063   2.844   7.586 -0.3392 -1.0960 -0.2666
 9118SOL    HW138813   1.125   2.822   7.656  0.3435 -0.7954 -0.7807
 9118SOL    HW238814   1.115   2.815   7.511  0.1251 -0.7556 -0.0825
 9119SOL     OW38815   1.674   4.045   4.194  0.4781 -0.0140  0.1757
 9119SOL    HW138816   1.748   4.017   4.140  0.6717  0.7470  0.0446
 9119SOL    HW238817   1.707   4.053   4.283  0.4194 -1.4523  0.3339
 9120SOL     OW38818   2.421   1.249  14.655 -0.6362  0.1078  0.1597
 9120SOL    HW138819   2.366   1.190  14.706 -1.2880  0.5856 -0.0030
 9120SOL    HW238820   2.356   1.291  14.599 -0.3841 -1.2938 -1.1886
 9121SOL     OW38821   4.133   2.889  13.765 -0.1919 -0.2436  0.0645
 9121SOL    HW138822   4.217   2.890  13.721  0.4405 -2.4489  1.1831
 9121SOL    HW238823   4.076   2.865  13.692 -0.5630  1.1825 -0.1058
 9122SOL     OW38824   3.012   3.013   8.403  0.4283  0.2042  0.3852
 9122SOL    HW138825   3.016   2.976   8.315  1.8087 -0.8631  0.9076
 9122SOL    HW238826   3.100   2.991   8.433  0.9119 -0.7545 -1.7412
 9123SOL     OW38827   4.470   1.325   8.393 -0.0185 -0.0155  0.3702
 9123SOL    HW138828   4.436   1.254   8.339  1.5530 -2.8734  3.1635
 9123SOL    HW238829   4.551   1.279   8.415 -0.0300 -1.1163 -1.9266
 9124SOL     OW38830   1.306   3.462   3.395 -0.1493 -0.8778 -0.0688
 9124SOL    HW138831   1.353   3.511   3.328  2.5903 -2.2117  0.9155
 9124SOL    HW238832   1.251   3.411   3.335  0.6856 -1.9345  0.0606
 9125SOL     OW38833   2.551   4.489  17.046 -0.0934 -1.0472  0.4585
 9125SOL    HW138834   2.554   4.483  17.142 -3.4502  2.4154  0.7451
 9125SOL    HW238835   2.639   4.458  17.023  0.0800 -0.6028  0.5300
 9126SOL     OW38836   3.910   4.225   8.526 -0.7601 -0.7007  0.2320
 9126SOL    HW138837   4.002   4.206   8.545 -0.0319  1.4906 -1.2160
 9126SOL    HW238838   3.887   4.136   8.499  2.7727 -1.7489  0.5566
 9127SOL     OW38839   1.886   1.319   6.652 -0.4718 -0.1731  0.0018
 9127SOL    HW138840   1.800   1.312   6.612 -0.9673 -0.5806  1.1161
 9127SOL    HW238841   1.876   1.394   6.711 -0.7982 -0.2995  0.1088
 9128SOL     OW38842   2.457   3.814   4.649  0.8090  0.2723 -0.5754
 9128SOL    HW138843   2.542   3.857   4.646 -0.4833  2.7452 -1.7714
 9128SOL    HW238844   2.459   3.782   4.739  2.6218  0.7694 -0.4492
 9129SOL     OW38845   3.832   1.255   1.433 -0.1658  0.4304  0.2854
 9129SOL    HW138846   3.922   1.287   1.441  0.6882 -2.5362  2.5921
 9129SOL    HW238847   3.841   1.192   1.361  1.1805 -0.0487  0.8784
 9130SOL     OW38848   0.086   0.758  15.902 -0.1281 -0.2623 -0.3321
 9130SOL    HW138849   0.155   0.725  15.844 -0.1649 -1.1346  0.1169
 9130SOL    HW238850   0.073   0.844  15.863  0.3347 -0.2481 -0.4590
 9131SOL     OW38851   3.420   2.167   3.297  0.2311  0.3996 -0.3672
 9131SOL    HW138852   3.484   2.161   3.368 -0.4602 -0.1105  0.2095
 9131SOL    HW238853   3.478   2.150   3.223  0.0671 -2.0061  0.0444
 9132SOL     OW38854   4.016   4.166   7.620 -0.3607 -0.0579  0.3342
 9132SOL    HW138855   4.002   4.073   7.604  1.7568 -0.1238 -1.2159
 9132SOL    HW238856   4.102   4.155   7.660  0.9373  1.9767 -1.9000
 9133SOL     OW38857   3.423   3.356   3.369 -0.0507 -0.4046  0.5102
 9133SOL    HW138858   3.440   3.447   3.395 -2.2858  0.2590 -0.4037
 9133SOL    HW238859   3.332   3.366   3.341  0.1086 -0.4079 -0.0075
 9134SOL     OW38860   4.384   2.342   4.238 -0.1715 -0.1567  0.4911
 9134SOL    HW138861   4.335   2.262   4.258  2.6372 -1.7930  0.8904
 9134SOL    HW238862   4.445   2.314   4.170 -0.9899  2.1829 -1.2012
 9135SOL     OW38863   4.477   1.619   4.224  0.2499  0.0262  0.2638
 9135SOL    HW138864   4.500   1.640   4.315 -0.2261  1.4787  0.0531
 9135SOL    HW238865   4.385   1.602   4.245 -0.3312  3.7717  0.8078
 9136SOL     OW38866   2.560   3.380   5.310  0.0757  0.3112  0.4669
 9136SOL    HW138867   2.478   3.391   5.358  0.5042  1.7573  0.8933
 9136SOL    HW238868   2.537   3.317   5.242  2.7138  0.4629 -0.5460
 9137SOL     OW38869   3.241   2.034  10.847  0.0835  0.2363  0.9771
 9137SOL    HW138870   3.270   2.092  10.777  0.1658 -1.8596 -0.7476
 9137SOL    HW238871   3.153   2.064  10.870 -0.1374  0.1456  0.2572
 9138SOL     OW38872   1.087   1.534   8.216 -0.3330 -0.1623 -0.2308
 9138SOL    HW138873   1.094   1.579   8.300  2.7505 -0.6689 -0.2176
 9138SOL    HW238874   1.168   1.483   8.214 -0.8141 -0.9130 -0.5019
 9139SOL     OW38875   1.521   1.274   8.072 -0.0170  0.5852  0.2664
 9139SOL    HW138876   1.574   1.229   8.138 -0.6804 -0.1035  0.3269
 9139SOL    HW238877   1.565   1.357   8.055 -0.1129  1.0438  2.2311
 9140SOL     OW38878   2.494   0.027   2.097  0.1555 -0.3376  1.2556
 9140SOL    HW138879   2.484   0.122   2.107  0.0935 -0.3552  1.3593
 9140SOL    HW238880   2.459   0.036   2.008  1.0333  0.6664  1.0011
 9141SOL     OW38881   0.239   0.178   6.288  0.4884  0.4432 -0.4664
 9141SOL    HW138882   0.298   0.134   6.227 -0.4367 -3.2511  1.2919
 9141SOL    HW238883   0.251   0.268   6.258  1.7799  0.4309  0.0005
 9142SOL     OW38884   1.895   0.830   8.869 -0.4018  0.0499  0.1197
 9142SOL    HW138885   1.899   0.856   8.960  0.3129  1.6565 -0.3810
 9142SOL    HW238886   1.961   0.761   8.860  0.3348  0.7012  0.6380
 9143SOL     OW38887   0.172   2.204   6.829 -0.3780 -0.6583 -0.0426
 9143SOL    HW138888   0.241   2.180   6.891 -0.7937 -1.0125  0.2903
 9143SOL    HW238889   0.202   2.289   6.798  1.5419 -1.8576 -1.4617
 9144SOL     OW38890   4.408   1.061   2.844 -0.2967  0.1507 -0.0341
 9144SOL    HW138891   4.458   1.142   2.858  0.4175 -0.1427 -0.8725
 9144SOL    HW238892   4.477   1.005   2.809  0.2191  2.0200 -1.9935
 9145SOL     OW38893   1.425   0.970   8.070  0.3426  0.0399 -0.2295
 9145SOL    HW138894   1.461   1.058   8.083  2.1129 -0.9270  1.2504
 9145SOL    HW238895   1.506   0.920   8.066 -0.1045 -0.7774  1.2018
 9146SOL     OW38896   1.573   4.623   3.361 -0.2607 -0.2881 -0.2363
 9146SOL    HW138897   1.539   4.708   3.334 -0.8924 -0.2145  0.7805
 9146SOL    HW238898   1.646   4.653   3.416 -1.1483  0.5623  0.4739
 9147SOL     OW38899   1.782   3.301  13.144  0.0685 -0.6024 -0.8300
 9147SOL    HW138900   1.859   3.255  13.111  0.7813 -0.3856  0.5180
 9147SOL    HW238901   1.710   3.243  13.119  1.3531 -2.9940  1.0382
 9148SOL     OW38902   0.368   4.004   8.548 -0.0532  0.0855 -0.1346
 9148SOL    HW138903   0.300   3.946   8.513 -0.9245  1.7581 -1.1988
 9148SOL    HW238904   0.330   4.018   8.635 -1.4805 -0.0815 -0.7317
 9149SOL     OW38905   2.629   2.964  15.375 -0.1085  0.2011  0.3931
 9149SOL    HW138906   2.593   3.043  15.333 -1.7708 -0.6718  0.1439
 9149SOL    HW238907   2.576   2.955  15.455  0.0652  3.0868  0.8407
 9150SOL     OW38908   1.921   3.492   8.466  0.4158 -0.6090 -0.0836
 9150SOL    HW138909   1.982   3.561   8.437 -2.7479  1.9022 -0.8274
 9150SOL    HW238910   1.964   3.424   8.414 -0.5976 -1.2807 -0.0256
 9151SOL     OW38911   3.499   0.907   3.677 -0.7724 -0.3554  0.3562
 9151SOL    HW138912   3.505   0.819   3.714  0.3995  0.9634  3.2406
 9151SOL    HW238913   3.563   0.909   3.605  0.6266 -0.2369  1.6169
 9152SOL     OW38914   4.163   2.702   7.188 -0.6442 -0.2417 -0.6155
 9152SOL    HW138915   4.151   2.797   7.192 -2.6991 -0.5587  0.6089
 9152SOL    HW238916   4.256   2.684   7.205 -1.2444 -2.1380  0.5241
 9153SOL     OW38917   3.452   3.267  13.937  0.7315 -0.0221  0.1280
 9153SOL    HW138918   3.485   3.281  14.026  2.1626  2.7430 -0.8371
 9153SOL    HW238919   3.518   3.214  13.894 -1.0897 -1.5606 -0.7720
 9154SOL     OW38920   0.113   2.411   0.878  0.3775  0.5701  0.2196
 9154SOL    HW138921   0.110   2.318   0.857 -4.0664  0.7991 -0.0738
 9154SOL    HW238922   0.187   2.428   0.821  0.4063  0.1003  0.1151
 9155SOL     OW38923   1.072   2.495   6.750  0.0349 -0.5101  0.7027
 9155SOL    HW138924   1.027   2.498   6.666  0.3429  0.9086  0.5927
 9155SOL    HW238925   1.039   2.576   6.791  0.0111  0.0876 -0.4899
 9156SOL     OW38926   4.079   2.168   6.204 -0.0642  0.5612  0.1901
 9156SOL    HW138927   4.142   2.238   6.190  2.9177 -2.0678  0.5393
 9156SOL    HW238928   4.080   2.117   6.123 -0.6078 -0.6559  0.9322
 9157SOL     OW38929   3.421   3.512  15.774 -0.3494 -0.3981  0.4094
 9157SOL    HW138930   3.453   3.569  15.844 -0.9511  0.3840  0.0483
 9157SOL    HW238931   3.354   3.572  15.741  0.6733 -0.0649 -1.0401
 9158SOL     OW38932   3.671   2.159   3.405  0.4092  0.0002  1.1297
 9158SOL    HW138933   3.706   2.248   3.407 -1.3608  0.7883 -2.2324
 9158SOL    HW238934   3.740   2.105   3.365 -1.7666 -1.8954 -0.0965
 9159SOL     OW38935   3.676   2.600   4.340  0.0970  0.3998  0.0914
 9159SOL    HW138936   3.638   2.638   4.419 -0.8220  0.3785 -0.3343
 9159SOL    HW238937   3.630   2.656   4.277 -0.5944 -1.3468 -0.9684
 9160SOL     OW38938   0.995   2.306   8.260 -0.1694  0.3478  0.0754
 9160SOL    HW138939   1.063   2.248   8.295 -1.9807 -0.9102  1.4895
 9160SOL    HW238940   1.028   2.339   8.177  0.2589  0.7901  0.4209
 9161SOL     OW38941   2.172   1.672  12.384  0.5103 -0.0910 -0.0732
 9161SOL    HW138942   2.215   1.692  12.301 -1.2911 -1.3733 -1.3194
 9161SOL    HW238943   2.123   1.746  12.420  1.6453 -0.0386  1.3869
 9162SOL     OW38944   3.750   3.151  11.058 -0.4539  0.5311 -0.6622
 9162SOL    HW138945   3.698   3.134  10.980 -0.6813 -2.0436  0.0403
 9162SOL    HW238946   3.840   3.138  11.028 -0.5065 -2.0945  0.2814
 9163SOL     OW38947   4.453   2.279  10.250 -0.3649  0.1766  0.4096
 9163SOL    HW138948   4.475   2.261  10.342  1.5765  0.1204 -0.0790
 9163SOL    HW238949   4.514   2.348  10.225  1.0688 -1.4345 -0.4667
 9164SOL     OW38950   4.717   0.776  11.919 -0.3000  0.2487  0.2686
 9164SOL    HW138951   4.682   0.819  11.841 -0.7253 -1.9426 -0.7450
 9164SOL    HW238952   4.685   0.686  11.920  1.3995 -0.3695 -0.0496
 9165SOL     OW38953   0.060   4.194  17.600  0.1171  0.0472 -0.4817
 9165SOL    HW138954   0.096   4.184   0.001 -1.5235  0.6851  0.2616
 9165SOL    HW238955   0.081   4.284  17.574 -2.2940  0.8330  0.3890
 9166SOL     OW38956   4.355   2.807   3.540  0.7197  0.5382  0.1104
 9166SOL    HW138957   4.307   2.826   3.620  0.1160 -1.2554  0.1712
 9166SOL    HW238958   4.423   2.872   3.554 -0.8922  2.1133  0.6527
 9167SOL     OW38959   4.234   0.225  16.876  0.2174 -0.9678  0.4674
 9167SOL    HW138960   4.287   0.302  16.897 -1.5511 -0.1472  1.9437
 9167SOL    HW238961   4.215   0.195  16.964  3.1430  0.7812  1.6885
 9168SOL     OW38962   0.010   2.641   8.302  0.2433  0.1135 -0.3491
 9168SOL    HW138963   0.033   2.583   8.230 -0.7839 -1.3284  0.4797
 9168SOL    HW238964   0.003   2.720   8.247  0.6144 -0.3114 -1.0013
 9169SOL     OW38965   2.848   0.364   2.530 -0.1874 -0.8571  0.1542
 9169SOL    HW138966   2.808   0.448   2.506  1.1123  0.6274  3.1997
 9169SOL    HW238967   2.896   0.386   2.609  2.3855  1.6482 -2.1184
 9170SOL     OW38968   0.090   1.996  15.871  0.2319 -0.5512  0.3980
 9170SOL    HW138969   0.013   1.950  15.839 -0.0986 -0.2078  0.6977
 9170SOL    HW238970   0.060   2.085  15.892 -1.8448 -0.9376 -0.9244
 9171SOL     OW38971   4.324   3.943  11.648 -0.2272 -0.4125  0.0509
 9171SOL    HW138972   4.298   3.888  11.573  1.3253  0.4307 -1.1005
 9171SOL    HW238973   4.405   3.904  11.681 -0.9890 -0.9624  1.2842
 9172SOL     OW38974   3.610   4.446   7.192  0.2231 -0.1343 -0.2307
 9172SOL    HW138975   3.591   4.401   7.275  4.7299 -0.1102  0.8324
 9172SOL    HW238976   3.633   4.533   7.224 -0.6980 -0.4292  1.2038
 9173SOL     OW38977   1.052   1.849   5.818  0.3500  0.2020 -0.2897
 9173SOL    HW138978   1.052   1.810   5.906 -2.7199  0.9289  0.0285
 9173SOL    HW238979   1.142   1.837   5.790  0.8212  0.3342  1.1561
 9174SOL     OW38980   2.138   1.425  15.106 -0.2734 -0.1977 -0.3509
 9174SOL    HW138981   2.045   1.439  15.126  0.0216 -1.1463  1.6887
 9174SOL    HW238982   2.181   1.397  15.187  2.1463 -1.4021 -2.0409
 9175SOL     OW38983   0.465   2.952  13.529 -0.0913 -0.6169  0.5545
 9175SOL    HW138984   0.443   2.896  13.454  0.7951 -1.2597  0.7816
 9175SOL    HW238985   0.542   2.902  13.554 -1.1551 -2.4130  0.2854
 9176SOL     OW38986   1.002   1.371   3.093 -0.5940  0.2999  0.0208
 9176SOL    HW138987   1.057   1.425   3.149  1.0240 -0.9792 -0.3274
 9176SOL    HW238988   1.054   1.291   3.085  1.3170  1.4560  0.7647
 9177SOL     OW38989   2.765   4.225   6.814 -0.6794  0.9726  0.1263
 9177SOL    HW138990   2.787   4.132   6.820 -1.8908  0.6759 -0.0443
 9177SOL    HW238991   2.694   4.208   6.752  0.9994 -3.4217 -0.6375
 9178SOL     OW38992   0.884   3.739   4.419 -0.5697  0.4082 -0.8947
 9178SOL    HW138993   0.958   3.793   4.390 -0.6265  1.1635  0.3607
 9178SOL    HW238994   0.853   3.692   4.342  0.2030  1.1654 -1.6624
 9179SOL     OW38995   4.710   1.558   2.847 -0.2292 -0.1560  0.6436
 9179SOL    HW138996   0.037   1.640   2.843 -3.3950  1.7011  0.9689
 9179SOL    HW238997   4.681   1.554   2.938  1.1105 -1.6382  1.0095
 9180SOL     OW38998   3.927   0.901   8.443  0.2912  0.0702 -0.1616
 9180SOL    HW138999   3.975   0.820   8.454 -1.1231 -0.5808  1.3248
 9180SOL    HW239000   3.843   0.857   8.429  0.7154 -0.7917  0.0277
 9181SOL     OW39001   3.695   0.006   8.589  0.7113 -0.3827 -0.4104
 9181SOL    HW139002   3.759   4.668   8.629 -1.2800 -0.5800  2.4620
 9181SOL    HW239003   3.610   4.693   8.619  1.5482 -2.4403 -0.3404
 9182SOL     OW39004   1.001   2.318   4.889  0.1379  0.3240 -0.2337
 9182SOL    HW139005   0.989   2.226   4.867  2.8514  0.0904 -0.8225
 9182SOL    HW239006   0.913   2.350   4.872 -1.1810 -2.3573  1.6677
 9183SOL     OW39007   4.227   3.278   3.774 -0.3895 -0.0605  0.3403
 9183SOL    HW139008   4.233   3.258   3.680 -1.2963 -1.0244  0.4989
 9183SOL    HW239009   4.147   3.332   3.775  1.4553  2.7573 -1.9816
 9184SOL     OW39010   1.715   2.480   7.034 -0.3346  0.1736  0.9501
 9184SOL    HW139011   1.786   2.535   7.068 -0.7629  0.7732  0.8803
 9184SOL    HW239012   1.754   2.394   7.045 -2.0152 -0.9413 -1.8807
 9185SOL     OW39013   1.865   0.621   3.258  0.2580 -0.4684  0.3757
 9185SOL    HW139014   1.847   0.664   3.342 -1.3044  0.7502 -0.6044
 9185SOL    HW239015   1.843   0.699   3.207 -1.2477 -0.3239  1.2540
 9186SOL     OW39016   2.894   4.632  12.107 -0.1281  0.5870 -1.1423
 9186SOL    HW139017   2.977   4.677  12.095 -0.5655  1.3549 -1.2986
 9186SOL    HW239018   2.881   4.633  12.202  1.6715 -1.9375 -0.8685
 9187SOL     OW39019   4.629   3.894   6.015 -0.5996  0.2620 -0.5141
 9187SOL    HW139020   4.653   3.986   6.006  0.1511  0.1388  0.2673
 9187SOL    HW239021   4.620   3.887   6.110 -2.7540  0.1334 -0.7190
 9188SOL     OW39022   2.164   4.713   9.155  0.2485  0.4857  0.1639
 9188SOL    HW139023   2.083   0.044   9.156  0.2580  0.5282 -0.7827
 9188SOL    HW239024   2.202   0.011   9.241  1.2854 -0.0970 -0.1641
 9189SOL     OW39025   4.143   4.082  15.682 -0.2005 -0.0340 -0.4624
 9189SOL    HW139026   4.154   3.987  15.687 -1.7610 -0.1531  0.4849
 9189SOL    HW239027   4.217   4.116  15.733 -1.5885 -0.6221  1.9220
 9190SOL     OW39028   0.542   1.490  16.761  0.0889  0.2774  0.1583
 9190SOL    HW139029   0.620   1.460  16.714  0.7050 -0.2217  1.5232
 9190SOL    HW239030   0.545   1.586  16.760 -0.2438  0.2961  1.3068
 9191SOL     OW39031   3.286   4.012   8.439  0.4305  0.2405 -0.4333
 9191SOL    HW139032   3.357   4.048   8.387 -0.4104  0.9665 -1.0916
 9191SOL    HW239033   3.332   3.935   8.471  0.6193  1.0207  1.1823
 9192SOL     OW39034   4.347   0.081   8.448  0.2610 -0.7579  0.3858
 9192SOL    HW139035   4.299   0.118   8.374 -1.3075 -0.2438  1.6685
 9192SOL    HW239036   4.372   4.717   8.411  0.5246 -0.2002 -0.7108
 9193SOL     OW39037   0.708   1.434  16.146 -0.2175  0.2485 -0.2293
 9193SOL    HW139038   0.755   1.358  16.115  1.7656  1.7961 -0.9655
 9193SOL    HW239039   0.771   1.453  16.216 -0.3334 -0.7068  0.1322
 9194SOL     OW39040   4.646   1.826   6.478 -0.2082  0.7849  0.0377
 9194SOL    HW139041   4.600   1.877   6.412 -1.5503 -0.9714 -0.4071
 9194SOL    HW239042   4.623   1.885   6.550 -1.2295  0.0485  0.3259
 9195SOL     OW39043   4.407   2.348  17.299 -0.3037 -0.0506 -0.5499
 9195SOL    HW139044   4.386   2.310  17.214 -0.9805 -1.8843  0.4464
 9195SOL    HW239045   4.502   2.335  17.306 -0.1970 -0.4615 -2.7680
 9196SOL     OW39046   4.556   1.701  13.049 -0.1942  0.2527  0.8715
 9196SOL    HW139047   4.547   1.605  13.047 -2.7955  0.4604  1.3080
 9196SOL    HW239048   4.558   1.723  12.956 -1.2697  1.9128  1.2299
 9197SOL     OW39049   0.610   2.933   2.325  0.2661  0.0958 -0.0199
 9197SOL    HW139050   0.553   2.915   2.400 -0.4715  0.2414 -0.5412
 9197SOL    HW239051   0.597   3.025   2.302 -2.1289 -0.4236 -0.8197
 9198SOL     OW39052   2.947   4.144   7.755  0.0170  0.3290 -0.2790
 9198SOL    HW139053   2.898   4.225   7.756 -0.4740 -0.0161  3.4332
 9198SOL    HW239054   2.879   4.080   7.778  0.7979 -1.7183 -3.5841
 9199SOL     OW39055   0.698   2.203   0.507 -0.3425 -1.1540 -0.2352
 9199SOL    HW139056   0.690   2.130   0.445  1.9571 -1.1196 -0.5672
 9199SOL    HW239057   0.787   2.182   0.536  0.2787 -0.0427 -1.3009
 9200SOL     OW39058   1.536   0.600   0.440 -0.1158 -0.6571 -0.7439
 9200SOL    HW139059   1.526   0.675   0.498 -0.2534 -1.3640  0.1398
 9200SOL    HW239060   1.621   0.580   0.477  0.1959  0.0996 -1.0611
 9201SOL     OW39061   0.304   4.104   4.377  0.2049 -0.1349  0.5673
 9201SOL    HW139062   0.261   4.019   4.382  0.3075 -0.1693  0.8905
 9201SOL    HW239063   0.382   4.069   4.333  0.0788  0.7087 -0.3262
 9202SOL     OW39064   3.203   3.232   7.081  0.2505 -0.0357 -0.1187
 9202SOL    HW139065   3.230   3.294   7.013 -0.4339  2.1451  1.5647
 9202SOL    HW239066   3.271   3.254   7.145 -0.2738 -0.3204  0.5345
 9203SOL     OW39067   1.007   0.362   0.120 -0.3411  0.6296  0.2906
 9203SOL    HW139068   1.011   0.389   0.028 -0.0785 -0.6754 -0.0705
 9203SOL    HW239069   1.072   0.418   0.163 -1.3447  3.4156 -1.7956
 9204SOL     OW39070   1.271   4.621   6.212  0.1495  0.4890 -0.8681
 9204SOL    HW139071   1.293   4.634   6.120  0.5707 -0.2311 -0.8655
 9204SOL    HW239072   1.180   4.591   6.202  0.5758 -0.5985 -1.5145
 9205SOL     OW39073   1.743   1.810   8.207  0.0948  0.5784  0.1622
 9205SOL    HW139074   1.701   1.823   8.292 -0.1450 -0.5128  0.2104
 9205SOL    HW239075   1.692   1.873   8.157  3.0495 -0.7749 -4.5829
 9206SOL     OW39076   0.280   3.130  17.289 -0.2956 -0.9307  0.2530
 9206SOL    HW139077   0.241   3.045  17.271 -2.7555  0.2854 -0.1739
 9206SOL    HW239078   0.266   3.127  17.384 -0.4044 -0.2193  0.2608
 9207SOL     OW39079   1.981   3.871   7.902 -0.5194 -0.5734 -0.5088
 9207SOL    HW139080   1.980   3.898   7.994 -1.2654 -0.4109 -0.5610
 9207SOL    HW239081   2.034   3.793   7.918 -0.4981 -0.0645  2.0073
 9208SOL     OW39082   4.534   3.242   2.404  0.2969  0.2157 -0.5070
 9208SOL    HW139083   4.467   3.189   2.362 -1.3952  1.4769  0.5996
 9208SOL    HW239084   4.568   3.288   2.328 -2.5162 -1.1262 -2.5944
 9209SOL     OW39085   0.781   1.510   4.017  0.7900  0.0790  0.4418
 9209SOL    HW139086   0.848   1.475   4.076 -0.9977  1.2643  3.1496
 9209SOL    HW239087   0.833   1.528   3.939  2.2255 -0.0608  1.3655
 9210SOL     OW39088   2.818   2.278   4.617 -0.2629  0.2995  0.4351
 9210SOL    HW139089   2.896   2.268   4.673 -0.0052 -1.4475 -0.2344
 9210SOL    HW239090   2.778   2.197   4.647  0.7792 -0.4351 -0.1682
 9211SOL     OW39091   1.369   0.180   6.233 -0.1248  0.3645  0.6152
 9211SOL    HW139092   1.355   0.089   6.208 -0.2716  0.8552 -1.0417
 9211SOL    HW239093   1.285   0.219   6.257  0.0992  0.9437  0.4530
 9212SOL     OW39094   3.575   2.446   8.441 -0.4363  0.0404 -0.3101
 9212SOL    HW139095   3.486   2.472   8.416 -0.6088 -0.9801 -0.7662
 9212SOL    HW239096   3.620   2.483   8.365 -0.3245 -1.3802 -0.9407
 9213SOL     OW39097   1.934   2.607   9.496  0.4051  0.7271  0.9393
 9213SOL    HW139098   1.966   2.619   9.586  0.2431  0.7004  1.0006
 9213SOL    HW239099   1.841   2.596   9.514 -0.0503  3.4117  0.2570
 9214SOL     OW39100   1.144   4.131   5.809 -0.0757 -0.4417 -0.8017
 9214SOL    HW139101   1.093   4.139   5.729  0.8930  2.7283 -1.0804
 9214SOL    HW239102   1.144   4.035   5.812  0.6687 -0.4937 -2.8715
 9215SOL     OW39103   4.513   4.188   4.409  0.4495  0.5290  0.1651
 9215SOL    HW139104   4.598   4.151   4.385  1.4349  2.7619  0.2003
 9215SOL    HW239105   4.461   4.171   4.331  1.0209  1.2264 -0.3614
 9216SOL     OW39106   0.072   1.454   6.200 -0.6900  0.5475  0.8422
 9216SOL    HW139107   0.161   1.487   6.216 -0.7039  1.3218 -0.6952
 9216SOL    HW239108   0.084   1.373   6.150 -3.8064 -0.0575  1.0715
 9217SOL     OW39109   0.690   3.288   2.950  0.0866  0.9597  0.2507
 9217SOL    HW139110   0.745   3.347   2.899 -0.7063  2.6123  1.3091
 9217SOL    HW239111   0.744   3.275   3.028  0.5657  1.5655  0.0154
 9218SOL     OW39112   0.455   3.002   6.472  0.2572 -0.4370 -0.4397
 9218SOL    HW139113   0.459   3.089   6.434 -0.9480 -0.7497 -1.2787
 9218SOL    HW239114   0.469   2.959   6.388  1.7013 -0.1111 -0.3660
 9219SOL     OW39115   4.393   0.015  15.992 -0.6883  0.0364 -0.0928
 9219SOL    HW139116   4.454   0.001  15.920 -0.8542 -1.3792  0.0367
 9219SOL    HW239117   4.328   0.074  15.954 -2.5811 -2.5137 -0.8704
 9220SOL     OW39118   4.015   2.208  10.025 -0.1117 -0.5937 -0.3350
 9220SOL    HW139119   4.094   2.263  10.022  0.5419 -1.5677 -1.0265
 9220SOL    HW239120   3.954   2.276  10.053  0.7871 -0.7708  2.0114
 9221SOL     OW39121   2.589   0.195   5.037 -0.4773  0.4546  0.4963
 9221SOL    HW139122   2.682   0.170   5.033 -0.2416  1.6921 -1.4950
 9221SOL    HW239123   2.555   0.179   4.949 -1.9302 -3.7982  1.7995
 9222SOL     OW39124   3.501   3.232   1.889  0.3893  0.8639  0.5550
 9222SOL    HW139125   3.493   3.215   1.983 -3.6808 -0.3136 -0.0217
 9222SOL    HW239126   3.410   3.234   1.861  0.9912  2.8667 -1.2889
 9223SOL     OW39127   3.106   4.204  10.014 -0.4268 -0.6615 -0.5023
 9223SOL    HW139128   3.098   4.170   9.925  1.7408  2.0676 -1.7241
 9223SOL    HW239129   3.194   4.240  10.006 -0.1229 -1.4680 -0.7224
 9224SOL     OW39130   2.526   3.607  12.374 -0.1941 -0.2934  0.5928
 9224SOL    HW139131   2.539   3.519  12.339  2.1809 -0.5000  1.9595
 9224SOL    HW239132   2.530   3.597  12.470  0.2355 -2.2359  0.3716
 9225SOL     OW39133   2.072   3.793  14.901  0.3500 -0.8485 -0.0789
 9225SOL    HW139134   2.134   3.838  14.959 -0.3913 -0.8916  0.7539
 9225SOL    HW239135   2.095   3.828  14.815  1.2775  0.6209  0.7693
 9226SOL     OW39136   4.190   0.543   7.280  0.4583  0.4133 -0.2287
 9226SOL    HW139137   4.265   0.593   7.314 -0.5273  1.6612  0.1223
 9226SOL    HW239138   4.217   0.538   7.189  0.9304 -0.4851 -0.0321
 9227SOL     OW39139   2.385   0.244   6.841  0.1684 -0.1405  0.0248
 9227SOL    HW139140   2.404   0.326   6.887 -0.4626 -0.5795  1.0757
 9227SOL    HW239141   2.437   0.182   6.892 -0.4831  1.0152  2.1084
 9228SOL     OW39142   2.929   4.649   6.443 -0.3034  0.2593  0.0265
 9228SOL    HW139143   2.852   4.593   6.447 -1.7063  2.0149 -1.9408
 9228SOL    HW239144   2.901   4.703   6.369 -0.3053  0.9394  0.5239
 9229SOL     OW39145   3.832   1.807   2.322 -0.6289 -0.0458 -0.2582
 9229SOL    HW139146   3.830   1.830   2.414  0.3367  0.6057 -0.4094
 9229SOL    HW239147   3.828   1.890   2.275 -0.8663  0.5550  0.8393
 9230SOL     OW39148   1.680   2.838   7.627  0.1626  0.3950 -0.0815
 9230SOL    HW139149   1.659   2.920   7.672 -0.4208 -0.3643  1.0375
 9230SOL    HW239150   1.685   2.781   7.704 -0.1616  0.3624 -0.0850
 9231SOL     OW39151   3.512   0.360   0.223 -0.6192 -0.3313 -0.6827
 9231SOL    HW139152   3.440   0.375   0.162 -0.6655 -2.1036 -1.0521
 9231SOL    HW239153   3.536   0.272   0.196  0.8306 -0.1281 -0.0859
 9232SOL     OW39154   0.266   1.015   4.257  0.6629 -0.5422 -0.6265
 9232SOL    HW139155   0.357   1.018   4.227  0.0514 -0.5948 -2.5141
 9232SOL    HW239156   0.217   1.087   4.218  0.3960 -1.1244 -1.3626
 9233SOL     OW39157   1.781   0.249   8.061  0.1033 -0.3351 -0.7256
 9233SOL    HW139158   1.837   0.184   8.103 -0.0233 -0.1108 -0.2058
 9233SOL    HW239159   1.780   0.327   8.117 -0.6358 -2.1562  1.8049
 9234SOL     OW39160   2.663   2.856   3.158 -0.7351  0.5876  0.3370
 9234SOL    HW139161   2.588   2.831   3.212 -0.1237 -1.0634  0.4201
 9234SOL    HW239162   2.691   2.928   3.216  1.5937 -0.2231  0.2227
 9235SOL     OW39163   4.663   4.419   2.885  0.5552 -0.4054  0.2911
 9235SOL    HW139164   0.003   4.494   2.885  0.4626 -0.3323  0.0151
 9235SOL    HW239165   4.623   4.426   2.799 -0.1326  0.5638  0.6847
 9236SOL     OW39166   2.452   0.270   6.068  0.6151 -0.8012 -0.4802
 9236SOL    HW139167   2.499   0.353   6.073  0.2978 -0.6076 -0.6859
 9236SOL    HW239168   2.365   0.308   6.060  0.6116 -0.6708  0.1327
 9237SOL     OW39169   1.975   0.133   5.875 -0.6898  0.3590 -0.5133
 9237SOL    HW139170   1.928   0.052   5.861  1.2437 -0.6317 -1.2682
 9237SOL    HW239171   2.054   0.097   5.915 -0.3959 -0.3864 -1.7776
 9238SOL     OW39172   4.312   2.038   5.930  0.4453  0.3868 -0.0263
 9238SOL    HW139173   4.374   1.964   5.934 -1.9796 -1.6577 -0.5870
 9238SOL    HW239174   4.232   1.997   5.963  0.0553  1.3895  0.2484
 9239SOL     OW39175   2.025   3.366  15.136  0.0433 -0.0360  0.4327
 9239SOL    HW139176   1.935   3.341  15.115  0.0831  0.7013 -0.6105
 9239SOL    HW239177   2.018   3.460  15.151 -0.1297  0.2488 -1.4882
 9240SOL     OW39178   1.478   1.135   8.807 -0.0338 -0.7877 -0.3423
 9240SOL    HW139179   1.526   1.154   8.887 -1.7099  2.7509 -0.2001
 9240SOL    HW239180   1.543   1.081   8.761  1.6791  0.7887  0.1870
 9241SOL     OW39181   4.287   4.114   2.172 -0.3591 -0.6786  0.3346
 9241SOL    HW139182   4.258   4.024   2.192  1.4511 -1.2947  0.2050
 9241SOL    HW239183   4.215   4.163   2.212 -0.5383 -0.1706 -0.6181
 9242SOL     OW39184   3.104   0.490   1.164 -0.1369 -0.0984 -0.3343
 9242SOL    HW139185   3.092   0.533   1.248  1.2112  1.3935 -0.9087
 9242SOL    HW239186   3.199   0.490   1.161 -0.1220 -0.1077  0.3020
 9243SOL     OW39187   3.522   0.430  10.469  0.5782 -1.1051 -0.1673
 9243SOL    HW139188   3.597   0.478  10.433  0.6987  0.5401  2.3130
 9243SOL    HW239189   3.532   0.452  10.561  0.4747 -0.9351 -0.1963
 9244SOL     OW39190   3.598   2.819  16.196  0.6058  0.0532  0.2431
 9244SOL    HW139191   3.551   2.901  16.214 -1.7067 -1.2821  0.2832
 9244SOL    HW239192   3.668   2.845  16.136 -1.2341  1.4450 -1.3005
 9245SOL     OW39193   2.282   0.454   5.913 -0.5577  0.3368  0.1511
 9245SOL    HW139194   2.336   0.457   5.835  0.2011 -0.5912  0.6377
 9245SOL    HW239195   2.202   0.483   5.869  0.1655  1.1477 -0.6146
 9246SOL     OW39196   2.962   0.700   9.018  0.4544 -0.1524 -0.3256
 9246SOL    HW139197   2.929   0.713   9.107  0.6879 -2.7561  0.1469
 9246SOL    HW239198   2.961   0.604   9.022  1.5195 -0.2753 -2.6271
 9247SOL     OW39199   0.673   1.936  10.502  0.1597 -0.0985  0.4450
 9247SOL    HW139200   0.709   2.020  10.476 -1.4546  0.4974  0.1633
 9247SOL    HW239201   0.748   1.877  10.503  1.9364  2.1570 -0.2710
 9248SOL     OW39202   1.897   0.048   1.975  0.4437  0.5403 -0.2442
 9248SOL    HW139203   1.943   4.690   2.004 -1.9762 -0.8811 -0.3571
 9248SOL    HW239204   1.953   0.088   1.908 -0.5542  1.0137 -0.7860
 9249SOL     OW39205   0.632   1.368   5.179  0.0874  0.6063  0.1085
 9249SOL    HW139206   0.716   1.415   5.175  2.0421 -3.1187 -2.5333
 9249SOL    HW239207   0.650   1.300   5.245 -1.4418 -1.6612 -1.8011
 9250SOL     OW39208   0.659   3.667   2.665  0.0321 -0.2595  0.2208
 9250SOL    HW139209   0.692   3.757   2.675  2.6779 -1.1578 -0.5768
 9250SOL    HW239210   0.709   3.628   2.736  2.1952  1.4333 -0.3417
 9251SOL     OW39211   0.675   3.065   5.951 -0.2702 -0.1520  0.0217
 9251SOL    HW139212   0.718   3.008   5.888 -2.2350  0.0921 -1.5199
 9251SOL    HW239213   0.747   3.128   5.960  0.6201 -0.9032 -2.0060
 9252SOL     OW39214   1.346   0.626  11.504  0.6540  0.1887  0.7142
 9252SOL    HW139215   1.333   0.681  11.582  0.3437 -0.6312  1.2468
 9252SOL    HW239216   1.406   0.560  11.537 -1.3430 -2.1431 -0.2741
 9253SOL     OW39217   3.641   4.043   7.109 -0.2706 -0.3849 -0.5185
 9253SOL    HW139218   3.693   4.031   7.190 -1.8400  1.1515  0.7001
 9253SOL    HW239219   3.698   4.102   7.059  0.5854 -0.5206  0.2749
 9254SOL     OW39220   1.602   1.316   4.874  0.3699 -0.2329  0.3877
 9254SOL    HW139221   1.662   1.299   4.801 -0.2188 -1.2313  0.1365
 9254SOL    HW239222   1.669   1.331   4.941 -0.4767 -0.9826  1.4096
 9255SOL     OW39223   4.444   4.526   3.926  0.2699 -0.0578  0.6015
 9255SOL    HW139224   4.532   4.495   3.947  0.7749  0.4991 -0.6518
 9255SOL    HW239225   4.442   4.593   3.994  1.4544  0.1478  0.4356
 9256SOL     OW39226   0.979   3.017  14.582  0.0142 -0.3229  0.5320
 9256SOL    HW139227   0.975   2.956  14.656 -2.7237  1.2581  1.6618
 9256SOL    HW239228   1.025   2.959  14.521 -0.5745  0.8322 -1.0194
 9257SOL     OW39229   0.600   1.595   6.939 -0.0374  0.7730 -0.5120
 9257SOL    HW139230   0.684   1.568   6.977 -0.1988  1.1665  0.1316
 9257SOL    HW239231   0.569   1.661   7.002  1.1549 -0.9717  1.8851
 9258SOL     OW39232   1.178   0.553  13.926 -0.6328 -0.1691 -0.1781
 9258SOL    HW139233   1.086   0.578  13.914 -1.0415 -0.3473  2.6568
 9258SOL    HW239234   1.175   0.513  14.012  0.7255  0.7407  0.2882
 9259SOL     OW39235   2.332   3.831   5.418 -0.0356 -0.3462  0.1239
 9259SOL    HW139236   2.402   3.896   5.415 -0.9468  0.6973  1.7477
 9259SOL    HW239237   2.319   3.819   5.324 -0.2468  2.6867 -0.2252
 9260SOL     OW39238   2.670   3.891  10.503  0.1162  0.1729 -0.3580
 9260SOL    HW139239   2.654   3.901  10.409 -0.1112 -1.4062 -0.4906
 9260SOL    HW239240   2.740   3.952  10.523 -0.2171  0.6830 -0.7294
 9261SOL     OW39241   3.751   4.426   9.521 -0.0550  0.5391 -0.4064
 9261SOL    HW139242   3.667   4.416   9.564  0.3936 -0.1193  0.3291
 9261SOL    HW239243   3.735   4.408   9.428 -2.0900  1.0835 -0.1588
 9262SOL     OW39244   1.033   4.291   2.228  0.0826 -0.0247 -0.0894
 9262SOL    HW139245   0.985   4.219   2.267 -1.0399  0.4229 -0.6520
 9262SOL    HW239246   1.029   4.268   2.135 -2.3815  0.5064 -0.1237
 9263SOL     OW39247   4.623   3.344   2.150  0.0983  0.2945 -0.3563
 9263SOL    HW139248   4.547   3.366   2.096 -0.8780  0.1865  1.0034
 9263SOL    HW239249   4.694   3.398   2.116  1.2772 -2.3416 -2.1307
 9264SOL     OW39250   1.638   0.639   5.860  0.1874  0.2895 -0.3402
 9264SOL    HW139251   1.687   0.699   5.804  1.2310  0.7206  1.0624
 9264SOL    HW239252   1.707   0.576   5.881  0.7467  1.0778  0.1609
 9265SOL     OW39253   3.660   3.062  10.796 -0.3448 -0.2599  0.2028
 9265SOL    HW139254   3.582   3.116  10.810  0.1082  0.6112 -0.6602
 9265SOL    HW239255   3.641   3.026  10.709  0.6791  2.3105 -1.0964
 9266SOL     OW39256   4.606   3.940  12.903 -0.2987 -0.3821  0.7269
 9266SOL    HW139257   4.530   3.969  12.853  0.1413 -0.5873 -0.0661
 9266SOL    HW239258   4.563   3.919  12.985 -0.1617 -0.1256  0.8642
 9267SOL     OW39259   2.916   1.862   3.947 -0.3674 -0.5299 -0.1022
 9267SOL    HW139260   2.847   1.919   3.911 -1.1478  0.2466  2.6462
 9267SOL    HW239261   2.949   1.919   4.017 -0.4629  0.9461 -1.2520
 9268SOL     OW39262   0.337   3.730   5.059  0.3647  0.6609 -0.3784
 9268SOL    HW139263   0.282   3.651   5.058 -0.0436  0.8455  3.9911
 9268SOL    HW239264   0.393   3.704   4.987  0.2066  0.5741 -0.4708
 9269SOL     OW39265   2.987   3.677   5.452 -0.0804 -0.2264  0.3440
 9269SOL    HW139266   3.024   3.589   5.442  0.0993 -0.2236  1.0031
 9269SOL    HW239267   2.987   3.688   5.547 -0.4769  0.3129  0.2819
 9270SOL     OW39268   2.390   3.668   7.609 -0.2281 -0.1627  0.6830
 9270SOL    HW139269   2.382   3.626   7.524  0.8469 -0.4882  0.7320
 9270SOL    HW239270   2.341   3.747   7.588  0.1940 -0.6668 -2.1438
 9271SOL     OW39271   4.331   4.495   1.786 -0.0370  0.4592  0.1090
 9271SOL    HW139272   4.379   4.506   1.869 -1.9024 -1.1147  1.3957
 9271SOL    HW239273   4.245   4.470   1.819  0.2753 -0.7255  0.0271
 9272SOL     OW39274   3.572   0.422   3.862  0.0147 -0.2159  0.0997
 9272SOL    HW139275   3.539   0.349   3.915  1.3175 -0.9672 -0.1242
 9272SOL    HW239276   3.641   0.378   3.812 -0.4721 -1.7598  0.7870
 9273SOL     OW39277   4.447   3.551   8.758  0.4641  0.1647 -0.6124
 9273SOL    HW139278   4.399   3.489   8.813  0.8880  0.1157 -0.2938
 9273SOL    HW239279   4.416   3.636   8.789 -1.0457 -0.2791 -0.9409
 9274SOL     OW39280   1.584   1.725   1.402  0.1696 -0.1905 -0.2934
 9274SOL    HW139281   1.565   1.700   1.311  0.2130 -3.6495  0.6483
 9274SOL    HW239282   1.679   1.730   1.398  0.0516 -0.0985 -2.7890
 9275SOL     OW39283   3.637   3.998   0.946 -0.2980 -0.8632  0.5018
 9275SOL    HW139284   3.643   3.998   0.851 -2.7721  2.0980  0.3397
 9275SOL    HW239285   3.654   4.092   0.956 -0.3291 -0.6139 -1.7514
 9276SOL     OW39286   1.916   2.038  10.027  0.1626 -0.4274  0.2607
 9276SOL    HW139287   1.869   1.987   9.961 -1.5745  0.3213  0.9139
 9276SOL    HW239288   1.986   1.978  10.051  1.0804  0.3817 -0.3595
 9277SOL     OW39289   2.712   4.527   6.082 -0.3078 -0.6653 -0.3188
 9277SOL    HW139290   2.617   4.529   6.094 -0.4767 -1.5944 -1.5097
 9277SOL    HW239291   2.722   4.619   6.106 -1.5855 -0.6578  0.1792
 9278SOL     OW39292   0.530   0.429  10.228  1.0288  0.0234 -0.0092
 9278SOL    HW139293   0.502   0.478  10.305  0.2921  1.5229 -1.2393
 9278SOL    HW239294   0.492   0.467  10.149  2.4491 -0.4382 -0.9283
 9279SOL     OW39295   1.321   0.490  10.651 -0.4138 -0.5669  0.4093
 9279SOL    HW139296   1.262   0.418  10.628 -1.1806  1.0208 -2.6988
 9279SOL    HW239297   1.368   0.454  10.726  2.0565  0.1998 -0.7726
 9280SOL     OW39298   3.440   2.879   8.866  0.2483  0.2132 -0.4447
 9280SOL    HW139299   3.467   2.918   8.783 -1.3863 -1.4924 -1.7762
 9280SOL    HW239300   3.525   2.848   8.897  0.4291  0.8419 -0.3141
 9281SOL     OW39301   1.563   1.124   6.206 -0.0365 -0.0758  0.0736
 9281SOL    HW139302   1.590   1.183   6.276  0.3492  0.0666 -0.1953
 9281SOL    HW239303   1.555   1.042   6.254  0.2055 -0.7458 -1.0318
 9282SOL     OW39304   2.106   0.288  12.837 -0.0865  0.2768  0.6832
 9282SOL    HW139305   2.011   0.287  12.826 -0.3195  1.1281  2.6880
 9282SOL    HW239306   2.120   0.287  12.932 -0.2919 -0.1862  0.7089
 9283SOL     OW39307   1.540   4.653  12.121  0.0693 -0.2145  0.1531
 9283SOL    HW139308   1.533   4.608  12.037  0.9729 -0.0255 -0.0278
 9283SOL    HW239309   1.608   4.718  12.102 -0.0577 -0.1697 -0.1563
 9284SOL     OW39310   2.129   2.461  14.641  0.1213 -0.4030 -0.1955
 9284SOL    HW139311   2.100   2.551  14.655 -0.9208 -0.6994 -0.4424
 9284SOL    HW239312   2.221   2.482  14.621 -0.5357  1.1391 -1.6174
 9285SOL     OW39313   2.971   0.075   2.894 -0.2740  0.5851 -0.0758
 9285SOL    HW139314   3.030   0.030   2.953  0.0175  0.0604 -0.7710
 9285SOL    HW239315   3.007   0.164   2.884 -3.7503  2.1615  1.2457
 9286SOL     OW39316   0.923   2.768   3.983  0.1938  0.5012 -0.3857
 9286SOL    HW139317   0.945   2.811   3.900 -0.5744  0.0992 -0.7938
 9286SOL    HW239318   0.909   2.848   4.033 -0.8592 -0.4860  0.8682
 9287SOL     OW39319   0.924   3.704   6.467  0.1793  0.3570 -0.7818
 9287SOL    HW139320   0.913   3.678   6.376  2.9482 -0.7069 -0.8265
 9287SOL    HW239321   0.894   3.795   6.473  2.7515  1.1507  0.2628
 9288SOL     OW39322   4.087   1.521   4.837  0.4403 -0.0459  0.1336
 9288SOL    HW139323   4.163   1.491   4.788  1.5243  0.2584  1.6298
 9288SOL    HW239324   4.130   1.565   4.910 -0.4173  0.6938  0.2033
 9289SOL     OW39325   0.747   2.171  12.071 -0.2888  0.4055 -0.1468
 9289SOL    HW139326   0.653   2.150  12.073 -0.2510  0.2562  0.0416
 9289SOL    HW239327   0.737   2.265  12.053  0.1863  0.5034  0.1034
 9290SOL     OW39328   4.689   2.783   3.569  0.6631  0.4444  0.6951
 9290SOL    HW139329   4.630   2.838   3.621  0.3804 -0.9616  1.8683
 9290SOL    HW239330   0.020   2.738   3.635  0.4160  0.9435  1.2304
 9291SOL     OW39331   4.499   2.027   2.258 -0.7643 -0.2647 -0.4291
 9291SOL    HW139332   4.516   2.117   2.286 -1.1777 -0.4950  0.5584
 9291SOL    HW239333   4.590   2.005   2.237 -0.4635  0.1170  0.4877
 9292SOL     OW39334   3.899   0.373   3.964  0.8453 -0.5280  0.1535
 9292SOL    HW139335   3.840   0.298   3.969 -1.6498  1.4318  0.3097
 9292SOL    HW239336   3.965   0.361   4.032 -0.5922  1.9418  1.9962
 9293SOL     OW39337   0.524   2.941   0.355  0.3558 -0.7720  0.1595
 9293SOL    HW139338   0.456   2.922   0.420 -1.2691  1.5905 -0.8530
 9293SOL    HW239339   0.574   2.860   0.364  1.2837 -0.1610  0.3881
 9294SOL     OW39340   0.194   3.556  16.473 -0.2636  0.1602  0.3821
 9294SOL    HW139341   0.290   3.565  16.471  0.0209 -2.9576  0.8539
 9294SOL    HW239342   0.164   3.622  16.536 -0.6110 -0.7556  1.1623
 9295SOL     OW39343   1.662   1.418   1.164 -0.3575 -0.6198 -0.4141
 9295SOL    HW139344   1.682   1.391   1.074 -1.7662 -1.2938 -0.5284
 9295SOL    HW239345   1.618   1.339   1.196  1.4988 -2.0262 -1.3384
 9296SOL     OW39346   1.339   2.502  10.726  0.5606  0.3857 -0.1879
 9296SOL    HW139347   1.389   2.462  10.654 -0.5951 -0.7830 -0.3322
 9296SOL    HW239348   1.406   2.490  10.793  0.3233  2.1510  0.3660
 9297SOL     OW39349   0.073   2.952   5.949  0.7436  0.0889  0.1291
 9297SOL    HW139350   0.134   3.020   5.977  0.6430  0.0172  0.5193
 9297SOL    HW239351   0.060   2.981   5.859 -0.4045 -0.0921  0.2345
 9298SOL     OW39352   3.305   0.465  17.516 -0.2390  0.2170 -0.2737
 9298SOL    HW139353   3.294   0.397  17.449  0.0313 -1.3793  1.2916
 9298SOL    HW239354   3.244   0.535  17.496 -0.5692 -0.5223 -1.8640
 9299SOL     OW39355   0.648   3.306   4.766  0.2993 -0.2897  0.1471
 9299SOL    HW139356   0.577   3.325   4.828 -0.3285 -2.7778  0.2003
 9299SOL    HW239357   0.667   3.389   4.722 -1.1067 -0.6796 -1.1700
 9300SOL     OW39358   3.181   2.369   5.529 -0.4140  0.0039 -0.0370
 9300SOL    HW139359   3.241   2.352   5.457  1.2129  1.1610  1.0472
 9300SOL    HW239360   3.182   2.282   5.567 -2.7516 -0.1631 -0.3279
 9301SOL     OW39361   1.553   0.878  10.315 -0.5288  0.0610  0.2109
 9301SOL    HW139362   1.617   0.827  10.266  0.1105  0.3251  0.7776
 9301SOL    HW239363   1.493   0.815  10.355 -0.1658  0.7025  1.7789
 9302SOL     OW39364   3.144   1.035  17.237 -0.1263  0.2449 -0.0959
 9302SOL    HW139365   3.062   1.019  17.190  0.7394 -0.0597 -1.5268
 9302SOL    HW239366   3.143   1.129  17.219  1.5998  0.7899  2.7016
 9303SOL     OW39367   1.911   0.904   1.512  0.6205 -0.1887  0.6834
 9303SOL    HW139368   1.891   0.865   1.597  0.2980 -0.1403  0.6288
 9303SOL    HW239369   1.937   0.992   1.542 -2.2440  0.8455  0.1100
 9304SOL     OW39370   0.122   4.040   5.705  0.7918 -0.3919 -0.4304
 9304SOL    HW139371   0.201   4.006   5.747  0.5587  0.8249  0.9764
 9304SOL    HW239372   0.170   4.067   5.626  1.8547  0.0942  0.3870
 9305SOL     OW39373   4.613   0.524   2.301 -0.0483 -0.6186  0.0180
 9305SOL    HW139374   4.618   0.583   2.227 -0.9125 -1.5900 -0.8200
 9305SOL    HW239375   4.707   0.516   2.316 -0.1718  0.5226  1.4209
 9306SOL     OW39376   1.930   2.505  16.637 -0.3103 -0.5906  0.4221
 9306SOL    HW139377   1.835   2.506  16.649 -0.5762 -1.1026 -1.5977
 9306SOL    HW239378   1.940   2.592  16.599 -2.1728 -0.1994  0.8540
 9307SOL     OW39379   3.971   2.807   3.328  0.2682  0.3889 -0.1071
 9307SOL    HW139380   3.974   2.766   3.415  1.1411  0.7151  0.0199
 9307SOL    HW239381   3.939   2.736   3.273 -1.0399  1.9869 -1.4078
 9308SOL     OW39382   0.255   0.031   1.778 -0.2967  0.1327  0.0351
 9308SOL    HW139383   0.309   0.066   1.849 -1.0003  0.1415  0.5546
 9308SOL    HW239384   0.309   4.692   1.726  0.8628  1.6545 -0.5459
 9309SOL     OW39385   2.773   0.834   2.073  0.5030 -0.3899  0.1676
 9309SOL    HW139386   2.776   0.759   2.013  2.8365  0.9040 -1.3596
 9309SOL    HW239387   2.680   0.845   2.089  0.3772  0.0353 -0.8203
 9310SOL     OW39388   2.242   3.038   9.991 -0.0454  0.2912 -0.1218
 9310SOL    HW139389   2.337   3.045  10.006 -0.1268 -0.9153  0.9951
 9310SOL    HW239390   2.228   3.115   9.936  1.3545  0.6390 -0.0070
 9311SOL     OW39391   1.478   3.196   7.170 -0.0238 -0.2787  0.4986
 9311SOL    HW139392   1.399   3.141   7.176 -0.0414 -0.2913  0.1326
 9311SOL    HW239393   1.487   3.216   7.263  2.0330  1.4621 -0.0804
 9312SOL     OW39394   0.468   2.471   1.035  0.2689 -0.0152 -0.4924
 9312SOL    HW139395   0.429   2.384   1.046  0.1506 -0.0299 -1.0238
 9312SOL    HW239396   0.559   2.464   1.063  0.7634  0.6838 -1.9287
 9313SOL     OW39397   3.242   1.405   1.265 -0.1492 -0.2834 -0.1188
 9313SOL    HW139398   3.293   1.324   1.257 -0.1126 -0.2150 -0.5400
 9313SOL    HW239399   3.166   1.385   1.211  0.7906  0.3319 -1.6646
 9314SOL     OW39400   2.315   3.849   5.150  0.6481 -0.3693  0.3525
 9314SOL    HW139401   2.243   3.833   5.089 -1.5592  1.0281  2.6151
 9314SOL    HW239402   2.381   3.787   5.117  0.5136 -0.5562  0.4324
 9315SOL     OW39403   4.262   1.816  14.196 -0.1390  0.6662 -0.8408
 9315SOL    HW139404   4.340   1.826  14.141  1.4926 -2.3425  0.9414
 9315SOL    HW239405   4.306   1.779  14.272 -1.4949  1.5166  0.3452
 9316SOL     OW39406   2.408   0.536   1.947  0.1260 -0.6533 -0.1762
 9316SOL    HW139407   2.408   0.597   1.873  0.7099  2.3170  2.3084
 9316SOL    HW239408   2.366   0.590   2.014 -1.4242 -0.6934 -1.1056
 9317SOL     OW39409   2.838   4.131  17.226 -0.1169  0.6373 -0.4407
 9317SOL    HW139410   2.908   4.179  17.269  3.3327 -3.9248 -1.0315
 9317SOL    HW239411   2.856   4.045  17.264  0.6990  0.7293 -0.6321
 9318SOL     OW39412   1.806   0.423  15.602 -0.2521 -0.4276  0.2756
 9318SOL    HW139413   1.901   0.415  15.595  0.2279  4.5349  1.1636
 9318SOL    HW239414   1.794   0.517  15.618 -1.0048 -0.0921 -2.2202
 9319SOL     OW39415   3.909   4.278   0.614 -0.1820  0.2049  0.6600
 9319SOL    HW139416   3.837   4.336   0.588  2.0040  1.0413 -3.6298
 9319SOL    HW239417   3.880   4.205   0.669  1.4253 -1.4334 -0.6514
 9320SOL     OW39418   0.673   1.525   2.470 -0.5927  0.8537 -0.9375
 9320SOL    HW139419   0.704   1.554   2.384 -0.1269 -0.2534 -1.1334
 9320SOL    HW239420   0.638   1.441   2.441 -0.2902  1.2843 -2.5694
 9321SOL     OW39421   0.664   1.441  14.486 -0.1693 -0.0635 -0.0231
 9321SOL    HW139422   0.621   1.467  14.404  0.7812 -1.5549 -0.9816
 9321SOL    HW239423   0.730   1.504  14.514  0.6470 -1.4611  1.2356
 9322SOL     OW39424   2.445   4.491   8.402 -0.1765 -0.0274 -0.5502
 9322SOL    HW139425   2.462   4.423   8.337 -1.4254 -1.5075  0.6447
 9322SOL    HW239426   2.489   4.443   8.472  0.6317 -0.1890 -1.1760
 9323SOL     OW39427   0.067   1.470   4.497  0.7131 -0.3061  0.2190
 9323SOL    HW139428   0.137   1.405   4.505  1.1614  0.1493  0.0268
 9323SOL    HW239429   0.103   1.508   4.417 -1.4702 -2.0205 -1.5574
 9324SOL     OW39430   4.714   1.877   8.455 -0.2561 -0.2294 -0.1200
 9324SOL    HW139431   4.695   1.920   8.371 -4.4693 -1.0410  0.3852
 9324SOL    HW239432   0.001   1.788   8.423 -0.6659 -0.2278 -0.2365
 9325SOL     OW39433   2.547   4.335   4.654 -0.3925  0.4745  0.1885
 9325SOL    HW139434   2.628   4.285   4.650 -0.5632  0.2711 -0.6876
 9325SOL    HW239435   2.496   4.298   4.583 -0.3225  0.8748 -0.0694
 9326SOL     OW39436   3.112   3.709   8.324  0.0263 -0.4661 -0.0004
 9326SOL    HW139437   3.095   3.785   8.269  1.3429  0.2458  0.5690
 9326SOL    HW239438   3.054   3.639   8.291 -0.9113  0.6655 -0.7355
 9327SOL     OW39439   2.726   2.618   6.809  0.1842  0.0380  0.0507
 9327SOL    HW139440   2.764   2.678   6.873  2.0331  1.5484 -2.4805
 9327SOL    HW239441   2.801   2.560   6.803  1.2982  1.4334  0.5977
 9328SOL     OW39442   1.734   1.374   3.219 -0.0561  0.0731  1.3514
 9328SOL    HW139443   1.684   1.330   3.151  0.6290  2.3080 -0.6369
 9328SOL    HW239444   1.808   1.414   3.173 -1.9605  0.5337 -1.3168
 9329SOL     OW39445   4.254   2.108   2.319  0.5072 -0.2435  0.0786
 9329SOL    HW139446   4.320   2.061   2.267  1.4364  1.5955 -0.4055
 9329SOL    HW239447   4.273   2.089   2.411  0.4970 -1.5777 -0.1864
 9330SOL     OW39448   0.926   1.220  10.476 -0.0518 -0.4571  0.3374
 9330SOL    HW139449   0.961   1.204  10.564 -0.9787 -1.6658  0.4794
 9330SOL    HW239450   0.885   1.305  10.491 -0.2653 -0.2494 -1.4229
 9331SOL     OW39451   1.529   4.423   8.286 -0.2268 -0.1030 -0.1903
 9331SOL    HW139452   1.518   4.474   8.366  0.2741  0.2288 -0.3300
 9331SOL    HW239453   1.621   4.438   8.264 -1.8268  2.4463 -5.1042
 9332SOL     OW39454   1.251   0.413  10.357  0.4439 -0.4841  0.1953
 9332SOL    HW139455   1.299   0.493  10.379  2.1778 -1.5827  0.4185
 9332SOL    HW239456   1.321   0.357  10.391 -0.3005 -2.8059 -2.1467
 9333SOL     OW39457   2.715   1.283  15.254 -0.2287 -0.0922  0.1954
 9333SOL    HW139458   2.764   1.273  15.172  1.0742 -0.7368  1.0453
 9333SOL    HW239459   2.784   1.288  15.320 -2.2809 -1.6325  2.4427
 9334SOL     OW39460   2.899   0.698   4.480 -0.3206 -0.1533  0.1122
 9334SOL    HW139461   2.904   0.627   4.544 -3.7597 -1.5737 -1.2169
 9334SOL    HW239462   2.882   0.645   4.402 -0.7417  1.4085 -0.8409
 9335SOL     OW39463   4.615   3.031   2.573  0.6733 -0.2863  0.6486
 9335SOL    HW139464   4.669   3.077   2.638 -1.3424 -1.4211  3.1293
 9335SOL    HW239465   4.637   3.088   2.499 -0.4754  0.2828  0.7513
 9336SOL     OW39466   1.875   4.347   1.194 -0.4103 -0.0391 -0.0948
 9336SOL    HW139467   1.809   4.278   1.188 -0.4737 -0.0558  0.9011
 9336SOL    HW239468   1.849   4.388   1.276 -1.4233 -0.6714 -0.0928
 9337SOL     OW39469   0.427   2.952   9.089  0.1774  0.1138 -0.1933
 9337SOL    HW139470   0.333   2.942   9.079  0.6327 -3.7185 -0.6981
 9337SOL    HW239471   0.457   2.868   9.053  1.4299  0.7559 -0.6570
 9338SOL     OW39472   2.732   4.390   3.616  0.0633 -0.0135  0.0937
 9338SOL    HW139473   2.650   4.431   3.642 -0.5154 -1.4242  0.4759
 9338SOL    HW239474   2.746   4.319   3.678  0.1621  0.1702  0.2798
 9339SOL     OW39475   0.155   1.335   2.761 -0.1055  0.2473 -0.2581
 9339SOL    HW139476   0.062   1.314   2.752 -0.7667  2.8524  0.2342
 9339SOL    HW239477   0.149   1.423   2.799 -0.0253 -0.5375  1.5797
 9340SOL     OW39478   3.755   3.961   8.780  0.1915 -0.0271 -0.0643
 9340SOL    HW139479   3.811   3.962   8.702  0.0374  0.5154 -0.1694
 9340SOL    HW239480   3.819   3.922   8.840 -0.3775 -0.6256  0.1429
 9341SOL     OW39481   3.256   2.424   2.011 -0.1940 -0.1450 -0.3327
 9341SOL    HW139482   3.180   2.484   2.010  0.6570  0.8681 -2.3036
 9341SOL    HW239483   3.207   2.343   2.027 -0.0972 -0.3044 -0.8571
 9342SOL     OW39484   3.212   3.492   2.361 -0.1910  0.2501 -0.2658
 9342SOL    HW139485   3.216   3.573   2.412  0.1549 -0.5361  0.9422
 9342SOL    HW239486   3.279   3.440   2.406 -0.3943  0.8943  0.7834
 9343SOL     OW39487   0.613   4.172   5.402  0.6102 -0.0668  0.0933
 9343SOL    HW139488   0.638   4.182   5.494  2.0230 -1.1886 -0.1711
 9343SOL    HW239489   0.533   4.225   5.394 -1.4243 -3.0409  0.8738
 9344SOL     OW39490   2.277   1.757  16.490 -0.4197 -0.2477 -0.6096
 9344SOL    HW139491   2.239   1.677  16.455 -2.6240 -0.3494  2.0800
 9344SOL    HW239492   2.304   1.796  16.406  0.2368 -0.5648 -0.5461
 9345SOL     OW39493   0.848   1.486   6.731 -0.2822 -0.6967  0.0964
 9345SOL    HW139494   0.928   1.482   6.784 -0.3791  3.3215  0.5203
 9345SOL    HW239495   0.811   1.559   6.782  0.3913 -0.7428  0.6419
 9346SOL     OW39496   3.148   0.986   9.474 -0.3194 -0.2688 -0.1141
 9346SOL    HW139497   3.211   0.948   9.536  2.5375  4.2948 -0.2850
 9346SOL    HW239498   3.141   0.917   9.408 -0.5567 -0.1976 -0.1602
 9347SOL     OW39499   4.241   4.460  11.488 -0.4137  0.1190 -0.0308
 9347SOL    HW139500   4.172   4.414  11.440 -0.2764 -0.7519  0.5996
 9347SOL    HW239501   4.312   4.430  11.431  0.5155  1.0264  0.6406
 9348SOL     OW39502   4.604   2.528   3.435  0.1299 -0.0505 -0.1428
 9348SOL    HW139503   4.522   2.517   3.388 -0.5644  2.9453  0.3362
 9348SOL    HW239504   4.600   2.621   3.461  2.2458 -0.8515  3.0635
 9349SOL     OW39505   3.889   4.484  11.490 -0.1611  0.0045  0.8069
 9349SOL    HW139506   3.896   4.575  11.519 -0.0233 -0.1801  1.3515
 9349SOL    HW239507   3.983   4.470  11.476  0.1589  2.6595  0.3921
 9350SOL     OW39508   3.025   0.373  17.542 -0.2786  0.5027  0.4256
 9350SOL    HW139509   3.058   0.460  17.566 -0.8567  1.0114 -0.6071
 9350SOL    HW239510   3.016   0.393  17.449  1.9562  0.5693  0.2292
 9351SOL     OW39511   2.777   4.527  11.123  0.9264  0.2766 -1.0237
 9351SOL    HW139512   2.715   4.508  11.193 -0.1390  2.8916 -1.2603
 9351SOL    HW239513   2.714   4.587  11.085  0.2248  0.0413 -0.2229
 9352SOL     OW39514   4.480   1.389   3.271  0.6117 -0.7197  0.1632
 9352SOL    HW139515   4.433   1.463   3.234  2.2286  0.2868  0.1276
 9352SOL    HW239516   4.457   1.401   3.363  1.6073  1.7078  0.0914
 9353SOL     OW39517   3.583   2.983   4.398  0.4040  0.1028 -0.1391
 9353SOL    HW139518   3.568   3.008   4.490 -2.8815  1.2902 -0.9939
 9353SOL    HW239519   3.663   3.028   4.373  0.3787  1.0596  1.4929
 9354SOL     OW39520   2.215   1.930   7.229 -0.2676  0.5207  0.5101
 9354SOL    HW139521   2.225   2.016   7.188  1.0045 -1.8125 -3.9974
 9354SOL    HW239522   2.126   1.926   7.266 -0.4255 -3.4552 -0.3265
 9355SOL     OW39523   4.111   2.000  11.816  0.1559  0.1244  0.3133
 9355SOL    HW139524   4.049   2.061  11.775 -0.2630 -0.5329 -0.0220
 9355SOL    HW239525   4.160   1.979  11.737  0.6401 -0.6358  0.8173
 9356SOL     OW39526   2.683   1.817  14.954  0.3634 -0.4757 -0.6249
 9356SOL    HW139527   2.682   1.754  15.026  0.6717 -1.1145 -1.1829
 9356SOL    HW239528   2.732   1.759  14.896 -0.5691 -0.9719 -0.9272
 9357SOL     OW39529   4.440   2.109   1.838 -0.3538  0.3222 -0.1379
 9357SOL    HW139530   4.427   2.181   1.899 -1.7168 -1.2907  1.4366
 9357SOL    HW239531   4.371   2.050   1.866 -1.5407  0.4550 -2.8121
 9358SOL     OW39532   0.464   3.001   6.881  0.6148  0.7335  0.5276
 9358SOL    HW139533   0.544   2.986   6.830  0.1314 -0.1484  0.0419
 9358SOL    HW239534   0.467   3.097   6.887  2.4087  0.7282 -0.1956
 9359SOL     OW39535   4.497   2.661   8.430  0.3616 -0.5061  0.3514
 9359SOL    HW139536   4.560   2.595   8.402 -0.3595 -1.0825  0.0777
 9359SOL    HW239537   4.554   2.738   8.429  0.0002 -0.2537 -1.1020
 9360SOL     OW39538   1.889   3.732   0.870  0.3809  0.4275  1.1682
 9360SOL    HW139539   1.914   3.639   0.866 -0.6745  0.2806 -1.8244
 9360SOL    HW239540   1.944   3.764   0.798  0.0622  0.0175  0.7437
 9361SOL     OW39541   3.817   1.697   9.008  0.0728 -0.1979  0.0733
 9361SOL    HW139542   3.842   1.783   8.975 -0.7287 -0.1448 -0.3833
 9361SOL    HW239543   3.783   1.663   8.926 -0.0981 -0.7589  0.3691
 9362SOL     OW39544   0.682   0.716   5.453  0.0891 -0.2878  0.0152
 9362SOL    HW139545   0.662   0.761   5.370  0.0780  0.0973  0.2282
 9362SOL    HW239546   0.622   0.762   5.512  0.5020 -0.4848  0.5850
 9363SOL     OW39547   1.477   3.363   4.392  0.2228 -0.0809 -0.5866
 9363SOL    HW139548   1.566   3.332   4.374  0.2423 -0.1852 -0.3049
 9363SOL    HW239549   1.482   3.456   4.369  2.6698 -0.4037 -1.4278
 9364SOL     OW39550   2.273   3.411   5.707 -0.1575  0.6516 -0.3121
 9364SOL    HW139551   2.208   3.476   5.732 -0.1081  0.3377  0.6500
 9364SOL    HW239552   2.350   3.440   5.756 -0.5840  1.1044  0.0852
 9365SOL     OW39553   4.170   4.169   8.360  0.2509 -0.0825  0.2651
 9365SOL    HW139554   4.182   4.261   8.336 -1.0863 -0.5985 -2.4446
 9365SOL    HW239555   4.238   4.161   8.426  0.9105  0.7724 -0.3066
 9366SOL     OW39556   3.581   4.611   9.055 -0.2781  0.2777 -0.0023
 9366SOL    HW139557   3.560   4.575   9.141  0.0869 -0.5310 -0.2583
 9366SOL    HW239558   3.596   4.702   9.081  1.7826  0.1394 -0.7581
 9367SOL     OW39559   3.625   0.860   5.492  0.3715  0.1790 -0.2488
 9367SOL    HW139560   3.658   0.947   5.514  0.6035  0.2370 -0.8431
 9367SOL    HW239561   3.540   0.868   5.537  0.4318  3.3971 -0.6903
 9368SOL     OW39562   4.622   2.156   6.414  0.1613  0.6221  0.0416
 9368SOL    HW139563   4.537   2.190   6.443 -0.1909 -1.1019  1.0307
 9368SOL    HW239564   4.593   2.142   6.324 -1.3527  3.9910 -0.0013
 9369SOL     OW39565   3.650   0.601   5.414  0.4302 -0.3281  0.5986
 9369SOL    HW139566   3.619   0.621   5.325  1.0889  1.1305  0.6997
 9369SOL    HW239567   3.653   0.690   5.450 -1.7770  0.3924 -0.9710
 9370SOL     OW39568   2.725   1.604   5.938 -0.3510 -0.1079  0.1248
 9370SOL    HW139569   2.820   1.609   5.948 -0.2489  0.0483 -0.8841
 9370SOL    HW239570   2.698   1.543   6.006 -0.5883 -0.9798 -0.7387
 9371SOL     OW39571   4.305   4.519   8.907 -0.1790 -0.3908  0.7622
 9371SOL    HW139572   4.339   4.586   8.966 -2.2042 -1.2752  2.9199
 9371SOL    HW239573   4.210   4.527   8.918 -0.0306  1.9087  0.4284
 9372SOL     OW39574   4.647   2.778   0.539  0.2205 -0.3919  0.2238
 9372SOL    HW139575   4.652   2.682   0.540  2.5674 -0.2771 -0.9738
 9372SOL    HW239576   0.001   2.806   0.487 -0.8277  0.1864 -0.9662
 9373SOL     OW39577   3.606   0.215   7.513  0.0524 -0.3159 -0.4386
 9373SOL    HW139578   3.633   0.266   7.437  0.1044  2.0429  1.1679
 9373SOL    HW239579   3.525   0.177   7.477  1.0088 -1.8381 -0.9653
 9374SOL     OW39580   4.606   0.198  16.175 -0.4409 -0.3709  0.1861
 9374SOL    HW139581   4.519   0.187  16.213 -0.7736  3.7326  0.5980
 9374SOL    HW239582   4.633   0.108  16.193  1.2475 -0.0633 -0.7974
 9375SOL     OW39583   4.006   2.814  10.621 -0.3949  0.5718 -0.3718
 9375SOL    HW139584   3.930   2.763  10.594  1.2293 -2.1339  0.0695
 9375SOL    HW239585   3.979   2.843  10.709  1.8656 -0.4312  0.6620
 9376SOL     OW39586   0.084   0.625   3.515  0.1121  0.5572  0.7062
 9376SOL    HW139587   4.715   0.626   3.545 -0.7854  0.4378 -1.9584
 9376SOL    HW239588   0.077   0.656   3.424 -0.9955 -1.5528  0.0827
 9377SOL     OW39589   2.479   4.577   0.560 -0.2509 -0.4907  0.4727
 9377SOL    HW139590   2.389   4.544   0.561 -0.1352 -0.7931  1.0978
 9377SOL    HW239591   2.466   4.654   0.614  0.9402 -0.0391  0.1216
 9378SOL     OW39592   2.670   0.643   1.646 -0.0813 -0.1024 -0.1399
 9378SOL    HW139593   2.681   0.737   1.631  0.0909 -0.2293 -0.8421
 9378SOL    HW239594   2.575   0.631   1.645  0.0717 -1.2997  0.2652
 9379SOL     OW39595   3.991   3.095   3.646 -0.9899 -0.1094  0.2716
 9379SOL    HW139596   3.952   3.008   3.645  0.5186 -0.7809  1.5725
 9379SOL    HW239597   3.915   3.154   3.655 -0.7376  0.2103  0.3250
 9380SOL     OW39598   0.389   2.825   3.258 -0.3749 -0.0219 -0.4743
 9380SOL    HW139599   0.407   2.762   3.188  0.5092 -0.1166 -0.1535
 9380SOL    HW239600   0.343   2.892   3.206  1.0235  2.5282  1.6087
 9381SOL     OW39601   0.855   1.058  14.250  0.8445  0.2697  0.6035
 9381SOL    HW139602   0.844   1.025  14.339  1.6341  0.0130  0.6067
 9381SOL    HW239603   0.951   1.062  14.247  0.8482  0.3326  0.8318
 9382SOL     OW39604   2.737   4.499   9.391  0.1020  0.1395 -0.3502
 9382SOL    HW139605   2.674   4.483   9.321 -1.6498 -1.4534  1.6110
 9382SOL    HW239606   2.691   4.459   9.464  0.6070  2.5732  1.3122
 9383SOL     OW39607   3.214   0.126   9.986  0.1584  0.1280  0.4493
 9383SOL    HW139608   3.243   0.036   9.972  0.6536  0.5138 -0.9738
 9383SOL    HW239609   3.121   0.106   9.998 -0.2427  1.0238 -1.2290
 9384SOL     OW39610   3.044   3.993   3.658 -0.6440  0.0239  0.1869
 9384SOL    HW139611   3.077   4.039   3.736  0.1147  1.1115 -0.7836
 9384SOL    HW239612   3.008   4.063   3.605 -1.3103  0.2509  0.9524
 9385SOL     OW39613   3.912   1.220   5.680 -0.4706 -0.4584 -0.3141
 9385SOL    HW139614   3.882   1.292   5.735 -1.2818 -1.9864  1.2826
 9385SOL    HW239615   3.882   1.147   5.735  1.5310 -0.8786  0.2445
 9386SOL     OW39616   0.545   1.132   9.835 -0.7291 -0.0286 -0.1271
 9386SOL    HW139617   0.526   1.224   9.819  0.5189  0.2326 -0.0975
 9386SOL    HW239618   0.640   1.142   9.840 -1.1208  3.0174  0.7600
 9387SOL     OW39619   3.572   1.477   1.489  0.6727 -0.3689 -1.0894
 9387SOL    HW139620   3.665   1.473   1.466  0.6511 -2.2985 -0.9082
 9387SOL    HW239621   3.582   1.539   1.561 -1.7070  1.4103 -2.3314
 9388SOL     OW39622   0.612   1.755   3.759 -0.0599 -0.2443  0.3353
 9388SOL    HW139623   0.579   1.831   3.807  1.0996 -0.2393  1.1273
 9388SOL    HW239624   0.554   1.692   3.801 -1.2275 -0.8452 -2.1606
 9389SOL     OW39625   0.389   3.910   9.394  0.4550  0.3771  0.4395
 9389SOL    HW139626   0.361   3.954   9.474  1.8061 -1.6640  2.0242
 9389SOL    HW239627   0.468   3.872   9.432  0.2623  0.1855  0.6467
 9390SOL     OW39628   2.435   0.346   7.883 -0.6438 -0.1673 -0.4014
 9390SOL    HW139629   2.479   0.344   7.968 -2.8886 -0.3988  0.7534
 9390SOL    HW239630   2.423   0.441   7.870  0.1902  0.1019  0.7558
 9391SOL     OW39631   2.177   0.005   7.723 -0.1817 -0.2392  0.5039
 9391SOL    HW139632   2.093   0.038   7.755  0.7881  1.9094  0.8508
 9391SOL    HW239633   2.164   4.633   7.741  0.9341  0.0415  2.7159
 9392SOL     OW39634   3.397   1.689   6.738  0.2630  0.1414  0.1361
 9392SOL    HW139635   3.439   1.756   6.684  0.1423  0.6689  0.6923
 9392SOL    HW239636   3.366   1.732   6.818  0.4790 -0.3046  0.4654
 9393SOL     OW39637   2.304   3.957   1.114  0.1342 -0.7446 -0.2819
 9393SOL    HW139638   2.358   4.020   1.161  1.1285 -2.1279  0.4305
 9393SOL    HW239639   2.348   3.876   1.141  0.3078  0.1228  2.0068
 9394SOL     OW39640   1.923   0.788   3.971  0.2424  0.7183 -0.1329
 9394SOL    HW139641   1.883   0.847   4.035  0.4493  0.6745  0.0392
 9394SOL    HW239642   1.944   0.722   4.037 -1.0948  0.2047 -0.2251
 9395SOL     OW39643   2.082   0.464   6.741 -0.4875 -0.5106 -0.1762
 9395SOL    HW139644   2.066   0.482   6.834  1.3598 -1.2226  0.2820
 9395SOL    HW239645   2.021   0.390   6.740  0.4493 -1.2806 -1.3811
 9396SOL     OW39646   4.089   1.768  15.659  0.4823 -0.5212 -0.4472
 9396SOL    HW139647   4.178   1.798  15.638  1.3079 -0.5888  2.8428
 9396SOL    HW239648   4.041   1.824  15.598 -0.4339 -0.9394 -0.1086
 9397SOL     OW39649   1.649   1.807  13.954  0.1085  0.0223 -0.2167
 9397SOL    HW139650   1.617   1.862  14.026  0.8457 -0.7820  0.7136
 9397SOL    HW239651   1.585   1.737  13.948 -1.9845  1.9932 -1.1144
 9398SOL     OW39652   2.900   4.042  10.581 -0.4320 -0.4215 -1.1701
 9398SOL    HW139653   2.968   3.985  10.617  0.1485 -0.8236 -2.9147
 9398SOL    HW239654   2.953   4.103  10.528  1.1989  0.0210  0.9566
 9399SOL     OW39655   1.170   0.365   2.220 -0.1569 -0.4010 -0.0851
 9399SOL    HW139656   1.244   0.396   2.272 -0.2691  1.3105 -0.9572
 9399SOL    HW239657   1.108   0.366   2.292 -0.9235 -0.7125 -0.7443
 9400SOL     OW39658   3.396   3.438   6.088 -0.0751 -0.1547  0.0014
 9400SOL    HW139659   3.393   3.513   6.029 -0.8247 -0.1900 -0.0139
 9400SOL    HW239660   3.355   3.369   6.035  0.1827 -0.1883 -0.1557
 9401SOL     OW39661   4.184   1.418   3.587  0.1601  0.2781 -0.1775
 9401SOL    HW139662   4.122   1.373   3.530 -1.6799 -1.1643  2.9649
 9401SOL    HW239663   4.207   1.355   3.655 -1.5481  0.2314  0.3643
 9402SOL     OW39664   4.679   4.646   7.753 -0.8837 -0.6503 -0.5725
 9402SOL    HW139665   4.623   4.643   7.830  1.8028  2.2612  1.4504
 9402SOL    HW239666   0.040   4.687   7.777 -1.0728  0.2175 -1.4222
 9403SOL     OW39667   1.626   3.513   3.070 -0.4759  1.1067 -0.2288
 9403SOL    HW139668   1.638   3.427   3.030 -1.8037  0.1237  1.5316
 9403SOL    HW239669   1.624   3.566   2.990 -0.9002  1.9071  0.3186
 9404SOL     OW39670   2.233   0.529   2.280  0.2707 -1.0982 -0.0178
 9404SOL    HW139671   2.165   0.516   2.347 -0.9435  0.7800 -0.8586
 9404SOL    HW239672   2.206   0.465   2.215  0.5695 -0.5777 -0.6584
 9405SOL     OW39673   0.363   3.463   4.650 -0.2986  0.1855  0.2137
 9405SOL    HW139674   0.297   3.397   4.674  0.1232  0.2088  1.4533
 9405SOL    HW239675   0.440   3.416   4.619  0.2287  2.0463 -1.3062
 9406SOL     OW39676   0.219   3.144   5.350  0.3486 -0.1481 -0.4508
 9406SOL    HW139677   0.304   3.109   5.325  0.4281  0.1097 -0.5425
 9406SOL    HW239678   0.168   3.073   5.311 -1.2676  1.2870 -0.9262
 9407SOL     OW39679   4.576   0.683   3.663  0.0683 -0.2951 -0.3293
 9407SOL    HW139680   4.517   0.642   3.726  0.1549  0.1378  0.0394
 9407SOL    HW239681   4.612   0.747   3.725  0.6132 -0.8567 -0.0605
 9408SOL     OW39682   3.283   0.101   8.579 -0.3682  0.1127 -0.2098
 9408SOL    HW139683   3.309   0.141   8.662 -0.8076  0.5357 -0.2753
 9408SOL    HW239684   3.344   0.027   8.576  0.9215  1.1866 -0.8655
 9409SOL     OW39685   3.191   4.281  14.171  0.0217  0.1215 -0.0097
 9409SOL    HW139686   3.231   4.257  14.088 -0.3983  1.1993 -0.5156
 9409SOL    HW239687   3.226   4.209  14.225 -0.1207  1.1030  1.4010
 9410SOL     OW39688   2.991   2.327  10.547 -0.6060  0.0279  0.0401
 9410SOL    HW139689   3.026   2.240  10.530  1.8264  1.5030 -2.5183
 9410SOL    HW239690   2.903   2.311  10.512 -0.4555 -0.1599 -0.2522
 9411SOL     OW39691   1.570   3.503   4.065 -0.1216  0.1367  0.1819
 9411SOL    HW139692   1.553   3.409   4.055 -1.2762  0.4234 -0.6289
 9411SOL    HW239693   1.492   3.529   4.016  0.0507 -0.7619 -0.5745
 9412SOL     OW39694   1.742   3.459   4.356 -0.3041 -0.3601 -0.3587
 9412SOL    HW139695   1.758   3.379   4.305  2.1029 -0.4348  0.5396
 9412SOL    HW239696   1.759   3.530   4.293 -0.8377  0.7120  0.7171
 9413SOL     OW39697   3.721   3.020   1.204  0.6944 -0.2211 -0.1460
 9413SOL    HW139698   3.643   3.047   1.253  2.9819  2.9994  1.6761
 9413SOL    HW239699   3.705   2.927   1.185 -0.0160  0.4469 -2.7679
 9414SOL     OW39700   4.638   1.344   7.073 -0.2526  0.1215  0.2800
 9414SOL    HW139701   4.584   1.409   7.118 -0.6835 -0.7168  0.9645
 9414SOL    HW239702   4.697   1.398   7.021 -0.9256  0.5032 -0.0726
 9415SOL     OW39703   3.979   2.958   0.364  0.0931  0.3654  0.7772
 9415SOL    HW139704   4.073   2.955   0.380  0.1715  0.1751  0.2560
 9415SOL    HW239705   3.954   3.032   0.421 -1.1726  0.4822  0.0608
 9416SOL     OW39706   0.695   2.600  17.420 -0.5489  0.2670 -0.1369
 9416SOL    HW139707   0.628   2.608  17.487 -0.3227 -2.0583  0.3863
 9416SOL    HW239708   0.663   2.539  17.354 -2.0276  0.9062 -0.0124
 9417SOL     OW39709   1.648   1.255   0.805 -0.0785  0.2281  0.2915
 9417SOL    HW139710   1.589   1.276   0.734  0.4022  0.8403  0.0716
 9417SOL    HW239711   1.686   1.171   0.777 -1.4527  0.6672 -2.8273
 9418SOL     OW39712   0.422   1.710   8.898  0.0069  0.1260 -0.2267
 9418SOL    HW139713   0.409   1.638   8.960  1.8812  1.5616  1.8567
 9418SOL    HW239714   0.334   1.745   8.891  0.4639  1.0888 -1.2024
 9419SOL     OW39715   0.581   1.560   9.207 -0.4709  0.4125 -0.3552
 9419SOL    HW139716   0.527   1.513   9.144 -2.7883  0.6185  1.4626
 9419SOL    HW239717   0.541   1.647   9.214  0.7648  0.8267  1.4837
 9420SOL     OW39718   3.495   2.071   9.813  0.0111 -0.0722 -0.4068
 9420SOL    HW139719   3.544   2.121   9.748  0.4839 -2.7185 -2.0856
 9420SOL    HW239720   3.500   1.984   9.775 -0.7485  0.5367 -1.9058
 9421SOL     OW39721   0.733   2.395   4.864 -0.1632  0.1941  0.1743
 9421SOL    HW139722   0.750   2.489   4.874 -3.2058  0.7166  0.5717
 9421SOL    HW239723   0.696   2.366   4.947 -0.9391 -1.3904 -0.7217
 9422SOL     OW39724   4.103   2.002  11.312 -0.7157  0.3546 -0.1772
 9422SOL    HW139725   4.053   1.938  11.362 -2.3458  1.9548  0.2569
 9422SOL    HW239726   4.043   2.077  11.311 -0.8466  0.2909  2.2478
 9423SOL     OW39727   2.304   0.019   1.835  0.2856 -0.1555 -0.2205
 9423SOL    HW139728   2.318   4.677   1.764  0.8243 -0.9603  0.6036
 9423SOL    HW239729   2.344   0.097   1.796 -2.2068  2.5869  2.7453
 9424SOL     OW39730   1.163   2.680  11.670  0.2887  0.5542  0.0836
 9424SOL    HW139731   1.103   2.607  11.683 -1.4285  2.0323  0.5159
 9424SOL    HW239732   1.165   2.672  11.575  2.8295  0.7087  0.1394
 9425SOL     OW39733   1.456   2.844  12.780 -0.7130  0.1087 -0.1611
 9425SOL    HW139734   1.385   2.908  12.779 -0.1669  0.7432  1.8307
 9425SOL    HW239735   1.528   2.902  12.753 -0.7062 -0.2416 -0.8896
 9426SOL     OW39736   3.268   2.379   5.245 -0.0383  0.1383 -0.2812
 9426SOL    HW139737   3.292   2.446   5.181 -0.2534  1.0897  0.6352
 9426SOL    HW239738   3.178   2.366   5.216 -0.7557 -0.2569  2.1322
 9427SOL     OW39739   0.158   0.381   4.867 -0.1532 -0.2329  0.2928
 9427SOL    HW139740   0.183   0.288   4.871 -2.7338 -0.9798 -1.0905
 9427SOL    HW239741   0.144   0.406   4.959 -0.2761 -0.7592  0.4172
 9428SOL     OW39742   2.448   2.964   5.564 -0.0850  0.5810 -0.3194
 9428SOL    HW139743   2.448   2.934   5.654 -0.1416  2.0026  0.1518
 9428SOL    HW239744   2.538   2.996   5.556  1.3341 -2.9959  1.4514
 9429SOL     OW39745   3.223   0.236  17.268 -0.1240 -0.0181 -0.6197
 9429SOL    HW139746   3.209   0.178  17.193 -0.5874 -1.8655  0.8825
 9429SOL    HW239747   3.137   0.254  17.305  0.4027 -1.5072  1.3085
 9430SOL     OW39748   0.863   3.089   8.667  0.0182  0.7017 -0.2237
 9430SOL    HW139749   0.856   3.145   8.744  1.9587 -0.3802  0.7326
 9430SOL    HW239750   0.795   3.132   8.615  0.1254  2.7025  1.3251
 9431SOL     OW39751   0.617   4.617   3.766  0.1645  0.0684 -0.1202
 9431SOL    HW139752   0.676   4.603   3.840  0.1733 -1.8468 -0.4859
 9431SOL    HW239753   0.665   4.690   3.727 -0.4188  0.8951  0.6851
 9432SOL     OW39754   0.911   3.092   0.988 -0.5011 -0.2185 -0.3865
 9432SOL    HW139755   0.820   3.121   0.992 -0.6476 -0.7665  0.2995
 9432SOL    HW239756   0.954   3.174   0.964 -1.2277  0.5188  0.8702
 9433SOL     OW39757   4.150   2.429  17.363 -0.2802  0.0750  0.0114
 9433SOL    HW139758   4.232   2.382  17.345  0.1459  0.3764  1.1277
 9433SOL    HW239759   4.156   2.501  17.300 -0.2461 -0.4157 -0.5472
 9434SOL     OW39760   2.714   3.868   3.853  0.3825 -0.1158 -0.6435
 9434SOL    HW139761   2.651   3.864   3.925  1.0504  0.7307 -0.0165
 9434SOL    HW239762   2.769   3.934   3.894 -0.3411  0.2767 -0.2985
 9435SOL     OW39763   1.981   1.209  10.939 -0.5648 -0.0285  0.1954
 9435SOL    HW139764   2.072   1.184  10.929 -0.9031 -1.4031  0.5257
 9435SOL    HW239765   1.980   1.241  10.849  0.5240  1.1145  0.5945
 9436SOL     OW39766   1.146   0.480   8.639  0.7037 -0.0597  0.1269
 9436SOL    HW139767   1.074   0.510   8.583 -1.3457  0.3123  2.9620
 9436SOL    HW239768   1.096   0.480   8.720 -0.9971 -0.3360 -0.9196
 9437SOL     OW39769   2.466   3.032   6.713  0.4040  0.0376 -0.3251
 9437SOL    HW139770   2.372   3.046   6.709  0.4190 -0.1940 -1.5219
 9437SOL    HW239771   2.488   3.125   6.724  0.5183 -0.1956  1.4606
 9438SOL     OW39772   4.278   0.018   4.411  0.1947  0.1081 -0.4609
 9438SOL    HW139773   4.195   4.701   4.385 -0.2566 -0.0629  1.2126
 9438SOL    HW239774   4.339   4.672   4.380 -2.7064 -1.6723 -2.2832
 9439SOL     OW39775   2.627   1.448  15.670  0.2079  0.1312  0.1399
 9439SOL    HW139776   2.693   1.452  15.740  0.1456  0.6611  0.1717
 9439SOL    HW239777   2.620   1.353  15.667 -1.4393  0.2856 -0.3364
 9440SOL     OW39778   2.483   3.610   7.101 -0.4490  0.4516  0.1370
 9440SOL    HW139779   2.452   3.524   7.073  0.5244 -0.0594  0.6648
 9440SOL    HW239780   2.576   3.604   7.080 -0.9691 -2.2692 -1.3812
 9441SOL     OW39781   3.944   2.779   4.402  0.4167 -0.4709 -0.3686
 9441SOL    HW139782   3.991   2.858   4.374 -3.5747  1.9893 -0.0793
 9441SOL    HW239783   3.895   2.821   4.472  1.2104 -2.8416  1.5958
 9442SOL     OW39784   4.527   2.290   2.328 -0.2378 -0.7913 -0.8400
 9442SOL    HW139785   4.601   2.340   2.295 -0.8863  0.4496 -0.3878
 9442SOL    HW239786   4.447   2.336   2.302 -0.9516 -2.2111 -1.1629
 9443SOL     OW39787   3.913   0.404   6.706 -0.0033  0.2912 -0.0363
 9443SOL    HW139788   3.960   0.480   6.740 -2.0390  0.5305  2.1842
 9443SOL    HW239789   3.939   0.335   6.767  0.3973  1.6117  1.2873
 9444SOL     OW39790   4.481   2.107   2.562 -0.1163  0.1116  1.2020
 9444SOL    HW139791   4.483   2.177   2.497  2.4814 -2.3901 -1.4034
 9444SOL    HW239792   4.444   2.152   2.639  0.3130  0.8742  0.9696
 9445SOL     OW39793   2.289   1.525  14.898 -0.6219  0.1508  0.2092
 9445SOL    HW139794   2.242   1.480  14.968  0.9601 -0.8373  0.6424
 9445SOL    HW239795   2.216   1.550  14.842 -0.2132 -1.0066 -0.8227
 9446SOL     OW39796   1.784   1.423   3.520 -0.5355 -0.6680  0.6040
 9446SOL    HW139797   1.723   1.496   3.528 -0.2779 -0.1227 -2.1207
 9446SOL    HW239798   1.779   1.430   3.424 -2.0045  1.0114  0.8050
 9447SOL     OW39799   4.282   0.161   5.052  0.5783  0.3289  0.0678
 9447SOL    HW139800   4.316   0.225   5.115 -2.4268  3.3594 -1.3935
 9447SOL    HW239801   4.193   0.194   5.039  0.5227  0.2035  0.1293
 9448SOL     OW39802   0.699   0.719   4.846  0.3001 -0.0193 -0.0229
 9448SOL    HW139803   0.628   0.655   4.856  0.3854  0.2977  2.5152
 9448SOL    HW239804   0.774   0.681   4.891 -1.4477 -1.5423  1.6048
 9449SOL     OW39805   1.943   4.009   2.095 -0.2530 -0.4446  0.3293
 9449SOL    HW139806   1.968   3.948   2.165  0.7628 -0.5140 -0.0933
 9449SOL    HW239807   1.969   4.089   2.142 -0.5418  0.1975 -0.5996
 9450SOL     OW39808   2.497   1.425  15.147 -0.8214  0.9973  0.0803
 9450SOL    HW139809   2.416   1.401  15.193  0.9032 -0.9261  2.1018
 9450SOL    HW239810   2.560   1.385  15.207 -2.8151 -1.6631  0.4050
 9451SOL     OW39811   3.629   3.729   6.953  0.3107 -0.3305  0.6213
 9451SOL    HW139812   3.590   3.684   7.028  1.9771 -0.6858  1.2701
 9451SOL    HW239813   3.691   3.795   6.985  1.5464 -1.2334  0.1080
 9452SOL     OW39814   0.386   0.235   4.671  0.0993  0.5653  0.3488
 9452SOL    HW139815   0.435   0.251   4.752 -0.5555  0.9112  0.6728
 9452SOL    HW239816   0.405   0.320   4.632 -0.1618  0.1709 -0.6254
 9453SOL     OW39817   4.351   2.761   3.171 -0.1808 -0.3515 -0.3448
 9453SOL    HW139818   4.436   2.772   3.214  0.1045 -0.3941 -0.8907
 9453SOL    HW239819   4.355   2.833   3.109 -1.4600  2.6338  3.0983
 9454SOL     OW39820   4.510   2.541  14.967  0.1916  0.2544 -0.2560
 9454SOL    HW139821   4.567   2.493  15.026 -1.1413 -2.0549 -0.8621
 9454SOL    HW239822   4.561   2.527  14.887 -0.1600  2.2613 -0.8387
 9455SOL     OW39823   2.853   3.802   7.880  0.2522 -0.0389  0.5212
 9455SOL    HW139824   2.843   3.707   7.889  0.1207  0.0009  0.7992
 9455SOL    HW239825   2.777   3.821   7.826 -0.5195 -2.8480  0.6313
 9456SOL     OW39826   3.606   2.942   6.334  0.0761 -0.0041  0.5029
 9456SOL    HW139827   3.683   2.992   6.362  1.3979 -1.4056 -0.7194
 9456SOL    HW239828   3.561   2.943   6.419 -1.6573  0.7958 -0.4107
 9457SOL     OW39829   0.620   0.033  11.638 -0.1874  0.3729 -0.4641
 9457SOL    HW139830   0.619   0.121  11.675  0.4750  0.7948 -1.4525
 9457SOL    HW239831   0.715   0.032  11.626 -0.3424 -0.3447 -1.6369
 9458SOL     OW39832   4.142   2.501   0.783 -0.2904  0.2370  0.0688
 9458SOL    HW139833   4.220   2.482   0.835 -0.3063 -1.5456 -0.5821
 9458SOL    HW239834   4.160   2.595   0.772  1.7753 -0.1384  0.2736
 9459SOL     OW39835   2.673   3.448   4.803  0.5006  0.0487 -0.8556
 9459SOL    HW139836   2.611   3.489   4.742 -0.5470  1.9602  1.4863
 9459SOL    HW239837   2.674   3.354   4.788  0.6042  0.1913 -1.7439
 9460SOL     OW39838   2.503   2.100  17.314 -0.2666  0.6463 -0.0312
 9460SOL    HW139839   2.500   2.026  17.254  3.6850 -0.5346  1.2103
 9460SOL    HW239840   2.508   2.060  17.401 -0.3788 -0.1082 -0.3753
 9461SOL     OW39841   2.268   2.714   7.701  0.3715 -0.7486  0.0488
 9461SOL    HW139842   2.270   2.756   7.787  1.4489 -0.0572 -0.3113
 9461SOL    HW239843   2.193   2.749   7.653  0.8722  0.8741  0.4334
 9462SOL     OW39844   1.395   1.670   6.668  0.2347 -0.3734 -0.0715
 9462SOL    HW139845   1.306   1.703   6.661  0.5940  0.2706 -1.4040
 9462SOL    HW239846   1.401   1.594   6.610 -2.1435 -0.1295 -0.5992
 9463SOL     OW39847   0.833   2.681   4.328 -0.3084  0.8881 -0.1772
 9463SOL    HW139848   0.775   2.753   4.303 -1.4717 -1.0421 -3.0459
 9463SOL    HW239849   0.793   2.643   4.406  0.2962 -0.1434 -0.3720
 9464SOL     OW39850   3.020   2.588   2.008  0.6983 -0.4029  0.1741
 9464SOL    HW139851   3.076   2.666   2.001  0.9769 -0.6721 -0.6273
 9464SOL    HW239852   3.014   2.587   2.103 -0.2372 -1.5894  0.0988
 9465SOL     OW39853   1.565   2.219  12.602 -0.7937 -0.5287  0.2356
 9465SOL    HW139854   1.539   2.153  12.538 -0.1124 -1.8176  1.2837
 9465SOL    HW239855   1.638   2.178  12.650  0.1631  0.9962  0.1073
 9466SOL     OW39856   3.574   3.616   3.419 -0.0137  0.1628  0.5189
 9466SOL    HW139857   3.556   3.596   3.327  1.8718  2.9905 -0.4659
 9466SOL    HW239858   3.627   3.696   3.424 -0.7772  0.6563  0.6773
 9467SOL     OW39859   0.852   1.562   6.448 -0.4174  0.1094  0.0938
 9467SOL    HW139860   0.801   1.539   6.525 -0.5369  0.8095  0.2243
 9467SOL    HW239861   0.855   1.657   6.458 -1.5672  0.0079  1.2643
 9468SOL     OW39862   1.232   2.102  10.150 -0.5321 -0.0086  0.4771
 9468SOL    HW139863   1.194   2.027  10.104 -0.0040 -0.3912  0.6620
 9468SOL    HW239864   1.310   2.056  10.181 -0.0994  1.2855  1.3074
 9469SOL     OW39865   2.773   1.765   7.158  0.2084  0.2979  0.1122
 9469SOL    HW139866   2.816   1.682   7.181 -1.0136 -0.1903  0.6211
 9469SOL    HW239867   2.841   1.812   7.109 -0.1009  1.5593  0.8940
 9470SOL     OW39868   3.882   4.407   3.949 -0.1099 -0.2971 -0.0308
 9470SOL    HW139869   3.972   4.439   3.951 -0.2770  0.1243  1.0221
 9470SOL    HW239870   3.873   4.408   3.853  0.1234 -1.7104 -0.0584
 9471SOL     OW39871   0.835   4.214  11.832  0.4391  0.7182 -0.2017
 9471SOL    HW139872   0.816   4.203  11.739  3.2684  0.7509 -0.7946
 9471SOL    HW239873   0.878   4.299  11.824 -0.1203  0.7211 -3.2106
 9472SOL     OW39874   3.949   0.421   2.687 -0.4976 -0.3117  0.6265
 9472SOL    HW139875   4.014   0.381   2.744  0.0616  0.4357  0.5222
 9472SOL    HW239876   3.981   0.386   2.603  0.0037  0.7756  0.3497
 9473SOL     OW39877   0.571   0.653   5.888  0.2721  0.2001 -0.3637
 9473SOL    HW139878   0.556   0.586   5.955  3.2564 -1.4513 -1.3561
 9473SOL    HW239879   0.614   0.718   5.943  2.8876 -1.1529 -0.8270
 9474SOL     OW39880   4.548   0.927   8.516  0.6043  0.7330  0.1202
 9474SOL    HW139881   4.567   0.853   8.458 -1.6657  0.1959  0.0788
 9474SOL    HW239882   4.453   0.921   8.525  0.4529  0.5833 -1.6110
 9475SOL     OW39883   0.518   2.745   3.469 -0.0469  0.4537 -0.0943
 9475SOL    HW139884   0.432   2.718   3.500  0.4761 -2.3858 -1.1147
 9475SOL    HW239885   0.497   2.801   3.394 -1.6547  0.8988  0.6963
 9476SOL     OW39886   2.396   1.700   0.249 -0.1880 -0.0752 -0.3918
 9476SOL    HW139887   2.458   1.628   0.261 -1.8692 -1.5055 -0.4233
 9476SOL    HW239888   2.335   1.666   0.184  1.4885 -0.0992 -1.9973
 9477SOL     OW39889   2.221   4.171   9.182  0.0528  0.3353  0.3469
 9477SOL    HW139890   2.196   4.263   9.190  3.2290  1.1411  1.0194
 9477SOL    HW239891   2.244   4.157   9.274  0.5559 -0.5329  0.0924
 9478SOL     OW39892   2.255   1.481  16.670 -0.3148 -0.1486  0.0795
 9478SOL    HW139893   2.218   1.515  16.589  0.1354 -0.4028 -0.2304
 9478SOL    HW239894   2.172   1.472  16.717 -0.8175 -1.1105 -0.9868
 9479SOL     OW39895   2.219   3.152  13.350 -0.0793 -0.8410 -0.2063
 9479SOL    HW139896   2.242   3.158  13.443 -0.4287 -0.6501 -0.1315
 9479SOL    HW239897   2.145   3.214  13.350  0.8100  0.2307 -0.9261
 9480SOL     OW39898   0.352   2.144  11.897  0.1504 -0.6440  0.4003
 9480SOL    HW139899   0.344   2.050  11.883  0.2060 -0.2101 -2.7129
 9480SOL    HW239900   0.389   2.137  11.985 -2.1345 -2.1590  1.2471
 9481SOL     OW39901   3.514   1.001   6.241  0.1440  0.6479 -0.4946
 9481SOL    HW139902   3.564   1.059   6.299 -1.1384  0.4403  0.8024
 9481SOL    HW239903   3.581   0.934   6.228 -0.8901 -0.4108 -0.2579
 9482SOL     OW39904   1.060   2.859  17.037 -0.6063 -0.5553 -0.0124
 9482SOL    HW139905   1.009   2.841  17.116 -1.0218 -2.2189 -0.6652
 9482SOL    HW239906   1.107   2.776  17.029  0.4921  0.2354 -1.7350
 9483SOL     OW39907   0.952   3.272  11.315  0.4470 -0.0418 -0.3503
 9483SOL    HW139908   0.908   3.199  11.358  0.6609 -1.6673 -2.8839
 9483SOL    HW239909   0.959   3.337  11.385  0.0192  0.5242 -0.8295
 9484SOL     OW39910   3.652   2.792   7.403  0.2002 -0.2372 -0.0440
 9484SOL    HW139911   3.662   2.786   7.308  0.4108  0.6712 -0.0731
 9484SOL    HW239912   3.603   2.712   7.425 -0.9074  0.1772 -1.0319
 9485SOL     OW39913   3.332   2.728   2.688  0.3069  0.8040 -0.5489
 9485SOL    HW139914   3.422   2.699   2.704  0.5035  1.1115 -1.0721
 9485SOL    HW239915   3.322   2.796   2.755 -0.3905  0.2498 -0.0952
 9486SOL     OW39916   0.745   0.087  16.300 -0.5002  0.2882  0.0109
 9486SOL    HW139917   0.827   0.038  16.299 -0.7179 -0.1096  0.9456
 9486SOL    HW239918   0.750   0.136  16.218  0.0548  0.0903 -0.0716
 9487SOL     OW39919   0.040   4.062   4.384  0.0331  0.1787 -0.1278
 9487SOL    HW139920   0.077   3.984   4.426 -0.2481  0.6946  1.0932
 9487SOL    HW239921   0.061   4.029   4.297 -0.8121  0.3704 -0.3954
 9488SOL     OW39922   2.144   3.161   3.532 -0.3141 -0.1303 -0.2567
 9488SOL    HW139923   2.158   3.127   3.621  0.1493  1.2051  0.1800
 9488SOL    HW239924   2.052   3.188   3.532 -0.2835 -0.0268  0.8161
 9489SOL     OW39925   3.160   3.930  11.270  0.5147  0.2761 -0.6869
 9489SOL    HW139926   3.066   3.920  11.256  0.9851 -1.3199 -2.6847
 9489SOL    HW239927   3.186   3.880  11.192  2.0396 -1.0861  0.7108
 9490SOL     OW39928   3.076   4.347   9.172 -0.6663  0.0518  0.3657
 9490SOL    HW139929   3.106   4.434   9.197  0.4057 -0.4141  0.7159
 9490SOL    HW239930   3.003   4.368   9.114  0.1351  2.8381  0.3791
 9491SOL     OW39931   1.063   1.334   8.611 -0.1689  0.0905 -0.2556
 9491SOL    HW139932   1.049   1.389   8.688  0.6508  0.4950 -0.4051
 9491SOL    HW239933   1.152   1.303   8.624 -0.0727 -0.7652 -3.0175
 9492SOL     OW39934   1.584   1.938  10.687 -0.1699 -0.1003  0.2404
 9492SOL    HW139935   1.511   1.899  10.734 -1.1180  0.7550 -0.5177
 9492SOL    HW239936   1.600   2.008  10.751 -2.7682  2.4512 -1.8878
 9493SOL     OW39937   1.340   3.598   7.598  0.2585  0.1214  0.0329
 9493SOL    HW139938   1.395   3.583   7.675 -1.3975 -0.2879  1.1526
 9493SOL    HW239939   1.272   3.531   7.609  1.7085 -1.7369 -2.4655
 9494SOL     OW39940   4.406   2.988   2.714  0.1994  0.9380 -0.0862
 9494SOL    HW139941   4.362   3.073   2.703 -1.0801  0.2383 -0.4365
 9494SOL    HW239942   4.489   3.004   2.670  0.3724  0.2909  0.0111
 9495SOL     OW39943   4.646   4.128   3.771  0.1142  0.7627 -0.1489
 9495SOL    HW139944   4.683   4.130   3.859 -0.7890  0.9118  0.2214
 9495SOL    HW239945   0.000   4.119   3.712  0.6525 -1.3765  0.8667
 9496SOL     OW39946   1.545   1.815   4.054  0.4315  0.3702 -0.6037
 9496SOL    HW139947   1.464   1.764   4.054  0.6010  0.1036 -0.9589
 9496SOL    HW239948   1.604   1.750   4.092  0.9134  1.3076  0.2324
 9497SOL     OW39949   2.900   0.695   5.962 -0.5029 -0.0093  0.0095
 9497SOL    HW139950   2.964   0.736   5.903 -0.2209 -1.1945 -0.5077
 9497SOL    HW239951   2.816   0.710   5.919 -0.0266 -1.9129 -1.5808
 9498SOL     OW39952   0.294   3.045   7.741 -0.0302  0.0902 -0.4222
 9498SOL    HW139953   0.295   3.039   7.645 -1.8589 -1.3131 -0.3767
 9498SOL    HW239954   0.292   2.952   7.765 -0.9908 -0.6921 -3.5020
 9499SOL     OW39955   4.410   0.011   6.642  0.9554  0.1175  0.0165
 9499SOL    HW139956   4.403   4.700   6.731 -2.5495  0.9296  0.0199
 9499SOL    HW239957   4.444   4.656   6.594 -0.2832 -2.4285  3.2055
 9500SOL     OW39958   3.601   0.639   0.007 -0.1835 -0.0711  0.0828
 9500SOL    HW139959   3.526   0.597   0.049 -0.8174  2.5387  1.6122
 9500SOL    HW239960   3.643   0.574  17.638 -0.2002  0.8078 -0.9593
 9501SOL     OW39961   0.328   3.485   8.588 -0.8992  0.0370 -0.2304
 9501SOL    HW139962   0.347   3.527   8.504  1.5202  1.4704  1.0167
 9501SOL    HW239963   0.322   3.561   8.645  0.7748  1.0072 -1.3174
 9502SOL     OW39964   0.206   0.738   2.833 -0.3653 -0.1004 -0.7974
 9502SOL    HW139965   0.284   0.788   2.808  1.0921 -1.2375  1.5256
 9502SOL    HW239966   0.228   0.717   2.923 -1.9833 -0.0679 -0.4014
 9503SOL     OW39967   3.641   0.118   6.319 -0.4568 -0.2144 -0.1464
 9503SOL    HW139968   3.570   0.059   6.294  0.0063 -0.8136 -0.0691
 9503SOL    HW239969   3.669   0.080   6.403  0.3778 -2.6078 -1.4954
 9504SOL     OW39970   2.184   4.090   4.118  0.5920 -0.2209  0.1186
 9504SOL    HW139971   2.236   4.016   4.087  0.8014 -0.0248 -0.0016
 9504SOL    HW239972   2.253   4.154   4.134  0.6206  0.5166 -2.9941
 9505SOL     OW39973   3.202   0.327   2.877  0.2405 -0.1772  0.0070
 9505SOL    HW139974   3.278   0.306   2.931 -1.0802 -0.4964  1.7443
 9505SOL    HW239975   3.234   0.352   2.790 -1.0984  0.4701 -0.3112
 9506SOL     OW39976   4.709   4.528   1.305 -0.1887 -0.3115  0.1876
 9506SOL    HW139977   0.069   4.509   1.258  0.8412  0.7588  1.4955
 9506SOL    HW239978   0.023   4.504   1.391 -1.2886 -1.2634  0.3603
 9507SOL     OW39979   1.077   2.997   2.501 -0.1920  0.2607  0.4148
 9507SOL    HW139980   1.006   2.944   2.538  0.9943 -0.6370  1.4295
 9507SOL    HW239981   1.109   2.947   2.427 -2.1366 -0.5164  0.0910
 9508SOL     OW39982   0.793   2.304   8.656  0.5364 -0.4668 -0.2703
 9508SOL    HW139983   0.734   2.250   8.708  0.8038  0.2381  0.7698
 9508SOL    HW239984   0.877   2.265   8.679  0.5533  0.2299  0.8463
 9509SOL     OW39985   0.943   2.658   2.370  0.0473 -0.1727  0.1308
 9509SOL    HW139986   1.031   2.665   2.334 -0.0289  0.3285  0.0424
 9509SOL    HW239987   0.888   2.705   2.307 -1.0966  1.7351  2.5324
 9510SOL     OW39988   3.551   3.277   2.746  0.5677 -0.1292  0.0933
 9510SOL    HW139989   3.647   3.268   2.750  0.7407  1.4097 -0.6748
 9510SOL    HW239990   3.530   3.256   2.837  2.3918 -0.0530  0.5384
 9511SOL     OW39991   0.628   0.269  13.353 -0.0306  0.1780  0.0292
 9511SOL    HW139992   0.630   0.333  13.282 -3.5292 -0.9361 -1.0685
 9511SOL    HW239993   0.658   0.186  13.316  1.1999 -1.0442  3.7315
 9512SOL     OW39994   2.671   2.616   6.152 -0.1992  0.0046 -0.9279
 9512SOL    HW139995   2.606   2.570   6.205  0.3629 -0.5045 -0.6766
 9512SOL    HW239996   2.640   2.705   6.168  0.6688 -0.0025  0.7358
 9513SOL     OW39997   0.606   0.401  14.509 -0.4136 -0.1030  0.0353
 9513SOL    HW139998   0.523   0.413  14.463 -0.0755  1.0011 -0.2922
 9513SOL    HW239999   0.629   0.309  14.496  0.1507  0.1736 -0.9353
 9514SOL     OW40000   1.643   3.930   8.082 -0.1215 -0.3094  0.1138
 9514SOL    HW140001   1.598   3.977   8.012 -0.4249 -1.0932 -0.2147
 9514SOL    HW240002   1.606   3.954   8.167  1.0391 -0.8512  0.7731
 9515SOL     OW40003   1.462   2.858   2.403 -0.5407  0.7095  0.7955
 9515SOL    HW140004   1.451   2.776   2.451  0.5486  0.4750  0.6547
 9515SOL    HW240005   1.557   2.864   2.394 -0.6586 -1.5653 -1.9491
 9516SOL     OW40006   1.666   1.118  10.337 -0.0662  0.1361 -0.0595
 9516SOL    HW140007   1.633   1.029  10.329 -0.9026  0.3437  1.1009
 9516SOL    HW240008   1.583   1.165  10.343  0.7025  1.5732 -0.3830
 9517SOL     OW40009   3.746   3.775   6.306  0.0836  0.1291 -1.1185
 9517SOL    HW140010   3.693   3.700   6.280  2.2148 -1.6154 -0.4180
 9517SOL    HW240011   3.832   3.734   6.310 -0.3234 -0.8088 -1.9068
 9518SOL     OW40012   1.676   4.535   6.215  0.2929 -0.2042  0.3236
 9518SOL    HW140013   1.763   4.562   6.244 -0.2012  1.7512 -0.0143
 9518SOL    HW240014   1.697   4.518   6.124 -3.9269  2.5667 -1.1826
 9519SOL     OW40015   0.360   1.701   8.606  0.2581  0.2123  0.0213
 9519SOL    HW140016   0.408   1.730   8.683 -1.1809  0.5615  0.7891
 9519SOL    HW240017   0.403   1.618   8.587 -2.5417 -0.8407 -1.7334
 9520SOL     OW40018   1.895   2.065  12.928  0.3346 -0.1492  0.4009
 9520SOL    HW140019   1.851   2.027  12.851  0.0581 -0.4124  0.6898
 9520SOL    HW240020   1.848   2.148  12.933  0.1023 -0.3690  1.7339
 9521SOL     OW40021   4.063   3.665   8.890 -0.3579  0.2311  0.1682
 9521SOL    HW140022   3.971   3.666   8.918  0.2537 -2.3021  2.2364
 9521SOL    HW240023   4.101   3.738   8.938 -0.9939  0.3057  0.5598
 9522SOL     OW40024   3.132   3.315   3.393  0.3760 -0.0176 -0.0451
 9522SOL    HW140025   3.086   3.351   3.317  0.1218 -0.9720 -0.3507
 9522SOL    HW240026   3.089   3.343   3.473 -1.6659  1.9163 -1.8240
 9523SOL     OW40027   0.776   0.943   8.902 -0.2457 -0.3269  0.2889
 9523SOL    HW140028   0.847   0.923   8.963  0.2797  2.7715  0.7044
 9523SOL    HW240029   0.829   0.992   8.840  1.1083 -0.0744  1.6426
 9524SOL     OW40030   2.036   0.378   2.815 -0.4612 -0.6047 -0.1031
 9524SOL    HW140031   2.068   0.291   2.840  1.5076  0.4215  0.9361
 9524SOL    HW240032   1.982   0.404   2.890 -0.1504  0.6400 -0.3260
 9525SOL     OW40033   4.223   0.155  16.290  0.3302  0.7189  0.1579
 9525SOL    HW140034   4.215   0.076  16.237 -0.0712  1.6337 -1.1400
 9525SOL    HW240035   4.273   0.121  16.364  1.1737  1.8712  0.1201
 9526SOL     OW40036   2.356   3.601   9.192 -0.0379 -0.0627 -0.1491
 9526SOL    HW140037   2.309   3.561   9.119 -0.9971 -1.0814  1.0315
 9526SOL    HW240038   2.280   3.623   9.245  0.1090 -1.0488  0.4659
 9527SOL     OW40039   1.171   1.123   7.291 -0.4589 -0.2738  0.3224
 9527SOL    HW140040   1.111   1.111   7.365 -0.4479 -1.5174  0.1321
 9527SOL    HW240041   1.165   1.041   7.242 -0.4357  0.4766 -0.9300
 9528SOL     OW40042   3.693   1.375   9.022  0.1838 -0.0890  0.0283
 9528SOL    HW140043   3.778   1.399   8.984  1.2711 -0.9949  1.8967
 9528SOL    HW240044   3.643   1.453   8.996 -1.0523 -0.1914  2.0828
 9529SOL     OW40045   0.575   4.599   2.265 -0.3255  0.2224 -0.1173
 9529SOL    HW140046   0.503   4.656   2.292  0.4627  1.1972 -0.0646
 9529SOL    HW240047   0.600   4.567   2.351 -1.9375 -0.9596 -0.0886
 9530SOL     OW40048   4.079   1.201   2.640 -0.2955  0.3735 -0.0482
 9530SOL    HW140049   4.090   1.106   2.649  0.1738  0.5667  1.4290
 9530SOL    HW240050   4.034   1.197   2.556 -1.0830  0.1423  0.3791
 9531SOL     OW40051   2.461   3.180   8.919 -0.0023 -0.2294  0.0502
 9531SOL    HW140052   2.376   3.183   8.874  0.3092  0.6289 -0.4619
 9531SOL    HW240053   2.440   3.202   9.010 -0.0112  0.7760 -0.1928
 9532SOL     OW40054   0.956   1.095  12.309 -0.3197 -0.3952  0.0736
 9532SOL    HW140055   0.878   1.125  12.262 -0.4492  0.0066  0.5478
 9532SOL    HW240056   0.988   1.178  12.344  1.5709 -1.5945  1.1426
 9533SOL     OW40057   1.754   0.120  15.857 -1.1028  0.2282 -0.3359
 9533SOL    HW140058   1.795   0.034  15.869  0.0135  0.8610  0.4824
 9533SOL    HW240059   1.810   0.165  15.921  0.5864  0.5067 -2.0050
 9534SOL     OW40060   1.196   3.971   5.298 -0.1792  0.0320 -0.0094
 9534SOL    HW140061   1.120   3.980   5.240  0.4363  0.7776 -0.6942
 9534SOL    HW240062   1.268   3.987   5.238 -0.9101 -3.7411 -1.9209
 9535SOL     OW40063   0.395   1.514   6.233 -0.4811 -0.4505  0.2217
 9535SOL    HW140064   0.471   1.504   6.174  0.3217  1.5145  0.9316
 9535SOL    HW240065   0.427   1.467   6.310 -0.6031 -0.2030  0.4200
 9536SOL     OW40066   2.990   3.491   8.200 -0.7420  0.5198 -0.0765
 9536SOL    HW140067   2.997   3.400   8.228  0.8523  0.4910 -0.5642
 9536SOL    HW240068   2.921   3.481   8.134  0.1065 -0.6893 -0.7789
 9537SOL     OW40069   4.241   4.625   5.108  0.3955 -0.0747  0.2127
 9537SOL    HW140070   4.235   4.588   5.020  3.7819 -3.6124  1.4682
 9537SOL    HW240071   4.235   4.718   5.088  0.6975 -0.2959 -0.8877
 9538SOL     OW40072   2.165   1.293   5.632 -0.0112  0.8174  0.1492
 9538SOL    HW140073   2.213   1.328   5.707 -0.1190  0.1638  0.5239
 9538SOL    HW240074   2.096   1.249   5.681  0.0087  1.8361  1.0970
 9539SOL     OW40075   4.611   1.632   2.574  0.4265  0.1867 -0.2523
 9539SOL    HW140076   4.702   1.610   2.557  0.0648 -0.6298 -1.1660
 9539SOL    HW240077   4.616   1.646   2.669 -0.3513  0.3155 -0.2300
 9540SOL     OW40078   0.419   2.635   0.174 -0.4347  0.4427 -0.3664
 9540SOL    HW140079   0.332   2.595   0.173  0.2887 -1.1249 -0.4465
 9540SOL    HW240080   0.454   2.594   0.253 -0.5911  1.8395  0.4247
 9541SOL     OW40081   3.372   1.396   7.989 -0.3696 -0.3761 -0.2946
 9541SOL    HW140082   3.397   1.356   8.073  0.8174  2.4373  0.6870
 9541SOL    HW240083   3.401   1.332   7.925  1.8803 -1.3574  1.7109
 9542SOL     OW40084   4.110   3.562   3.010 -0.2895  0.1062  0.3890
 9542SOL    HW140085   4.174   3.632   3.017 -2.2245  1.8251  0.8589
 9542SOL    HW240086   4.123   3.534   2.919 -0.7247 -0.1300  0.3954
 9543SOL     OW40087   2.740   0.671   8.037  0.3546  0.0228 -0.4934
 9543SOL    HW140088   2.715   0.659   8.128 -0.0198 -0.9428 -0.7212
 9543SOL    HW240089   2.826   0.628   8.033 -0.4268 -1.5490 -0.6379
 9544SOL     OW40090   1.658   3.584   8.870 -0.4754  0.3739  0.2364
 9544SOL    HW140091   1.681   3.677   8.857  1.6829 -0.2687 -0.6088
 9544SOL    HW240092   1.595   3.580   8.941  0.6121  3.3372  1.3799
 9545SOL     OW40093   3.456   3.501   0.806  0.1911  0.2757 -0.4276
 9545SOL    HW140094   3.401   3.569   0.767 -1.0979 -1.6799 -1.9704
 9545SOL    HW240095   3.463   3.540   0.894  0.0807  1.3724 -0.9054
 9546SOL     OW40096   1.469   2.728   4.480  0.2133 -0.4139 -0.5732
 9546SOL    HW140097   1.439   2.682   4.558  0.8817  1.7233  0.9354
 9546SOL    HW240098   1.417   2.808   4.477  0.3604 -0.3357 -1.1188
 9547SOL     OW40099   1.184   1.577  15.955 -0.1687 -0.5954 -0.0417
 9547SOL    HW140100   1.137   1.598  15.874  1.1915  2.0693 -0.1100
 9547SOL    HW240101   1.275   1.568  15.927 -0.4190  1.0439 -1.3880
 9548SOL     OW40102   3.395   0.797  12.021 -0.2762  0.6254  0.4445
 9548SOL    HW140103   3.436   0.760  12.099  0.0490  0.9102  0.4091
 9548SOL    HW240104   3.326   0.732  12.008 -0.0658  0.5118 -0.0875
 9549SOL     OW40105   3.417   0.885   5.238  0.6079 -0.4033  0.2165
 9549SOL    HW140106   3.490   0.934   5.276  1.6576 -0.5084 -1.6616
 9549SOL    HW240107   3.383   0.836   5.312 -0.1276  0.1545  0.2513
 9550SOL     OW40108   3.900   2.618  10.945  0.4933 -0.6636  0.1950
 9550SOL    HW140109   3.916   2.703  10.903  2.1055 -0.9666  0.2115
 9550SOL    HW240110   3.838   2.579  10.883 -1.2504  0.6948  1.0590
 9551SOL     OW40111   4.527   2.411  16.902 -0.0505  0.1130 -0.1844
 9551SOL    HW140112   4.620   2.409  16.879 -0.1925 -1.6678 -0.6549
 9551SOL    HW240113   4.508   2.500  16.874 -0.8102  0.1201  0.3611
 9552SOL     OW40114   0.673   0.040  13.223  0.0723  0.0137 -0.4514
 9552SOL    HW140115   0.708   4.673  13.236 -2.9587 -0.9989  0.7755
 9552SOL    HW240116   0.696   0.061  13.133  0.5002  1.6827  0.0554
 9553SOL     OW40117   0.444   3.345   8.022  0.5603 -0.2961  0.3293
 9553SOL    HW140118   0.457   3.288   8.098  0.4561 -1.4101 -0.4867
 9553SOL    HW240119   0.506   3.318   7.954 -0.3374 -0.7763 -0.3035
 9554SOL     OW40120   3.568   1.908   8.170 -0.0076  0.6193 -0.3543
 9554SOL    HW140121   3.477   1.919   8.196  0.0685 -1.2839  0.6966
 9554SOL    HW240122   3.593   1.828   8.215 -2.0171  0.5934  0.7149
 9555SOL     OW40123   2.719   1.447   1.807  0.2314  0.1470 -0.3714
 9555SOL    HW140124   2.799   1.407   1.839 -1.1324 -0.6449  2.0975
 9555SOL    HW240125   2.758   1.532   1.784  1.3561  0.2123  1.7574
 9556SOL     OW40126   2.848   0.515   3.905  0.1662  0.0828  0.0777
 9556SOL    HW140127   2.897   0.434   3.893 -2.1909 -1.7564  2.8090
 9556SOL    HW240128   2.916   0.582   3.910 -0.5570  0.6476  2.2581
 9557SOL     OW40129   2.468   1.889   4.277  0.0479 -0.9849 -0.0749
 9557SOL    HW140130   2.514   1.923   4.355 -0.1655 -0.3366 -0.2294
 9557SOL    HW240131   2.509   1.808   4.248  1.6340  0.2354 -1.2133
 9558SOL     OW40132   3.132   1.012   9.077 -0.0629  0.4269 -0.1227
 9558SOL    HW140133   3.040   1.028   9.058 -0.3787 -1.3525 -0.0798
 9558SOL    HW240134   3.161   1.095   9.116  1.2257  0.7107 -1.6507
 9559SOL     OW40135   0.388   2.677   2.372  0.1651  0.4639 -0.1989
 9559SOL    HW140136   0.395   2.583   2.357 -1.3680  0.4451 -0.7951
 9559SOL    HW240137   0.406   2.675   2.466 -0.0410 -1.7167 -0.2063
 9560SOL     OW40138   4.190   0.623   6.560  0.4578 -0.6238  0.3765
 9560SOL    HW140139   4.263   0.562   6.561  0.6276 -0.4479 -2.7972
 9560SOL    HW240140   4.243   0.702   6.576  1.7491 -1.0492 -1.7445
 9561SOL     OW40141   0.781   4.169  17.516 -0.3906  0.6728 -0.4002
 9561SOL    HW140142   0.813   4.082  17.535 -0.1185  0.7524 -0.4963
 9561SOL    HW240143   0.716   4.177  17.586  1.8264  2.0451  1.4950
 9562SOL     OW40144   2.353   3.187   2.658 -0.1210  0.1752  0.6638
 9562SOL    HW140145   2.423   3.166   2.596  1.5041  1.1777  2.1550
 9562SOL    HW240146   2.391   3.161   2.742 -1.4866 -1.4126  0.7876
 9563SOL     OW40147   3.846   3.784   7.472 -0.7650 -0.0237  0.1187
 9563SOL    HW140148   3.784   3.838   7.521 -1.5657  0.7880 -1.7758
 9563SOL    HW240149   3.934   3.807   7.500 -1.7277  2.9185  0.7066
 9564SOL     OW40150   0.109   3.679   3.234  0.0086  0.2016  0.2951
 9564SOL    HW140151   0.066   3.715   3.157  1.2121  0.0080 -0.4519
 9564SOL    HW240152   0.035   3.689   3.294  0.3231  0.9958  0.5540
 9565SOL     OW40153   2.341   2.300   7.148 -0.1147 -0.5266  0.0040
 9565SOL    HW140154   2.408   2.338   7.205 -0.2195 -0.7114  0.2475
 9565SOL    HW240155   2.391   2.274   7.070 -1.1028 -2.8745  0.1733
   4.72110   4.72110  17.68677
