Membrane in water
40155
    1TCq1    O1    1   1.991   3.170  10.772 -0.1405 -0.0952 -0.2145
    1TCq1    C1    2   1.953   3.160  10.646 -0.2571  0.1508 -1.1403
    1TCq1    O2    3   2.013   3.196  10.543  0.3587  0.0473  0.1977
    1TCq1    C2    4   1.822   3.094  10.639  0.2604  0.1820  0.4059
    1TCq1    C3    5   1.763   3.098  10.515 -0.6408  0.1859 -0.2729
    1TCq1    C4    6   1.658   3.018  10.497 -0.1626 -0.1270 -0.3459
    1TCq1    C5    7   1.608   2.923  10.589 -0.5769  0.8076 -0.5064
    1TCq1    C6    8   1.675   2.916  10.709 -0.0376  0.7528  0.5202
    1TCq1    C7    9   1.780   3.004  10.733  0.3952  0.0164  0.5713
    1TCq1    C8   10   1.645   2.825  10.813 -0.1062  0.4276  0.7462
    1TCq1    O4   11   1.707   2.828  10.914  0.1509 -0.4943 -0.1543
    1TCq1    C9   12   1.570   3.030  10.381  0.7133  0.3620  0.3986
    1TCq1    O5   13   1.602   3.118  10.302  0.0682  0.2405 -0.8055
    1TCq1    O6   14   1.459   2.965  10.377 -0.5229 -0.1812  0.9829
    1TCq1    H1   15   1.910   3.164  10.828 -0.7402  1.4701 -0.9161
    1TCq1    H2   16   1.789   3.159  10.429  0.7366  1.3404  0.9767
    1TCq1    H3   17   1.524   2.863  10.557 -1.3411  0.6650  1.7924
    1TCq1    H4   18   1.833   2.992  10.827 -0.5582  1.1708  1.2529
    2MPD2     C   19   1.424   2.402  11.010  0.0102  0.4303 -0.4532
    2MPD2    C1   20   1.459   2.524  11.071  0.2460  0.4093  0.4853
    2MPD2    C2   21   1.519   2.623  10.991 -0.4740 -0.4503 -0.1638
    2MPD2    C3   22   1.526   2.608  10.853 -0.9084  0.0175  0.3545
    2MPD2    C4   23   1.471   2.493  10.793  0.4142  0.4592 -0.0763
    2MPD2    C5   24   1.426   2.393  10.873 -0.1128  1.0412 -0.7194
    2MPD2     H   25   1.558   2.712  11.039 -0.7724 -0.9998  1.1218
    2MPD2    H1   26   1.478   2.480  10.685 -0.3677  1.9280 -0.3156
    2MPD2    H2   27   1.387   2.318  11.067  1.0927  0.6613  0.5919
    2MPD2    H3   28   1.399   2.301  10.824 -0.0012  0.0296  1.1264
    2MPD2     N   29   1.573   2.709  10.768 -0.3570  0.5554 -0.1721
    2MPD2    H5   30   1.561   2.702  10.667 -0.8494  0.4465 -0.1046
    2MPD2    N1   31   1.451   2.543  11.210  0.0462 -0.1671  0.4732
    2MPD2    H7   32   1.501   2.626  11.241 -1.0799  1.2659 -1.5800
    3TCq1    O1   33   0.634   3.292  11.324 -0.4163 -0.5172 -0.1338
    3TCq1    C1   34   0.670   3.333  11.449  0.6864  0.3875 -1.1624
    3TCq1    O2   35   0.638   3.277  11.558  0.5221 -0.3596 -0.6703
    3TCq1    C2   36   0.764   3.439  11.436  0.6243  0.5540 -0.3135
    3TCq1    C3   37   0.827   3.478  11.322 -0.6864 -0.0626  0.5219
    3TCq1    C4   38   0.879   3.610  11.308  0.0754 -0.4088  0.3500
    3TCq1    C5   39   0.870   3.696  11.413 -0.7344 -1.0615  0.1047
    3TCq1    C6   40   0.804   3.646  11.525 -0.3763 -0.0416 -0.2597
    3TCq1    C7   41   0.742   3.529  11.535  0.6834  0.0738  0.8422
    3TCq1    C8   42   0.777   3.741  11.631 -0.5528  0.3350  1.3771
    3TCq1    O4   43   0.749   3.691  11.742  0.4683 -0.7044  0.3293
    3TCq1    C9   44   0.940   3.658  11.180 -0.2036 -0.7531  0.2520
    3TCq1    O5   45   0.904   3.607  11.074 -0.4207 -0.1939  0.1267
    3TCq1    O6   46   0.994   3.770  11.186 -0.2227 -0.4263 -0.4068
    3TCq1    H1   47   0.646   3.369  11.266  1.5112 -1.8699 -1.5111
    3TCq1    H2   48   0.845   3.411  11.239 -2.2918 -0.2499  0.3187
    3TCq1    H3   49   0.908   3.796  11.394  0.4993 -1.1531  2.1725
    3TCq1    H4   50   0.667   3.505  11.609 -0.4355 -1.9386 -0.9049
    4MPD2     C   51   0.663   4.223  11.757 -0.3405 -0.5882  0.5393
    4MPD2    C1   52   0.689   4.219  11.619  0.3280 -0.1469 -0.6769
    4MPD2    C2   53   0.735   4.100  11.561 -0.3790 -0.3651 -0.0416
    4MPD2    C3   54   0.744   3.984  11.646  0.6575 -0.7338  0.2674
    4MPD2    C4   55   0.724   3.988  11.785  0.8002  0.2867 -0.3719
    4MPD2    C5   56   0.686   4.114  11.831  0.2948  0.7094 -0.2196
    4MPD2     H   57   0.767   4.101  11.458 -2.0822  0.0561 -0.5662
    4MPD2    H1   58   0.735   3.903  11.852  2.6454  0.5313 -0.3480
    4MPD2    H2   59   0.647   4.314  11.814 -0.3125  0.1329 -0.6137
    4MPD2    H3   60   0.669   4.109  11.938 -2.3066 -1.9945 -0.7585
    4MPD2     N   61   0.772   3.864  11.581 -0.0967  0.4272 -0.1296
    4MPD2    H5   62   0.776   3.877  11.480 -1.2421  1.1279 -0.0799
    4MPD2    N1   63   0.670   4.334  11.534 -0.5509  0.4475  0.4498
    4MPD2    H7   64   0.701   4.325  11.438 -1.1023  2.4605  0.0933
    5TCq1    O1   65   1.838   0.996  12.027 -0.2711  0.1695  0.4435
    5TCq1    C1   66   1.737   0.915  12.071  0.1275 -1.0454 -0.2353
    5TCq1    O2   67   1.745   0.852  12.176  0.2262 -0.1218  0.0629
    5TCq1    C2   68   1.607   0.963  12.019  0.4452 -0.8679 -0.0698
    5TCq1    C3   69   1.512   1.009  12.113 -0.3061 -0.2840 -0.3326
    5TCq1    C4   70   1.392   1.042  12.061  0.5862 -0.3684 -0.1998
    5TCq1    C5   71   1.356   1.028  11.927  0.2602  0.7087 -0.4938
    5TCq1    C6   72   1.457   0.990  11.843 -0.6563 -0.7456  0.1148
    5TCq1    C7   73   1.581   0.953  11.882  0.0821 -0.2146  0.5305
    5TCq1    C8   74   1.419   0.951  11.713  0.6057 -0.9955 -0.5712
    5TCq1    O4   75   1.459   0.842  11.677 -0.2499 -0.4667 -0.5490
    5TCq1    C9   76   1.288   1.077  12.158 -0.2093 -0.4164 -0.5478
    5TCq1    O5   77   1.311   1.064  12.279  0.2793 -0.1380  0.6344
    5TCq1    O6   78   1.177   1.105  12.110  0.3438 -0.4515 -1.2306
    5TCq1    H1   79   1.808   1.052  11.953 -1.0547 -0.6052  0.1689
    5TCq1    H2   80   1.520   0.991  12.220 -0.1233  1.4403 -0.0690
    5TCq1    H3   81   1.251   1.035  11.904 -0.1249  1.0376  1.3459
    5TCq1    H4   82   1.660   0.923  11.814  0.9084 -1.8334  2.2112
    6MPD2     C   83   1.188   1.112  11.466 -0.1075  0.5723 -0.6701
    6MPD2    C1   84   1.296   1.042  11.512  0.8225 -0.5980  0.2042
    6MPD2    C2   85   1.361   0.962  11.423  0.3274  0.0989  0.8912
    6MPD2    C3   86   1.301   0.939  11.298  0.0740  0.4356  0.3901
    6MPD2    C4   87   1.189   1.006  11.256  0.5316  0.0944 -0.5381
    6MPD2    C5   88   1.139   1.100  11.338  0.5897  0.0160  0.4800
    6MPD2     H   89   1.457   0.915  11.442 -0.1949 -1.6152 -0.7811
    6MPD2    H1   90   1.148   0.993  11.156  2.0751  0.3218 -1.1980
    6MPD2    H2   91   1.143   1.186  11.531  0.0713 -1.4848  1.8115
    6MPD2    H3   92   1.054   1.156  11.301  1.0317 -0.1903 -0.8217
    6MPD2     N   93   1.363   0.861  11.197 -0.6951 -0.6186 -0.0184
    6MPD2    H5   94   1.309   0.833  11.116 -2.7975  2.4172  0.3356
    6MPD2    N1   95   1.337   1.048  11.648 -0.3054 -0.8164 -0.2942
    6MPD2    H7   96   1.306   1.127  11.703  0.8453 -1.3611  1.1578
    7TCq1    O1   97   4.010   0.724  13.264  0.2233  0.4473 -0.5201
    7TCq1    C1   98   3.980   0.816  13.174 -0.0715  0.3594 -0.0192
    7TCq1    O2   99   4.016   0.930  13.180 -0.0073  0.1954  0.0958
    7TCq1    C2  100   3.977   0.740  13.052 -0.1100  0.4007  0.0246
    7TCq1    C3  101   4.072   0.771  12.953 -0.3111 -0.5129 -0.7615
    7TCq1    C4  102   4.095   0.678  12.861  0.5630  0.2787 -0.6212
    7TCq1    C5  103   4.040   0.552  12.856  0.9903 -0.2425  0.0089
    7TCq1    C6  104   3.943   0.528  12.949 -0.5614 -0.2439 -0.1521
    7TCq1    C7  105   3.913   0.624  13.046  0.0709 -0.5371 -0.4193
    7TCq1    C8  106   3.919   0.388  12.983 -0.0671 -0.1897 -0.1977
    7TCq1    O4  107   4.021   0.326  12.963  0.5930  0.2477  0.3976
    7TCq1    C9  108   4.189   0.710  12.751 -0.5612 -0.0340  0.2816
    7TCq1    O5  109   4.217   0.833  12.740 -0.3593  0.4015  0.6235
    7TCq1    O6  110   4.205   0.622  12.661 -0.5021 -0.5464  0.0153
    7TCq1    H1  111   3.987   0.630  13.250 -2.3798  0.7323  2.0574
    7TCq1    H2  112   4.120   0.868  12.957  1.4941 -1.5463  2.2487
    7TCq1    H3  113   4.085   0.473  12.796  0.1444 -0.1073 -0.8032
    7TCq1    H4  114   3.840   0.598  13.123 -0.5513  1.4910 -0.3025
    8MPD2     C  115   3.666   4.688  13.155 -0.1910  0.0124  0.1517
    8MPD2    C1  116   3.783   4.704  13.089  0.3678  0.0401 -0.5120
    8MPD2    C2  117   3.834   0.106  13.058 -0.7834 -0.5611  0.6579
    8MPD2    C3  118   3.763   0.220  13.092  0.3584 -0.6202 -0.0973
    8MPD2    C4  119   3.640   0.204  13.147  0.0186 -0.0981  0.2871
    8MPD2    C5  120   3.594   0.074  13.177 -0.8781 -0.3716 -0.4218
    8MPD2     H  121   3.922   0.129  13.000 -0.5497  1.4510  1.8210
    8MPD2    H1  122   3.576   0.291  13.158  1.3278  0.9225 -0.3605
    8MPD2    H2  123   3.627   4.600  13.205 -3.1323  1.4318  0.3922
    8MPD2    H3  124   3.495   0.062  13.221 -0.6698 -1.9196 -0.3834
    8MPD2     N  125   3.800   0.350  13.044 -0.0334 -0.1869 -0.3764
    8MPD2    H5  126   3.720   0.413  13.039  0.7845  1.0473  2.1371
    8MPD2    N1  127   3.871   4.595  13.077 -0.5970 -0.4167 -0.7994
    8MPD2    H7  128   3.837   4.515  13.130 -0.2591  0.1120  0.2055
    9TCq1    O1  129   1.744   3.294  10.194  0.2575 -0.2690 -0.4242
    9TCq1    C1  130   1.757   3.424  10.228 -0.1906  0.1203  0.5425
    9TCq1    O2  131   1.845   3.502  10.201  0.1041  0.0379 -0.0656
    9TCq1    C2  132   1.703   3.440  10.361  0.2553 -0.1138 -0.4282
    9TCq1    C3  133   1.591   3.385  10.406  0.2269  0.0079  0.9707
    9TCq1    C4  134   1.552   3.409  10.531 -0.4430 -0.3612 -0.8236
    9TCq1    C5  135   1.619   3.493  10.620 -1.0165  0.8204  0.3514
    9TCq1    C6  136   1.744   3.534  10.579  0.8910  0.0696 -0.6584
    9TCq1    C7  137   1.783   3.518  10.444 -0.0886  0.7510 -0.4672
    9TCq1    C8  138   1.848   3.570  10.668 -0.7427 -0.2459 -0.4832
    9TCq1    O4  139   1.954   3.594  10.610  0.5517 -0.7269 -0.6361
    9TCq1    C9  140   1.432   3.343  10.583  0.0756 -0.1424  0.2111
    9TCq1    O5  141   1.413   3.354  10.707  0.6477 -0.2124 -0.0987
    9TCq1    O6  142   1.372   3.259  10.507 -0.3308 -0.3761 -0.0880
    9TCq1    H1  143   1.678   3.233  10.233  0.6016  0.6524  1.6187
    9TCq1    H2  144   1.530   3.314  10.351 -0.0090  1.6121 -0.8336
    9TCq1    H3  145   1.593   3.496  10.725 -0.4661 -3.4063  0.6243
    9TCq1    H4  146   1.867   3.573  10.405  1.2953  0.2530  1.7825
   10MPD2     C  147   2.046   3.573  10.875 -0.6336  0.0127 -0.6158
   10MPD2    C1  148   1.911   3.566  10.900  0.6609 -0.2034  0.8687
   10MPD2    C2  149   1.867   3.558  11.036  0.2298 -0.3137  0.2214
   10MPD2    C3  150   1.955   3.564  11.145  0.8210  0.3996  0.2016
   10MPD2    C4  151   2.088   3.580  11.116  0.0210 -0.4809  0.0166
   10MPD2    C5  152   2.127   3.591  10.985 -0.3947  0.1562 -0.1103
   10MPD2     H  153   1.759   3.546  11.043  0.1041  0.4562 -0.3962
   10MPD2    H1  154   2.160   3.569  11.196 -0.3618  0.8101  0.5409
   10MPD2    H2  155   2.095   3.568  10.779 -1.8945  0.6542 -1.3022
   10MPD2    H3  156   2.233   3.593  10.962 -0.1533  1.8097  1.1651
   10MPD2     N  157   1.917   3.553  11.281  0.6213  0.5656 -0.3537
   10MPD2    H5  158   1.990   3.564  11.351 -1.4901 -1.8746  2.2054
   10MPD2    N1  159   1.816   3.552  10.800 -0.2909 -0.3794 -0.6110
   10MPD2    H7  160   1.720   3.528  10.822 -0.3129  0.7450  0.4903
   11TCq1    O1  161   2.709   3.424  13.771 -0.0658  0.3939 -0.6332
   11TCq1    C1  162   2.598   3.367  13.816  0.1554  0.1618 -0.1081
   11TCq1    O2  163   2.526   3.294  13.756  0.1503  0.1590 -0.0843
   11TCq1    C2  164   2.584   3.376  13.966  0.2908  0.1402  0.6653
   11TCq1    C3  165   2.692   3.367  14.050  0.0684 -0.7631 -0.2364
   11TCq1    C4  166   2.672   3.334  14.181 -0.0684 -0.2966  0.4845
   11TCq1    C5  167   2.553   3.295  14.234  1.0660  0.9290  0.2493
   11TCq1    C6  168   2.444   3.314  14.152  0.2916 -0.1612  0.1040
   11TCq1    C7  169   2.461   3.350  14.019  0.4613 -0.5270  0.2977
   11TCq1    C8  170   2.320   3.349  14.225  0.7047  0.1204 -0.3889
   11TCq1    O4  171   2.326   3.374  14.343 -0.3247  0.1964  0.2373
   11TCq1    C9  172   2.792   3.333  14.268  0.3438 -0.1850  0.8968
   11TCq1    O5  173   2.773   3.357  14.387 -0.2321 -0.3575  0.0962
   11TCq1    O6  174   2.902   3.336  14.207  0.7868 -0.2650 -0.1787
   11TCq1    H1  175   2.738   3.494  13.833  1.2592 -1.1269  0.4970
   11TCq1    H2  176   2.789   3.371  14.002  0.2807 -2.4369  0.0324
   11TCq1    H3  177   2.543   3.267  14.339 -2.0392  4.4507  0.9149
   11TCq1    H4  178   2.375   3.376  13.958 -0.8930 -1.4416  1.8198
   12MPD2     C  179   2.025   3.401  14.300  0.0655 -0.0728 -0.4483
   12MPD2    C1  180   2.071   3.355  14.175  0.4315  0.9863  0.2144
   12MPD2    C2  181   1.979   3.308  14.086  0.3471  0.5322  0.3522
   12MPD2    C3  182   1.845   3.311  14.120  0.1590 -0.2236  0.8190
   12MPD2    C4  183   1.805   3.376  14.232  0.1968  0.7723  0.4436
   12MPD2    C5  184   1.893   3.432  14.321 -0.2144 -0.8318  1.0515
   12MPD2     H  185   2.013   3.270  13.990 -0.6585  2.8188 -0.9305
   12MPD2    H1  186   1.702   3.393  14.262  0.2183  0.3076  0.7860
   12MPD2    H2  187   2.090   3.437  14.379  1.7313 -1.9932 -0.9580
   12MPD2    H3  188   1.863   3.480  14.413 -0.0737  1.6583 -0.2094
   12MPD2     N  189   1.757   3.241  14.038  0.3427 -0.1365 -0.3107
   12MPD2    H5  190   1.801   3.191  13.961  0.4850  1.1683 -1.0815
   12MPD2    N1  191   2.211   3.329  14.143 -0.0883 -0.3279 -0.3034
   12MPD2    H7  192   2.234   3.299  14.049 -0.3171 -0.2327 -0.3896
   13TCq1    O1  193   0.915   2.381  10.801 -0.2808  0.0949  0.2286
   13TCq1    C1  194   1.002   2.418  10.897  0.2776  0.0831 -0.2477
   13TCq1    O2  195   1.012   2.382  11.015  0.0265 -0.5530  0.3123
   13TCq1    C2  196   1.059   2.544  10.864  0.1562 -0.0776  0.3741
   13TCq1    C3  197   1.122   2.567  10.742  0.5186 -0.2735  0.3512
   13TCq1    C4  198   1.178   2.690  10.716  0.2060 -0.4470  0.4722
   13TCq1    C5  199   1.172   2.791  10.813  0.0751 -0.5607  0.2483
   13TCq1    C6  200   1.100   2.764  10.925  0.2931  0.1836  0.6669
   13TCq1    C7  201   1.045   2.645  10.950  0.0504  0.3561 -0.3804
   13TCq1    C8  202   1.147   2.838  11.041 -0.8104  0.1857  0.0416
   13TCq1    O4  203   1.082   2.823  11.142  0.4183 -0.8219  0.3453
   13TCq1    C9  204   1.240   2.727  10.591  0.5506 -0.1553  0.1053
   13TCq1    O5  205   1.274   2.848  10.579 -0.4608 -0.5782 -0.3512
   13TCq1    O6  206   1.240   2.643  10.499  0.0863 -0.1977  0.0775
   13TCq1    H1  207   0.925   2.444  10.726  1.1957 -0.5595 -0.1215
   13TCq1    H2  208   1.140   2.484  10.675  1.2298 -0.4577  0.7725
   13TCq1    H3  209   1.202   2.892  10.786 -1.0627 -0.3673 -0.2951
   13TCq1    H4  210   1.004   2.613  11.045 -1.0113 -0.4133 -1.0941
   14MPD2     C  211   1.465   3.025  11.073 -0.2106  0.2641  0.5315
   14MPD2    C1  212   1.338   2.981  11.108 -0.2978 -0.1350 -0.5274
   14MPD2    C2  213   1.272   3.037  11.222  0.2895 -0.6008 -0.2703
   14MPD2    C3  214   1.329   3.136  11.299 -0.1963 -0.8241 -0.0488
   14MPD2    C4  215   1.459   3.163  11.269  0.4311  0.2310  0.6270
   14MPD2    C5  216   1.524   3.110  11.164  0.3188 -0.1180  0.3713
   14MPD2     H  217   1.171   3.017  11.255  0.7554 -3.6136 -0.7448
   14MPD2    H1  218   1.523   3.222  11.333  1.1547 -0.0935  0.1969
   14MPD2    H2  219   1.514   2.979  10.988  1.5894  1.1031  1.1267
   14MPD2    H3  220   1.629   3.128  11.146 -0.3691  3.3796 -0.1164
   14MPD2     N  221   1.258   3.215  11.390  0.2984 -0.1502 -0.4141
   14MPD2    H5  222   1.161   3.188  11.403  0.8242 -2.2383 -0.8413
   14MPD2    N1  223   1.271   2.883  11.026  0.5505  0.2934  0.0396
   14MPD2    H7  224   1.310   2.861  10.934  0.0945 -1.5929  0.2940
   15TCq1    O1  225   2.664   2.840   1.502  0.3195 -0.5171 -0.2647
   15TCq1    C1  226   2.655   2.773   1.382  0.4848 -0.2928  0.2357
   15TCq1    O2  227   2.569   2.785   1.295 -0.1177 -0.0599 -0.2326
   15TCq1    C2  228   2.763   2.669   1.382  0.0203 -0.0776 -0.7276
   15TCq1    C3  229   2.819   2.621   1.496  0.1019 -0.2410 -0.1832
   15TCq1    C4  230   2.901   2.517   1.492 -0.4966  0.1255  0.2594
   15TCq1    C5  231   2.928   2.448   1.377 -0.2901 -0.0860 -0.5903
   15TCq1    C6  232   2.874   2.504   1.261 -0.3260  0.1947 -0.5848
   15TCq1    C7  233   2.785   2.611   1.265 -0.2590 -0.7090 -0.0471
   15TCq1    C8  234   2.880   2.428   1.137 -0.6836  0.0867  0.6669
   15TCq1    O4  235   2.791   2.447   1.051 -0.7475  0.3384  0.0226
   15TCq1    C9  236   2.953   2.469   1.616  0.6575  0.6181  0.3575
   15TCq1    O5  237   3.058   2.399   1.604 -0.2756 -0.7468 -0.3715
   15TCq1    O6  238   2.909   2.508   1.728  0.1174 -0.6384 -0.0247
   15TCq1    H1  239   2.753   2.835   1.544  0.1272  0.5730  0.2627
   15TCq1    H2  240   2.803   2.662   1.595 -1.8765 -1.8110  0.1538
   15TCq1    H3  241   2.988   2.358   1.380 -1.3686 -0.7627  0.5662
   15TCq1    H4  242   2.741   2.651   1.175  1.8745  0.5120 -0.5515
   16MPD2     C  243   2.918   2.188   0.950  0.7118  0.4061  0.2181
   16MPD2    C1  244   3.002   2.227   1.049 -0.0227 -0.0347 -0.5903
   16MPD2    C2  245   3.126   2.169   1.054  0.2264 -0.5087 -0.2042
   16MPD2    C3  246   3.165   2.064   0.972  0.2713  0.1955  0.2144
   16MPD2    C4  247   3.060   2.009   0.896 -0.7145 -0.2997 -0.0427
   16MPD2    C5  248   2.939   2.072   0.881 -0.5987 -0.5417 -0.7588
   16MPD2     H  249   3.201   2.215   1.118 -0.0494  0.1486 -0.3459
   16MPD2    H1  250   3.079   1.938   0.817 -1.0399  1.2072 -1.4728
   16MPD2    H2  251   2.817   2.226   0.938  1.0579  0.9691 -1.0300
   16MPD2    H3  252   2.863   2.042   0.810  1.2790 -1.9016 -2.1924
   16MPD2     N  253   3.287   2.011   0.981 -0.4021 -0.5475 -0.1718
   16MPD2    H5  254   3.365   2.062   1.021 -2.3783  2.1623  0.2769
   16MPD2    N1  255   2.985   2.342   1.131  0.3610  0.4484 -1.2584
   16MPD2    H7  256   3.065   2.359   1.191 -0.5917  2.0215 -0.4402
   17TCq1    O1  257   0.741   2.048   9.782  0.0156  0.2181  0.2112
   17TCq1    C1  258   0.797   1.986   9.887 -0.1576 -0.6007 -0.1402
   17TCq1    O2  259   0.748   1.892   9.948  0.3080 -0.2155  0.7871
   17TCq1    C2  260   0.923   2.034   9.921 -0.5441  0.1635  0.3204
   17TCq1    C3  261   0.953   2.167   9.890  0.0827  0.0327  0.7393
   17TCq1    C4  262   1.092   2.206   9.898 -0.1153 -0.3223 -0.6264
   17TCq1    C5  263   1.187   2.116   9.936  0.1119 -0.4067  0.0432
   17TCq1    C6  264   1.146   1.987   9.950 -0.6034  0.3150  0.2097
   17TCq1    C7  265   1.017   1.947   9.937  0.4431 -0.4367 -0.5350
   17TCq1    C8  266   1.235   1.884  10.001 -0.1509  0.1998 -0.0641
   17TCq1    O4  267   1.199   1.767   9.990 -0.0483  0.3098  0.1259
   17TCq1    C9  268   1.114   2.351   9.877 -0.3993  0.2250  0.0647
   17TCq1    O5  269   1.231   2.394   9.894 -0.4752  0.4456  0.2452
   17TCq1    O6  270   1.022   2.405   9.811  0.0753 -0.1494 -0.6321
   17TCq1    H1  271   0.814   2.088   9.730  1.1602 -1.0665  0.8532
   17TCq1    H2  272   0.874   2.241   9.882  1.8982  1.8082 -0.6329
   17TCq1    H3  273   1.294   2.135   9.939 -0.2419  1.3083  2.2107
   17TCq1    H4  274   0.993   1.841   9.938  1.1171 -0.5822  0.2598
   18MPD2     C  275   1.449   1.722  10.154  1.6096 -0.3310  0.0518
   18MPD2    C1  276   1.438   1.861  10.147  0.6510  0.4282  0.5844
   18MPD2    C2  277   1.514   1.932  10.227  0.1293  0.0960 -0.4144
   18MPD2    C3  278   1.613   1.871  10.303 -0.2282  0.0471 -0.6181
   18MPD2    C4  279   1.630   1.736  10.301  0.2560 -0.2382  0.7310
   18MPD2    C5  280   1.545   1.665  10.219  0.2424 -0.3951 -0.7082
   18MPD2     H  281   1.496   2.039  10.216  0.7519 -0.0080 -2.5786
   18MPD2    H1  282   1.714   1.691  10.353  1.2086  0.3777 -0.2866
   18MPD2    H2  283   1.389   1.657  10.092  1.5499  1.7171 -2.0465
   18MPD2    H3  284   1.553   1.557  10.211  2.8517 -0.6319  5.0225
   18MPD2     N  285   1.704   1.952  10.373  0.8824 -0.0877 -0.2019
   18MPD2    H5  286   1.787   1.912  10.417  1.3364  1.2367  0.1634
   18MPD2    N1  287   1.342   1.932  10.078 -0.6807 -0.7288 -0.2531
   18MPD2    H7  288   1.362   2.031  10.077  0.0635 -0.8920 -1.0030
   19TMC2    C1  289   3.519   2.961  13.830 -0.0058  0.5833  0.1724
   19TMC2    C2  290   3.553   3.062  13.751 -0.0801 -0.3338 -0.4869
   19TMC2    C3  291   3.459   3.119  13.669  0.5145  0.2140  0.8173
   19TMC2    C4  292   3.383   2.926  13.854 -0.0610  0.1862 -0.3315
   19TMC2    C5  293   3.296   2.979  13.768 -0.8454 -0.3248 -0.2816
   19TMC2    C6  294   3.329   3.082  13.686 -0.0391 -0.3905 -0.1094
   19TMC2     C  295   3.619   2.902  13.917 -0.1456  0.2899 -0.6046
   19TMC2     O  296   3.738   2.907  13.883 -0.1970 -0.0789  0.5049
   19TMC2     H  297   3.653   3.098  13.729  0.7662 -1.2338  1.9087
   19TMC2    H1  298   3.354   2.844  13.920 -1.3803 -0.3784 -1.6060
   19TMC2    H2  299   3.252   3.135  13.632 -1.4123  0.4888  2.6791
   19TMC2    C7  300   3.157   2.950  13.787  0.3364  0.6339 -0.0051
   19TMC2    C8  301   3.485   3.249  13.612  0.0081 -0.3175 -0.1076
   19TMC2    O1  302   3.116   2.925  13.898  0.2248  0.5419 -0.2454
   19TMC2    O2  303   3.471   3.286  13.497  0.0328  0.5555 -0.4569
   19TMC2    O5  304   3.522   3.334  13.714  0.1511 -0.0862 -0.3191
   19TMC2    H5  305   3.500   3.307  13.805  1.6596  1.4223  0.4852
   20MPD2     C  306   3.752   2.772  14.141 -1.0905 -0.8455  0.4921
   20MPD2    C1  307   3.623   2.824  14.146 -0.7745  0.8930  0.0421
   20MPD2    C2  308   3.553   2.810  14.263 -0.3981  0.8635 -0.2665
   20MPD2    C3  309   3.626   2.768  14.373  0.4075  0.3273 -0.5011
   20MPD2    C4  310   3.756   2.720  14.360 -0.1979  0.3996  0.3316
   20MPD2    C5  311   3.820   2.721  14.243  0.5178  0.3725 -0.0797
   20MPD2     H  312   3.445   2.825  14.265 -0.2372  1.8196  1.1872
   20MPD2    H1  313   3.805   2.676  14.447 -0.9813 -0.3211  0.4043
   20MPD2    H2  314   3.814   2.777  14.053 -0.0167 -3.0408  1.1093
   20MPD2    H3  315   3.922   2.686  14.228 -0.2220 -0.9061 -2.1133
   20MPD2     N  316   3.572   2.740  14.498 -0.7200  0.5248  0.4131
   20MPD2    H5  317   3.632   2.699  14.569 -0.3200 -0.6396 -0.5892
   20MPD2    N1  318   3.559   2.871  14.032  0.2987 -0.2756 -0.7803
   20MPD2    H7  319   3.462   2.900  14.043  0.0500 -1.0820 -0.8177
   21MPD2     C  320   0.663   3.769  14.309 -0.2866  0.1743 -0.0158
   21MPD2    C1  321   0.699   3.637  14.281  0.2035 -0.7371 -0.2986
   21MPD2    C2  322   0.621   3.534  14.331  0.2201 -0.1589 -0.5764
   21MPD2    C3  323   0.498   3.561  14.382 -0.1938 -0.1818 -0.3147
   21MPD2    C4  324   0.456   3.694  14.407  0.5855 -0.4395  0.4793
   21MPD2    C5  325   0.546   3.795  14.378 -0.6659 -0.4902  0.6743
   21MPD2     H  326   0.657   3.432  14.322  2.1906  0.3567  1.4311
   21MPD2    H1  327   0.369   3.715  14.468  0.5561  0.2606  0.1938
   21MPD2    H2  328   0.720   3.855  14.277  0.3553  0.6340  2.3756
   21MPD2    H3  329   0.509   3.894  14.404  0.2823 -0.1750  0.8151
   21MPD2     N  330   0.404   3.470  14.427  0.5565 -0.0008 -0.5482
   21MPD2    H5  331   0.332   3.498  14.492  1.4107 -0.4849  0.6101
   21MPD2    N1  332   0.825   3.606  14.221  0.3351  0.6197  0.6736
   21MPD2    H7  333   0.848   3.507  14.210  0.6166  0.6005  1.3916
   22TCq2    C1  334   0.406   3.334  14.396  0.0419 -0.2424 -0.2990
   22TCq2    O2  335   0.494   3.278  14.331 -0.2865  0.3878  0.6066
   22TCq2    C2  336   0.320   3.259  14.484  0.0545  0.2385 -0.3524
   22TCq2    C3  337   0.352   3.142  14.542 -0.5727  0.1419 -0.4326
   22TCq2    C4  338   0.268   3.073  14.632  0.1140 -0.3108 -0.0427
   22TCq2    C5  339   0.144   3.121  14.653  0.5062 -0.6095 -0.4899
   22TCq2    C6  340   0.112   3.240  14.593  0.1025 -0.5712  0.0246
   22TCq2    C7  341   0.201   3.317  14.514 -0.0926  0.2193 -0.6000
   22TCq2    C8  342   0.004   3.312  14.657 -0.0673 -0.1209  0.4940
   22TCq2    O4  343   4.722   3.293  14.777  0.3474  0.1979  0.1042
   22TCq2    C9  344   0.298   2.935  14.667 -0.0526 -0.0498 -0.5094
   22TCq2    O5  345   0.205   2.870  14.719  0.6997  0.3875  0.1243
   22TCq2    O6  346   0.407   2.881  14.637 -0.1014  0.6030 -0.0926
   22TCq2    H2  347   0.449   3.102  14.515  0.5311  2.9150 -0.4560
   22TCq2    H3  348   0.065   3.068  14.705  2.2508 -1.0325  1.7161
   22TCq2    H4  349   0.167   3.411  14.470 -0.6405  0.0406 -0.5639
   23MPD2     C  350   2.479   4.406  14.493  0.5104 -0.1884 -0.6765
   23MPD2    C1  351   2.348   4.412  14.538 -0.5458  0.2044  0.6089
   23MPD2    C2  352   2.263   4.490  14.460  0.1036 -0.5555 -0.7599
   23MPD2    C3  353   2.299   4.550  14.341 -0.2707  0.2289  0.9744
   23MPD2    C4  354   2.434   4.533  14.296  0.9050 -0.3500 -0.4419
   23MPD2    C5  355   2.517   4.468  14.374 -0.1214 -0.5295 -0.2969
   23MPD2     H  356   2.162   4.504  14.495 -0.4613  0.4449 -2.7674
   23MPD2    H1  357   2.474   4.575  14.204  0.7502  1.5378  0.3410
   23MPD2    H2  358   2.551   4.355  14.557  1.6322  0.6333 -1.2690
   23MPD2    H3  359   2.616   4.445  14.335  1.1094  1.9549  1.3577
   23MPD2     N  360   2.214   4.639  14.273 -0.1120 -0.4470  0.8431
   23MPD2    H5  361   2.246   4.691  14.192 -4.0574  0.1722 -0.2950
   23MPD2    N1  362   2.309   4.355  14.662  0.2276 -0.0466  0.0373
   23MPD2    H7  363   2.216   4.376  14.699  0.7079  1.2193  0.5343
   24TCq2    C1  364   2.081   4.640  14.287 -0.0255 -0.2742  0.5937
   24TCq2    O2  365   1.999   4.561  14.331  0.1985 -0.9323 -0.1210
   24TCq2    C2  366   2.019   0.009  14.194 -0.3382  0.1238 -0.4435
   24TCq2    C3  367   2.086   0.124  14.166 -0.7084 -0.3524 -0.2133
   24TCq2    C4  368   2.021   0.219  14.098 -0.0608 -0.2850 -0.0971
   24TCq2    C5  369   1.897   0.196  14.044  0.9593  0.5338  0.1109
   24TCq2    C6  370   1.833   0.079  14.060  0.1083 -0.2145 -0.0926
   24TCq2    C7  371   1.893   4.715  14.145  0.1442 -0.0719 -0.2321
   24TCq2    C8  372   1.688   0.074  14.074  0.2415  0.4034  0.1876
   24TCq2    O4  373   1.644   4.687  14.063  0.3181  0.3019  0.3991
   24TCq2    C9  374   2.081   0.349  14.078  0.2076  0.0161 -0.5639
   24TCq2    O5  375   2.205   0.356  14.068  0.1286 -0.3470  0.9847
   24TCq2    O6  376   2.004   0.429  14.025 -0.4459 -0.5110 -0.4553
   24TCq2    H2  377   2.171   0.165  14.219  0.1237 -1.0096 -1.0443
   24TCq2    H3  378   1.852   0.275  13.985  1.0988 -0.8232 -1.8278
   24TCq2    H4  379   1.826   4.637  14.179  0.4923  0.4893  1.7006
   25TMC2    C1  380   1.070   1.663  11.196 -0.4277 -0.7428  0.4583
   25TMC2    C2  381   1.186   1.701  11.138  0.3394  0.4813 -0.0058
   25TMC2    C3  382   1.236   1.822  11.163  0.0453  0.9894  0.6009
   25TMC2    C4  383   0.989   1.748  11.271 -0.2600  0.5655  0.2236
   25TMC2    C5  384   1.042   1.869  11.292 -1.1456  0.0946 -0.0443
   25TMC2    C6  385   1.163   1.911  11.244 -0.4265  0.0166 -0.4862
   25TMC2     C  386   1.039   1.527  11.173  0.1772  0.0417 -0.5419
   25TMC2     O  387   1.130   1.446  11.184  0.3758  0.2824 -0.2180
   25TMC2     H  388   1.233   1.631  11.071  0.4954  0.7395 -0.1689
   25TMC2    H1  389   0.889   1.723  11.306 -1.2781  4.3782 -0.0005
   25TMC2    H2  390   1.206   2.008  11.263 -0.3608 -0.5996  2.3959
   25TMC2    C7  391   0.964   1.957  11.377 -0.4809  0.0907  0.3377
   25TMC2    C8  392   1.358   1.856  11.096 -0.2967 -0.2378  0.8230
   25TMC2    O1  393   0.891   1.903  11.461 -0.0053  0.1775  0.2461
   25TMC2    O2  394   1.427   1.777  11.034 -0.0883  0.0763 -0.0253
   25TMC2    O5  395   1.367   1.992  11.087  0.1788  0.1668 -0.0807
   25TMC2    H5  396   1.287   2.045  11.109  1.1756  1.4925  0.3183
   26MPD2     C  397   0.748   1.157  10.982  0.3880  0.1850  0.2226
   26MPD2    C1  398   0.667   1.272  10.984 -0.1073  0.6391  0.1401
   26MPD2    C2  399   0.730   1.390  11.031  0.1316  0.8366 -0.6088
   26MPD2    C3  400   0.862   1.394  11.077  0.4313 -0.1347  0.4079
   26MPD2    C4  401   0.934   1.276  11.063  0.8695  0.6088  0.5531
   26MPD2    C5  402   0.883   1.158  11.022  0.1897  0.1501 -0.3278
   26MPD2     H  403   0.672   1.481  11.036  0.5177  0.9812  1.4421
   26MPD2    H1  404   1.041   1.281  11.083  1.1069  0.9862 -0.8179
   26MPD2    H2  405   0.710   1.066  10.937 -0.6095  0.1060  1.2349
   26MPD2    H3  406   0.957   1.080  11.011 -0.4024 -0.4615  0.0044
   26MPD2     N  407   0.917   1.515  11.117 -0.1134  0.3188 -0.0396
   26MPD2    H5  408   0.863   1.600  11.108 -0.2319  0.0715 -1.6013
   26MPD2    N1  409   0.533   1.265  10.942  0.0146 -0.2585 -0.6182
   26MPD2    H7  410   0.492   1.173  10.931 -1.5357  0.1867  1.3938
   27TMC2    C1  411   4.578   3.960  11.874 -0.1045  0.0502  0.1288
   27TMC2    C2  412   4.653   3.958  11.759 -0.6939  0.6211 -0.1680
   27TMC2    C3  413   0.019   4.060  11.741 -0.1790  0.1827 -0.3474
   27TMC2    C4  414   4.586   4.061  11.967  0.8372  0.5296 -0.0486
   27TMC2    C5  415   4.678   4.168  11.938  0.1300 -0.0798 -0.3307
   27TMC2    C6  416   0.027   4.170  11.822  0.5359 -0.5628 -0.1833
   27TMC2     C  417   4.501   3.842  11.900  0.0143 -0.8787 -0.3170
   27TMC2     O  418   4.553   3.729  11.881  0.3269 -0.3343  0.3461
   27TMC2     H  419   4.654   3.882  11.681 -1.5995  0.5242 -0.0823
   27TMC2    H1  420   4.514   4.057  12.048 -1.4798  0.8070 -2.0803
   27TMC2    H2  421   0.107   4.241  11.802 -1.0136  1.0177 -0.7444
   27TMC2    C7  422   4.690   4.274  12.030 -1.0776  0.4094 -0.1381
   27TMC2    C8  423   0.043   4.079  11.598  1.0189  0.4939  0.3755
   27TMC2    O1  424   0.042   4.367  12.003  0.3288  0.4858  0.1656
   27TMC2    O2  425   0.057   3.982  11.521  0.2718 -0.1079 -0.0944
   27TMC2    O5  426   4.712   4.197  11.559  0.0322 -0.3254  0.0227
   27TMC2    H5  427   4.701   4.267  11.627  1.4843 -1.1347  1.0849
   28MPD2     C  428   4.172   3.628  12.235  0.3638  0.5541 -0.1852
   28MPD2    C1  429   4.137   3.764  12.221 -0.0276  0.2299 -0.0746
   28MPD2    C2  430   4.200   3.830  12.119 -1.2706 -0.1859  0.0235
   28MPD2    C3  431   4.305   3.781  12.043 -0.0751  0.1496 -0.2164
   28MPD2    C4  432   4.343   3.656  12.071 -0.6098 -0.7219 -0.3460
   28MPD2    C5  433   4.278   3.588  12.161  0.2887  0.1407  0.6771
   28MPD2     H  434   4.173   3.933  12.100 -0.8442  0.0922  0.8956
   28MPD2    H1  435   4.431   3.612  12.025 -0.0876  1.3023 -1.2872
   28MPD2    H2  436   4.120   3.560  12.301  0.6653 -0.2552 -0.7746
   28MPD2    H3  437   4.301   3.484  12.180 -0.4479  0.0673  1.1520
   28MPD2     N  438   4.384   3.869  11.961  0.1657  0.1953  1.3027
   28MPD2    H5  439   4.349   3.962  11.941 -1.7053 -1.0381 -1.2078
   28MPD2    N1  440   4.047   3.817  12.314  0.1933  0.0881 -0.0951
   28MPD2    H7  441   4.018   3.755  12.390 -0.6362  0.1169 -0.3836
   29MPD2     C  442   3.425   1.291  13.887 -0.4423  0.3664 -0.4977
   29MPD2    C1  443   3.556   1.310  13.918 -0.3687  0.8511  0.9549
   29MPD2    C2  444   3.598   1.444  13.928 -0.2431 -0.4299 -0.1777
   29MPD2    C3  445   3.517   1.551  13.911 -0.4299 -0.0699 -0.8454
   29MPD2    C4  446   3.388   1.528  13.892 -0.4047  0.6008  0.0508
   29MPD2    C5  447   3.347   1.400  13.864  0.0783  0.9038 -0.0153
   29MPD2     H  448   3.704   1.449  13.949 -0.1068 -0.2354 -0.9556
   29MPD2    H1  449   3.321   1.612  13.879 -0.0713  0.9440  0.5394
   29MPD2    H2  450   3.381   1.196  13.858 -0.5572  0.6039 -1.1152
   29MPD2    H3  451   3.248   1.370  13.831  0.6691  0.7969 -1.6945
   29MPD2     N  452   3.559   1.690  13.907 -0.1936 -0.4407  0.8937
   29MPD2    H5  453   3.483   1.757  13.920 -0.0671 -0.1249  0.0526
   29MPD2    N1  454   3.648   1.204  13.949 -0.0707 -0.5761  0.0143
   29MPD2    H7  455   3.743   1.231  13.974 -0.3312  1.1101 -0.8128
   30TCq2    C1  456   3.686   1.736  13.924 -0.0637 -0.2550  0.1783
   30TCq2    O2  457   3.785   1.662  13.934 -0.2528  0.0506 -0.0525
   30TCq2    C2  458   3.697   1.880  13.950 -0.0841  0.5050  0.1628
   30TCq2    C3  459   3.619   1.943  14.046 -0.1431 -0.4195 -0.3462
   30TCq2    C4  460   3.678   2.051  14.106  0.3292  0.0810  0.1755
   30TCq2    C5  461   3.798   2.106  14.062  0.1817 -0.1630  0.0808
   30TCq2    C6  462   3.863   2.039  13.957 -0.3126  0.1158 -0.3122
   30TCq2    C7  463   3.815   1.929  13.904 -0.3244  1.2416 -0.3149
   30TCq2    C8  464   3.975   2.095  13.882 -0.5678  0.0081  0.8412
   30TCq2    O4  465   3.971   2.077  13.760 -0.2819  0.0062  0.5434
   30TCq2    C9  466   3.629   2.110  14.226 -0.3499 -0.1381 -0.7233
   30TCq2    O5  467   3.565   2.031  14.294 -0.0565 -0.8153  0.2704
   30TCq2    O6  468   3.689   2.211  14.270 -0.1293 -0.0088  0.0143
   30TCq2    H2  469   3.525   1.903  14.081 -0.7886  0.5310 -0.9826
   30TCq2    H3  470   3.837   2.191  14.117 -3.3599  2.7906 -2.0079
   30TCq2    H4  471   3.861   1.881  13.818 -0.3647  0.6990 -0.0375
   31MPD2     C  472   1.699   0.638  14.499  0.3514  0.3702 -0.0784
   31MPD2    C1  473   1.611   0.739  14.526 -0.6313 -0.4514  0.0836
   31MPD2    C2  474   1.521   0.722  14.631  0.2186  0.1727 -0.8509
   31MPD2    C3  475   1.513   0.612  14.713 -0.0308 -0.0677 -0.8320
   31MPD2    C4  476   1.608   0.511  14.688  0.7977  0.3856  0.0405
   31MPD2    C5  477   1.692   0.529  14.575 -0.1097 -0.4610 -0.0952
   31MPD2     H  478   1.445   0.799  14.634  0.7786  0.6721  0.6989
   31MPD2    H1  479   1.621   0.414  14.734  0.7569  0.4551  0.1998
   31MPD2    H2  480   1.785   0.638  14.432 -0.1761  0.7568 -0.7507
   31MPD2    H3  481   1.761   0.448  14.554 -0.6061 -1.1810  1.0818
   31MPD2     N  482   1.423   0.598  14.822 -0.0353  0.0844  0.1209
   31MPD2    H5  483   1.442   0.520  14.883 -0.6529 -0.1095  0.0637
   31MPD2    N1  484   1.622   0.852  14.447 -0.4877 -0.0446 -0.6660
   31MPD2    H7  485   1.690   0.855  14.371  0.7773  2.6026  0.5769
   32TCq2    C1  486   1.325   0.689  14.853  0.6945  0.1249 -0.2293
   32TCq2    O2  487   1.294   0.786  14.789  0.1034 -0.0272 -0.5463
   32TCq2    C2  488   1.255   0.665  14.973  0.3510 -0.3449 -0.1684
   32TCq2    C3  489   1.130   0.720  14.984  0.5003  0.0440  0.6657
   32TCq2    C4  490   1.041   0.669  15.080 -0.0639  0.1204 -0.9026
   32TCq2    C5  491   1.080   0.573  15.165  0.4031  0.3351 -0.7002
   32TCq2    C6  492   1.213   0.524  15.161 -0.7827 -0.1491 -0.0581
   32TCq2    C7  493   1.298   0.570  15.063 -0.5673  1.2290  0.2966
   32TCq2    C8  494   1.279   0.463  15.270 -0.6146  0.4077 -0.4939
   32TCq2    O4  495   1.395   0.430  15.247 -0.8207  0.0957 -0.0274
   32TCq2    C9  496   0.908   0.734  15.087 -0.4149 -0.2890  0.0286
   32TCq2    O5  497   0.881   0.833  15.009 -0.4771 -0.2808 -0.3625
   32TCq2    O6  498   0.824   0.681  15.156 -0.7110 -0.0556 -0.0394
   32TCq2    H2  499   1.097   0.799  14.917 -2.7581 -2.0741 -0.1922
   32TCq2    H3  500   1.002   0.557  15.238  0.8743  1.3134  0.0258
   32TCq2    H4  501   1.397   0.527  15.051 -0.4799  1.3680  0.5119
   33MPD2     C  502   1.973   2.693  10.608  0.0979 -0.6654 -0.1083
   33MPD2    C1  503   1.905   2.613  10.529 -0.5659  0.0366 -0.2200
   33MPD2    C2  504   1.855   2.664  10.412  0.4267  0.4144  0.3202
   33MPD2    C3  505   1.884   2.788  10.362 -0.0830  0.1947  0.6637
   33MPD2    C4  506   1.965   2.861  10.435  0.6614 -0.7047  0.1181
   33MPD2    C5  507   2.017   2.814  10.560  0.0588 -0.1496  0.4406
   33MPD2     H  508   1.795   2.606  10.342 -0.3984  0.7391  0.7601
   33MPD2    H1  509   1.995   2.959  10.400  1.9824 -0.3572  2.1928
   33MPD2    H2  510   2.001   2.653  10.704  0.5437 -2.4450 -0.9849
   33MPD2    H3  511   2.094   2.867  10.615 -0.7041  1.9429 -0.5173
   33MPD2     N  512   1.847   2.844  10.239  0.9630 -0.4071  0.3626
   33MPD2    H5  513   1.893   2.928  10.205 -0.9340 -0.3970 -2.2273
   33MPD2    N1  514   1.878   2.474  10.555 -0.3223 -0.2924 -0.5736
   33MPD2    H7  515   1.817   2.429  10.487  0.1817 -2.3937  0.3359
   34TCq2    C1  516   1.751   2.795  10.160  0.0194  0.3358 -0.9152
   34TCq2    O2  517   1.662   2.710  10.180 -0.0982  0.0785  0.3363
   34TCq2    C2  518   1.730   2.883  10.047 -0.1078 -0.0741 -0.5076
   34TCq2    C3  519   1.602   2.925  10.038 -0.8990 -0.4172 -0.3205
   34TCq2    C4  520   1.577   3.037   9.962 -0.6736 -0.0366 -0.0815
   34TCq2    C5  521   1.674   3.110   9.904 -0.4649 -0.6208  0.3035
   34TCq2    C6  522   1.800   3.062   9.919  0.2114  0.9740 -0.5606
   34TCq2    C7  523   1.832   2.951   9.993  0.7177  0.6072 -0.1575
   34TCq2    C8  524   1.917   3.140   9.869 -0.5942 -0.0117  0.5507
   34TCq2    O4  525   2.030   3.090   9.868  0.2010  0.5925 -0.0371
   34TCq2    C9  526   1.437   3.078   9.953 -0.5863 -0.8817 -0.6794
   34TCq2    O5  527   1.407   3.170   9.873  0.0233  0.4674  0.0509
   34TCq2    O6  528   1.350   3.025  10.035 -0.2356  0.3774  0.0742
   34TCq2    H2  529   1.518   2.879  10.088 -0.4028 -0.9744 -0.0007
   34TCq2    H3  530   1.644   3.193   9.841 -1.4764 -0.9792  0.2996
   34TCq2    H4  531   1.937   2.935  10.017  0.9723  2.4744 -0.0879
   35MPD2     C  532   3.718   4.574  11.897  0.0840 -1.0784  0.3974
   35MPD2    C1  533   3.672   4.462  11.959 -0.2086  0.5295 -0.1703
   35MPD2    C2  534   3.585   4.386  11.890  0.1565  0.4887 -0.5918
   35MPD2    C3  535   3.538   4.415  11.763 -0.1728 -0.0661 -0.3890
   35MPD2    C4  536   3.590   4.528  11.696  0.3092  0.1377  0.6507
   35MPD2    C5  537   3.686   4.600  11.764 -0.3528  0.2424  0.3952
   35MPD2     H  538   3.547   4.294  11.931 -0.3729  0.6695 -0.6858
   35MPD2    H1  539   3.572   4.556  11.593 -0.9854  1.5202  1.2627
   35MPD2    H2  540   3.797   4.631  11.942 -1.2406 -0.2465  1.6648
   35MPD2    H3  541   3.735   4.683  11.713 -0.2865 -0.7818 -1.2155
   35MPD2     N  542   3.442   4.331  11.712  0.4692  0.0702 -0.3321
   35MPD2    H5  543   3.384   4.278  11.776 -2.5167  2.0781 -1.3535
   35MPD2    N1  544   3.699   4.446  12.099 -0.1046 -0.0653 -0.7730
   35MPD2    H7  545   3.747   4.519  12.152 -1.7775 -0.7099  1.6367
   36TCq2    C1  546   3.382   4.336  11.588  0.1944  0.4002 -0.0609
   36TCq2    O2  547   3.408   4.408  11.495 -0.1101 -0.5766  0.4788
   36TCq2    C2  548   3.248   4.284  11.592  0.2049 -0.4544 -0.1239
   36TCq2    C3  549   3.157   4.365  11.543 -0.0543  0.1028 -0.4312
   36TCq2    C4  550   3.027   4.317  11.527  0.3951  0.0679 -0.1888
   36TCq2    C5  551   2.999   4.189  11.562 -0.1176  0.1700  0.1930
   36TCq2    C6  552   3.094   4.108  11.615 -0.3468 -0.3875 -0.3007
   36TCq2    C7  553   3.224   4.149  11.620 -0.4676 -0.2023  0.2432
   36TCq2    C8  554   3.051   3.981  11.679  0.0073  0.4425  0.3071
   36TCq2    O4  555   2.927   3.964  11.677 -0.5563 -0.3003 -0.4917
   36TCq2    C9  556   2.913   4.404  11.485  0.2015  0.2970 -1.2184
   36TCq2    O5  557   2.938   4.528  11.469 -0.6555  0.1409  0.6324
   36TCq2    O6  558   2.802   4.348  11.457 -0.1990 -0.1524  0.0698
   36TCq2    H2  559   3.178   4.468  11.515  1.9320 -0.4978 -1.1369
   36TCq2    H3  560   2.897   4.154  11.557  0.3335 -1.3520  1.3802
   36TCq2    H4  561   3.310   4.090  11.652  0.4638  0.1977 -1.4938
   37TMC2    C1  562   0.769   0.260  11.487 -0.2791 -0.6969  0.1338
   37TMC2    C2  563   0.743   0.259  11.354 -0.4206 -0.0596  0.5251
   37TMC2    C3  564   0.849   0.280  11.271  0.2429  0.0910 -0.4409
   37TMC2    C4  565   0.887   0.302  11.534  0.3387 -0.7012 -0.1010
   37TMC2    C5  566   0.991   0.341  11.455  0.5133 -0.3215  0.4893
   37TMC2    C6  567   0.970   0.329  11.316 -0.2947  0.3916 -0.0513
   37TMC2     C  568   0.668   0.198  11.573  0.6534  0.3025 -0.2985
   37TMC2     O  569   0.553   0.204  11.537 -0.2960  0.0493 -0.0867
   37TMC2     H  570   0.650   0.212  11.323  0.7706 -3.6039  2.3451
   37TMC2    H1  571   0.902   0.302  11.642 -1.2486 -0.8789  0.1215
   37TMC2    H2  572   1.053   0.345  11.248 -0.4597 -1.7630 -0.7644
   37TMC2    C7  573   1.123   0.333  11.511  0.1374 -0.0943  1.0068
   37TMC2    C8  574   0.820   0.258  11.127  0.0826 -0.1489 -0.6591
   37TMC2    O1  575   1.139   0.280  11.621  0.2458 -0.4923 -0.1380
   37TMC2    O2  576   0.899   0.209  11.047  0.0325 -0.6009 -0.1968
   37TMC2    O5  577   0.726   0.351  11.090  0.3409 -0.0564 -0.4966
   37TMC2    H5  578   0.674   0.370  11.172  0.4040  1.9322 -0.9225
   38MPD2     C  579   0.551   4.650  12.000  0.7499 -0.0480 -0.3213
   38MPD2    C1  580   0.680   4.610  11.961  0.3868 -0.1006 -0.0845
   38MPD2    C2  581   0.733   4.673  11.844 -0.0508 -0.8106 -0.0465
   38MPD2    C3  582   0.663   0.046  11.773 -0.4995  0.7218 -0.5257
   38MPD2    C4  583   0.536   0.074  11.810  0.2028 -0.5359 -0.0423
   38MPD2    C5  584   0.475   0.014  11.924 -0.0463 -0.0494 -0.3104
   38MPD2     H  585   0.831   4.641  11.811  0.4066  0.7674 -0.2466
   38MPD2    H1  586   0.472   0.141  11.753  0.9591 -0.5276 -0.8988
   38MPD2    H2  587   0.509   4.598  12.085 -0.2443  0.3335 -0.5849
   38MPD2    H3  588   0.370   0.030  11.945 -0.2851 -0.8034 -0.9210
   38MPD2     N  589   0.729   0.113  11.667 -0.2239  0.8713  0.0844
   38MPD2    H5  590   0.830   0.101  11.660 -0.4963 -0.6284 -1.4521
   38MPD2    N1  591   0.771   4.529  12.046 -0.7302 -0.1836 -0.4846
   38MPD2    H7  592   0.863   4.528  12.003 -0.9846  0.3897 -1.0375
   39MPD2     C  593   3.674   1.708   1.227  0.1503  0.4823  0.1138
   39MPD2    C1  594   3.594   1.820   1.249 -0.5839 -0.1379  0.8146
   39MPD2    C2  595   3.453   1.803   1.227 -0.5730 -0.1551 -1.0369
   39MPD2    C3  596   3.397   1.678   1.189 -0.1688  0.2893  0.2282
   39MPD2    C4  597   3.482   1.571   1.174  0.9272 -0.7269  0.3257
   39MPD2    C5  598   3.616   1.586   1.194  0.1744  0.0110 -0.3065
   39MPD2     H  599   3.401   1.898   1.223  1.3718  0.9030 -1.3323
   39MPD2    H1  600   3.438   1.478   1.140 -0.7655  0.2550 -0.2033
   39MPD2    H2  601   3.782   1.711   1.239  0.2830  4.2193 -2.1641
   39MPD2    H3  602   3.683   1.510   1.155  1.2347  0.2942  0.9493
   39MPD2     N  603   3.260   1.651   1.176 -0.1571 -0.2919 -0.7805
   39MPD2    H5  604   3.239   1.555   1.151 -0.3870 -0.3477 -0.3665
   39MPD2    N1  605   3.659   1.934   1.293  0.0378  0.2575  0.3343
   39MPD2    H7  606   3.756   1.933   1.322 -0.5721  1.3222  2.3801
   40TCq2    C1  607   3.597   2.058   1.292 -0.4787  0.1578  0.2420
   40TCq2    O2  608   3.482   2.091   1.266 -0.3519 -0.0808 -0.1801
   40TCq2    C2  609   3.682   2.176   1.336 -0.1302 -0.2546 -0.1006
   40TCq2    C3  610   3.635   2.301   1.303  0.5174  0.0031  0.2651
   40TCq2    C4  611   3.686   2.404   1.379 -0.6217 -0.4971 -0.2587
   40TCq2    C5  612   3.790   2.399   1.470 -0.7025 -0.3583 -0.7410
   40TCq2    C6  613   3.827   2.266   1.499 -0.6250  0.1485 -0.1349
   40TCq2    C7  614   3.777   2.155   1.435  0.4153  0.1628 -0.1549
   40TCq2    C8  615   3.925   2.241   1.609 -0.6921 -0.3329  0.2265
   40TCq2    O4  616   3.924   2.125   1.653  0.0566  0.8512 -0.6000
   40TCq2    C9  617   3.613   2.530   1.363 -0.2936 -0.4567 -0.2922
   40TCq2    O5  618   3.526   2.534   1.272  0.2828  0.2998 -0.3423
   40TCq2    O6  619   3.621   2.612   1.458 -0.1213 -0.5851 -0.1502
   40TCq2    H2  620   3.544   2.309   1.245  0.0897 -1.9275  0.6382
   40TCq2    H3  621   3.814   2.489   1.526  0.8605  1.4623 -4.3298
   40TCq2    H4  622   3.819   2.060   1.464  0.2665  0.6661  1.7339
   41TMC2    C1  623   2.596   4.280  13.538 -0.1728 -0.1372 -0.5974
   41TMC2    C2  624   2.698   4.369  13.564  0.6493 -0.3863 -0.0804
   41TMC2    C3  625   2.734   4.442  13.452 -0.2217 -0.1657  0.4764
   41TMC2    C4  626   2.540   4.266  13.417  0.4249  0.1738  0.0524
   41TMC2    C5  627   2.606   4.324  13.309 -0.4253  0.4039 -0.6300
   41TMC2    C6  628   2.699   4.421  13.325  0.0115 -0.5711  0.1155
   41TMC2     C  629   2.535   4.210  13.652 -0.5542  0.0832  0.0335
   41TMC2     O  630   2.413   4.183  13.635  0.9184 -0.1013  0.6331
   41TMC2     H  631   2.741   4.392  13.661 -0.1653  0.1874  0.1501
   41TMC2    H1  632   2.445   4.214  13.407 -0.2193  1.2384  0.6466
   41TMC2    H2  633   2.750   4.465  13.240 -1.3352 -1.0414 -0.9311
   41TMC2    C7  634   2.552   4.288  13.182  0.3316 -0.2527 -0.3505
   41TMC2    C8  635   2.829   4.553  13.479  0.6201 -0.3266 -0.8127
   41TMC2    O1  636   2.463   4.203  13.184 -0.4016 -0.8163 -0.2730
   41TMC2    O2  637   2.889   4.558  13.587  0.1585 -0.1410 -0.1953
   41TMC2    O5  638   2.790   4.657  13.400 -0.4451 -0.0815 -0.0490
   41TMC2    H5  639   2.734   4.643  13.321  1.4176  0.8303 -1.5237
   42MPD2     C  640   2.470   4.065  13.889  0.4284  0.3594  0.3164
   42MPD2    C1  641   2.584   4.143  13.880  0.0831  0.4156 -1.0790
   42MPD2    C2  642   2.666   4.141  13.994 -0.2296  0.2601 -0.1160
   42MPD2    C3  643   2.638   4.084  14.111  0.6497  0.0048  0.3083
   42MPD2    C4  644   2.530   4.003  14.113 -0.5012  0.3033 -0.5782
   42MPD2    C5  645   2.445   3.997  14.007  0.1935  0.4098 -0.1559
   42MPD2     H  646   2.766   4.181  13.978 -0.3566  0.7181  0.2204
   42MPD2    H1  647   2.500   3.960  14.207  1.2334 -0.2455 -0.2772
   42MPD2    H2  648   2.391   4.044  13.818  0.6240  1.6716 -0.2838
   42MPD2    H3  649   2.351   3.944  14.016  1.2427 -1.4606 -0.2016
   42MPD2     N  650   2.716   4.087  14.229  0.7384  0.2710  0.5818
   42MPD2    H5  651   2.689   4.034  14.311 -2.4465 -2.1261 -2.0356
   42MPD2    N1  652   2.616   4.200  13.758 -0.3069 -0.3358 -0.5774
   42MPD2    H7  653   2.712   4.231  13.746 -0.4246  0.2908  0.0783
   43MPD2     C  654   4.254   2.525   0.348  0.5301  0.0753  0.5417
   43MPD2    C1  655   4.343   2.534   0.455  0.0466  0.0226 -1.1330
   43MPD2    C2  656   4.322   2.635   0.548  0.3764 -0.2210  0.4816
   43MPD2    C3  657   4.214   2.719   0.538 -1.3234  0.4606 -0.5594
   43MPD2    C4  658   4.112   2.691   0.445 -0.0598 -0.3582 -0.3741
   43MPD2    C5  659   4.132   2.597   0.349  0.0738 -0.0880 -0.3115
   43MPD2     H  660   4.399   2.631   0.625  0.4993  0.5628  0.3952
   43MPD2    H1  661   4.015   2.740   0.448  0.5838  1.0607 -3.1653
   43MPD2    H2  662   4.252   2.459   0.261 -0.7471  0.1137  0.5286
   43MPD2    H3  663   4.051   2.567   0.283  1.8221 -2.7031 -1.2544
   43MPD2     N  664   4.203   2.834   0.621  0.6662 -0.1013 -0.4912
   43MPD2    H5  665   4.121   2.895   0.616  1.6364  1.3753  1.4790
   43MPD2    N1  666   4.462   2.460   0.459 -0.5192 -0.3059  0.0587
   43MPD2    H7  667   4.520   2.475   0.541 -0.9169 -0.8722  0.4542
   44TCq2    C1  668   4.451   3.248   0.972 -0.3246 -0.4330 -0.2166
   44TCq2    O2  669   4.506   3.358   0.951 -0.2680 -0.3042  0.8607
   44TCq2    C2  670   4.366   3.198   0.871  0.1290  0.1218 -0.2223
   44TCq2    C3  671   4.326   3.278   0.761  0.0638  0.2818  0.1515
   44TCq2    C4  672   4.269   3.236   0.647 -0.5440 -0.2508 -0.5217
   44TCq2    C5  673   4.254   3.105   0.636 -0.7250  0.3063  0.2700
   44TCq2    C6  674   4.284   3.027   0.743 -0.0616 -0.2340  0.3643
   44TCq2    C7  675   4.348   3.064   0.859 -0.3010  0.2266 -0.3798
   44TCq2    C8  676   4.295   2.885   0.706 -0.3554  0.2082 -0.9842
   44TCq2    O4  677   4.390   2.826   0.749 -0.0083  0.3947 -0.0572
   44TCq2    C9  678   4.219   3.330   0.547 -0.0396 -0.0087  0.1157
   44TCq2    O5  679   4.221   3.454   0.572 -0.0042 -0.4596  0.7090
   44TCq2    O6  680   4.186   3.283   0.432  0.5557  0.0918  0.1263
   44TCq2    H2  681   4.349   3.384   0.764  0.7979  0.0966  0.9959
   44TCq2    H3  682   4.227   3.057   0.543 -0.5252  0.8015 -0.0411
   44TCq2    H4  683   4.403   2.988   0.913  1.3230 -1.1672 -3.9887
   45TMC2    C1  684   3.922   0.770   8.742 -0.2175  0.5541  0.0716
   45TMC2    C2  685   3.807   0.792   8.820  0.7465  0.1872 -0.0600
   45TMC2    C3  686   3.829   0.884   8.930  0.5372  0.3145  0.0134
   45TMC2    C4  687   4.038   0.840   8.769  0.0047 -0.5575  0.0678
   45TMC2    C5  688   4.050   0.937   8.863 -0.4851 -0.3459  0.0234
   45TMC2    C6  689   3.946   0.955   8.951  0.2181  0.2594 -0.1373
   45TMC2     C  690   3.945   0.637   8.686  0.1253  0.2968  0.2760
   45TMC2     O  691   4.046   0.608   8.622 -0.0427  0.0648 -0.4396
   45TMC2     H  692   3.714   0.741   8.802 -0.4745  2.7777 -1.1318
   45TMC2    H1  693   4.127   0.819   8.711 -0.4513  0.4294 -0.9928
   45TMC2    H2  694   3.957   1.030   9.029 -0.9164  1.3942 -1.0631
   45TMC2    C7  695   4.183   0.982   8.891 -0.7839 -0.0921 -0.2153
   45TMC2    C8  696   3.710   0.923   8.993  0.6876 -0.2303  0.1404
   45TMC2    O1  697   4.262   0.987   8.799  0.4579 -0.2756 -0.0782
   45TMC2    O2  698   3.606   0.863   8.967 -0.0871 -0.3858 -0.4546
   45TMC2    O5  699   3.712   1.033   9.073 -0.7080  0.0457  0.2954
   45TMC2    H5  700   3.805   1.060   9.085 -0.9750  0.1335  2.1880
   46MPD2     C  701   3.965   0.341   8.613 -0.7043  0.5440  0.3103
   46MPD2    C1  702   3.887   0.401   8.715 -0.3064 -0.6166 -0.6228
   46MPD2    C2  703   3.811   0.312   8.792 -0.5217 -0.3526  0.0305
   46MPD2    C3  704   3.823   0.176   8.787 -0.3346 -0.0669 -0.5896
   46MPD2    C4  705   3.899   0.128   8.685 -0.0587 -0.0054  0.4479
   46MPD2    C5  706   3.973   0.209   8.601 -0.0493  0.1297  0.5233
   46MPD2     H  707   3.742   0.356   8.863 -0.0504 -0.4870  0.5733
   46MPD2    H1  708   3.903   0.021   8.666  0.8691  0.2684 -0.8924
   46MPD2    H2  709   4.007   0.410   8.541 -1.8905 -0.1836 -1.0661
   46MPD2    H3  710   4.004   0.174   8.503 -2.7888  0.0119 -0.2916
   46MPD2     N  711   3.759   0.094   8.881  0.7780  0.4071  0.0971
   46MPD2    H5  712   3.683   0.134   8.935  0.6686  0.8330 -0.3749
   46MPD2    N1  713   3.865   0.534   8.740  0.2909 -0.3073  0.1932
   46MPD2    H7  714   3.804   0.555   8.819  0.8141  1.5620  0.0906
   47TMC2    C1  715   2.114   4.613   9.467 -0.1318  0.3201  0.5418
   47TMC2    C2  716   2.140   4.476   9.446 -0.4720  0.0760 -0.0236
   47TMC2    C3  717   2.031   4.390   9.445  0.2693  0.0944  0.1277
   47TMC2    C4  718   1.986   4.665   9.482 -0.2143 -0.5829  0.1263
   47TMC2    C5  719   1.883   4.579   9.475 -0.2530  0.2261  0.2567
   47TMC2    C6  720   1.905   4.444   9.454  0.1115  0.0405 -0.2782
   47TMC2     C  721   2.223   4.706   9.493 -1.1493 -0.4934 -0.4097
   47TMC2     O  722   2.196   0.097   9.523  0.2652  0.1677 -0.2910
   47TMC2     H  723   2.236   4.427   9.435  0.3564  1.7819 -0.5017
   47TMC2    H1  724   1.971   0.044   9.513  2.7332  0.1957 -1.0897
   47TMC2    H2  725   1.821   4.375   9.457  1.8482 -2.0363  0.1897
   47TMC2    C7  726   1.756   4.640   9.438  0.1486  0.9804 -0.2834
   47TMC2    C8  727   2.050   4.258   9.399 -0.0522  0.2265  0.4312
   47TMC2    O1  728   1.742   0.036   9.451 -0.1853  0.1427  0.7668
   47TMC2    O2  729   1.948   4.191   9.377  0.1510  0.5276 -0.1210
   47TMC2    O5  730   2.165   4.208   9.437 -0.3097  0.0215  0.3875
   47TMC2    H5  731   2.205   4.274   9.499 -0.2568  1.7547 -1.4815
   48MPD2     C  732   2.473   0.086   9.603  0.0010 -0.1848 -0.2174
   48MPD2    C1  733   2.465   4.686   9.546 -0.0485 -0.8331  0.4269
   48MPD2    C2  734   2.580   4.604   9.540  0.4520 -0.2918 -0.1314
   48MPD2    C3  735   2.697   4.641   9.599  0.4318 -0.2365 -0.7641
   48MPD2    C4  736   2.698   0.037   9.669 -0.5619 -0.7509  0.2272
   48MPD2    C5  737   2.589   0.119   9.672  0.3560 -0.6802  0.6114
   48MPD2     H  738   2.575   4.506   9.495 -0.5403 -0.0090 -0.6287
   48MPD2    H1  739   2.773   0.073   9.739 -0.2611  0.5022 -0.7334
   48MPD2    H2  740   2.396   0.162   9.606  0.2490  0.0279  0.7745
   48MPD2    H3  741   2.591   0.208   9.733  0.6690 -1.4962  1.7858
   48MPD2     N  742   2.806   4.548   9.599 -0.5317  0.2046  0.1648
   48MPD2    H5  743   2.810   4.459   9.550 -0.3941 -0.9108  2.2121
   48MPD2    N1  744   2.347   4.637   9.488 -0.2445  0.3046  0.1212
   48MPD2    H7  745   2.349   4.543   9.451 -0.1602  0.0493  0.7730
   49MPD2     C  746   0.483   2.719   9.803  0.0911  0.0599  0.0042
   49MPD2    C1  747   0.433   2.679   9.927  0.0621  0.3236  0.3746
   49MPD2    C2  748   0.507   2.715  10.043 -0.1810 -0.5203  0.0972
   49MPD2    C3  749   0.619   2.799  10.033 -0.3666 -0.3702 -1.1511
   49MPD2    C4  750   0.661   2.841   9.911  0.0447  0.9488  0.4857
   49MPD2    C5  751   0.591   2.807   9.802 -0.2474 -0.2930  0.6840
   49MPD2     H  752   0.461   2.671  10.130  0.6826  3.5812  2.6367
   49MPD2    H1  753   0.744   2.908   9.895  1.4991 -0.6604  1.3491
   49MPD2    H2  754   0.430   2.697   9.710 -1.4567 -0.0608  0.9178
   49MPD2    H3  755   0.622   2.841   9.704  0.8835  1.2140  1.5631
   49MPD2     N  756   0.692   2.841  10.149  0.3788 -0.5590 -0.1751
   49MPD2    H5  757   0.764   2.912  10.136  1.3174 -1.5273 -0.3244
   49MPD2    N1  758   0.323   2.590   9.947  0.2802 -0.5232 -0.0334
   49MPD2    H7  759   0.312   2.555  10.041 -0.5743 -2.2813 -0.7814
   50TCq2    C1  760   0.238   2.547   9.849  0.2514 -0.0557 -0.2265
   50TCq2    O2  761   0.239   2.579   9.730  0.6395 -0.2396 -0.0092
   50TCq2    C2  762   0.151   2.439   9.884  0.6054  1.1523  0.3378
   50TCq2    C3  763   0.042   2.418   9.806 -0.6037  0.1590  0.4021
   50TCq2    C4  764   4.695   2.305   9.835  0.6796 -1.1214  0.8278
   50TCq2    C5  765   4.715   2.227   9.949 -0.0149 -0.1395  0.0671
   50TCq2    C6  766   0.091   2.266  10.029 -0.0783 -0.3253  0.0048
   50TCq2    C7  767   0.175   2.370   9.998  0.0888 -0.4755 -0.1543
   50TCq2    C8  768   0.133   2.174  10.131 -0.1199 -0.4672  0.0492
   50TCq2    O4  769   0.093   2.058  10.130 -0.0910 -0.3075  0.1920
   50TCq2    C9  770   4.588   2.272   9.752  0.5298  0.0964  0.0556
   50TCq2    O5  771   4.567   2.354   9.661  0.1073  0.4095 -0.5053
   50TCq2    O6  772   4.542   2.160   9.755 -0.1681  0.0825 -0.8472
   50TCq2    H2  773   0.034   2.476   9.715 -1.3364 -2.5959 -1.2791
   50TCq2    H3  774   4.643   2.149   9.970 -2.2805  1.7438 -0.6621
   50TCq2    H4  775   0.263   2.395  10.055  0.4107  0.2689 -0.9765
   51MPD2     C  776   0.993   2.082   0.383  0.2234 -0.1015  0.1066
   51MPD2    C1  777   0.913   1.998   0.458 -0.3026  0.5296 -0.4396
   51MPD2    C2  778   0.834   2.059   0.559  0.2314  0.8464  0.3901
   51MPD2    C3  779   0.844   2.196   0.592  0.0330  0.0835 -0.4506
   51MPD2    C4  780   0.918   2.278   0.507  1.2511  0.2073  0.2256
   51MPD2    C5  781   0.981   2.222   0.401 -1.0509  0.0767  0.2540
   51MPD2     H  782   0.761   1.999   0.612 -1.7908  1.7864 -1.3100
   51MPD2    H1  783   0.925   2.385   0.521  0.5508  0.2867 -0.0373
   51MPD2    H2  784   1.048   2.042   0.298 -0.1016 -0.3785  0.0281
   51MPD2    H3  785   1.034   2.282   0.328 -1.3442 -0.1147 -0.1124
   51MPD2     N  786   0.787   2.261   0.704 -0.5367 -0.2031  0.0132
   51MPD2    H5  787   0.804   2.361   0.706  1.5556 -0.5730  1.3964
   51MPD2    N1  788   0.910   1.855   0.437 -0.7180 -0.2290 -0.1316
   51MPD2    H7  789   0.830   1.805   0.474 -0.4905 -0.7348 -0.3272
   52TCq2    C1  790   0.722   2.194   0.801  0.7499  0.1039 -0.1149
   52TCq2    O2  791   0.726   2.078   0.828 -0.2799 -0.0852 -0.0767
   52TCq2    C2  792   0.685   2.289   0.901  0.3046  1.4480  0.1400
   52TCq2    C3  793   0.644   2.413   0.873  0.2485  0.3834  0.1108
   52TCq2    C4  794   0.614   2.502   0.975  0.2610 -0.1943  0.0177
   52TCq2    C5  795   0.631   2.464   1.105  0.4294 -0.1325  0.3060
   52TCq2    C6  796   0.696   2.346   1.128 -0.2800 -0.1127  0.0447
   52TCq2    C7  797   0.723   2.255   1.027  0.7696 -0.4452 -0.3394
   52TCq2    C8  798   0.774   2.324   1.246  0.0587  0.5580  0.6858
   52TCq2    O4  799   0.877   2.265   1.242 -0.0063 -0.0209 -0.1001
   52TCq2    C9  800   0.561   2.633   0.937 -0.0300 -0.3977  0.1896
   52TCq2    O5  801   0.505   2.709   1.023 -0.0811  0.3800  0.3759
   52TCq2    O6  802   0.564   2.660   0.813 -0.6030 -0.5209 -0.3072
   52TCq2    H2  803   0.603   2.436   0.775 -3.2052  0.5162  1.5913
   52TCq2    H3  804   0.617   2.545   1.176  0.1860  0.3849 -0.3334
   52TCq2    H4  805   0.778   2.162   1.037 -0.4416 -1.0704  0.4954
   53TMC2    C1  806   1.752   0.194  11.862  0.2075  0.0556  0.1455
   53TMC2    C2  807   1.878   0.211  11.924 -0.0295  0.8077  0.3769
   53TMC2    C3  808   1.882   0.168  12.051  0.4880  0.9771 -0.3079
   53TMC2    C4  809   1.643   0.138  11.917 -0.4591  0.7496  0.8891
   53TMC2    C5  810   1.657   0.102  12.049  0.1985 -0.0352 -0.6429
   53TMC2    C6  811   1.774   0.110  12.119 -0.9882  0.1007  0.6940
   53TMC2     C  812   1.732   0.274  11.740  0.1853  0.0363  0.2391
   53TMC2     O  813   1.828   0.325  11.689 -0.0571  0.2431  0.3383
   53TMC2     H  814   1.953   0.276  11.881  0.7356  0.3644  1.0372
   53TMC2    H1  815   1.548   0.122  11.867 -1.1008  2.9029  1.4110
   53TMC2    H2  816   1.782   0.083  12.224 -0.5624  2.4144  1.2649
   53TMC2    C7  817   1.529   0.096  12.114 -0.1839  0.3898 -0.0182
   53TMC2    C8  818   1.993   0.200  12.133  0.2393  0.0851  0.4785
   53TMC2    O1  819   1.428   0.074  12.049  0.0077 -0.4983  0.1855
   53TMC2    O2  820   1.977   0.276  12.227  0.2861 -0.0259 -0.2405
   53TMC2    O5  821   2.098   0.210  12.051  0.4173 -0.0069 -0.0373
   53TMC2    H5  822   2.099   0.147  11.976 -0.4768  1.3155 -1.1577
   54MPD2     C  823   1.607   0.488  11.561 -0.0155  0.1023  0.1967
   54MPD2    C1  824   1.542   0.378  11.611  0.1522 -0.2936  0.1398
   54MPD2    C2  825   1.413   0.361  11.577  0.0901  0.5122 -0.7988
   54MPD2    C3  826   1.354   0.432  11.481  0.3377  0.4067  0.5361
   54MPD2    C4  827   1.415   0.548  11.435 -0.5581  0.0853  0.0713
   54MPD2    C5  828   1.540   0.577  11.475 -0.1131 -0.3903  0.3405
   54MPD2     H  829   1.367   0.268  11.607 -0.1169  0.6328 -0.7386
   54MPD2    H1  830   1.367   0.613  11.362 -0.4779 -1.0058 -0.9627
   54MPD2    H2  831   1.709   0.513  11.588 -0.8372  1.8476  1.6889
   54MPD2    H3  832   1.586   0.671  11.448  1.0360 -0.8134  0.7905
   54MPD2     N  833   1.216   0.406  11.439 -0.1358 -0.0346  0.7319
   54MPD2    H5  834   1.179   0.464  11.364  0.8830 -0.5510 -0.1652
   54MPD2    N1  835   1.601   0.280  11.699  0.0100 -0.1893 -0.1226
   54MPD2    H7  836   1.542   0.201  11.721 -2.6467  2.2062  1.4071
   55MPD2     C  837   2.212   1.760   0.393  0.2316  0.0024  0.2816
   55MPD2    C1  838   2.141   1.802   0.506 -0.6355 -0.2588  0.7143
   55MPD2    C2  839   2.076   1.922   0.516 -0.3934  0.6863  0.0695
   55MPD2    C3  840   2.104   2.016   0.415 -0.5447  1.1706  0.2925
   55MPD2    C4  841   2.172   1.980   0.303 -0.2267  0.6548 -0.7727
   55MPD2    C5  842   2.220   1.849   0.294  0.0046  0.3584 -0.2653
   55MPD2     H  843   2.016   1.961   0.598 -1.5945 -1.8693  0.3968
   55MPD2    H1  844   2.192   2.047   0.220 -0.3644  1.5333 -0.1020
   55MPD2    H2  845   2.265   1.666   0.385  0.3038  0.0405  0.3210
   55MPD2    H3  846   2.280   1.812   0.211  1.7303 -0.7163  1.4613
   55MPD2     N  847   2.044   2.147   0.431 -0.1516 -0.3302 -0.5464
   55MPD2    H5  848   1.991   2.163   0.516 -1.1176 -1.5414 -0.9238
   55MPD2    N1  849   2.137   1.702   0.604 -0.0979 -0.3930 -0.5534
   55MPD2    H7  850   2.182   1.614   0.580 -0.4334 -0.6656 -0.1911
   56TCq2    C1  851   2.073   1.706   0.725 -1.0828  0.3391 -0.0761
   56TCq2    O2  852   2.014   1.801   0.775 -0.4937 -0.4554  0.1784
   56TCq2    C2  853   2.091   1.591   0.801  0.1235  1.0740  0.9163
   56TCq2    C3  854   2.166   1.486   0.764 -0.0176  0.9108  0.3631
   56TCq2    C4  855   2.171   1.373   0.849 -0.0088  0.4936  0.9321
   56TCq2    C5  856   2.092   1.364   0.959  1.0880  0.1026  0.4118
   56TCq2    C6  857   2.022   1.478   0.995 -0.3149 -1.0820  0.3849
   56TCq2    C7  858   2.022   1.591   0.921 -0.3586 -0.0784 -0.0757
   56TCq2    C8  859   1.952   1.472   1.116  0.0902  0.9729  0.0949
   56TCq2    O4  860   1.952   1.360   1.164 -0.8748  0.0013  0.1905
   56TCq2    C9  861   2.244   1.260   0.806  0.0269 -0.2084  0.9016
   56TCq2    O5  862   2.243   1.164   0.883  0.3923  0.1609 -0.4177
   56TCq2    O6  863   2.304   1.266   0.699 -0.6734  0.2852 -0.2480
   56TCq2    H2  864   2.208   1.475   0.665 -1.9642  1.8643 -0.5734
   56TCq2    H3  865   2.107   1.277   1.023  1.0533  0.5144  0.9819
   56TCq2    H4  866   1.949   1.669   0.942 -1.0861 -1.0175  0.8844
   57TMC2    C1  867   1.256   3.860  13.713 -0.4036  0.2236 -0.1385
   57TMC2    C2  868   1.329   3.764  13.782  0.5759  0.8179 -0.1542
   57TMC2    C3  869   1.437   3.717  13.716  0.6754 -0.6513 -0.4043
   57TMC2    C4  870   1.303   3.916  13.598 -0.8111 -0.3194 -0.4197
   57TMC2    C5  871   1.415   3.862  13.544 -0.1207 -0.2323 -0.1292
   57TMC2    C6  872   1.478   3.751  13.593  0.7454 -0.0900 -0.3911
   57TMC2     C  873   1.135   3.910  13.776 -0.1319  0.2608  0.4663
   57TMC2     O  874   1.089   3.836  13.860  0.2633 -0.3597  0.3161
   57TMC2     H  875   1.304   3.725  13.880  1.9079 -6.2017 -2.6285
   57TMC2    H1  876   1.241   3.986  13.544 -0.3807 -0.7781 -1.5028
   57TMC2    H2  877   1.575   3.727  13.551  1.7226  2.2844  0.5315
   57TMC2    C7  878   1.455   3.906  13.406 -0.1477  0.6869 -0.3310
   57TMC2    C8  879   1.529   3.620  13.789 -0.3281 -0.4444 -0.5843
   57TMC2    O1  880   1.441   4.026  13.383  0.1324 -0.3808 -0.0620
   57TMC2    O2  881   1.504   3.587  13.904  0.2092  0.9775  0.4952
   57TMC2    O5  882   1.591   3.549  13.695  0.1823  0.1021 -0.5019
   57TMC2    H5  883   1.586   3.578  13.601  1.4296  0.6891 -0.3867
   58MPD2     C  884   0.829   4.308  13.904  0.2093  0.2216  0.8433
   58MPD2    C1  885   0.804   4.173  13.932 -0.2676 -0.0360  0.1685
   58MPD2    C2  886   0.891   4.076  13.887  0.4090  0.2167 -0.8952
   58MPD2    C3  887   0.995   4.118  13.799  0.2316 -0.2397  0.1559
   58MPD2    C4  888   1.011   4.252  13.765  0.4410  0.1482  0.1733
   58MPD2    C5  889   0.925   4.349  13.820 -0.3735 -0.4180 -0.7675
   58MPD2     H  890   0.879   3.973  13.919 -2.5335  1.2515  1.2312
   58MPD2    H1  891   1.091   4.293  13.703 -1.0585  1.1829 -1.0788
   58MPD2    H2  892   0.770   4.385  13.953 -0.2341  1.2797 -1.3411
   58MPD2    H3  893   0.936   4.455  13.802 -0.5123 -0.5980 -1.9346
   58MPD2     N  894   1.099   4.039  13.746  0.4856 -0.0992  0.2317
   58MPD2    H5  895   1.154   4.089  13.677 -0.9105  0.7975 -0.2252
   58MPD2    N1  896   0.684   4.158  14.005 -0.4614  0.1029 -0.4738
   58MPD2    H7  897   0.632   4.238  14.040 -0.4026 -0.0109 -0.1165
   59MPD2     C  898   4.006   3.094  12.475 -0.6043  0.0907  0.3611
   59MPD2    C1  899   3.932   3.158  12.566 -0.7694 -0.7917 -0.7530
   59MPD2    C2  900   3.981   3.200  12.686 -0.5816 -0.1483 -0.2622
   59MPD2    C3  901   4.110   3.168  12.728  0.0015  0.8457 -0.5816
   59MPD2    C4  902   4.193   3.106  12.641 -0.2764 -0.4064  0.2782
   59MPD2    C5  903   4.136   3.063  12.518 -0.7754 -0.3971  0.3886
   59MPD2     H  904   3.909   3.250  12.750 -0.8200 -0.6934 -0.1023
   59MPD2    H1  905   4.299   3.094  12.660 -0.2382 -0.6371 -0.0608
   59MPD2    H2  906   3.975   3.051  12.381  1.3579  2.7781 -1.5224
   59MPD2    H3  907   4.197   3.002  12.452  0.2614  0.2871  0.7139
   59MPD2     N  908   4.167   3.226  12.845  0.1225  0.3809  0.3262
   59MPD2    H5  909   4.265   3.209  12.862  0.1016 -1.8093 -1.6892
   59MPD2    N1  910   3.798   3.196  12.515  0.5601 -0.2689 -0.0460
   59MPD2    H7  911   3.773   3.156  12.425  1.3279 -1.1506  0.1284
   60TCq2    C1  912   3.703   3.257  12.586  0.4525 -0.0522  0.1969
   60TCq2    O2  913   3.719   3.331  12.686 -0.1854 -0.8040 -0.3518
   60TCq2    C2  914   3.575   3.248  12.522 -0.5456 -0.3533  1.4120
   60TCq2    C3  915   3.542   3.126  12.466  0.6194  0.1080 -0.1967
   60TCq2    C4  916   3.412   3.103  12.419 -0.9604 -0.1614  0.2694
   60TCq2    C5  917   3.331   3.214  12.410  0.0787  0.2846  0.6241
   60TCq2    C6  918   3.364   3.328  12.477  0.4471 -0.6654  0.4865
   60TCq2    C7  919   3.485   3.349  12.539 -0.2752 -0.0387  0.5475
   60TCq2    C8  920   3.261   3.427  12.469 -0.1835 -0.0449 -0.2256
   60TCq2    O4  921   3.147   3.385  12.443  0.3522 -0.0439 -0.6034
   60TCq2    C9  922   3.369   2.975  12.366  0.1979 -0.2302 -0.3866
   60TCq2    O5  923   3.441   2.876  12.384  0.1605 -0.5510  0.2378
   60TCq2    O6  924   3.267   2.976  12.292 -0.6652  0.1243 -0.3785
   60TCq2    H2  925   3.608   3.041  12.460 -1.3679 -1.3673 -1.3000
   60TCq2    H3  926   3.231   3.195  12.372  0.3354  0.2803 -0.0409
   60TCq2    H4  927   3.513   3.431  12.604 -2.4500  0.7564  0.4652
   61MPD2     C  928   2.966   4.629  14.351 -0.3400  0.0455 -0.4321
   61MPD2    C1  929   3.003   0.004  14.437  0.6312 -0.0227 -0.2391
   61MPD2    C2  930   2.964   0.136  14.414 -0.2215 -0.2821  0.2317
   61MPD2    C3  931   2.880   0.167  14.306 -0.2065 -0.0775  0.2187
   61MPD2    C4  932   2.834   0.067  14.230 -0.8849 -0.6322 -0.0448
   61MPD2    C5  933   2.877   4.662  14.252  0.1615 -0.4736  0.0547
   61MPD2     H  934   2.994   0.210  14.488  2.4430  1.1815 -2.3134
   61MPD2    H1  935   2.771   0.090  14.145 -1.8468  2.0058  1.3671
   61MPD2    H2  936   2.995   4.525  14.362 -1.1727 -0.0482  0.8058
   61MPD2    H3  937   2.841   4.584  14.185  0.7711  0.0237 -0.8391
   61MPD2     N  938   2.826   0.291  14.288  0.2919 -0.0433  0.3060
   61MPD2    H5  939   2.746   0.304  14.227 -0.5103 -0.9891  1.1409
   61MPD2    N1  940   3.076   4.707  14.556 -0.5208 -0.0841  0.3828
   61MPD2    H7  941   3.113   0.060  14.611 -0.8352  0.2668  0.1006
   62TCq2    C1  942   3.104   4.586  14.609  0.1298 -0.4528 -0.5428
   62TCq2    O2  943   3.095   4.472  14.564 -0.0293 -0.4846 -0.2361
   62TCq2    C2  944   3.117   4.600  14.756 -0.2292  0.3885 -0.9326
   62TCq2    C3  945   3.119   4.481  14.828  0.4240 -0.6271 -0.1585
   62TCq2    C4  946   3.062   4.482  14.956 -0.5179  0.4801  0.3768
   62TCq2    C5  947   3.005   4.596  15.007  0.3117  0.1592 -0.2632
   62TCq2    C6  948   3.012   4.714  14.936 -0.3951  0.4959  0.1624
   62TCq2    C7  949   3.069   4.720  14.810  0.4173  0.1761 -0.4643
   62TCq2    C8  950   2.941   0.106  14.991  0.8257 -0.7647  0.3499
   62TCq2    O4  951   2.980   0.210  14.943  0.5435 -0.7050 -0.4209
   62TCq2    C9  952   3.055   4.353  15.024  0.2468 -0.4888 -0.6102
   62TCq2    O5  953   3.127   4.259  14.979 -0.3643 -0.2084 -0.2890
   62TCq2    O6  954   2.991   4.353  15.132  0.6835 -0.2479 -0.2057
   62TCq2    H2  955   3.149   4.384  14.790  0.1275 -0.6351 -0.3710
   62TCq2    H3  956   2.947   4.577  15.097  1.5007 -2.8626 -0.1314
   62TCq2    H4  957   3.087   0.094  14.770  1.8435  0.1448  0.0922
   63TMC2    C1  958   3.179   0.304  10.953 -0.7326  0.6123 -0.3637
   63TMC2    C2  959   3.264   0.384  11.019  0.2922  0.9260  0.1614
   63TMC2    C3  960   3.320   0.485  10.948 -0.3840  0.5171 -0.5013
   63TMC2    C4  961   3.151   0.313  10.822 -0.4188  0.7435  0.1966
   63TMC2    C5  962   3.194   0.428  10.754  0.2905 -0.5822 -0.9969
   63TMC2    C6  963   3.278   0.519  10.822 -0.7363  0.0658 -0.6400
   63TMC2     C  964   3.112   0.199  11.030 -0.5513  0.0968 -0.4902
   63TMC2     O  965   3.173   0.159  11.129  0.5064  0.1804  0.0255
   63TMC2     H  966   3.291   0.360  11.121  2.0529 -3.2215 -1.2584
   63TMC2    H1  967   3.101   0.233  10.768 -2.0061  0.8253  1.5432
   63TMC2    H2  968   3.344   0.591  10.775  0.8244 -0.6949  0.4119
   63TMC2    C7  969   3.123   0.451  10.627  0.2079  0.0881  0.8876
   63TMC2    C8  970   3.396   0.585  11.019 -0.4938 -0.9197 -1.2215
   63TMC2    O1  971   3.058   0.357  10.576  0.2888 -0.1857  1.1515
   63TMC2    O2  972   3.375   0.705  11.007 -0.0561 -0.5481  0.0190
   63TMC2    O5  973   3.486   0.521  11.097  0.2383 -0.2663 -0.3735
   63TMC2    H5  974   3.494   0.425  11.077 -0.5474 -0.8256  2.0312
   64MPD2     C  975   2.757   4.550  11.055 -0.1733 -0.2645 -0.3915
   64MPD2    C1  976   2.728   4.623  10.948 -0.4206  0.8967  0.5583
   64MPD2    C2  977   2.813   0.007  10.929 -0.7514  0.0341 -0.2691
   64MPD2    C3  978   2.914   0.044  11.013  0.0605  0.2413  0.5142
   64MPD2    C4  979   2.933   4.692  11.126  0.3126 -0.3072  0.1471
   64MPD2    C5  980   2.852   4.588  11.143  0.9699 -0.3912  0.2702
   64MPD2     H  981   2.788   0.073  10.847 -1.1740 -0.6339 -0.6738
   64MPD2    H1  982   3.007   4.719  11.201 -2.2115 -0.5529  2.7371
   64MPD2    H2  983   2.708   4.457  11.083 -0.5087  0.1093  0.2948
   64MPD2    H3  984   2.862   4.531  11.235  0.9933 -0.6881  0.0855
   64MPD2     N  985   3.000   0.151  10.972  0.4967  0.1629  0.3815
   64MPD2    H5  986   2.984   0.193  10.882 -0.6245 -0.7478  0.1476
   64MPD2    N1  987   2.650   4.584  10.840 -0.0750  0.5087  0.6012
   64MPD2    H7  988   2.676   4.640  10.759  0.3530  0.4361  0.6901
   65MPD2     C  989   3.694   4.275  15.626  0.2426 -0.0280 -0.1142
   65MPD2    C1  990   3.723   4.267  15.490 -0.0367 -0.5282 -0.2032
   65MPD2    C2  991   3.707   4.139  15.421  0.0580  0.0298  0.2543
   65MPD2    C3  992   3.672   4.027  15.498  0.0312  0.4028 -0.2012
   65MPD2    C4  993   3.644   4.040  15.630  0.3995 -0.4463  0.2191
   65MPD2    C5  994   3.653   4.163  15.693  0.6064 -0.0286 -0.0004
   65MPD2     H  995   3.734   4.133  15.316  1.0009  1.1545  0.4430
   65MPD2    H1  996   3.611   3.957  15.691  1.6119 -0.0310  1.4322
   65MPD2    H2  997   3.681   4.370  15.677 -0.4251 -1.4821  2.4192
   65MPD2    H3  998   3.627   4.167  15.798  0.8090 -0.0916  0.0521
   65MPD2     N  999   3.651   3.899  15.435  0.4014 -0.2068  0.5444
   65MPD2    H5 1000   3.629   3.818  15.493  0.2100 -0.6197 -0.1079
   65MPD2    N1 1001   3.753   4.381  15.405  0.2742  0.4266  0.1380
   65MPD2    H7 1002   3.737   4.374  15.305  1.7468  0.6560 -0.1047
   66TCq2    C1 1003   3.786   4.509  15.450 -0.0994  0.1505  0.0141
   66TCq2    O2 1004   3.787   4.558  15.560  0.5158  0.2268  0.3215
   66TCq2    C2 1005   3.810   4.600  15.336 -0.1357  0.4506 -0.2938
   66TCq2    C3 1006   3.831   4.547  15.214 -0.6489 -0.0079  0.5453
   66TCq2    C4 1007   3.859   4.632  15.109 -0.3128  0.1884 -0.0059
   66TCq2    C5 1008   3.854   0.040  15.121 -0.4901 -0.0070  0.2386
   66TCq2    C6 1009   3.818   0.085  15.245 -0.3623 -0.3647  0.1263
   66TCq2    C7 1010   3.793   0.012  15.354 -0.3434 -0.5494  0.7681
   66TCq2    C8 1011   3.795   0.230  15.252 -0.6457  0.3698 -0.4499
   66TCq2    O4 1012   3.847   0.304  15.168  0.1287  0.2891 -0.0924
   66TCq2    C9 1013   3.905   4.580  14.986 -0.0945  0.8724  0.8052
   66TCq2    O5 1014   3.941   4.669  14.902  0.2876  0.1525  0.1415
   66TCq2    O6 1015   3.901   4.454  14.983  0.1549  0.2616 -0.0668
   66TCq2    H2 1016   3.856   4.444  15.195  1.2571  0.2734  1.5435
   66TCq2    H3 1017   3.905   0.105  15.051  0.9151 -0.4149  0.8733
   66TCq2    H4 1018   3.794   0.048  15.456  0.5013  0.4222  0.4172
   67MPD2     C 1019   3.683   3.652  14.091  0.0306 -0.2327  0.0233
   67MPD2    C1 1020   3.641   3.784  14.114  0.5557 -0.1771  0.4550
   67MPD2    C2 1021   3.528   3.825  14.043  0.2074 -0.3357 -1.1774
   67MPD2    C3 1022   3.454   3.739  13.964  0.5099  0.1663  0.6899
   67MPD2    C4 1023   3.509   3.612  13.945 -0.1648 -0.2801  0.4389
   67MPD2    C5 1024   3.621   3.573  14.002  0.3745 -0.8785  0.3074
   67MPD2     H 1025   3.500   3.929  14.057 -1.8385 -1.2574  1.6706
   67MPD2    H1 1026   3.467   3.546  13.870 -1.3717 -0.8691  1.6234
   67MPD2    H2 1027   3.756   3.599  14.151 -1.8299 -1.2325  1.3916
   67MPD2    H3 1028   3.657   3.471  13.991  1.1824 -0.5216 -0.2854
   67MPD2     N 1029   3.338   3.775  13.895 -0.3727 -0.1270  0.1073
   67MPD2    H5 1030   3.275   3.701  13.865 -0.3741 -0.5370  1.0957
   67MPD2    N1 1031   3.695   3.864  14.217 -0.3629  1.2429 -0.2361
   67MPD2    H7 1032   3.647   3.953  14.225  1.4176  2.1303  0.6456
   68TCq2    C1 1033   3.812   3.836  14.284  0.5705 -0.5670 -0.0839
   68TCq2    O2 1034   3.882   3.737  14.264  0.0034 -0.0794  0.0125
   68TCq2    C2 1035   3.847   3.934  14.380  0.1136  0.1652  0.2821
   68TCq2    C3 1036   3.768   4.036  14.412 -0.2687  0.0861  0.3879
   68TCq2    C4 1037   3.818   4.142  14.483 -0.2877 -0.3075  0.1530
   68TCq2    C5 1038   3.949   4.147  14.517  0.1399 -0.8241  0.5709
   68TCq2    C6 1039   4.019   4.036  14.502  0.2642  0.1146 -0.5693
   68TCq2    C7 1040   3.973   3.931  14.430 -0.5657 -0.3587  0.4428
   68TCq2    C8 1041   4.149   4.017  14.562  1.2025  0.0524 -0.4885
   68TCq2    O4 1042   4.226   3.943  14.505  0.0985  0.2191  0.0499
   68TCq2    C9 1043   3.739   4.256  14.499  0.0046 -0.3610  0.2265
   68TCq2    O5 1044   3.779   4.341  14.580  0.7246 -0.2994  0.0320
   68TCq2    O6 1045   3.661   4.282  14.402  0.1486  0.0941 -0.0530
   68TCq2    H2 1046   3.661   4.032  14.391 -0.0701  2.1670 -1.0948
   68TCq2    H3 1047   3.995   4.233  14.565  0.1630 -0.0387 -0.8527
   68TCq2    H4 1048   4.037   3.846  14.407  1.1641  1.2046 -0.5959
   69TMC2    C1 1049   0.374   0.908  12.593 -0.4348 -0.4983  0.2220
   69TMC2    C2 1050   0.252   0.971  12.624  0.1081 -1.1054 -0.1534
   69TMC2    C3 1051   0.182   1.020  12.519 -0.2815  0.1349 -0.8482
   69TMC2    C4 1052   0.424   0.901  12.466 -0.4792  0.1623  0.0006
   69TMC2    C5 1053   0.350   0.964  12.363 -0.0670 -0.4329  0.0996
   69TMC2    C6 1054   0.232   1.021  12.397  0.4153 -1.1124 -0.2477
   69TMC2     C 1055   0.452   0.852  12.702 -0.4818  0.7484 -0.7907
   69TMC2     O 1056   0.402   0.848  12.813  0.2797  0.1924  0.6739
   69TMC2     H 1057   0.207   0.957  12.722 -0.1035 -2.2119 -0.4097
   69TMC2    H1 1058   0.506   0.834  12.442 -0.2033 -0.1298  1.7498
   69TMC2    H2 1059   0.171   1.061  12.317  1.3829  0.0702 -0.4044
   69TMC2    C7 1060   0.410   0.979  12.233 -1.2498 -0.2030 -0.6570
   69TMC2    C8 1061   0.040   1.041  12.535 -0.2257 -0.5043  1.0613
   69TMC2    O1 1062   0.504   0.899  12.224  0.1081  0.1908 -0.2065
   69TMC2    O2 1063   4.677   1.007  12.450 -0.1393 -0.9023 -0.8945
   69TMC2    O5 1064   0.027   1.140  12.627 -0.3334  0.2151 -0.4075
   69TMC2    H5 1065   0.109   1.185  12.656  1.0264 -2.7204  0.3075
   70MPD2     C 1066   0.807   0.736  12.678 -0.2588  0.1752  0.4367
   70MPD2    C1 1067   0.681   0.744  12.737 -0.4298 -0.1429  0.4548
   70MPD2    C2 1068   0.662   0.682  12.853 -0.2454 -0.4182  0.6887
   70MPD2    C3 1069   0.759   0.625  12.931 -0.4146 -0.3164 -0.1741
   70MPD2    C4 1070   0.882   0.622  12.878 -0.2137  0.1717  0.1827
   70MPD2    C5 1071   0.908   0.686  12.756  0.0078  0.0611  0.5201
   70MPD2     H 1072   0.560   0.673  12.889  0.0829 -1.8393  1.2895
   70MPD2    H1 1073   0.968   0.581  12.930 -0.6332 -0.1077  0.6527
   70MPD2    H2 1074   0.837   0.773  12.581  0.3241 -3.3860 -0.7250
   70MPD2    H3 1075   1.006   0.692  12.711 -1.4063  1.4555 -2.3525
   70MPD2     N 1076   0.740   0.549  13.046 -0.1915 -0.0697  0.2384
   70MPD2    H5 1077   0.823   0.501  13.080 -0.2416 -1.1458 -1.1437
   70MPD2    N1 1078   0.580   0.806  12.665  0.3154 -0.4723  0.5289
   70MPD2    H7 1079   0.608   0.836  12.573  1.3758 -0.5536  0.8283
   71TMC2    C1 1080   3.610   0.615   1.320 -0.1156 -0.8580 -0.7781
   71TMC2    C2 1081   3.706   0.683   1.390 -0.0491  0.7404 -0.3100
   71TMC2    C3 1082   3.693   0.692   1.525  0.3037 -0.1576  0.0183
   71TMC2    C4 1083   3.502   0.562   1.378  0.1247 -0.2989  0.1782
   71TMC2    C5 1084   3.495   0.559   1.510  0.7530  0.0158 -0.5263
   71TMC2    C6 1085   3.594   0.618   1.589  0.6252  0.5206 -0.1675
   71TMC2     C 1086   3.633   0.609   1.176  0.8179 -0.4284  0.4974
   71TMC2     O 1087   3.738   0.656   1.139 -0.7644 -0.0265  0.3682
   71TMC2     H 1088   3.792   0.722   1.338  1.6884  0.1520  2.1494
   71TMC2    H1 1089   3.430   0.510   1.317 -1.4080  3.0279 -0.8551
   71TMC2    H2 1090   3.584   0.615   1.697  2.5675  2.8199  0.0824
   71TMC2    C7 1091   3.369   0.531   1.584 -1.4165 -0.6272  0.1446
   71TMC2    C8 1092   3.807   0.735   1.613  0.1823  0.6064 -0.4280
   71TMC2    O1 1093   3.386   0.501   1.701 -0.1667 -0.2069 -0.1946
   71TMC2    O2 1094   3.926   0.745   1.584  0.3265 -0.0895  0.1406
   71TMC2    O5 1095   3.744   0.823   1.696 -0.0118  0.5468 -0.0966
   71TMC2    H5 1096   3.646   0.823   1.688 -0.0043  1.8758 -0.1798
   72MPD2     C 1097   3.443   0.588   0.698 -0.1712 -0.1737  0.6897
   72MPD2    C1 1098   3.562   0.632   0.738  0.4887  1.0307  0.3975
   72MPD2    C2 1099   3.595   0.626   0.878  0.0205 -0.2257 -0.8007
   72MPD2    C3 1100   3.502   0.573   0.965 -0.3429 -0.4905 -0.1934
   72MPD2    C4 1101   3.380   0.526   0.916 -0.5252  0.0254  0.4843
   72MPD2    C5 1102   3.346   0.539   0.779 -0.1991  0.1875  0.1600
   72MPD2     H 1103   3.689   0.672   0.908 -0.0925  0.7996 -2.0176
   72MPD2    H1 1104   3.301   0.493   0.983  0.6591 -1.2943  1.2220
   72MPD2    H2 1105   3.409   0.593   0.596 -2.8279  0.9827  1.6301
   72MPD2    H3 1106   3.251   0.505   0.741 -0.0655 -0.5637  0.4726
   72MPD2     N 1107   3.526   0.566   1.102  0.5906 -0.2192  0.0378
   72MPD2    H5 1108   3.442   0.541   1.153  0.1502 -0.4997 -0.8354
   72MPD2    N1 1109   3.653   0.695   0.651  0.1388  0.0734 -0.4761
   72MPD2    H7 1110   3.733   0.744   0.689  0.0219 -1.0127  1.1545
   73TMC2    C1 1111   3.361   2.438  13.951 -0.0380 -1.0612  0.1991
   73TMC2    C2 1112   3.342   2.468  14.085  0.1549 -0.0327 -0.0633
   73TMC2    C3 1113   3.459   2.471  14.165 -0.2759  0.2776 -0.3587
   73TMC2    C4 1114   3.484   2.426  13.904 -0.5161 -0.3280 -0.2168
   73TMC2    C5 1115   3.603   2.433  13.980 -0.2012  0.0501  0.0524
   73TMC2    C6 1116   3.587   2.461  14.113  0.0088 -0.2535 -0.4316
   73TMC2     C 1117   3.300   2.529  13.861  0.9821 -0.5234  0.6881
   73TMC2     O 1118   3.378   2.600  13.797  0.1610  0.0573  0.1099
   73TMC2     H 1119   3.247   2.478  14.137  0.8951  0.5366  1.1892
   73TMC2    H1 1120   3.487   2.399  13.799 -0.8868  3.6635 -1.2551
   73TMC2    H2 1121   3.671   2.484  14.177  0.6025 -0.7389 -1.0267
   73TMC2    C7 1122   3.703   2.503  13.907  0.6290  0.1263 -0.4741
   73TMC2    C8 1123   3.438   2.479  14.311  0.0723  0.0663  0.1600
   73TMC2    O1 1124   3.818   2.484  13.936 -0.5908 -0.2739 -0.9859
   73TMC2    O2 1125   3.340   2.523  14.358 -0.1499  0.1514  0.2477
   73TMC2    O5 1126   3.522   2.392  14.375 -0.2274  0.0079  0.5145
   73TMC2    H5 1127   3.584   2.336  14.323 -0.7785 -0.0676 -0.0559
   74MPD2     C 1128   2.932   2.661  13.538  0.5599 -0.4471  0.0106
   74MPD2    C1 1129   3.063   2.683  13.534 -0.1260  0.3102 -0.4658
   74MPD2    C2 1130   3.144   2.644  13.639  0.9556 -0.6781  0.0211
   74MPD2    C3 1131   3.092   2.576  13.742  0.8194 -0.4404  0.0197
   74MPD2    C4 1132   2.958   2.544  13.740  0.7406 -0.1657 -0.6755
   74MPD2    C5 1133   2.879   2.598  13.643 -0.0971  0.6446 -1.0351
   74MPD2     H 1134   3.250   2.662  13.644  0.9153 -0.2795 -0.6406
   74MPD2    H1 1135   2.925   2.489  13.828  0.4803  1.3241  0.1650
   74MPD2    H2 1136   2.860   2.710  13.474 -0.1715 -0.0022  1.1702
   74MPD2    H3 1137   2.771   2.604  13.657  0.0935 -1.5858  1.2058
   74MPD2     N 1138   3.167   2.526  13.852  0.6706 -0.5508  0.0617
   74MPD2    H5 1139   3.130   2.463  13.923  2.5966 -1.9811 -0.2166
   74MPD2    N1 1140   3.126   2.742  13.418 -0.3622 -0.5020  0.1822
   74MPD2    H7 1141   3.069   2.757  13.335  0.0019 -0.2945 -0.0288
   75TCq2    C1 1142   3.297   3.904  13.875  0.6320  0.4348 -0.5189
   75TCq2    O2 1143   3.362   4.007  13.889 -0.3129 -0.1346 -0.6055
   75TCq2    C2 1144   3.159   3.895  13.848  0.3206 -0.7175  0.7070
   75TCq2    C3 1145   3.092   3.801  13.926 -0.5775 -0.4800 -0.5055
   75TCq2    C4 1146   2.974   3.756  13.873 -0.2718 -0.0755  0.3113
   75TCq2    C5 1147   2.916   3.811  13.761  0.5056  0.2542 -0.0368
   75TCq2    C6 1148   2.984   3.909  13.690  0.2699 -0.1086  0.2784
   75TCq2    C7 1149   3.112   3.953  13.735 -0.4526 -1.0443 -0.0997
   75TCq2    C8 1150   2.934   3.950  13.562 -0.0678 -0.1677 -0.1119
   75TCq2    O4 1151   2.872   3.866  13.498 -0.1919  0.4246  0.7836
   75TCq2    C9 1152   2.906   3.643  13.941 -0.2974  0.2765 -0.1135
   75TCq2    O5 1153   2.964   3.570  14.027  0.2613  0.3669 -0.1856
   75TCq2    O6 1154   2.785   3.626  13.909  0.3561 -0.1768  0.2639
   75TCq2    H2 1155   3.118   3.741  14.012  1.0964 -0.7252 -1.1878
   75TCq2    H3 1156   2.820   3.770  13.730 -0.8458  2.5642  1.0632
   75TCq2    H4 1157   3.176   4.016  13.675 -1.8583  0.9176  0.4280
   76MPD2     C 1158   1.376   0.528  12.042  0.0009  0.2184  0.6749
   76MPD2    C1 1159   1.418   0.607  11.936  0.5890  0.1146 -0.3714
   76MPD2    C2 1160   1.555   0.627  11.904 -0.6599 -0.3268 -0.4302
   76MPD2    C3 1161   1.638   0.558  11.976 -0.0828  0.4401 -0.0602
   76MPD2    C4 1162   1.602   0.483  12.090  0.5888 -0.1818  0.0705
   76MPD2    C5 1163   1.472   0.472  12.127  0.2792 -1.2546 -0.5911
   76MPD2     H 1164   1.591   0.684  11.819  0.1413  1.0722  0.8430
   76MPD2    H1 1165   1.668   0.429  12.157 -0.1506  0.8660  1.6448
   76MPD2    H2 1166   1.274   0.507  12.073 -0.8116  1.2477 -1.2925
   76MPD2    H3 1167   1.440   0.420  12.217  2.6534 -1.0833  0.3559
   76MPD2     N 1168   1.781   0.578  11.963 -0.2833  0.0454  0.4710
   76MPD2    H5 1169   1.836   0.536  12.037  2.4055 -0.9381 -2.0498
   76MPD2    N1 1170   1.328   0.684  11.856  0.0436 -0.1454 -0.1026
   76MPD2    H7 1171   1.371   0.733  11.778 -0.6509  0.6078 -0.0059
   77TCq2    C1 1172   1.847   0.643  11.860 -0.6512  0.9501 -0.6525
   77TCq2    O2 1173   1.819   0.709  11.762  0.4713 -0.2401 -0.0009
   77TCq2    C2 1174   1.985   0.637  11.877 -0.7172  0.3092 -0.1906
   77TCq2    C3 1175   2.057   0.551  11.790 -0.5316 -0.0192  0.9472
   77TCq2    C4 1176   2.162   0.478  11.839  0.1791 -0.3636  0.1667
   77TCq2    C5 1177   2.196   0.495  11.967  0.2517  0.7146  0.0083
   77TCq2    C6 1178   2.123   0.576  12.050  0.4894 -0.2886  0.3198
   77TCq2    C7 1179   2.028   0.665  12.008 -0.3650  0.5494 -0.2713
   77TCq2    C8 1180   2.159   0.583  12.188  0.1757  0.8196  0.6712
   77TCq2    O4 1181   2.127   0.688  12.252  0.0985  0.4856  0.1208
   77TCq2    C9 1182   2.217   0.377  11.752 -0.2944 -0.1708 -0.3972
   77TCq2    O5 1183   2.155   0.350  11.646 -0.1688 -0.3383  0.0296
   77TCq2    O6 1184   2.312   0.310  11.799 -0.3249 -0.9500 -0.5206
   77TCq2    H2 1185   2.014   0.531  11.692  2.2635  0.6883 -0.4356
   77TCq2    H3 1186   2.285   0.435  11.982 -1.7876 -2.4002 -0.4024
   77TCq2    H4 1187   1.976   0.736  12.072  1.2749  1.2290  0.3015
   78MPD1     C 1188   2.329   0.195   1.292  0.7339  0.1095 -0.1248
   78MPD1    C1 1189   2.433   0.254   1.218  0.4524 -0.5849 -0.1681
   78MPD1    C2 1190   2.560   0.248   1.283 -0.0859  0.0907 -0.9343
   78MPD1    C3 1191   2.575   0.191   1.409  0.3242  0.3642  0.3842
   78MPD1    C4 1192   2.461   0.146   1.478  0.5441  1.3813  0.1701
   78MPD1    C5 1193   2.340   0.143   1.419  0.1026 -0.2682  0.5287
   78MPD1     H 1194   2.644   0.280   1.222  0.3476  1.1628  0.2436
   78MPD1    H1 1195   2.462   0.092   1.571  1.9739 -1.0615 -1.2596
   78MPD1    H2 1196   2.234   0.174   1.244  0.4860  0.0819  0.3831
   78MPD1    H3 1197   2.255   0.104   1.474 -0.3528  1.3725  0.9939
   78MPD1     N 1198   2.704   0.175   1.473  0.4614  0.1508  0.3170
   78MPD1    H5 1199   2.702   0.141   1.568 -0.9530 -0.5754  0.0317
   78MPD1    N1 1200   2.408   0.304   1.091 -0.6101  0.5110  0.8979
   78MPD1    H6 1201   2.307   0.313   1.080 -0.7001  1.5883  2.5379
   78MPD1    H7 1202   2.466   0.373   1.044 -0.6898 -0.4865 -0.6535
   79TCq2    C1 1203   2.815   0.201   1.414  0.1755 -0.2118 -0.2435
   79TCq2    O2 1204   2.851   0.237   1.303 -0.5118 -0.0348  0.6440
   79TCq2    C2 1205   2.918   0.164   1.503  0.1118  0.1737 -0.3260
   79TCq2    C3 1206   2.895   0.133   1.636 -0.0128  0.5493  0.8079
   79TCq2    C4 1207   3.001   0.113   1.720  0.6984  0.1604  0.8024
   79TCq2    C5 1208   3.128   0.126   1.673  0.0434  0.2968  0.6545
   79TCq2    C6 1209   3.150   0.155   1.537  0.1506 -0.2598 -0.3738
   79TCq2    C7 1210   3.046   0.179   1.452 -0.8101  0.0305 -0.6741
   79TCq2    C8 1211   3.290   0.160   1.487  0.5399 -0.3630  0.1533
   79TCq2    O4 1212   3.380   0.156   1.573  0.3050  0.3623 -0.1366
   79TCq2    C9 1213   2.975   0.042   1.848 -0.1827  0.3215 -0.1799
   79TCq2    O5 1214   2.854   0.041   1.884 -0.2702 -0.0741 -0.2843
   79TCq2    O6 1215   3.075   0.034   1.923  0.3552 -0.1501 -0.0657
   79TCq2    H2 1216   2.798   0.123   1.684  0.2047 -0.2498  1.0772
   79TCq2    H3 1217   3.217   0.087   1.721 -0.9432  0.1613  2.3647
   79TCq2    H4 1218   3.055   0.194   1.345 -1.6750  1.5165 -0.5504
   80MPD2     C 1219   1.678   4.478  12.455  0.1620  0.4844 -0.4958
   80MPD2    C1 1220   1.615   4.493  12.334 -0.8699 -0.5584 -0.6144
   80MPD2    C2 1221   1.478   4.485  12.326 -0.1409  0.4637  0.4337
   80MPD2    C3 1222   1.398   4.491  12.439  0.5862 -0.1927 -0.1632
   80MPD2    C4 1223   1.460   4.487  12.561  0.3082 -0.0755 -0.5416
   80MPD2    C5 1224   1.600   4.473  12.569  0.4753  0.2248  0.7360
   80MPD2     H 1225   1.429   4.494  12.230  0.5077 -0.1135  0.0514
   80MPD2    H1 1226   1.405   4.489  12.654  1.8539  3.1895  0.2913
   80MPD2    H2 1227   1.785   4.480  12.465  0.2139  1.1847 -1.1575
   80MPD2    H3 1228   1.635   4.456  12.670  3.1918 -0.0406 -0.2358
   80MPD2     N 1229   1.259   4.486  12.438 -0.0489  0.4238 -0.8356
   80MPD2    H5 1230   1.218   4.482  12.530  1.5103  1.0079 -0.1189
   80MPD2    N1 1231   1.686   4.497  12.214 -0.9114  0.1259  0.0523
   80MPD2    H7 1232   1.635   4.478  12.128 -0.3546 -0.3762 -0.1675
   81TCq2    C1 1233   1.824   4.512  12.194 -0.0232  0.0555 -0.0046
   81TCq2    O2 1234   1.908   4.561  12.269  0.0915 -0.2821  0.2531
   81TCq2    C2 1235   1.862   4.483  12.056  0.9203  0.9732 -0.1714
   81TCq2    C3 1236   1.956   4.562  12.003 -0.0795 -0.5128 -0.2841
   81TCq2    C4 1237   1.967   4.568  11.866 -0.4372 -0.3253  0.1611
   81TCq2    C5 1238   1.895   4.475  11.791 -0.3076  0.3361 -0.5475
   81TCq2    C6 1239   1.808   4.400  11.856 -0.4322 -0.0154  0.2743
   81TCq2    C7 1240   1.787   4.401  11.987 -0.6213  0.0805 -0.3011
   81TCq2    C8 1241   1.748   4.294  11.770 -0.6782 -0.6346  0.1624
   81TCq2    O4 1242   1.767   4.301  11.647  0.3127 -0.1593  0.6902
   81TCq2    C9 1243   2.051   4.666  11.805 -0.2159  0.2976  0.0409
   81TCq2    O5 1244   2.115   0.019  11.881 -0.0903 -0.2754 -0.2458
   81TCq2    O6 1245   2.060   4.681  11.681  0.0021 -0.1064  0.1210
   81TCq2    H2 1246   2.013   4.638  12.054  0.4337  1.2010 -3.3605
   81TCq2    H3 1247   1.913   4.478  11.684 -0.5041  2.7916 -0.5156
   81TCq2    H4 1248   1.715   4.344  12.045 -1.2925  1.0477 -0.1647
   82MPD2     C 1249   4.328   4.186  10.196 -0.5900 -0.1425  0.2154
   82MPD2    C1 1250   4.196   4.134  10.191  0.0492 -0.0104  0.0485
   82MPD2    C2 1251   4.151   4.069  10.305  0.4231  0.2521 -0.5522
   82MPD2    C3 1252   4.227   4.060  10.422  0.4612 -0.1000  0.0716
   82MPD2    C4 1253   4.350   4.116  10.423 -0.0362 -0.4548 -0.3397
   82MPD2    C5 1254   4.404   4.178  10.311  0.2741 -0.4691  0.0380
   82MPD2     H 1255   4.048   4.037  10.320 -0.3311  2.7040 -0.4405
   82MPD2    H1 1256   4.414   4.115  10.511 -1.0442 -1.3607  0.3739
   82MPD2    H2 1257   4.359   4.245  10.111 -1.2015  0.9259  0.7416
   82MPD2    H3 1258   4.504   4.220  10.317  0.7084 -1.6316  0.8237
   82MPD2     N 1259   4.185   4.008  10.546 -0.6368  0.1776  0.1997
   82MPD2    H5 1260   4.254   4.017  10.620 -0.4183 -0.6718  0.0933
   82MPD2    N1 1261   4.115   4.152  10.080  0.0083  0.2730  0.0686
   82MPD2    H7 1262   4.149   4.197   9.996 -1.1387  2.3235  0.6953
   83TCq2    C1 1263   4.062   3.954  10.574 -0.5547 -0.3763 -0.0167
   83TCq2    O2 1264   3.966   3.925  10.504  0.1517 -0.0639  0.0452
   83TCq2    C2 1265   4.064   3.910  10.714 -0.2158  0.1064  0.3634
   83TCq2    C3 1266   4.176   3.925  10.794 -0.9462  0.5131 -0.6642
   83TCq2    C4 1267   4.181   3.844  10.904 -0.5866  0.5572  0.5236
   83TCq2    C5 1268   4.096   3.742  10.930 -0.4997 -0.1803  0.3442
   83TCq2    C6 1269   3.993   3.726  10.847  1.4444 -0.2521 -0.5337
   83TCq2    C7 1270   3.974   3.813  10.743 -1.0110  0.2661 -0.2173
   83TCq2    C8 1271   3.886   3.641  10.905  0.3194  0.3074  0.0055
   83TCq2    O4 1272   3.894   3.621  11.027  0.0250 -0.4070 -0.5793
   83TCq2    C9 1273   4.301   3.861  10.993  0.5235 -0.2934  0.7281
   83TCq2    O5 1274   4.300   3.799  11.102 -0.0905  0.4187 -0.1363
   83TCq2    O6 1275   4.386   3.953  10.962  0.0055  0.0867 -0.4844
   83TCq2    H2 1276   4.252   3.998  10.773 -0.0342  0.2721  1.7654
   83TCq2    H3 1277   4.120   3.679  11.015 -0.1891 -1.2404 -0.5192
   83TCq2    H4 1278   3.885   3.808  10.681  0.8366  1.2099 -2.9354
   84TCq2    C1 1279   0.669   2.796  10.277 -0.0500 -0.0339  0.2821
   84TCq2    O2 1280   0.577   2.733  10.327  0.5806  0.4308 -0.2689
   84TCq2    C2 1281   0.788   2.819  10.353  0.5899  0.0686 -0.1993
   84TCq2    C3 1282   0.909   2.855  10.293  0.0691 -0.6177 -0.0859
   84TCq2    C4 1283   1.002   2.912  10.369 -0.4295 -0.1864 -0.0378
   84TCq2    C5 1284   0.987   2.936  10.502  0.4661  0.0496 -0.8394
   84TCq2    C6 1285   0.868   2.901  10.561  0.3254  0.1871 -0.1733
   84TCq2    C7 1286   0.768   2.847  10.487 -0.5080 -0.3330  0.1212
   84TCq2    C8 1287   0.851   2.940  10.700  0.3834 -0.1208 -0.6120
   84TCq2    O4 1288   0.765   2.880  10.768 -0.0003  0.5652 -0.3574
   84TCq2    C9 1289   1.121   2.956  10.299 -0.1545 -0.1979  0.7920
   84TCq2    O5 1290   1.181   2.868  10.225 -0.1380  0.0663  0.0079
   84TCq2    O6 1291   1.189   3.044  10.361 -0.4827  0.2140 -0.1844
   84TCq2    H2 1292   0.925   2.836  10.187  1.5797  0.1329  0.0146
   84TCq2    H3 1293   1.072   2.971  10.560  1.3216 -0.7135 -1.6390
   84TCq2    H4 1294   0.666   2.835  10.522 -0.2735  1.7280  1.4815
   85MPD2     C 1295   0.860   0.936  16.203 -0.3469 -0.2898 -0.0003
   85MPD2    C1 1296   0.933   0.851  16.122  0.5852 -0.5999 -0.1450
   85MPD2    C2 1297   1.021   0.902  16.040 -1.3924 -0.3695 -0.1416
   85MPD2    C3 1298   1.062   1.040  16.048  0.2204  0.9020 -0.9442
   85MPD2    C4 1299   1.002   1.122  16.142  0.4343  0.3522 -0.1190
   85MPD2    C5 1300   0.906   1.068  16.216  0.8492  0.5618  0.1828
   85MPD2     H 1301   1.068   0.823  15.983 -0.8127 -0.7426  0.8589
   85MPD2    H1 1302   1.021   1.226  16.162 -1.2137  0.4903  0.6939
   85MPD2    H2 1303   0.780   0.898  16.265 -0.3320  0.7193  0.6200
   85MPD2    H3 1304   0.857   1.132  16.288  3.3200 -1.1085  3.3229
   85MPD2     N 1305   1.157   1.093  15.964 -0.7052 -0.1437 -0.0004
   85MPD2    H5 1306   1.199   1.025  15.901  1.4587 -0.3494  1.6285
   85MPD2    N1 1307   0.905   0.717  16.115 -0.1216 -0.2703 -0.4804
   85MPD2    H7 1308   0.945   0.674  16.032 -1.8239 -0.5092 -1.1693
   86TCq2    C1 1309   1.212   1.217  15.971  0.9788 -0.4227  0.1639
   86TCq2    O2 1310   1.209   1.293  16.067  0.9740  0.0781 -0.1722
   86TCq2    C2 1311   1.284   1.252  15.851 -0.6433  0.4180 -0.0790
   86TCq2    C3 1312   1.306   1.388  15.837 -0.0488 -0.1370 -0.0061
   86TCq2    C4 1313   1.385   1.433  15.733 -0.3437 -0.4966 -0.0678
   86TCq2    C5 1314   1.444   1.344  15.652 -0.5271 -0.2725 -0.4503
   86TCq2    C6 1315   1.420   1.210  15.669 -0.2486 -0.1227 -0.0783
   86TCq2    C7 1316   1.344   1.165  15.768 -0.1865 -0.3470  0.1227
   86TCq2    C8 1317   1.482   1.118  15.569  0.0450 -0.3676 -0.0524
   86TCq2    O4 1318   1.523   1.015  15.618  0.0339 -0.1845 -0.0783
   86TCq2    C9 1319   1.414   1.569  15.721  0.2659 -0.7261 -0.1283
   86TCq2    O5 1320   1.396   1.646  15.816 -0.7592  0.1077  0.1912
   86TCq2    O6 1321   1.468   1.594  15.608 -0.0876  0.7399  0.1376
   86TCq2    H2 1322   1.259   1.452  15.911 -1.0159 -1.1179  0.2322
   86TCq2    H3 1323   1.520   1.371  15.580 -0.8064  0.1170 -0.5990
   86TCq2    H4 1324   1.333   1.058  15.780 -0.9221 -0.2759  0.1076
   87MPD2     C 1325   3.306   4.507   1.610 -0.2179 -0.4668 -0.3443
   87MPD2    C1 1326   3.344   4.535   1.481 -0.1110 -0.0294 -0.4840
   87MPD2    C2 1327   3.249   4.570   1.388  1.3263 -0.1561 -0.6814
   87MPD2    C3 1328   3.111   4.562   1.430  0.4576 -0.0056 -0.3247
   87MPD2    C4 1329   3.077   4.520   1.559 -0.6816  0.9418 -0.1261
   87MPD2    C5 1330   3.176   4.512   1.653  0.4549  0.4188 -0.2346
   87MPD2     H 1331   3.272   4.592   1.285  0.3841 -0.3551 -0.9369
   87MPD2    H1 1332   2.974   4.507   1.589 -1.2179  2.4103 -1.3313
   87MPD2    H2 1333   3.378   4.492   1.690  1.2455 -0.8635 -1.7633
   87MPD2    H3 1334   3.148   4.508   1.758  2.3225 -0.7408  0.2356
   87MPD2     N 1335   2.998   4.597   1.351 -0.5224 -0.3699  0.3358
   87MPD2    H5 1336   2.905   4.578   1.386 -0.5275  1.6221  1.4227
   87MPD2    N1 1337   3.484   4.528   1.463 -0.1211  0.5495 -0.0964
   87MPD2    H7 1338   3.535   4.484   1.539  0.9156 -0.5163 -1.4164
   88TCq2    C1 1339   3.549   4.558   1.350  0.2580 -0.3545  0.4560
   88TCq2    O2 1340   3.508   4.577   1.235 -0.3051 -0.5314 -0.1306
   88TCq2    C2 1341   3.685   4.512   1.352 -0.2664 -0.5012 -0.1078
   88TCq2    C3 1342   3.750   4.506   1.471  0.5334 -0.6564  0.4834
   88TCq2    C4 1343   3.868   4.440   1.474 -0.1185  0.2224  0.1831
   88TCq2    C5 1344   3.927   4.395   1.361  0.6463 -0.1111 -0.3010
   88TCq2    C6 1345   3.859   4.400   1.242 -0.3438  0.1844 -0.2421
   88TCq2    C7 1346   3.735   4.459   1.237  0.1514 -0.1460  0.2560
   88TCq2    C8 1347   3.913   4.321   1.131  0.3826  0.1561  0.1391
   88TCq2    O4 1348   3.872   4.338   1.020  0.1896  0.1921  0.2053
   88TCq2    C9 1349   3.943   4.435   1.595  0.2109 -0.0033  0.5163
   88TCq2    O5 1350   3.893   4.497   1.695  0.0912  0.1425 -0.2264
   88TCq2    O6 1351   4.052   4.373   1.591  0.1213 -0.0886  0.3277
   88TCq2    H2 1352   3.720   4.557   1.562  2.0353  1.2278 -0.0836
   88TCq2    H3 1353   4.028   4.355   1.361 -0.0006 -1.7744  0.0635
   88TCq2    H4 1354   3.680   4.439   1.146 -0.2217 -0.7801  0.6182
   89MPD2     C 1355   4.154   2.247   1.781 -0.0082  0.0154  0.9358
   89MPD2    C1 1356   4.148   2.329   1.671 -0.0065  0.1023 -0.5590
   89MPD2    C2 1357   4.250   2.403   1.625  0.4202  0.8825 -0.2722
   89MPD2    C3 1358   4.374   2.383   1.693 -0.3289  0.0117  0.4967
   89MPD2    C4 1359   4.378   2.303   1.807  0.0026 -0.1929  0.0301
   89MPD2    C5 1360   4.266   2.242   1.852 -1.1189 -0.3478 -0.9869
   89MPD2     H 1361   4.236   2.476   1.546  0.5707 -2.0568 -3.0228
   89MPD2    H1 1362   4.465   2.301   1.871 -0.9226  0.5111  1.3283
   89MPD2    H2 1363   4.074   2.185   1.820 -0.4043  0.5162  0.9112
   89MPD2    H3 1364   4.269   2.176   1.938  2.7361  1.1956  0.0929
   89MPD2     N 1365   4.489   2.450   1.642  0.3633  0.1492  0.1967
   89MPD2    H5 1366   4.471   2.506   1.559 -2.4247 -0.9045  0.0765
   89MPD2    N1 1367   4.027   2.334   1.596 -1.5529  0.4343 -0.0321
   89MPD2    H7 1368   4.012   2.394   1.515  1.1358  1.9479  0.6016
   90TCq2    C1 1369   4.618   2.438   1.675 -0.0641 -0.7490  0.1448
   90TCq2    O2 1370   4.671   2.372   1.767  0.4146  0.0638  0.3318
   90TCq2    C2 1371   4.703   2.513   1.584  0.0071 -0.3181 -0.3281
   90TCq2    C3 1372   4.652   2.578   1.474  0.1915  0.1671  0.4890
   90TCq2    C4 1373   0.006   2.671   1.415 -0.4362 -0.4185  0.2936
   90TCq2    C5 1374   0.138   2.694   1.456 -0.0440 -0.7001  0.2282
   90TCq2    C6 1375   0.194   2.617   1.556  0.1757 -0.4026 -0.0760
   90TCq2    C7 1376   0.105   2.538   1.628  0.1978  0.1396 -0.1987
   90TCq2    C8 1377   0.306   2.671   1.632  0.0265 -0.0309 -0.3373
   90TCq2    O4 1378   0.298   2.653   1.756  0.3815  0.3166 -0.3809
   90TCq2    C9 1379   4.687   2.751   1.304 -0.4559 -0.0918 -0.3307
   90TCq2    O5 1380   0.045   2.824   1.241  0.1466  0.3215 -0.7034
   90TCq2    O6 1381   4.565   2.743   1.280  0.4414  0.5221  0.5591
   90TCq2    H2 1382   4.553   2.564   1.433 -0.3727  1.8559  1.3194
   90TCq2    H3 1383   0.205   2.770   1.415  1.3898 -0.5775  2.7789
   90TCq2    H4 1384   0.131   2.487   1.720 -0.9063 -1.5619 -0.8166
   91TMC2    C1 1385   1.524   2.140  16.591 -0.4659 -0.5212 -0.0275
   91TMC2    C2 1386   1.527   2.243  16.499  0.6536 -0.2294  0.3019
   91TMC2    C3 1387   1.403   2.280  16.441 -0.5002  0.0508  0.5788
   91TMC2    C4 1388   1.409   2.069  16.622 -0.4589  0.3412  0.2330
   91TMC2    C5 1389   1.290   2.110  16.563  0.6261 -0.2590  0.1811
   91TMC2    C6 1390   1.287   2.212  16.466  0.3088  0.5586 -0.1755
   91TMC2     C 1391   1.646   2.078  16.628 -0.5987 -0.2604 -0.1399
   91TMC2     O 1392   1.650   2.027  16.737  0.1623  0.3735  0.1974
   91TMC2     H 1393   1.620   2.297  16.482  0.2127  0.7603  1.0372
   91TMC2    H1 1394   1.419   1.992  16.697 -2.3797 -0.3549 -0.2212
   91TMC2    H2 1395   1.190   2.251  16.435  0.0547 -0.5532 -0.7997
   91TMC2    C7 1396   1.161   2.042  16.599 -0.2874 -0.0969 -0.3592
   91TMC2    C8 1397   1.387   2.416  16.406 -0.2831  0.5715 -0.0302
   91TMC2    O1 1398   1.166   1.978  16.706  0.2591  0.3263 -0.2527
   91TMC2    O2 1399   1.282   2.477  16.432  0.3986 -0.4923 -0.5356
   91TMC2    O5 1400   1.499   2.467  16.349 -0.0944 -0.0835  0.1370
   91TMC2    H5 1401   1.572   2.402  16.339 -1.8896 -1.7808 -1.8488
   92MPD2     C 1402   1.896   1.914  16.616  0.3683 -0.2920  0.7046
   92MPD2    C1 1403   1.860   2.010  16.524  0.1910 -0.8719  0.4736
   92MPD2    C2 1404   1.941   2.029  16.417 -0.0252 -0.2235 -0.1639
   92MPD2    C3 1405   2.064   1.964  16.403  0.0245 -0.7806 -0.0022
   92MPD2    C4 1406   2.095   1.870  16.490 -0.4890 -0.0007 -0.0277
   92MPD2    C5 1407   2.015   1.849  16.600 -0.2959 -0.7452  0.0579
   92MPD2     H 1408   1.924   2.108  16.344  1.2389 -0.1176 -0.3347
   92MPD2    H1 1409   2.193   1.825  16.490 -1.3125 -1.7809 -0.7561
   92MPD2    H2 1410   1.837   1.897  16.705 -0.1005  2.4602  0.9024
   92MPD2    H3 1411   2.047   1.775  16.673 -0.5732 -0.1559  0.7756
   92MPD2     N 1412   2.153   1.994  16.293 -0.0101 -0.7559 -0.1419
   92MPD2    H5 1413   2.131   2.077  16.239 -1.3986 -0.3028  1.1162
   92MPD2    N1 1414   1.742   2.083  16.527  0.3699  0.3975 -0.4741
   92MPD2    H7 1415   1.725   2.147  16.450  2.0613  0.3242 -0.8963
   93MPD2     C 1416   2.682   1.632  13.747  0.7508  0.5242  0.2077
   93MPD2    C1 1417   2.663   1.766  13.758  0.1129 -0.8226 -0.1633
   93MPD2    C2 1418   2.556   1.830  13.705 -0.2808 -0.5656  0.0638
   93MPD2    C3 1419   2.464   1.760  13.635 -0.4017  0.0971 -0.2461
   93MPD2    C4 1420   2.470   1.626  13.626 -0.6048 -0.1667  0.0624
   93MPD2    C5 1421   2.576   1.563  13.690 -0.2254 -0.1630 -0.3065
   93MPD2     H 1422   2.547   1.937  13.710 -0.9516 -0.6145 -0.1771
   93MPD2    H1 1423   2.387   1.569  13.586 -0.5518  1.3109 -2.1437
   93MPD2    H2 1424   2.757   1.577  13.802 -1.8147 -2.0107  1.1908
   93MPD2    H3 1425   2.590   1.456  13.703  1.2180 -0.0185 -0.7090
   93MPD2     N 1426   2.363   1.827  13.559  0.0314  0.8348 -0.0404
   93MPD2    H5 1427   2.288   1.769  13.522 -0.2818  2.1534 -1.4781
   93MPD2    N1 1428   2.766   1.846  13.817 -0.2633  0.0176  0.0920
   93MPD2    H7 1429   2.747   1.945  13.824 -0.5725  0.0060 -0.6483
   94TCq2    C1 1430   2.892   1.804  13.861 -0.7790  0.0526  0.6305
   94TCq2    O2 1431   2.959   1.708  13.826  0.1233  0.0244 -0.0519
   94TCq2    C2 1432   2.975   1.916  13.908 -0.1678  0.4952 -0.4077
   94TCq2    C3 1433   2.913   2.025  13.963 -0.1222  0.2869  0.2466
   94TCq2    C4 1434   2.985   2.144  13.968  0.3089  0.0399  0.2309
   94TCq2    C5 1435   3.116   2.145  13.931 -0.0105 -0.2119  0.0149
   94TCq2    C6 1436   3.171   2.028  13.876  0.2640 -1.2226 -0.1726
   94TCq2    C7 1437   3.103   1.911  13.863 -0.3430  0.2266 -0.4798
   94TCq2    C8 1438   3.295   2.034  13.799  0.1923 -0.1194 -0.2476
   94TCq2    O4 1439   3.360   1.932  13.791 -0.3678  0.0254 -0.2750
   94TCq2    C9 1440   2.932   2.269  14.017  0.0338 -0.1099 -0.1154
   94TCq2    O5 1441   2.810   2.272  14.052 -0.1762  0.0116 -0.0480
   94TCq2    O6 1442   3.012   2.364  14.016 -0.2119 -0.3273  0.4922
   94TCq2    H2 1443   2.809   2.027  13.993 -0.5310  2.7904 -1.3418
   94TCq2    H3 1444   3.183   2.225  13.958  1.8353 -1.5627 -0.5766
   94TCq2    H4 1445   3.155   1.840  13.800 -2.3131 -0.4676 -1.3116
   95TMC2    C1 1446   2.965   3.614  16.031 -0.3091 -0.0936 -0.3450
   95TMC2    C2 1447   3.008   3.553  16.145 -0.3981  0.0897  0.2133
   95TMC2    C3 1448   3.022   3.632  16.257 -0.3753 -0.6501 -0.3796
   95TMC2    C4 1449   2.954   3.751  16.022  0.1128 -0.0956 -0.5885
   95TMC2    C5 1450   2.969   3.825  16.131 -0.2310  0.1576 -0.3719
   95TMC2    C6 1451   3.007   3.772  16.253 -0.0829  0.1794 -0.3834
   95TMC2     C 1452   3.002   3.553  15.901 -0.7167  0.5152  0.2115
   95TMC2     O 1453   3.030   3.637  15.817  0.0404  0.1936  0.2766
   95TMC2     H 1454   3.012   3.445  16.158 -0.3001 -0.0357 -0.8720
   95TMC2    H1 1455   2.905   3.786  15.932  0.2533 -1.0869 -1.0533
   95TMC2    H2 1456   3.006   3.837  16.341  0.0874 -0.5920  0.1892
   95TMC2    C7 1457   2.993   3.968  16.116  0.1768 -0.4541 -0.1535
   95TMC2    C8 1458   3.016   3.573  16.387 -0.1812  0.1581 -0.2066
   95TMC2    O1 1459   3.020   4.023  16.222  0.2404  0.3778  0.0808
   95TMC2    O2 1460   2.965   3.465  16.406  0.2868 -0.1583 -0.1215
   95TMC2    O5 1461   3.075   3.660  16.476 -0.1543 -0.0890  0.6942
   95TMC2    H5 1462   3.141   3.725  16.442 -0.6944 -1.6637 -3.2766
   96MPD2     C 1463   3.307   3.232  15.644  1.4212 -0.0506  0.3299
   96MPD2    C1 1464   3.275   3.364  15.619  0.3368 -0.0217  0.6115
   96MPD2    C2 1465   3.176   3.425  15.691 -0.2965  0.8289 -0.2855
   96MPD2    C3 1466   3.124   3.365  15.804  1.0014  0.1813  0.3630
   96MPD2    C4 1467   3.151   3.237  15.827 -0.1074 -0.9296 -0.5382
   96MPD2    C5 1468   3.246   3.169  15.750  0.5874 -0.1041  0.8939
   96MPD2     H 1469   3.149   3.528  15.670  1.4106  1.5468  0.9754
   96MPD2    H1 1470   3.096   3.177  15.899 -1.3869  2.2977  1.1626
   96MPD2    H2 1471   3.384   3.176  15.591  0.1190 -1.1350 -0.4126
   96MPD2    H3 1472   3.268   3.068  15.782 -1.5475 -0.8145  0.1184
   96MPD2     N 1473   3.042   3.425  15.903 -0.0795 -0.3742 -0.6910
   96MPD2    H5 1474   3.024   3.366  15.983 -0.8400 -2.3454 -2.2943
   96MPD2    N1 1475   3.333   3.425  15.503  0.3046  0.0714  0.4381
   96MPD2    H7 1476   3.406   3.367  15.462  0.7685  1.1833 -0.3274
   97MPD2     C 1477   0.102   0.830   0.563  0.4917  0.5808  0.2984
   97MPD2    C1 1478   0.077   0.965   0.595 -0.5152 -0.0945  0.1953
   97MPD2    C2 1479   0.082   1.063   0.496  0.4937 -0.2253  0.3253
   97MPD2    C3 1480   0.124   1.029   0.372 -0.4480  0.3378  0.0947
   97MPD2    C4 1481   0.157   0.903   0.343  0.3282  0.0972  0.0058
   97MPD2    C5 1482   0.131   0.806   0.433  0.2423 -0.1974 -0.4165
   97MPD2     H 1483   0.062   1.166   0.523 -1.3090 -0.4893 -0.0291
   97MPD2    H1 1484   0.192   0.866   0.247 -1.1215  0.8628 -0.8243
   97MPD2    H2 1485   0.103   0.741   0.624  0.0714  1.9212  2.2839
   97MPD2    H3 1486   0.146   0.707   0.393 -0.6485 -0.0441 -1.1201
   97MPD2     N 1487   0.138   1.116   0.269  0.1388  0.2340 -0.0033
   97MPD2    H5 1488   0.160   1.072   0.181 -2.0517  0.1126 -0.4868
   97MPD2    N1 1489   0.038   0.991   0.732 -0.1435 -0.3556  0.7217
   97MPD2    H7 1490   0.052   0.916   0.799 -0.3826 -0.3778  0.7449
   98TCq2    C1 1491   0.151   1.252   0.282 -0.0994  0.1861  0.1887
   98TCq2    O2 1492   0.154   1.328   0.376 -0.1044  0.3063  0.2428
   98TCq2    C2 1493   0.197   1.308   0.155  0.3914 -0.0759 -0.2413
   98TCq2    C3 1494   0.151   1.262   0.039 -0.3769  0.1838  0.6869
   98TCq2    C4 1495   0.197   1.318  17.624  0.7155 -0.2779 -0.1219
   98TCq2    C5 1496   0.289   1.420  17.627  0.6665 -0.1101 -0.4917
   98TCq2    C6 1497   0.327   1.465   0.053 -0.5761  1.0710  0.0108
   98TCq2    C7 1498   0.286   1.404   0.162 -0.0576  0.3902  0.0647
   98TCq2    C8 1499   0.396   1.594   0.041  0.0160 -0.6210  0.4962
   98TCq2    O4 1500   0.457   1.622  17.637  0.0777 -0.0996  0.4790
   98TCq2    C9 1501   0.150   1.271  17.496  0.1016 -0.4896 -0.4326
   98TCq2    O5 1502   0.053   1.190  17.497 -0.2237  0.1914 -0.2676
   98TCq2    O6 1503   0.222   1.302  17.398 -0.4784 -0.1478 -0.3037
   98TCq2    H2 1504   0.080   1.180   0.029  1.0300 -0.7636 -1.5135
   98TCq2    H3 1505   0.321   1.463  17.532  0.1299  2.5285  0.5152
   98TCq2    H4 1506   0.329   1.429   0.258  0.7105  0.0703 -0.1980
   99MPD2     C 1507   4.703   3.211   1.414  0.3821 -0.3577  0.8128
   99MPD2    C1 1508   4.595   3.117   1.416 -0.0794 -0.5130  0.6873
   99MPD2    C2 1509   4.515   3.112   1.307 -0.1300 -0.1021  0.1339
   99MPD2    C3 1510   4.534   3.194   1.195 -0.4374 -0.0428 -0.5847
   99MPD2    C4 1511   4.635   3.288   1.203 -0.3208 -0.4112  0.0346
   99MPD2    C5 1512   4.717   3.297   1.311  0.2750 -0.5290 -0.2501
   99MPD2     H 1513   4.432   3.042   1.303 -0.9524  0.8351  0.8106
   99MPD2    H1 1514   4.649   3.359   1.123  0.4056 -2.2743 -1.4970
   99MPD2    H2 1515   0.040   3.240   1.499 -1.5573 -0.4933  2.2477
   99MPD2    H3 1516   0.053   3.386   1.321 -1.2917  0.5421 -0.4151
   99MPD2     N 1517   4.452   3.174   1.082 -0.1033 -0.3778  0.4343
   99MPD2    H5 1518   4.379   3.103   1.088  0.4074 -0.9734 -0.2563
   99MPD2    N1 1519   4.583   3.024   1.522 -0.2780  0.6596  0.4712
   99MPD2    H7 1520   4.517   2.949   1.506  0.6940  1.0289 -5.2298
  100TCq2    C1 1521   4.665   3.016   1.637 -0.4083  0.1446  0.3823
  100TCq2    O2 1522   0.033   3.091   1.672  0.4940  0.0578 -0.6479
  100TCq2    C2 1523   4.637   2.899   1.716  0.0834 -0.5044 -0.3183
  100TCq2    C3 1524   4.721   2.868   1.814 -0.4472 -0.6343  0.2689
  100TCq2    C4 1525   4.679   2.785   1.914  0.5214 -0.2995 -0.2263
  100TCq2    C5 1526   4.550   2.742   1.927  0.4645  0.9771  0.1230
  100TCq2    C6 1527   4.465   2.791   1.836 -1.1544 -0.1455 -0.6258
  100TCq2    C7 1528   4.504   2.875   1.731 -0.1932  0.2252 -0.0117
  100TCq2    C8 1529   4.322   2.763   1.856  0.1037 -0.3653 -0.2934
  100TCq2    O4 1530   4.305   2.697   1.959  0.1210  0.2688  0.1970
  100TCq2    C9 1531   0.041   2.757   2.019 -0.2552  0.1180 -0.0517
  100TCq2    O5 1532   0.025   2.642   2.075  0.2541  0.1877  0.3499
  100TCq2    O6 1533   0.139   2.838   2.025  0.2161  0.8472 -0.0269
  100TCq2    H2 1534   0.097   2.907   1.805 -1.3175  0.9783 -2.4966
  100TCq2    H3 1535   4.519   2.669   2.000 -0.6732  2.2451  0.9072
  100TCq2    H4 1536   4.430   2.924   1.670  2.2248  1.3780 -2.0391
  101MPD2     C 1537   0.122   3.745  12.793 -0.2998 -0.2850 -0.3524
  101MPD2    C1 1538   0.065   3.798  12.902 -0.4421 -0.2326  0.3570
  101MPD2    C2 1539   4.689   3.721  12.965 -0.2370  0.6894  0.1001
  101MPD2    C3 1540   4.647   3.595  12.919  0.0611 -0.2646 -0.3223
  101MPD2    C4 1541   4.714   3.543  12.808 -0.2056 -0.4969 -0.2300
  101MPD2    C5 1542   0.089   3.619  12.757  0.1391 -0.3154 -0.4361
  101MPD2     H 1543   4.646   3.755  13.059 -0.0631  1.2480 -0.0233
  101MPD2    H1 1544   4.692   3.446  12.765 -1.9445 -0.7430  1.1759
  101MPD2    H2 1545   0.195   3.795  12.731 -2.2984  1.3215 -1.4020
  101MPD2    H3 1546   0.148   3.584  12.673 -0.0664 -0.9036 -0.3313
  101MPD2     N 1547   4.527   3.531  12.965  0.2549  0.4406  0.7517
  101MPD2    H5 1548   4.503   3.441  12.924  0.9808  1.2712 -1.4730
  101MPD2    N1 1549   0.121   3.915  12.948  1.3447  0.3957  0.6618
  101MPD2    H7 1550   0.196   3.963  12.898 -1.5432  3.7628 -0.3984
  102TCq2    C1 1551   0.201   4.406  12.850 -0.2150  0.4014  0.2576
  102TCq2    O2 1552   0.256   4.353  12.758  0.4490  0.6448  0.0062
  102TCq2    C2 1553   0.165   4.328  12.971 -0.4828 -0.0755 -0.2714
  102TCq2    C3 1554   0.118   4.394  13.080 -0.2225 -0.4783  0.5069
  102TCq2    C4 1555   0.066   4.320  13.179  0.0008 -0.2796  0.0480
  102TCq2    C5 1556   0.069   4.182  13.182 -0.1166 -0.2111 -0.1717
  102TCq2    C6 1557   0.130   4.116  13.083  0.2508 -0.6590  0.2193
  102TCq2    C7 1558   0.177   4.190  12.969  0.3215 -0.4199 -0.0028
  102TCq2    C8 1559   0.090   3.977  13.063  0.3431 -0.3379 -0.0320
  102TCq2    O4 1560   0.031   3.933  13.159 -0.3083  0.4404  0.3496
  102TCq2    C9 1561   4.716   4.391  13.274  0.3543  0.6309  0.4375
  102TCq2    O5 1562   4.657   4.490  13.230  0.6304 -0.5430 -0.5324
  102TCq2    O6 1563   4.688   4.331  13.374 -0.8924  0.0468 -0.3708
  102TCq2    H2 1564   0.119   4.502  13.081  0.7392 -0.4919  2.3983
  102TCq2    H3 1565   4.724   4.143  13.256  0.7196 -0.8653  0.2602
  102TCq2    H4 1566   0.222   4.139  12.884  2.8598  0.8427  0.5828
  103TMC2    C1 1567   2.757   0.083  12.399 -0.3734 -0.3338 -0.0191
  103TMC2    C2 1568   2.879   0.132  12.393  0.0972  0.0096  0.0905
  103TMC2    C3 1569   2.974   0.056  12.458  0.3771 -0.2240  0.4168
  103TMC2    C4 1570   2.727   4.681  12.451  0.0227  0.2636  0.1776
  103TMC2    C5 1571   2.834   4.612  12.511  0.3040  0.4939 -1.0330
  103TMC2    C6 1572   2.962   4.658  12.512 -0.4590  0.1632  0.0999
  103TMC2     C 1573   2.643   0.164  12.359 -0.8111 -0.6207 -0.4717
  103TMC2     O 1574   2.555   0.112  12.289  0.2612  0.1140 -0.0984
  103TMC2     H 1575   2.916   0.217  12.336 -1.0148  0.0286 -0.5893
  103TMC2    H1 1576   2.628   4.637  12.447  0.0639  0.1604  0.3079
  103TMC2    H2 1577   3.048   4.598  12.542  1.0469  2.0736 -0.4412
  103TMC2    C7 1578   2.797   4.521  12.616 -0.1292 -0.0543 -0.2106
  103TMC2    C8 1579   3.108   0.101  12.447  0.0064 -0.0762  0.5614
  103TMC2    O1 1580   2.880   4.498  12.703 -0.0036 -0.0474 -0.3353
  103TMC2    O2 1581   3.135   0.192  12.368  0.0237  0.0596 -0.3004
  103TMC2    O5 1582   3.160   0.094  12.571 -0.7523 -0.0718 -0.0996
  103TMC2    H5 1583   3.130   0.032  12.642 -2.8636  0.7081 -0.2955
  104MPD2     C 1584   2.536   0.471  12.512 -0.1523 -0.2645 -0.1624
  104MPD2    C1 1585   2.530   0.372  12.422 -0.3297 -0.2623 -0.2522
  104MPD2    C2 1586   2.432   0.379  12.322 -0.3824 -0.0843 -0.4662
  104MPD2    C3 1587   2.331   0.480  12.328 -1.1152 -0.0302 -0.4089
  104MPD2    C4 1588   2.336   0.572  12.425  0.0374 -0.7389 -0.1532
  104MPD2    C5 1589   2.442   0.567  12.510 -0.7455  0.3493  0.0288
  104MPD2     H 1590   2.424   0.312  12.236 -0.8626  0.0282 -0.5085
  104MPD2    H1 1591   2.264   0.651  12.445  2.0287  0.8220  0.9270
  104MPD2    H2 1592   2.609   0.475  12.593 -0.0473  1.7169 -0.3554
  104MPD2    H3 1593   2.443   0.643  12.587  0.9764  1.2921 -0.9401
  104MPD2     N 1594   2.241   0.478  12.224  0.0614  0.4298 -0.3117
  104MPD2    H5 1595   2.251   0.406  12.153  1.6454  0.1965  0.1529
  104MPD2    N1 1596   2.633   0.276  12.431  0.2939 -0.0954 -0.1355
  104MPD2    H7 1597   2.697   0.290  12.509  0.3198 -1.1316  0.0216
  105MPD2     C 1598   4.258   3.599  17.452  0.4002  0.1540 -0.1849
  105MPD2    C1 1599   4.238   3.735  17.439 -0.0035 -0.2641 -0.1197
  105MPD2    C2 1600   4.204   3.797  17.556 -1.0957  0.1007 -0.0801
  105MPD2    C3 1601   4.182   3.732  17.673 -0.8123  0.2764  0.1506
  105MPD2    C4 1602   4.200   3.594  17.679 -0.2674  0.5579  1.0568
  105MPD2    C5 1603   4.226   3.529  17.566  0.0555  0.2623  0.2278
  105MPD2     H 1604   4.180   3.902  17.558  2.7679  0.9779  0.0381
  105MPD2    H1 1605   4.183   3.520   0.059  2.1894 -0.6726  0.4260
  105MPD2    H2 1606   4.267   3.538  17.363  1.2254  1.4757 -1.0069
  105MPD2    H3 1607   4.252   3.424  17.565 -1.4011 -0.0839 -2.0646
  105MPD2     N 1608   4.134   3.805   0.085 -0.0919  0.2244  0.0251
  105MPD2    H5 1609   4.116   3.904   0.070  2.7440  0.6282 -0.7771
  105MPD2    N1 1610   4.237   3.806  17.318 -0.7886 -0.1833  0.0122
  105MPD2    H7 1611   4.207   3.902  17.322  2.3699  0.8531 -0.7189
  106TCq2    C1 1612   4.129   3.768   0.216  0.5211  1.0703 -0.1541
  106TCq2    O2 1613   4.180   3.664   0.261 -0.6176  1.1585 -0.2905
  106TCq2    C2 1614   4.062   3.859   0.312 -0.4569 -0.3868  0.7229
  106TCq2    C3 1615   3.960   3.939   0.281  0.6174  0.3453 -0.1667
  106TCq2    C4 1616   3.889   3.995   0.386  0.0417  0.3568 -0.4644
  106TCq2    C5 1617   3.923   3.972   0.515 -0.3999  0.1518  0.1618
  106TCq2    C6 1618   4.028   3.891   0.541 -1.2112  0.0237 -0.4594
  106TCq2    C7 1619   4.092   3.832   0.445  0.0092  0.2350 -0.6864
  106TCq2    C8 1620   4.054   3.858   0.679  0.3481  0.0745 -0.2312
  106TCq2    O4 1621   4.064   3.736   0.703 -0.1812  0.0010  0.4431
  106TCq2    C9 1622   3.783   4.078   0.351 -0.6422 -0.8008  0.1908
  106TCq2    O5 1623   3.735   4.076   0.236 -1.2105 -0.1726 -0.0264
  106TCq2    O6 1624   3.738   4.143   0.449 -0.1193 -0.4249 -0.7614
  106TCq2    H2 1625   3.931   3.961   0.178 -0.1981 -1.0202 -0.2237
  106TCq2    H3 1626   3.850   3.999   0.590 -0.5023 -0.3113  0.2312
  106TCq2    H4 1627   4.171   3.765   0.476 -0.3515 -0.1940 -0.6893
  107TMC2    C1 1628   0.583   2.906  11.496 -0.5363  0.0417  0.5677
  107TMC2    C2 1629   0.636   2.872  11.622 -0.6606  0.3858 -0.4958
  107TMC2    C3 1630   0.768   2.896  11.656 -0.2304  0.8505 -0.5053
  107TMC2    C4 1631   0.663   2.967  11.406 -0.6416 -0.0405  0.9775
  107TMC2    C5 1632   0.799   2.983  11.437 -0.5413  0.1274 -0.2289
  107TMC2    C6 1633   0.851   2.955  11.560 -0.4449 -0.9564  0.3058
  107TMC2     C 1634   0.437   2.922  11.477 -0.6214  0.3010  0.7230
  107TMC2     O 1635   0.358   2.855  11.543 -0.0840 -0.2820 -0.0445
  107TMC2     H 1636   0.566   2.810  11.678 -0.5012  1.1487  0.5462
  107TMC2    H1 1637   0.634   3.001  11.308  0.9045  0.7854  0.7977
  107TMC2    H2 1638   0.958   2.959  11.575 -0.6171 -1.5163  1.6510
  107TMC2    C7 1639   0.878   3.063  11.341 -0.4287  0.2139 -0.5101
  107TMC2    C8 1640   0.814   2.876  11.793  0.0757  0.3171 -0.2023
  107TMC2    O1 1641   0.978   3.128  11.380  0.4452  0.0256 -0.2396
  107TMC2    O2 1642   0.753   2.798  11.859 -0.2277  0.4632  0.6753
  107TMC2    O5 1643   0.941   2.910  11.811 -0.4728  0.2832  0.2429
  107TMC2    H5 1644   0.951   3.002  11.780  0.9182 -0.1639 -0.6518
  108MPD2     C 1645   0.294   3.216  11.304  0.3874 -1.0487  0.6084
  108MPD2    C1 1646   0.295   3.115  11.391 -0.5242  0.0029  0.3270
  108MPD2    C2 1647   0.188   3.099  11.473 -0.2212 -0.0257  0.5777
  108MPD2    C3 1648   0.071   3.169  11.457 -0.3907 -0.4862 -0.0184
  108MPD2    C4 1649   0.072   3.264  11.355  0.9896 -0.1020 -0.3336
  108MPD2    C5 1650   0.187   3.294  11.285  0.6807 -0.0752 -0.3692
  108MPD2     H 1651   0.199   3.026  11.552  1.9143  0.7661  1.0054
  108MPD2    H1 1652   4.707   3.325  11.349  0.0001 -1.3346  1.9330
  108MPD2    H2 1653   0.384   3.239  11.248 -1.2030 -0.7420 -1.7912
  108MPD2    H3 1654   0.193   3.374  11.211 -0.5444 -0.3304 -0.7442
  108MPD2     N 1655   4.676   3.144  11.535 -0.5463 -0.3505  0.5172
  108MPD2    H5 1656   4.594   3.203  11.526 -1.9577 -2.3812  0.0536
  108MPD2    N1 1657   0.413   3.040  11.400 -0.8118 -0.4839 -0.1087
  108MPD2    H7 1658   0.496   3.083  11.363 -2.0559  1.2985 -0.8375
  109MPD2     C 1659   4.381   0.077   1.825 -0.0086 -0.8281  0.1069
  109MPD2    C1 1660   4.391   0.197   1.755 -0.3400  1.0224 -0.2250
  109MPD2    C2 1661   4.512   0.260   1.758  1.4135  0.0905  0.1329
  109MPD2    C3 1662   4.618   0.217   1.835  0.4566  0.3644 -0.2030
  109MPD2    C4 1663   4.605   0.090   1.888 -0.1155 -0.3977 -0.5630
  109MPD2    C5 1664   4.486   0.028   1.892 -0.3858  0.4825 -0.2910
  109MPD2     H 1665   4.526   0.353   1.703  1.5096  0.1405  0.2401
  109MPD2    H1 1666   4.682   0.047   1.951  0.7605  0.5206 -1.0146
  109MPD2    H2 1667   4.289   0.021   1.836  0.3283 -1.0550  1.7600
  109MPD2    H3 1668   4.477   4.660   1.949 -0.1120  0.6541  0.0353
  109MPD2     N 1669   0.006   0.302   1.841  0.3701 -0.1279 -0.0085
  109MPD2    H5 1670   0.004   0.383   1.780  1.9419 -0.7093 -0.7992
  109MPD2    N1 1671   4.281   0.244   1.682  0.1865  0.6554 -0.0780
  109MPD2    H7 1672   4.199   0.186   1.670 -0.0166  0.3135  3.1675
  110TCq2    C1 1673   0.119   0.277   1.909 -0.0278 -0.3052  0.4430
  110TCq2    O2 1674   0.136   0.193   1.994  0.0234  1.0130  0.3730
  110TCq2    C2 1675   0.230   0.355   1.857 -0.3364  0.5426 -0.2386
  110TCq2    C3 1676   0.351   0.354   1.922 -0.0663  0.2490 -0.5033
  110TCq2    C4 1677   0.445   0.444   1.889 -0.0855 -0.0986  0.1095
  110TCq2    C5 1678   0.423   0.542   1.794 -0.4402 -0.4126 -0.6397
  110TCq2    C6 1679   0.305   0.541   1.736  0.0666  0.0067  0.1085
  110TCq2    C7 1680   0.208   0.451   1.765 -0.3589  0.4341 -0.5546
  110TCq2    C8 1681   0.286   0.618   1.617  0.5108  0.4035  0.0438
  110TCq2    O4 1682   0.176   0.641   1.578 -0.4090 -0.3037  0.3641
  110TCq2    C9 1683   0.558   0.454   1.974 -0.5540 -0.1061  0.7341
  110TCq2    O5 1684   0.553   0.384   2.078 -0.3457  0.3840  0.4003
  110TCq2    O6 1685   0.668   0.501   1.926  0.3724 -0.1439 -0.4368
  110TCq2    H2 1686   0.380   0.273   1.988  2.3248  0.6441 -1.0690
  110TCq2    H3 1687   0.501   0.617   1.787 -0.1749 -0.8129 -1.9561
  110TCq2    H4 1688   0.112   0.462   1.715 -0.5484  0.3902 -0.1986
  111TMC2    C1 1689   0.321   0.499  11.330 -0.1405  0.2335  0.6646
  111TMC2    C2 1690   0.183   0.488  11.334  0.8528  0.2725 -0.1410
  111TMC2    C3 1691   0.121   0.519  11.452 -0.3691 -0.1333 -0.1004
  111TMC2    C4 1692   0.397   0.516  11.443 -0.2279  0.3235 -0.0570
  111TMC2    C5 1693   0.323   0.533  11.562  0.1120 -0.0255 -0.4611
  111TMC2    C6 1694   0.192   0.522  11.569 -0.4855 -0.6495 -0.9159
  111TMC2     C 1695   0.393   0.433  11.220  0.4102 -0.5723  0.6029
  111TMC2     O 1696   0.504   0.382  11.242 -0.2800 -0.5555  0.1205
  111TMC2     H 1697   0.118   0.484  11.247  1.2051 -3.4581 -0.2739
  111TMC2    H1 1698   0.505   0.508  11.436 -0.1141  1.1324  0.7984
  111TMC2    H2 1699   0.143   0.535  11.666 -1.1196  0.6081 -1.3945
  111TMC2    C7 1700   0.392   0.518  11.686  0.4507  0.2183 -0.0188
  111TMC2    C8 1701   4.694   0.512  11.468 -0.3014  0.5332  0.0650
  111TMC2    O1 1702   0.336   0.456  11.776 -0.1491 -0.4623 -0.2518
  111TMC2    O2 1703   4.638   0.526  11.577 -0.0666  0.0564 -0.1664
  111TMC2    O5 1704   4.635   0.504  11.344  0.1007  0.3741  0.3051
  111TMC2    H5 1705   4.539   0.516  11.361  0.1107  0.9307 -0.0210
  112MPD2     C 1706   0.349   0.170  10.782  0.4294  0.0816 -0.1939
  112MPD2    C1 1707   0.276   0.287  10.772 -0.4745 -0.6874  0.1917
  112MPD2    C2 1708   0.279   0.378  10.875  0.1470 -0.0475  0.1339
  112MPD2    C3 1709   0.342   0.347  10.997  0.0046 -0.5695 -0.3121
  112MPD2    C4 1710   0.415   0.232  11.006  0.1370 -0.2049 -0.0083
  112MPD2    C5 1711   0.423   0.144  10.896 -0.5236  0.9183 -1.0201
  112MPD2     H 1712   0.212   0.464  10.871 -0.2714 -0.3897 -0.2129
  112MPD2    H1 1713   0.470   0.202  11.094  3.9541  0.5890 -2.1241
  112MPD2    H2 1714   0.354   0.102  10.697 -1.8896  0.3589 -0.5404
  112MPD2    H3 1715   0.468   0.046  10.906 -0.7110  0.9222 -0.1637
  112MPD2     N 1716   0.325   0.437  11.104 -0.0988 -0.0302  0.6704
  112MPD2    H5 1717   0.256   0.511  11.094  2.0644  1.8674 -0.1198
  112MPD2    N1 1718   0.202   0.325  10.660  0.2841 -0.2479  0.2497
  112MPD2    H7 1719   0.171   0.421  10.653 -0.7089 -0.7266 -1.8970
  113MPD2     C 1720   3.619   3.194   0.567  0.0195 -0.2471 -0.5177
  113MPD2    C1 1721   3.518   3.143   0.647 -0.3111 -0.1541  0.4844
  113MPD2    C2 1722   3.400   3.101   0.585  0.2890 -0.1035  0.1683
  113MPD2    C3 1723   3.375   3.119   0.445 -0.1287  0.3022  0.2642
  113MPD2    C4 1724   3.482   3.154   0.373  0.6970 -0.2832  0.2843
  113MPD2    C5 1725   3.601   3.193   0.429 -0.3764  0.4362 -0.1757
  113MPD2     H 1726   3.312   3.075   0.643 -0.4161 -0.7584 -1.2135
  113MPD2    H1 1727   3.483   3.155   0.265  0.6315  3.7775  0.3207
  113MPD2    H2 1728   3.708   3.235   0.612 -1.6654  1.5743  1.1522
  113MPD2    H3 1729   3.675   3.223   0.355  2.0502 -0.7059  1.8090
  113MPD2     N 1730   3.252   3.096   0.377 -0.9918  0.4824  0.1497
  113MPD2    H5 1731   3.244   3.120   0.279 -0.6097 -3.3946 -0.8087
  113MPD2    N1 1732   3.532   3.126   0.788  0.9326  0.1208  0.2975
  113MPD2    H7 1733   3.446   3.103   0.836  1.2033  2.3045  1.8470
  114TCq2    C1 1734   3.140   3.034   0.422  0.0301 -0.0303 -1.0356
  114TCq2    O2 1735   3.119   2.978   0.528 -0.0594  0.2855 -0.9282
  114TCq2    C2 1736   3.034   3.047   0.323  0.4046  0.0767  0.0837
  114TCq2    C3 1737   3.051   3.149   0.225  0.6408 -0.1184  0.3798
  114TCq2    C4 1738   2.942   3.174   0.147 -0.4382 -0.2630 -0.1626
  114TCq2    C5 1739   2.822   3.099   0.160  0.2853  0.7063  0.0169
  114TCq2    C6 1740   2.814   3.001   0.256  0.3164 -0.4363  0.5708
  114TCq2    C7 1741   2.918   2.980   0.340  0.4708  0.2818  0.0534
  114TCq2    C8 1742   2.675   2.966   0.274  0.9271 -0.0083  0.3852
  114TCq2    O4 1743   2.585   3.019   0.209 -0.1534  1.0005  0.0950
  114TCq2    C9 1744   2.951   3.284   0.050 -0.1064  0.7718  0.1502
  114TCq2    O5 1745   2.845   3.313  17.689 -0.1821  0.3563 -0.1510
  114TCq2    O6 1746   3.065   3.334   0.024  0.5486 -0.4456 -0.1154
  114TCq2    H2 1747   3.137   3.209   0.199 -0.1554  0.0037 -2.0083
  114TCq2    H3 1748   2.739   3.122   0.095  1.7551 -0.3686 -2.2586
  114TCq2    H4 1749   2.911   2.896   0.408  0.2797  0.2186 -0.0423
  115TMC2    C1 1750   3.475   1.354  17.239 -0.3437 -0.5096  0.3213
  115TMC2    C2 1751   3.472   1.402  17.111 -0.3010 -0.3640  0.3083
  115TMC2    C3 1752   3.555   1.500  17.079 -0.4600 -1.2878 -0.3349
  115TMC2    C4 1753   3.560   1.410  17.333  0.2048  0.8284  0.4077
  115TMC2    C5 1754   3.649   1.508  17.294 -0.3218 -0.1801 -0.4527
  115TMC2    C6 1755   3.646   1.557  17.168  0.2635 -0.1908 -0.2562
  115TMC2     C 1756   3.380   1.249  17.276  0.4268  0.2372 -0.4802
  115TMC2     O 1757   3.311   1.206  17.182 -0.1722 -0.3487  0.2669
  115TMC2     H 1758   3.404   1.361  17.038  1.9586 -0.7261 -1.5915
  115TMC2    H1 1759   3.559   1.370  17.434 -0.1802  0.4916  0.2742
  115TMC2    H2 1760   3.731   1.617  17.138  1.0884 -1.4180 -0.3942
  115TMC2    C7 1761   3.774   1.519  17.370  0.2956  0.1595  0.3186
  115TMC2    C8 1762   3.542   1.562  16.952  0.3671  0.1938 -0.4976
  115TMC2    O1 1763   3.784   1.456  17.474  0.0364  0.3608  0.0443
  115TMC2    O2 1764   3.445   1.556  16.878 -0.0417 -0.3408  0.1186
  115TMC2    O5 1765   3.666   1.590  16.908 -0.3298 -0.1914  0.4019
  115TMC2    H5 1766   3.727   1.564  16.981 -1.0406  0.0198  1.0787
  116MPD2     C 1767   3.249   0.859  17.587 -0.1561 -0.5384 -0.0440
  116MPD2    C1 1768   3.268   0.856  17.451 -0.6910  0.6351 -0.7976
  116MPD2    C2 1769   3.300   0.983  17.393  0.4169  0.1204 -0.7087
  116MPD2    C3 1770   3.323   1.098  17.467  0.0052  0.0002 -0.5788
  116MPD2    C4 1771   3.295   1.095  17.606 -0.1920  0.0469 -0.6225
  116MPD2    C5 1772   3.265   0.976  17.664  0.7757  0.4177  0.2106
  116MPD2     H 1773   3.302   0.993  17.285 -0.2634 -0.0732 -0.7405
  116MPD2    H1 1774   3.315   1.177  17.674  1.3889 -1.8981  1.2672
  116MPD2    H2 1775   3.237   0.765  17.639 -1.9094 -0.4285 -0.2468
  116MPD2    H3 1776   3.248   0.962   0.072  2.9481 -0.9920  0.3633
  116MPD2     N 1777   3.377   1.218  17.409 -1.2712 -0.4747  0.3775
  116MPD2    H5 1778   3.431   1.282  17.467 -1.2073 -1.6712  1.6379
  116MPD2    N1 1779   3.283   0.748  17.367 -0.2061  0.0151  0.2490
  116MPD2    H7 1780   3.301   0.755  17.267  2.0216 -1.0147  0.5796
  117TMC2    C1 1781   2.340   2.558  13.873 -0.5221 -0.1429  0.1000
  117TMC2    C2 1782   2.369   2.425  13.879 -0.1840 -0.9860  0.2170
  117TMC2    C3 1783   2.493   2.378  13.884  0.7274 -0.1052  0.4620
  117TMC2    C4 1784   2.438   2.650  13.905  0.0933  0.1987 -0.2988
  117TMC2    C5 1785   2.566   2.606  13.923 -0.6041  0.8399  0.1402
  117TMC2    C6 1786   2.594   2.470  13.902  0.0957 -0.6181  0.1651
  117TMC2     C 1787   2.207   2.609  13.842 -0.3745  0.2863 -0.0533
  117TMC2     O 1788   2.186   2.726  13.873  0.6135 -0.5457  0.1114
  117TMC2     H 1789   2.283   2.359  13.886  0.3702 -1.5030  2.0806
  117TMC2    H1 1790   2.414   2.756  13.899  1.1343  0.6126  2.6307
  117TMC2    H2 1791   2.693   2.427  13.904 -0.6559 -2.4420 -1.2663
  117TMC2    C7 1792   2.679   2.693  13.908 -0.2614 -0.5398  0.1297
  117TMC2    C8 1793   2.511   2.241  13.844  0.8537  0.5990 -0.1711
  117TMC2    O1 1794   2.788   2.646  13.939  0.2492  0.1714  0.1661
  117TMC2    O2 1795   2.417   2.173  13.807 -0.2111  0.0657 -0.1215
  117TMC2    O5 1796   2.594   2.194  13.940  0.3862  0.2312  0.6328
  117TMC2    H5 1797   2.663   2.253  13.977 -0.8371  2.1697 -0.2086
  118MPD2     C 1798   2.669   2.954  13.646 -0.1922  0.6333 -0.7374
  118MPD2    C1 1799   2.728   2.881  13.752  0.9442 -0.0329  0.3163
  118MPD2    C2 1800   2.869   2.890  13.755  0.0288 -0.2916  0.3940
  118MPD2    C3 1801   2.938   2.974  13.671 -0.2444 -0.7041 -0.2651
  118MPD2    C4 1802   2.874   3.041  13.571 -0.1940  0.1588 -0.1677
  118MPD2    C5 1803   2.741   3.035  13.563  0.6227  1.1581 -0.2506
  118MPD2     H 1804   2.924   2.824  13.820  1.2779  1.8444  1.5070
  118MPD2    H1 1805   2.926   3.115  13.510 -0.2746 -0.3424 -0.8456
  118MPD2    H2 1806   2.562   2.971  13.642 -0.2064 -0.0639 -3.4194
  118MPD2    H3 1807   2.692   3.100  13.491 -1.7376 -0.1768  0.1333
  118MPD2     N 1808   3.078   2.996  13.684  0.0096  0.2986  0.6172
  118MPD2    H5 1809   3.121   3.050  13.609 -1.6848 -3.1556 -2.8815
  118MPD2    N1 1810   2.643   2.800  13.835  0.4769 -0.1000  0.1016
  118MPD2    H7 1811   2.543   2.808  13.821  0.6571  1.4548 -0.2936
  119MPD2     C 1812   0.554   4.554  13.964  0.1008  0.9100  0.3656
  119MPD2    C1 1813   0.455   4.462  13.953 -0.2117  0.0602 -0.4590
  119MPD2    C2 1814   0.408   4.416  13.837 -0.0397 -0.4625  0.2737
  119MPD2    C3 1815   0.454   4.480  13.719  0.2209 -0.7206  0.3533
  119MPD2    C4 1816   0.551   4.572  13.733 -0.0531  0.5218 -0.6968
  119MPD2    C5 1817   0.600   4.613  13.846 -0.2462 -1.0870 -0.4943
  119MPD2     H 1818   0.334   4.336  13.839 -1.4285  0.8960  2.9591
  119MPD2    H1 1819   0.594   4.608  13.640  1.6450  0.7195  0.1639
  119MPD2    H2 1820   0.611   4.571  14.055  2.2554 -0.6023 -0.6849
  119MPD2    H3 1821   0.678   4.688  13.841 -1.2281  0.0672  1.4083
  119MPD2     N 1822   0.415   4.450  13.586  0.4411  0.0827 -0.1672
  119MPD2    H5 1823   0.452   4.511  13.514  1.4575  0.9212  1.0541
  119MPD2    N1 1824   0.415   4.404  14.078  0.2908 -0.5661  0.5964
  119MPD2    H7 1825   0.471   4.426  14.159 -0.4612 -2.1599  1.5485
  120TCq2    C1 1826   0.336   4.344  13.561 -0.3077 -0.1835  0.0368
  120TCq2    O2 1827   0.282   4.268  13.642  0.3094 -0.0506 -0.3040
  120TCq2    C2 1828   0.337   4.311  13.426  0.5350 -0.0880  0.4085
  120TCq2    C3 1829   0.372   4.397  13.335 -0.4795  0.0355 -0.1711
  120TCq2    C4 1830   0.423   4.358  13.219  0.3263 -0.0222 -0.2885
  120TCq2    C5 1831   0.450   4.228  13.200  0.0312 -0.0104  2.0242
  120TCq2    C6 1832   0.411   4.133  13.287 -0.1448 -0.2828 -0.2406
  120TCq2    C7 1833   0.348   4.175  13.407  0.2573  0.3213 -0.7487
  120TCq2    C8 1834   0.427   3.996  13.252 -0.0232  0.0077  0.0167
  120TCq2    O4 1835   0.492   3.977  13.148 -0.0949  0.1811 -0.3796
  120TCq2    C9 1836   0.463   4.458  13.119  0.6665  1.7678  0.1341
  120TCq2    O5 1837   0.513   4.564  13.163 -0.2150 -0.2174  0.5442
  120TCq2    O6 1838   0.492   4.415  13.003 -0.2981 -0.2653 -0.0145
  120TCq2    H2 1839   0.362   4.505  13.343  0.0707 -0.0102  1.1494
  120TCq2    H3 1840   0.490   4.198  13.104  1.3800  0.3197  2.4817
  120TCq2    H4 1841   0.329   4.115  13.495  0.2077  1.2120 -0.1565
  121TMC2    C1 1842   2.008   1.035  13.901 -0.4735 -0.5253  0.0346
  121TMC2    C2 1843   2.013   1.167  13.902 -0.7430  0.4686  0.2484
  121TMC2    C3 1844   1.898   1.242  13.897  1.1757  0.1443  0.1751
  121TMC2    C4 1845   1.883   0.973  13.915  0.5985  0.4276  0.1108
  121TMC2    C5 1846   1.771   1.050  13.905  0.7329 -0.0192 -0.5255
  121TMC2    C6 1847   1.775   1.190  13.904 -0.2715 -0.4909  0.0035
  121TMC2     C 1848   2.111   0.953  13.847  0.4598  0.4665  0.6405
  121TMC2     O 1849   2.121   0.831  13.866  0.0806  0.7259  0.4498
  121TMC2     H 1850   2.109   1.215  13.921 -0.5737  0.3410 -0.2881
  121TMC2    H1 1851   1.879   0.865  13.911  0.7627  0.3366  2.2298
  121TMC2    H2 1852   1.690   1.252  13.932  1.2184  1.7415 -0.3892
  121TMC2    C7 1853   1.649   0.977  13.946 -0.2680  0.5395 -0.3786
  121TMC2    C8 1854   1.900   1.386  13.935 -0.2578 -0.0897 -0.8132
  121TMC2    O1 1855   1.660   0.870  14.006 -0.2821  0.5219 -0.5690
  121TMC2    O2 1856   1.809   1.424  14.003 -0.0061  0.5526 -0.2296
  121TMC2    O5 1857   2.029   1.433  13.928 -0.6864  0.3177  0.5694
  121TMC2    H5 1858   2.074   1.401  13.847 -2.0265  1.2461 -0.5247
  122MPD2     C 1859   2.399   0.903  13.762 -0.3017 -0.2081  0.1803
  122MPD2    C1 1860   2.314   0.996  13.704  0.5583 -0.0590  0.0675
  122MPD2    C2 1861   2.359   1.086  13.615  0.2895 -0.0220  0.1182
  122MPD2    C3 1862   2.485   1.088  13.579  0.3572 -0.7745 -1.1855
  122MPD2    C4 1863   2.566   0.992  13.630 -0.2239  0.7751  0.7991
  122MPD2    C5 1864   2.525   0.892  13.710 -0.2303  0.1427  0.2320
  122MPD2     H 1865   2.289   1.146  13.558 -1.1893 -1.8893 -0.0720
  122MPD2    H1 1866   2.662   0.980  13.581 -0.3002  0.0923  0.8265
  122MPD2    H2 1867   2.357   0.839  13.839 -2.4324  1.4823  0.4064
  122MPD2    H3 1868   2.597   0.815  13.736 -0.2664 -0.6114 -1.8218
  122MPD2     N 1869   2.532   1.186  13.487 -0.0228 -0.3401 -0.3384
  122MPD2    H5 1870   2.631   1.182  13.465 -0.6215  1.5730 -3.4251
  122MPD2    N1 1871   2.181   1.026  13.752 -0.5891  0.7753  0.4827
  122MPD2    H7 1872   2.137   1.112  13.721 -0.7643  0.4712 -0.1210
  123MPD2     C 1873   0.178   3.238  10.756  0.0135 -0.1811 -0.1656
  123MPD2    C1 1874   0.230   3.236  10.628  0.3875 -0.2011 -0.5857
  123MPD2    C2 1875   0.336   3.318  10.601  0.2535 -0.0540  0.0416
  123MPD2    C3 1876   0.388   3.406  10.686  0.0693 -0.3709  0.2439
  123MPD2    C4 1877   0.325   3.419  10.810  0.0308  0.2552  0.8441
  123MPD2    C5 1878   0.221   3.339  10.843 -0.0941  0.1738  0.5145
  123MPD2     H 1879   0.377   3.313  10.501 -1.0590  1.1097 -0.5556
  123MPD2    H1 1880   0.358   3.491  10.884  4.1469 -0.2798 -0.4817
  123MPD2    H2 1881   0.093   3.176  10.781  0.0811 -0.7124 -1.2368
  123MPD2    H3 1882   0.181   3.353  10.942  0.5059 -0.7954  0.8992
  123MPD2     N 1883   0.499   3.486  10.638 -0.1152 -0.0236  0.3727
  123MPD2    H5 1884   0.508   3.495  10.537  0.5324 -3.9630  0.0906
  123MPD2    N1 1885   0.169   3.150  10.536 -0.2713  0.2346 -0.2175
  123MPD2    H7 1886   0.092   3.098  10.576 -1.0180  2.0647  0.7279
  124TCq2    C1 1887   0.591   3.549  10.711  0.0771 -1.1380 -0.4470
  124TCq2    O2 1888   0.605   3.551  10.831  0.8418 -0.0361  1.0308
  124TCq2    C2 1889   0.676   3.639  10.629  0.2688  0.1601 -0.1626
  124TCq2    C3 1890   0.786   3.690  10.696  0.8305  0.5477  0.5286
  124TCq2    C4 1891   0.872   3.766  10.621  0.2253 -0.1663 -0.2123
  124TCq2    C5 1892   0.844   3.803  10.492  0.7008 -0.1895 -0.0670
  124TCq2    C6 1893   0.728   3.757  10.432 -0.4252  0.3071  0.3829
  124TCq2    C7 1894   0.640   3.681  10.502  0.3365 -0.2970  0.0788
  124TCq2    C8 1895   0.691   3.795  10.298 -0.4517 -0.0558 -0.2213
  124TCq2    O4 1896   0.642   3.702  10.234  0.1207  0.4958 -0.2217
  124TCq2    C9 1897   0.993   3.814  10.681  0.3181 -0.9632 -0.1919
  124TCq2    O5 1898   1.010   3.789  10.801  0.0263 -0.0718 -0.1547
  124TCq2    O6 1899   1.062   3.890  10.607 -0.0619  0.1423 -0.2334
  124TCq2    H2 1900   0.808   3.661  10.798  0.3669 -0.9985  0.1792
  124TCq2    H3 1901   0.912   3.877  10.452  0.6802 -1.1786 -1.9469
  124TCq2    H4 1902   0.538   3.668  10.465 -0.0549  2.1615  0.3357
  125TMC2    C1 1903   1.000   0.455   9.237 -0.1013 -0.0784 -0.1806
  125TMC2    C2 1904   1.057   0.517   9.341  0.2620  0.3986  0.3692
  125TMC2    C3 1905   1.151   0.466   9.415  0.7920 -0.6110  0.1177
  125TMC2    C4 1906   1.026   0.320   9.214 -0.0710 -0.1182 -0.5210
  125TMC2    C5 1907   1.109   0.264   9.308 -0.2048  0.0042 -0.6266
  125TMC2    C6 1908   1.176   0.329   9.409 -0.8141  0.3907 -0.3660
  125TMC2     C 1909   0.934   0.522   9.131  0.4596 -0.6940 -0.4997
  125TMC2     O 1910   0.927   0.470   9.022  0.6561  0.5666 -0.0015
  125TMC2     H 1911   1.031   0.621   9.356 -0.6297  0.2021  0.1927
  125TMC2    H1 1912   0.986   0.271   9.127 -0.2869  0.3774 -0.7002
  125TMC2    H2 1913   1.232   0.280   9.487 -1.6865  1.9379  1.2192
  125TMC2    C7 1914   1.169   0.136   9.260  0.1710  0.4032 -0.3573
  125TMC2    C8 1915   1.204   0.556   9.514  1.1724  0.6991  0.5590
  125TMC2    O1 1916   1.084   0.066   9.206 -0.0744  0.0559  0.2653
  125TMC2    O2 1917   1.146   0.658   9.549  0.5548 -0.1147  0.1557
  125TMC2    O5 1918   1.323   0.514   9.557  0.1168 -0.3759 -0.0466
  125TMC2    H5 1919   1.348   0.453   9.485  1.1404 -0.6690  0.5567
  126MPD1     C 1920   0.661   0.910   8.943 -0.3544  0.3663 -0.2374
  126MPD1    C1 1921   0.667   0.929   9.079  0.5711  0.6538 -1.1486
  126MPD1    C2 1922   0.741   0.833   9.148  0.0508 -0.3223 -1.1691
  126MPD1    C3 1923   0.816   0.734   9.085 -0.8354  0.3933 -0.0336
  126MPD1    C4 1924   0.829   0.734   8.948  1.3136 -0.0314  0.3536
  126MPD1    C5 1925   0.749   0.824   8.881  0.0549  0.0518 -0.5454
  126MPD1     H 1926   0.745   0.828   9.256  1.2564  1.6325 -1.1154
  126MPD1    H1 1927   0.898   0.666   8.900  0.6125 -0.2794 -0.2951
  126MPD1    H2 1928   0.583   0.966   8.893 -1.3895 -1.4009 -0.6026
  126MPD1    H3 1929   0.745   0.800   8.776 -0.6979 -0.3357 -0.4245
  126MPD1     N 1930   0.874   0.638   9.174  0.8239  0.3587 -0.7020
  126MPD1    H5 1931   0.872   0.651   9.275  0.9112 -0.5051 -0.5897
  126MPD1    N1 1932   0.568   1.010   9.143 -0.4572 -0.0464 -0.6418
  126MPD1    H6 1933   0.604   1.029   9.236 -0.8801  2.6516 -1.0242
  126MPD1    H7 1934   0.545   1.096   9.094  0.5251  0.7571  0.3105
  127MPD2     C 1935   3.025   3.661   9.322 -0.0064  0.1971  0.6024
  127MPD2    C1 1936   2.993   3.671   9.459  0.4697 -0.3249  0.0481
  127MPD2    C2 1937   3.004   3.792   9.527  0.2422  0.0641  0.2384
  127MPD2    C3 1938   3.049   3.900   9.456  0.5713  1.4324  0.3438
  127MPD2    C4 1939   3.081   3.891   9.321  0.1759  0.1963 -0.6518
  127MPD2    C5 1940   3.057   3.770   9.254  0.7623  0.0182  0.6164
  127MPD2     H 1941   2.979   3.813   9.630 -0.7251  1.2730 -0.2528
  127MPD2    H1 1942   3.116   3.978   9.266 -0.4905  0.3862 -0.7696
  127MPD2    H2 1943   3.007   3.566   9.274  0.5092  0.0998  0.5993
  127MPD2    H3 1944   3.074   3.767   9.147 -0.0688  0.6866  0.4703
  127MPD2     N 1945   3.065   4.024   9.530 -0.3707  0.0011  0.0465
  127MPD2    H5 1946   3.068   4.015   9.631  1.4945 -1.4347 -0.1475
  127MPD2    N1 1947   2.927   3.564   9.523 -0.3568 -0.1444  0.1114
  127MPD2    H7 1948   2.896   3.488   9.462 -2.0533  0.7667 -0.1429
  128TCq2    C1 1949   2.868   3.571   9.647 -0.2793 -0.4140  0.3036
  128TCq2    O2 1950   2.870   3.656   9.734 -0.3626 -0.1964  0.2155
  128TCq2    C2 1951   2.774   3.457   9.669 -0.1809  0.5719  0.1352
  128TCq2    C3 1952   2.763   3.364   9.572 -0.1937 -0.2513 -0.2305
  128TCq2    C4 1953   2.641   3.305   9.549  0.1461 -0.1007  0.1740
  128TCq2    C5 1954   2.537   3.331   9.629  0.0090  0.0377  0.3531
  128TCq2    C6 1955   2.556   3.419   9.733  0.4079 -0.6778  0.1346
  128TCq2    C7 1956   2.671   3.488   9.751 -0.0113 -0.4822  0.5480
  128TCq2    C8 1957   2.446   3.498   9.783 -0.4473  0.5872 -0.3975
  128TCq2    O4 1958   2.459   3.619   9.795  0.0652 -0.0187 -0.9229
  128TCq2    C9 1959   2.622   3.213   9.436 -0.8307  0.2988 -0.4710
  128TCq2    O5 1960   2.508   3.163   9.416 -0.6161  0.6093 -0.3066
  128TCq2    O6 1961   2.711   3.181   9.356  0.1315 -0.4238  0.2300
  128TCq2    H2 1962   2.851   3.321   9.527 -1.3621 -2.9030  0.0121
  128TCq2    H3 1963   2.441   3.290   9.599 -1.3789  3.0095  0.7050
  128TCq2    H4 1964   2.676   3.567   9.825  0.0422 -0.9734  1.0671
  129MPD2     C 1965   0.387   1.067   0.685  0.8553 -0.3868  0.6683
  129MPD2    C1 1966   0.520   1.028   0.701  0.4609 -0.2488 -0.3096
  129MPD2    C2 1967   0.621   1.107   0.649  0.5403  0.4850  0.3311
  129MPD2    C3 1968   0.595   1.214   0.563  0.2555  0.5240 -0.0036
  129MPD2    C4 1969   0.463   1.247   0.543  0.5340  0.3150 -0.8049
  129MPD2    C5 1970   0.358   1.175   0.602  0.6879 -0.0214  0.3246
  129MPD2     H 1971   0.724   1.077   0.654  0.7581  0.9848 -1.1512
  129MPD2    H1 1972   0.446   1.328   0.473  0.6479  2.4947  1.6786
  129MPD2    H2 1973   0.310   1.002   0.725 -1.2813  2.1083  0.6041
  129MPD2    H3 1974   0.253   1.196   0.583  0.4458  0.5931  2.3213
  129MPD2     N 1975   0.711   1.289   0.513  0.9595  0.4252 -0.0377
  129MPD2    H5 1976   0.798   1.249   0.548  0.3522 -1.2926 -0.5015
  129MPD2    N1 1977   0.565   0.921   0.779 -0.0828 -0.1058  0.1347
  129MPD2    H7 1978   0.665   0.910   0.789  0.1831 -0.2656 -2.6652
  130TCq2    C1 1979   0.488   0.842   0.864 -0.1448  0.1036  0.0184
  130TCq2    O2 1980   0.364   0.847   0.872  0.2278  0.0164  0.0207
  130TCq2    C2 1981   0.564   0.725   0.916 -0.4910 -0.8467 -0.0789
  130TCq2    C3 1982   0.680   0.670   0.860  0.0128 -0.0752 -0.2397
  130TCq2    C4 1983   0.725   0.551   0.905  0.8036  1.1507  1.1438
  130TCq2    C5 1984   0.676   0.495   1.014 -0.4047 -0.1326 -0.3357
  130TCq2    C6 1985   0.570   0.559   1.074  0.3220 -0.3572  0.2210
  130TCq2    C7 1986   0.509   0.673   1.029 -0.5135 -0.7732  0.3112
  130TCq2    C8 1987   0.500   0.496   1.186  0.2200 -0.2625 -0.1355
  130TCq2    O4 1988   0.380   0.484   1.181  0.8560 -0.1845 -0.0966
  130TCq2    C9 1989   0.828   0.490   0.833  0.2105  0.6248 -0.1151
  130TCq2    O5 1990   0.863   0.375   0.875 -0.0462 -0.1614  0.2036
  130TCq2    O6 1991   0.889   0.566   0.747 -0.0438  0.5931 -0.3221
  130TCq2    H2 1992   0.729   0.726   0.781  0.1875  0.1393  0.0200
  130TCq2    H3 1993   0.707   0.398   1.050  1.8310 -0.6818 -3.7699
  130TCq2    H4 1994   0.423   0.714   1.080 -1.4974 -1.4392 -0.8157
  131MPD2     C 1995   4.578   3.217   9.595 -0.0552 -0.3426 -0.2103
  131MPD2    C1 1996   4.695   3.253   9.655 -0.4839  1.0182 -0.6864
  131MPD2    C2 1997   4.721   3.213   9.783 -0.6943  0.2715 -0.3014
  131MPD2    C3 1998   4.624   3.146   9.854  1.3949  0.1396  0.9491
  131MPD2    C4 1999   4.509   3.116   9.794 -0.4800  0.0437 -0.0646
  131MPD2    C5 2000   4.494   3.134   9.660 -0.3402  0.3141  0.3584
  131MPD2     H 2001   0.087   3.238   9.838 -0.0904 -0.4082 -0.9935
  131MPD2    H1 2002   4.438   3.055   9.849  1.5060  0.3261  2.8147
  131MPD2    H2 2003   4.560   3.240   9.490 -0.4241  2.0154  0.3801
  131MPD2    H3 2004   4.405   3.098   9.609  0.5761  0.3388 -1.2465
  131MPD2     N 2005   4.644   3.111   9.991  0.6266 -0.0488 -0.1805
  131MPD2    H5 2006   0.018   3.118  10.018  0.5624 -1.5131  0.4354
  131MPD2    N1 2007   0.054   3.341   9.585 -0.2209 -0.1132  0.1775
  131MPD2    H7 2008   0.027   3.349   9.488 -2.8419  1.9740  1.0909
  132TCq2    C1 2009   0.305   3.868   9.595  0.4198  0.1136  0.0159
  132TCq2    O2 2010   0.294   3.864   9.721 -0.1712 -0.1254  0.0785
  132TCq2    C2 2011   0.267   3.742   9.521 -0.1666 -0.4003 -0.0635
  132TCq2    C3 2012   0.244   3.739   9.386  0.0956  0.1962 -0.0146
  132TCq2    C4 2013   0.191   3.627   9.332  0.5347  0.1150 -0.5390
  132TCq2    C5 2014   0.181   3.514   9.408  0.2584  0.4042 -0.3679
  132TCq2    C6 2015   0.210   3.514   9.542  0.2818  0.6674  0.4842
  132TCq2    C7 2016   0.252   3.629   9.600 -0.0167 -0.2635 -0.1762
  132TCq2    C8 2017   0.167   3.411   9.630 -0.3824  0.8985 -0.1040
  132TCq2    O4 2018   0.212   3.411   9.742  0.1540  0.1833  0.2247
  132TCq2    C9 2019   0.144   3.623   9.195  0.1247 -0.4249  0.1665
  132TCq2    O5 2020   0.139   3.731   9.129  0.0603  0.4842  0.2490
  132TCq2    O6 2021   0.082   3.519   9.163 -0.2782  0.4208 -0.1121
  132TCq2    H2 2022   0.266   3.824   9.322 -0.6592  1.1617  1.0196
  132TCq2    H3 2023   0.155   3.423   9.356  2.8051  0.0937 -1.0960
  132TCq2    H4 2024   0.281   3.628   9.704 -0.9628  1.3691  0.1048
  133MPD2     C 2025   3.208   0.494   9.040  0.0580  0.6452  0.1298
  133MPD2    C1 2026   3.302   0.492   9.139  0.3621 -0.0982 -0.2155
  133MPD2    C2 2027   3.360   0.368   9.184 -0.2002  0.3960 -0.1611
  133MPD2    C3 2028   3.314   0.252   9.125  0.1311  0.1607 -0.3246
  133MPD2    C4 2029   3.214   0.255   9.031 -0.4321 -0.1468  0.1216
  133MPD2    C5 2030   3.161   0.377   8.991 -0.4769 -0.6703  0.7653
  133MPD2     H 2031   3.445   0.366   9.251 -0.4784  0.9200  0.2100
  133MPD2    H1 2032   3.186   0.163   8.981  0.0697  0.3706 -1.1295
  133MPD2    H2 2033   3.176   0.582   8.984 -0.9576 -0.3886 -0.8957
  133MPD2    H3 2034   3.102   0.378   8.899  0.0748  1.2353  0.4253
  133MPD2     N 2035   3.377   0.130   9.141 -0.0248 -0.4713  0.4193
  133MPD2    H5 2036   3.342   0.056   9.081  1.6863 -0.9548 -0.0037
  133MPD2    N1 2037   3.346   0.622   9.175 -1.1992  0.2099  0.5404
  133MPD2    H7 2038   3.304   0.704   9.134 -1.7897  0.3081  1.3254
  134TCq2    C1 2039   3.460   0.662   9.238 -0.3011 -0.6044 -0.1151
  134TCq2    O2 2040   3.545   0.588   9.277 -0.0181 -0.1884  0.2466
  134TCq2    C2 2041   3.469   0.804   9.264 -0.6774 -0.8456  0.0351
  134TCq2    C3 2042   3.387   0.898   9.209 -0.3874  0.1693 -0.6246
  134TCq2    C4 2043   3.401   1.029   9.244  0.7860 -0.4325 -0.4037
  134TCq2    C5 2044   3.514   1.073   9.317  0.3394 -0.2464  0.2287
  134TCq2    C6 2045   3.592   0.973   9.369 -0.2436  0.2159  0.4129
  134TCq2    C7 2046   3.570   0.841   9.349 -0.1084  0.0955  0.5287
  134TCq2    C8 2047   3.672   1.014   9.482 -0.6568  0.4369  0.3008
  134TCq2    O4 2048   3.747   0.932   9.543 -0.4050  0.2008  0.0811
  134TCq2    C9 2049   3.302   1.120   9.193 -0.7740  0.0930  0.6135
  134TCq2    O5 2050   3.294   1.224   9.263 -0.2345 -0.5266  0.2835
  134TCq2    O6 2051   3.216   1.069   9.115  0.1505 -0.0133  0.0239
  134TCq2    H2 2052   3.307   0.876   9.139 -1.5444 -0.6127  0.9380
  134TCq2    H3 2053   3.529   1.179   9.332 -0.2495 -0.3102  1.2840
  134TCq2    H4 2054   3.633   0.765   9.395  2.4436  2.0418  0.2397
  135MPD2     C 2055   1.279   0.452   8.996 -0.4646  0.4654  0.4563
  135MPD2    C1 2056   1.379   0.503   9.075  1.1021  0.3583  0.3570
  135MPD2    C2 2057   1.486   0.424   9.113 -0.3772 -0.0299  0.8209
  135MPD2    C3 2058   1.513   0.303   9.058 -0.1882 -0.4705  0.2361
  135MPD2    C4 2059   1.421   0.254   8.968  0.1665  0.3769 -0.1680
  135MPD2    C5 2060   1.304   0.327   8.945  0.3434  0.4847  0.0618
  135MPD2     H 2061   1.554   0.473   9.182 -0.9293 -0.5240  1.7270
  135MPD2    H1 2062   1.435   0.158   8.919  4.9349  1.1272 -0.2589
  135MPD2    H2 2063   1.193   0.506   8.958  1.2652  2.9179  0.0328
  135MPD2    H3 2064   1.229   0.278   8.884  1.5093 -0.0053 -1.0007
  135MPD2     N 2065   1.631   0.224   9.089 -0.5463  0.2952 -0.3269
  135MPD2    H5 2066   1.665   0.153   9.026 -0.0238  0.1673  0.0996
  135MPD2    N1 2067   1.367   0.639   9.120 -0.8387 -0.4267  0.8112
  135MPD2    H7 2068   1.440   0.665   9.184 -0.6162 -0.2487  0.4881
  136TCq2    C1 2069   1.268   0.727   9.093 -0.4595  0.8312  0.1412
  136TCq2    O2 2070   1.185   0.726   9.001 -0.2431  0.0031 -0.3384
  136TCq2    C2 2071   1.290   0.858   9.152  0.3614  0.0682 -0.4476
  136TCq2    C3 2072   1.249   0.963   9.080 -0.1077 -0.5757  0.0230
  136TCq2    C4 2073   1.288   1.088   9.122  0.0144 -0.0330  0.0100
  136TCq2    C5 2074   1.368   1.114   9.234 -0.0410  0.0909  0.1993
  136TCq2    C6 2075   1.379   1.002   9.318  0.4277 -0.1945 -0.0072
  136TCq2    C7 2076   1.343   0.873   9.277 -0.0550  0.6891  0.3548
  136TCq2    C8 2077   1.482   1.017   9.429  0.4914  0.5781 -0.1732
  136TCq2    O4 2078   1.578   1.087   9.410  0.1563  0.6522 -0.5828
  136TCq2    C9 2079   1.268   1.207   9.036 -0.2936  1.2061 -0.5429
  136TCq2    O5 2080   1.183   1.195   8.946  0.0904  0.1597 -0.2110
  136TCq2    O6 2081   1.326   1.318   9.064 -0.4046  0.1261  0.4997
  136TCq2    H2 2082   1.198   0.951   8.985 -0.6583 -0.2710  0.2821
  136TCq2    H3 2083   1.391   1.216   9.263  1.4563  0.2356 -1.4892
  136TCq2    H4 2084   1.358   0.786   9.339  0.7285 -0.2031 -1.0857
  137MPD2     C 2085   1.495   3.533   9.998 -0.1309 -0.0534  0.2853
  137MPD2    C1 2086   1.561   3.638   9.944  0.2652  0.7282 -0.1770
  137MPD2    C2 2087   1.585   3.762  10.011  0.2578 -0.1281  0.1056
  137MPD2    C3 2088   1.552   3.781  10.138 -0.1561  0.3650 -0.0877
  137MPD2    C4 2089   1.495   3.670  10.202  0.0839  0.0323 -0.6265
  137MPD2    C5 2090   1.464   3.558  10.130 -0.0030 -0.6951 -0.3417
  137MPD2     H 2091   1.622   3.848   9.955  1.8244 -0.3005  0.8673
  137MPD2    H1 2092   1.475   3.669  10.309 -1.3295 -1.4145 -0.9025
  137MPD2    H2 2093   1.457   3.452   9.938 -1.1190  0.8378 -0.2960
  137MPD2    H3 2094   1.441   3.467  10.184 -0.4217  0.9811  2.2820
  137MPD2     N 2095   1.594   3.895  10.210  0.2257  0.0138  0.1720
  137MPD2    H5 2096   1.664   3.950  10.161  0.3667 -1.2834 -1.0608
  137MPD2    N1 2097   1.587   3.616   9.804  0.1368 -0.8008  0.4647
  137MPD2    H7 2098   1.554   3.527   9.768 -0.9021  0.9280 -2.8423
  138TCq2    C1 2099   1.646   3.705   9.719 -0.1484 -0.2684  0.5902
  138TCq2    O2 2100   1.685   3.820   9.742 -0.3875 -0.6402  0.1297
  138TCq2    C2 2101   1.688   3.647   9.596 -0.2843  0.0440 -0.5850
  138TCq2    C3 2102   1.697   3.508   9.588 -1.0699 -0.3543  0.3719
  138TCq2    C4 2103   1.719   3.453   9.460  0.1909  0.0024 -0.0066
  138TCq2    C5 2104   1.712   3.525   9.348 -0.6501 -0.2498  0.0917
  138TCq2    C6 2105   1.698   3.659   9.363 -0.2387 -0.1466 -0.5855
  138TCq2    C7 2106   1.695   3.719   9.484 -0.2227 -0.5668 -0.3260
  138TCq2    C8 2107   1.658   3.734   9.255  0.1050 -0.0972 -0.3623
  138TCq2    O4 2108   1.697   3.704   9.142  0.1082 -0.3288  0.2145
  138TCq2    C9 2109   1.707   3.309   9.441 -1.0220  0.2268 -0.2692
  138TCq2    O5 2110   1.693   3.268   9.320  1.0638  0.4016 -0.5799
  138TCq2    O6 2111   1.651   3.243   9.535  0.3993  0.3280  0.2491
  138TCq2    H2 2112   1.705   3.449   9.679  2.5285 -3.1559 -1.7539
  138TCq2    H3 2113   1.720   3.479   9.250  1.0615  4.0599 -1.7781
  138TCq2    H4 2114   1.706   3.826   9.495  1.4957 -0.8346  0.6654
  139TMC2    C1 2115   2.149   3.828  13.076 -0.6034  0.5360  0.8145
  139TMC2    C2 2116   2.124   3.915  12.976  0.3687 -0.4227 -0.3448
  139TMC2    C3 2117   2.006   3.980  12.971  0.0523 -0.0825  0.3758
  139TMC2    C4 2118   2.057   3.815  13.177 -0.2859  0.4984 -0.5681
  139TMC2    C5 2119   1.934   3.883  13.174 -0.0791  0.1407  0.4157
  139TMC2    C6 2120   1.915   3.965  13.063  0.4839 -0.9423  0.1318
  139TMC2     C 2121   2.236   3.718  13.051  0.6715 -0.7339  0.1599
  139TMC2     O 2122   2.251   3.679  12.934 -0.5597 -0.0144  0.2596
  139TMC2     H 2123   2.194   3.916  12.893 -0.2384 -0.9699 -0.8687
  139TMC2    H1 2124   2.084   3.756  13.264 -0.5056 -0.9633 -1.4906
  139TMC2    H2 2125   1.825   4.025  13.052  1.6638  0.7384 -0.4708
  139TMC2    C7 2126   1.852   3.918  13.286  0.1708 -0.0007 -0.3680
  139TMC2    C8 2127   1.977   4.071  12.867  0.0989 -0.1586  0.2429
  139TMC2    O1 2128   1.765   3.999  13.269 -0.3764  0.2587 -0.2380
  139TMC2    O2 2129   1.897   4.046  12.780  0.5214  0.0468 -0.2368
  139TMC2    O5 2130   2.092   4.143  12.858 -0.3143 -0.1917  0.1512
  139TMC2    H5 2131   2.127   4.146  12.950 -0.1204  0.0604  0.0705
  140MPD2     C 2132   2.410   3.503  13.296 -0.3900 -0.5311 -0.5460
  140MPD2    C1 2133   2.350   3.538  13.178  0.0247 -0.0415  0.4022
  140MPD2    C2 2134   2.367   3.450  13.069 -0.9596 -0.2006  0.1147
  140MPD2    C3 2135   2.422   3.326  13.086 -0.2908  0.5258  0.3822
  140MPD2    C4 2136   2.480   3.291  13.209  0.9455  0.4502  0.2734
  140MPD2    C5 2137   2.474   3.383  13.311 -0.5515 -0.3064  0.1451
  140MPD2     H 2138   2.311   3.462  12.977 -0.4933  0.8330 -0.0419
  140MPD2    H1 2139   2.517   3.191  13.232 -0.5335 -0.6243 -1.9960
  140MPD2    H2 2140   2.401   3.566  13.383  0.3652  1.5957 -1.9947
  140MPD2    H3 2141   2.514   3.363  13.409  0.5723  0.8108 -0.0764
  140MPD2     N 2142   2.426   3.246  12.972 -0.0048  0.1078  0.2748
  140MPD2    H5 2143   2.390   3.291  12.888  0.8477  0.7536  0.2564
  140MPD2    N1 2144   2.285   3.665  13.169 -0.0433  0.3564 -0.0358
  140MPD2    H7 2145   2.277   3.726  13.250  2.1537 -0.7491  1.0013
  141TCq2    C1 2146   2.797   4.198  14.260  0.5175 -0.2534 -0.6208
  141TCq2    O2 2147   2.795   4.306  14.204  0.7492  0.7476  0.3204
  141TCq2    C2 2148   2.852   4.176  14.395 -0.1742  0.0283 -0.2527
  141TCq2    C3 2149   2.877   4.048  14.431  0.0275 -0.7474 -0.2641
  141TCq2    C4 2150   2.910   4.035  14.568 -0.3392  0.7355  0.1582
  141TCq2    C5 2151   2.893   4.135  14.659 -0.8932 -0.3637  0.5704
  141TCq2    C6 2152   2.846   4.256  14.611  1.0893 -0.2958 -0.8342
  141TCq2    C7 2153   2.824   4.281  14.481 -0.5720  0.3234 -0.2459
  141TCq2    C8 2154   2.792   4.337  14.714 -0.3733  0.6212 -0.4030
  141TCq2    O4 2155   2.742   4.281  14.815  0.5338  0.2804 -0.8467
  141TCq2    C9 2156   2.958   3.911  14.615  0.1645 -0.1798  0.6028
  141TCq2    O5 2157   2.981   3.898  14.739 -0.8623  0.8072 -0.1663
  141TCq2    O6 2158   2.964   3.811  14.536  0.0628  0.0981  0.8287
  141TCq2    H2 2159   2.888   3.968  14.359  0.0444  0.3327 -1.4636
  141TCq2    H3 2160   2.893   4.105  14.763 -0.1972  1.8068  1.1806
  141TCq2    H4 2161   2.798   4.377  14.438  1.3054  1.1892  0.5578
  142MPD2     C 2162   0.380   2.903   9.309 -0.4729 -0.1731  0.2160
  142MPD2    C1 2163   0.333   2.979   9.422 -0.2528 -0.3320  0.4454
  142MPD2    C2 2164   0.374   3.110   9.445 -0.4478 -0.5329  0.1983
  142MPD2    C3 2165   0.479   3.165   9.366 -0.3473  0.1887 -0.0895
  142MPD2    C4 2166   0.516   3.091   9.253  0.1476 -0.1339  0.2416
  142MPD2    C5 2167   0.457   2.970   9.222 -0.0308  0.8148  0.8880
  142MPD2     H 2168   0.333   3.163   9.530  0.6957 -0.0104  0.4290
  142MPD2    H1 2169   0.567   3.137   9.170 -1.1745  1.1700  0.1516
  142MPD2    H2 2170   0.334   2.806   9.289  0.7996 -0.5635 -0.7615
  142MPD2    H3 2171   0.484   2.922   9.128 -3.2685 -0.9098  0.8450
  142MPD2     N 2172   0.534   3.287   9.389  0.0141 -0.0462  0.2468
  142MPD2    H5 2173   0.611   3.313   9.328  0.8086  0.1985  1.3612
  142MPD2    N1 2174   0.236   2.918   9.510 -0.0371  0.4731  0.9650
  142MPD2    H7 2175   0.196   2.831   9.479 -0.8213  1.2555 -0.1946
  143TCq2    C1 2176   0.506   3.362   9.503 -0.5005 -0.2026  0.2529
  143TCq2    O2 2177   0.462   3.329   9.612  0.0383 -0.1306 -0.1989
  143TCq2    C2 2178   0.580   3.486   9.507 -0.3905 -0.3687 -0.1285
  143TCq2    C3 2179   0.594   3.556   9.390  0.3834  0.5826 -0.3770
  143TCq2    C4 2180   0.620   3.689   9.404  0.7382 -0.7933 -0.1554
  143TCq2    C5 2181   0.638   3.750   9.529 -0.2251  0.2825  0.6550
  143TCq2    C6 2182   0.641   3.666   9.640  0.1123 -0.7996 -0.1530
  143TCq2    C7 2183   0.610   3.534   9.632  0.9113 -0.7654 -0.1242
  143TCq2    C8 2184   0.661   3.718   9.776 -0.1907  0.6333 -0.9294
  143TCq2    O4 2185   0.680   3.635   9.866 -0.2268 -0.0787  0.1133
  143TCq2    C9 2186   0.609   3.767   9.287 -0.1164 -0.2340  0.6387
  143TCq2    O5 2187   0.616   3.893   9.302 -0.0943  0.1617 -0.5814
  143TCq2    O6 2188   0.561   3.715   9.183 -0.4468 -0.2638 -0.0627
  143TCq2    H2 2189   0.590   3.504   9.295  0.3406  2.0946 -1.2039
  143TCq2    H3 2190   0.666   3.855   9.533 -1.4037  0.6184  0.2461
  143TCq2    H4 2191   0.581   3.478   9.720 -2.3689  2.2568  0.6956
  144MPD2     C 2192   3.106   2.360   0.706  0.0188 -0.5862 -0.1710
  144MPD2    C1 2193   3.110   2.229   0.658 -0.9696  0.4479  0.4408
  144MPD2    C2 2194   3.229   2.164   0.650  0.3365  0.7269 -0.0802
  144MPD2    C3 2195   3.351   2.228   0.682 -0.3163  0.8099 -0.5316
  144MPD2    C4 2196   3.349   2.359   0.732  0.2555 -0.1051  0.4564
  144MPD2    C5 2197   3.226   2.422   0.745  0.3802  0.7597 -0.3395
  144MPD2     H 2198   3.224   2.065   0.606  2.7469  0.9431 -0.8271
  144MPD2    H1 2199   3.431   2.416   0.773  0.8984 -0.2350 -0.6364
  144MPD2    H2 2200   3.010   2.410   0.715  0.0219 -0.4574 -0.8489
  144MPD2    H3 2201   3.232   2.522   0.787 -0.5270  1.1103 -1.0316
  144MPD2     N 2202   3.482   2.165   0.663 -0.4954  0.0633  0.6581
  144MPD2    H5 2203   3.565   2.222   0.680  0.2019 -0.5404 -0.6533
  144MPD2    N1 2204   2.998   2.163   0.603 -0.1447  0.4138 -0.8067
  144MPD2    H7 2205   3.009   2.072   0.559  1.5026  0.2058  0.0069
  145TCq2    C1 2206   3.507   2.035   0.620  0.5534 -0.6405 -0.1390
  145TCq2    O2 2207   3.422   1.952   0.586  0.5271  0.0849 -0.3290
  145TCq2    C2 2208   3.643   2.009   0.586 -0.3318  0.0560 -0.3554
  145TCq2    C3 2209   3.664   1.895   0.505 -0.6668  0.6833  0.8478
  145TCq2    C4 2210   3.788   1.867   0.484  0.3580  0.2750 -0.2434
  145TCq2    C5 2211   3.896   1.938   0.540  0.3316 -0.4080 -0.0812
  145TCq2    C6 2212   3.871   2.043   0.624  0.6395  0.3562 -0.4782
  145TCq2    C7 2213   3.743   2.085   0.644 -0.3509 -0.1097  0.3097
  145TCq2    C8 2214   3.986   2.100   0.689  0.1668  0.0949  0.3415
  145TCq2    O4 2215   4.089   2.039   0.681 -0.1606 -0.6141  0.0305
  145TCq2    C9 2216   3.825   1.754   0.407 -0.3607 -0.2825 -0.6858
  145TCq2    O5 2217   3.735   1.694   0.345  0.0131 -0.1377  0.3049
  145TCq2    O6 2218   3.943   1.756   0.356 -0.2186 -0.7398  0.3116
  145TCq2    H2 2219   3.584   1.840   0.458  0.3997  1.2479 -1.5939
  145TCq2    H3 2220   3.999   1.914   0.517 -0.1053 -2.4968  0.1561
  145TCq2    H4 2221   3.718   2.155   0.722 -1.0595  0.4919 -0.4591
  146TMC2    C1 2222   4.419   1.212  12.279 -1.0721 -1.0078 -0.0864
  146TMC2    C2 2223   4.369   1.284  12.173  0.2371  0.3132 -0.4261
  146TMC2    C3 2224   4.335   1.214  12.060  0.0564 -0.0117 -0.3717
  146TMC2    C4 2225   4.428   1.079  12.284  0.8692  0.1388  0.0352
  146TMC2    C5 2226   4.407   1.010  12.165  1.4633  0.2622  0.1867
  146TMC2    C6 2227   4.357   1.077  12.049  0.6963 -0.9569 -0.5316
  146TMC2     C 2228   4.413   1.286  12.407  0.4431  0.4084 -0.5990
  146TMC2     O 2229   4.366   1.398  12.390  0.3201  0.5391 -0.7952
  146TMC2     H 2230   4.329   1.384  12.179 -0.1478  0.1099  0.4277
  146TMC2    H1 2231   4.458   1.022  12.371  3.3457  0.3859 -0.6680
  146TMC2    H2 2232   4.334   1.017  11.961  0.1026 -1.3965 -0.0729
  146TMC2    C7 2233   4.467   0.880  12.137  0.0856 -0.0363  0.3447
  146TMC2    C8 2234   4.293   1.292  11.946  0.1930 -0.9037 -0.4493
  146TMC2    O1 2235   4.422   0.826  12.036 -0.4438  0.0392  0.2645
  146TMC2    O2 2236   4.248   1.402  11.951 -0.3648  0.0549  0.3400
  146TMC2    O5 2237   4.296   1.222  11.829 -0.0268 -0.1094 -0.0380
  146TMC2    H5 2238   4.355   1.144  11.825 -1.6924 -1.4635  1.5861
  147MPD2     C 2239   0.149   0.575  12.145  0.4996 -0.1224 -0.0379
  147MPD2    C1 2240   0.134   0.629  12.276 -0.0467  0.4340 -0.0486
  147MPD2    C2 2241   0.034   0.729  12.296 -0.5365 -0.4347  0.0924
  147MPD2    C3 2242   4.676   0.760  12.192 -0.2919  0.1494 -0.7269
  147MPD2    C4 2243   4.679   0.699  12.072  0.0477 -0.3944 -0.4033
  147MPD2    C5 2244   0.057   0.609  12.051 -0.0846 -0.5469  0.1921
  147MPD2     H 2245   0.011   0.771  12.393 -2.4708  0.7043 -0.8615
  147MPD2    H1 2246   4.612   0.717  11.989  1.2583 -2.3352 -1.7937
  147MPD2    H2 2247   0.209   0.487  12.124  0.4877 -0.4503  1.3310
  147MPD2    H3 2248   0.076   0.565  11.954  1.7454 -0.6794  0.6096
  147MPD2     N 2249   4.572   0.857  12.219  0.6110 -0.4399 -0.2931
  147MPD2    H5 2250   4.587   0.912  12.303  3.4279 -1.9011  0.1472
  147MPD2    N1 2251   0.219   0.582  12.380  0.4796  0.1057 -0.1647
  147MPD2    H7 2252   0.294   0.522  12.350 -0.3193  0.0188 -1.9706
  148MPD2     C 2253   0.010   3.558  10.965  0.1332  0.0751  0.3660
  148MPD2    C1 2254   0.014   3.663  10.871  0.2193  0.7959  0.3060
  148MPD2    C2 2255   4.626   3.699  10.798  0.3428 -0.3232  0.1046
  148MPD2    C3 2256   4.512   3.620  10.807  1.1067  0.5576 -0.3749
  148MPD2    C4 2257   4.509   3.515  10.893  0.4338 -0.1259  0.1729
  148MPD2    C5 2258   4.616   3.484  10.969 -0.3489 -0.3052 -0.1517
  148MPD2     H 2259   4.629   3.785  10.732  1.1040  0.7644  1.5302
  148MPD2    H1 2260   4.419   3.455  10.906  0.6054 -0.5829 -0.7912
  148MPD2    H2 2261   0.096   3.535  11.026 -0.5681  2.1335  2.1344
  148MPD2    H3 2262   4.624   3.398  11.034 -0.1099 -0.7916 -0.8290
  148MPD2     N 2263   4.400   3.640  10.721  0.4143  0.1783  0.1111
  148MPD2    H5 2264   4.334   3.563  10.712  1.1423 -0.3720 -0.5660
  148MPD2    N1 2265   0.125   3.747  10.862  0.1719  0.0288 -0.4230
  148MPD2    H7 2266   0.127   3.813  10.785 -1.7034 -0.3564 -0.7991
  149TCq2    C1 2267   0.247   3.736  10.920 -0.2660  0.1282  0.0121
  149TCq2    O2 2268   0.269   3.699  11.036 -0.1903 -0.3995 -0.1552
  149TCq2    C2 2269   0.356   3.799  10.850  0.3997  0.1107  0.5436
  149TCq2    C3 2270   0.467   3.831  10.927 -0.1484 -0.1818 -0.4542
  149TCq2    C4 2271   0.555   3.923  10.879 -0.7136  0.0978  0.5716
  149TCq2    C5 2272   0.539   3.971  10.752  0.5688 -0.3761  0.3339
  149TCq2    C6 2273   0.432   3.939  10.675 -0.2910 -0.1727  0.2649
  149TCq2    C7 2274   0.335   3.856  10.727  0.3866 -0.1033 -0.3275
  149TCq2    C8 2275   0.426   4.011  10.547  0.1143 -0.1138  0.7047
  149TCq2    O4 2276   0.497   4.109  10.535 -0.2420  0.5338  1.1574
  149TCq2    C9 2277   0.684   3.920  10.949 -0.2837  0.9289  0.0410
  149TCq2    O5 2278   0.714   3.814  11.019  0.2516 -0.1620  0.0348
  149TCq2    O6 2279   0.775   3.996  10.909  0.3511 -0.3870  0.6994
  149TCq2    H2 2280   0.487   3.770  11.015  3.8396  0.3139 -1.0467
  149TCq2    H3 2281   0.613   4.041  10.716  0.4806 -0.0222  0.8250
  149TCq2    H4 2282   0.241   3.842  10.675  0.6644  0.9176 -1.1183
  150MPD2     C 2283   1.892   3.987  12.015  0.6426  0.7321  1.2753
  150MPD2    C1 2284   1.937   3.960  11.888 -0.1521  0.3714 -0.0544
  150MPD2    C2 2285   2.045   4.030  11.837  0.2978  0.0593 -1.4845
  150MPD2    C3 2286   2.092   4.142  11.900 -0.1108 -0.0243 -0.2601
  150MPD2    C4 2287   2.042   4.170  12.026  0.2809 -0.5926  0.8656
  150MPD2    C5 2288   1.946   4.089  12.083 -0.5590  0.2381 -0.5138
  150MPD2     H 2289   2.092   4.002  11.743 -1.0435 -1.4497 -1.7111
  150MPD2    H1 2290   2.085   4.252  12.083 -0.3198  0.6529 -0.4812
  150MPD2    H2 2291   1.811   3.930  12.059 -0.4432  1.8316  0.6894
  150MPD2    H3 2292   1.913   4.093  12.186  0.9890  1.3921 -0.0777
  150MPD2     N 2293   2.207   4.203  11.839 -0.9270 -0.1168 -0.8124
  150MPD2    H5 2294   2.244   4.163  11.754 -0.9326 -0.2153 -0.7679
  150MPD2    N1 2295   1.874   3.851  11.819 -0.9907 -0.3565  0.7731
  150MPD2    H7 2296   1.798   3.805  11.868  0.0045  0.4136  3.0020
  151TCq2    C1 2297   2.266   4.311  11.888  1.2154  0.6099 -0.1700
  151TCq2    O2 2298   2.230   4.392  11.973  0.4216  0.2066  0.3316
  151TCq2    C2 2299   2.376   4.350  11.808 -0.1355  0.3711 -0.4170
  151TCq2    C3 2300   2.394   4.484  11.798  0.5638 -0.4227 -0.2543
  151TCq2    C4 2301   2.515   4.541  11.770  0.0123 -0.1091  0.0238
  151TCq2    C5 2302   2.630   4.460  11.749 -0.5444  0.1826 -0.3487
  151TCq2    C6 2303   2.611   4.324  11.753 -0.9243  0.3376 -0.5048
  151TCq2    C7 2304   2.484   4.270  11.787  0.0504  0.4834 -0.2536
  151TCq2    C8 2305   2.728   4.242  11.790 -0.0511 -0.2263  0.6370
  151TCq2    O4 2306   2.709   4.124  11.792  0.7539 -0.3713 -0.7804
  151TCq2    C9 2307   2.518   4.682  11.754  0.1199 -0.2845 -0.9694
  151TCq2    O5 2308   2.416   0.027  11.755 -0.5214 -0.0022 -0.2056
  151TCq2    O6 2309   2.631   0.008  11.741  0.7918 -0.3199  0.1380
  151TCq2    H2 2310   2.306   4.545  11.814  0.5894 -0.5403  0.3645
  151TCq2    H3 2311   2.729   4.500  11.729  0.2718 -0.9279  1.5326
  151TCq2    H4 2312   2.469   4.163  11.786 -1.0752  0.6466 -0.4818
  152MPD2     C 2313   1.814   3.311  11.877  0.3367  0.1482  0.5457
  152MPD2    C1 2314   1.864   3.420  11.946 -0.0261  0.2879  0.4143
  152MPD2    C2 2315   1.802   3.464  12.063 -0.6077  0.2497  0.2937
  152MPD2    C3 2316   1.692   3.390  12.105  0.8314  0.2760  0.2822
  152MPD2    C4 2317   1.651   3.277  12.036 -0.0942  0.3339  0.1257
  152MPD2    C5 2318   1.717   3.230  11.931 -0.1620  0.2785 -0.1308
  152MPD2     H 2319   1.813   3.563  12.106 -1.1986  0.2325  0.4785
  152MPD2    H1 2320   1.558   3.228  12.062 -0.0342  1.2971  2.1792
  152MPD2    H2 2321   1.859   3.274  11.786 -0.8662 -0.4536  0.1894
  152MPD2    H3 2322   1.687   3.144  11.872 -1.7390  0.1412  0.8463
  152MPD2     N 2323   1.615   3.459  12.196  0.3260 -0.2766  0.3260
  152MPD2    H5 2324   1.640   3.555  12.216 -0.4308  0.1859 -0.9570
  152MPD2    N1 2325   1.978   3.490  11.897 -0.0878  0.3854  0.4950
  152MPD2    H7 2326   2.014   3.462  11.806  2.1971  0.7061  1.3077
  153TCq2    C1 2327   2.038   3.602  11.953 -0.2637  0.0781 -0.4270
  153TCq2    O2 2328   2.026   3.660  12.063 -0.0666 -0.0403 -0.3426
  153TCq2    C2 2329   2.140   3.649  11.863 -0.4897 -1.2630  0.5938
  153TCq2    C3 2330   2.145   3.598  11.735 -0.4987 -0.3023 -0.6771
  153TCq2    C4 2331   2.244   3.646  11.651  0.0007  0.0493 -0.5464
  153TCq2    C5 2332   2.340   3.734  11.701  0.1012 -0.8934  0.6433
  153TCq2    C6 2333   2.334   3.779  11.832  0.2794 -1.2243  0.4004
  153TCq2    C7 2334   2.228   3.745  11.905 -0.1703  0.0248 -0.0501
  153TCq2    C8 2335   2.452   3.855  11.886  0.8051  0.5426  0.5386
  153TCq2    O4 2336   2.527   3.912  11.810  0.3786  0.3103  0.4878
  153TCq2    C9 2337   2.247   3.600  11.515  0.8166  0.1051 -0.2327
  153TCq2    O5 2338   2.360   3.602  11.460  0.3088  0.0703 -0.4827
  153TCq2    O6 2339   2.143   3.544  11.470 -0.5113  0.6328  0.6085
  153TCq2    H2 2340   2.086   3.517  11.695  0.6652 -2.6447  2.3844
  153TCq2    H3 2341   2.411   3.776  11.631 -0.7752 -0.0109  0.2903
  153TCq2    H4 2342   2.227   3.774  12.010 -0.6424  3.9760 -1.1363
  154MPD2     C 2343   3.167   4.011   0.292  1.1080  0.2542 -0.2874
  154MPD2    C1 2344   3.217   3.922   0.377 -0.1634  0.6226 -0.2280
  154MPD2    C2 2345   3.141   3.863   0.479 -0.1038 -0.2784 -0.3128
  154MPD2    C3 2346   3.003   3.896   0.479 -0.1364  0.5806  1.1514
  154MPD2    C4 2347   2.954   3.982   0.388 -0.4684  0.0415 -0.4896
  154MPD2    C5 2348   3.036   4.035   0.291 -0.3323  0.1216 -0.1282
  154MPD2     H 2349   3.183   3.790   0.546  0.1554 -0.4524 -0.6642
  154MPD2    H1 2350   2.849   4.010   0.392 -0.3056  0.4838  0.6587
  154MPD2    H2 2351   3.222   4.045   0.205 -0.3105  2.2840 -0.3769
  154MPD2    H3 2352   3.007   4.107   0.215 -1.0731 -0.5282 -0.4623
  154MPD2     N 2353   2.925   3.829   0.572 -0.5879 -0.2645 -0.3221
  154MPD2    H5 2354   2.958   3.745   0.619 -0.0070  0.8362  1.2440
  154MPD2    N1 2355   3.349   3.883   0.353 -0.1387  0.2349  0.1813
  154MPD2    H7 2356   3.396   3.930   0.276 -0.5904 -0.8391 -0.7484
  155TCq2    C1 2357   3.418   3.784   0.424  0.1252  0.0710 -0.0614
  155TCq2    O2 2358   3.374   3.698   0.497 -0.3391  0.1581 -0.3039
  155TCq2    C2 2359   3.550   3.753   0.377  0.2254 -0.3143 -0.2345
  155TCq2    C3 2360   3.631   3.686   0.460 -0.7234 -0.2061  0.2196
  155TCq2    C4 2361   3.730   3.612   0.403 -0.2673  0.8033 -0.3314
  155TCq2    C5 2362   3.765   3.614   0.270 -0.4740 -0.5394  0.0942
  155TCq2    C6 2363   3.674   3.676   0.188 -0.0189  0.2966  0.2714
  155TCq2    C7 2364   3.569   3.748   0.240  0.0424 -0.4688 -0.3952
  155TCq2    C8 2365   3.732   3.711   0.065 -0.4403  0.1067  0.1130
  155TCq2    O4 2366   3.800   3.625   0.009  0.6308  0.5306 -0.2990
  155TCq2    C9 2367   3.820   3.545   0.495 -0.1924  0.2941  0.5576
  155TCq2    O5 2368   3.810   3.568   0.618  0.1427  0.9118  0.0416
  155TCq2    O6 2369   3.930   3.506   0.450  0.3077 -0.3445  0.3597
  155TCq2    H2 2370   3.613   3.671   0.566  1.2563  0.8779  0.7009
  155TCq2    H3 2371   3.856   3.568   0.233  0.8849  1.0719  1.4207
  155TCq2    H4 2372   3.488   3.781   0.176 -2.0824  0.3427  2.7171
  156MPD2     C 2373   2.292   0.953  12.576 -0.8402 -0.2687 -0.5451
  156MPD2    C1 2374   2.236   1.017  12.465 -0.1263 -0.1565 -0.5869
  156MPD2    C2 2375   2.153   1.121  12.489 -0.1587 -0.0966  0.2356
  156MPD2    C3 2376   2.123   1.160  12.615  0.3624 -0.8948  0.2558
  156MPD2    C4 2377   2.184   1.099  12.725  0.5236  0.0318  0.2654
  156MPD2    C5 2378   2.255   0.987  12.707  0.1207 -0.3099  0.3958
  156MPD2     H 2379   2.105   1.184  12.414  1.0393 -0.6438 -0.9875
  156MPD2    H1 2380   2.170   1.120  12.831 -0.5023  1.1944 -0.0995
  156MPD2    H2 2381   2.347   0.863  12.553  1.5483  1.1196 -0.2876
  156MPD2    H3 2382   2.284   0.925  12.791 -0.9612  1.1623  1.8605
  156MPD2     N 2383   2.025   1.264  12.619 -0.2095 -0.8492 -0.5061
  156MPD2    H5 2384   1.998   1.297  12.527  0.5852 -0.0973 -0.4680
  156MPD2    N1 2385   2.267   0.976  12.330 -0.3824 -0.1310 -0.4902
  156MPD2    H7 2386   2.343   0.910  12.322  0.4383  0.7492  0.1051
  157TCq2    C1 2387   2.219   1.024  12.214  0.3928  0.7041  0.2500
  157TCq2    O2 2388   2.124   1.099  12.205 -0.1353  0.2627 -0.2104
  157TCq2    C2 2389   2.258   0.948  12.097  0.1303 -0.1898  0.1734
  157TCq2    C3 2390   2.358   0.856  12.100  0.0582 -0.0869  0.3847
  157TCq2    C4 2391   2.394   0.791  11.976 -0.1074 -0.5840  0.4796
  157TCq2    C5 2392   2.323   0.817  11.868 -0.2133  0.8507  0.1747
  157TCq2    C6 2393   2.233   0.925  11.870 -0.0008  0.4301  0.4527
  157TCq2    C7 2394   2.208   0.999  11.980 -0.4429  0.5120  0.2889
  157TCq2    C8 2395   2.158   0.953  11.746  0.4515  0.6848 -0.4437
  157TCq2    O4 2396   2.095   1.059  11.755 -0.3893 -0.2433 -0.0394
  157TCq2    C9 2397   2.505   0.706  11.977  1.1199  0.7321  1.1080
  157TCq2    O5 2398   2.568   0.702  12.087 -0.0689  0.0051  0.1100
  157TCq2    O6 2399   2.538   0.642  11.875 -0.0590  0.1731  0.2792
  157TCq2    H2 2400   2.405   0.827  12.193 -0.4381 -1.7857  0.1065
  157TCq2    H3 2401   2.353   0.772  11.774  1.0015 -1.3673  1.6447
  157TCq2    H4 2402   2.138   1.082  11.979 -0.2172  0.6665 -2.7136
  158TMC2    C1 2403   2.465   0.196  13.475  0.2043  0.0551  0.2842
  158TMC2    C2 2404   2.537   0.235  13.367  0.1054 -0.2418  0.9564
  158TMC2    C3 2405   2.477   0.321  13.276 -0.9751 -0.3211 -0.5256
  158TMC2    C4 2406   2.335   0.237  13.496  0.1344 -0.3472 -0.9204
  158TMC2    C5 2407   2.276   0.304  13.399 -0.4814  0.4408  0.7483
  158TMC2    C6 2408   2.341   0.341  13.282 -0.5788 -0.0004 -0.2168
  158TMC2     C 2409   2.532   0.122  13.580  0.3682 -0.0131 -0.7093
  158TMC2     O 2410   2.649   0.147  13.596 -0.3253 -0.0836  0.4112
  158TMC2     H 2411   2.637   0.198  13.352  0.0281 -0.8334  1.8993
  158TMC2    H1 2412   2.293   0.211  13.592  2.3477 -0.2560  0.0789
  158TMC2    H2 2413   2.287   0.409  13.218 -1.6981  0.0645  0.7923
  158TMC2    C7 2414   2.129   0.336  13.413  0.7962 -0.1162 -0.0622
  158TMC2    C8 2415   2.565   0.381  13.183 -0.0182 -0.1941  0.3496
  158TMC2    O1 2416   2.083   0.415  13.331  0.5188 -1.3288  0.1140
  158TMC2    O2 2417   2.687   0.369  13.198 -0.1031  0.0270  0.4369
  158TMC2    O5 2418   2.502   0.397  13.061  0.0813 -0.3602  0.3602
  158TMC2    H5 2419   2.405   0.393  13.070  0.2254 -3.1453  0.8115
  159MPD2     C 2420   2.577   4.495  13.960 -0.0949 -0.6446  0.1614
  159MPD2    C1 2421   2.443   4.510  13.931 -0.1282  0.1019 -0.9368
  159MPD2    C2 2422   2.403   4.576  13.817  0.5505  1.1404 -0.2851
  159MPD2    C3 2423   2.494   4.666  13.763  0.7201 -0.4752  0.2330
  159MPD2    C4 2424   2.627   4.663  13.806 -0.0593 -0.2916  0.0662
  159MPD2    C5 2425   2.668   4.576  13.900  0.1592 -0.1778  0.6560
  159MPD2     H 2426   2.306   4.565  13.770 -0.0415  1.9362  0.7602
  159MPD2    H1 2427   2.707   0.001  13.768 -0.4680 -0.4391 -1.0361
  159MPD2    H2 2428   2.618   4.421  14.027  0.4757 -0.4104  0.0720
  159MPD2    H3 2429   2.776   4.576  13.909  0.2508  0.1964 -0.4032
  159MPD2     N 2430   2.454   0.039  13.663  0.5884 -0.1713  0.6436
  159MPD2    H5 2431   2.354   0.040  13.645  0.8442  0.8861 -0.6962
  159MPD2    N1 2432   2.355   4.424  13.993  0.2279  0.2995  0.5328
  159MPD2    H7 2433   2.385   4.344  14.049 -0.3645 -1.2853 -1.4186
  160TMC2    C1 2434   1.736   3.005   1.611  0.0689  0.4704 -0.2580
  160TMC2    C2 2435   1.840   2.966   1.689 -0.5840 -0.8900  0.1633
  160TMC2    C3 2436   1.962   2.999   1.637 -0.5896 -0.6675  0.5327
  160TMC2    C4 2437   1.749   3.071   1.490  0.2825  0.5857  0.4761
  160TMC2    C5 2438   1.875   3.105   1.447  0.0589  0.3885  0.5081
  160TMC2    C6 2439   1.985   3.058   1.514 -0.5193 -0.2041  0.8729
  160TMC2     C 2440   1.611   3.017   1.675  0.2589 -0.6046 -0.1373
  160TMC2     O 2441   1.582   2.939   1.770 -0.2009  0.1369 -0.3727
  160TMC2     H 2442   1.829   2.899   1.774  1.2865 -1.9159 -0.4033
  160TMC2    H1 2443   1.667   3.073   1.420  0.3059  0.5454  0.4474
  160TMC2    H2 2444   2.083   3.094   1.484  0.4945 -0.4754  3.8963
  160TMC2    C7 2445   1.898   3.134   1.304  0.3135  1.6857 -0.3438
  160TMC2    C8 2446   2.069   2.919   1.671 -0.0124  0.2546  0.4219
  160TMC2    O1 2447   1.799   3.168   1.241  0.8601  0.0967  0.3507
  160TMC2    O2 2448   2.160   2.882   1.601 -0.1320  0.4892  0.6981
  160TMC2    O5 2449   2.057   2.895   1.804  1.0582 -0.0727  0.4064
  160TMC2    H5 2450   1.981   2.946   1.841 -2.5662 -2.2124 -4.1268
  161MPD2     C 2451   1.347   3.102   1.788 -0.1775 -0.6923 -0.3765
  161MPD2    C1 2452   1.399   3.144   1.670  0.2546 -0.2989  0.2100
  161MPD2    C2 2453   1.309   3.207   1.588 -0.3353  0.6514 -0.3492
  161MPD2    C3 2454   1.175   3.222   1.625  0.0867 -0.1573 -0.6245
  161MPD2    C4 2455   1.130   3.178   1.747 -0.0261  0.0511 -1.1287
  161MPD2    C5 2456   1.214   3.107   1.829 -0.2087 -0.1623  0.2988
  161MPD2     H 2457   1.351   3.247   1.496 -1.3120  1.6930 -0.3362
  161MPD2    H1 2458   1.025   3.183   1.775  0.8606  0.4744  2.1807
  161MPD2    H2 2459   1.409   3.041   1.854 -0.2240  0.7270  0.9756
  161MPD2    H3 2460   1.189   3.065   1.926  1.9477 -0.0378  0.9087
  161MPD2     N 2461   1.093   3.298   1.546 -0.1582 -0.1026  0.7805
  161MPD2    H5 2462   1.002   3.305   1.591 -0.7252  1.7640 -0.6592
  161MPD2    N1 2463   1.533   3.123   1.628 -0.3386  0.4626  0.3069
  161MPD2    H7 2464   1.571   3.173   1.548 -1.2998  0.2229 -0.2942
  162TMC2    C1 2465   4.249   0.544   0.795  0.3893 -0.1114 -0.7996
  162TMC2    C2 2466   4.154   0.643   0.777 -0.0531  0.6548  0.0095
  162TMC2    C3 2467   4.038   0.645   0.851 -0.3104 -0.5743  0.2788
  162TMC2    C4 2468   4.234   0.446   0.891 -0.0497 -0.6069 -0.0015
  162TMC2    C5 2469   4.113   0.449   0.949 -0.5039 -0.5328 -0.0778
  162TMC2    C6 2470   4.024   0.548   0.942  0.1250 -0.1697 -0.2235
  162TMC2     C 2471   4.363   0.534   0.706  0.8378 -0.6218  0.0457
  162TMC2     O 2472   4.456   0.456   0.733 -0.7288 -0.0312  0.7522
  162TMC2     H 2473   4.176   0.728   0.713  0.9884  0.9998  0.8258
  162TMC2    H1 2474   4.286   0.351   0.897 -0.4690 -0.7679  1.0437
  162TMC2    H2 2475   3.933   0.545   1.000  1.6663 -1.6739  2.1157
  162TMC2    C7 2476   4.083   0.348   1.050  0.2224 -0.1931 -0.6909
  162TMC2    C8 2477   3.942   0.751   0.844  0.1724 -0.0645 -0.0570
  162TMC2    O1 2478   3.967   0.332   1.083  0.3755  0.0430  0.2663
  162TMC2    O2 2479   3.912   0.815   0.749  0.2518 -0.3559  0.2021
  162TMC2    O5 2480   3.926   0.796   0.973  0.2779 -0.0943  0.5109
  162TMC2    H5 2481   3.972   0.733   1.034  0.1908 -2.3654 -1.7790
  163MPD2     C 2482   4.584   0.624   0.247 -0.1286  0.1836  0.3227
  163MPD2    C1 2483   4.633   0.565   0.361  0.0347  0.2543 -0.3342
  163MPD2    C2 2484   4.555   0.551   0.476  0.0474  0.0699 -0.2870
  163MPD2    C3 2485   4.423   0.591   0.475 -0.8453 -0.8940 -0.1742
  163MPD2    C4 2486   4.373   0.647   0.359 -0.8768  0.6789  0.1576
  163MPD2    C5 2487   4.452   0.659   0.243 -0.1821  0.0403 -0.2323
  163MPD2     H 2488   4.594   0.519   0.571  1.3321  1.7827 -0.2316
  163MPD2    H1 2489   4.268   0.673   0.357 -0.3566  2.8194  0.2993
  163MPD2    H2 2490   4.643   0.633   0.157 -1.2336  0.6286 -0.3619
  163MPD2    H3 2491   4.407   0.701   0.154 -2.0207 -0.3954  0.4900
  163MPD2     N 2492   4.334   0.580   0.581 -0.6764 -0.6185 -0.0623
  163MPD2    H5 2493   4.237   0.602   0.560 -0.4938 -1.2679 -1.5656
  163MPD2    N1 2494   0.036   0.488   0.348  0.7890  0.0058 -0.1047
  163MPD2    H7 2495   0.066   0.470   0.253  0.5450  0.5727 -0.2843
  164TCq2    C1 2496   0.590   4.445  11.569 -0.5749  0.7804 -0.6832
  164TCq2    O2 2497   0.514   4.463  11.665  0.2557  0.1517 -0.6324
  164TCq2    C2 2498   0.588   4.545  11.455  0.2670  0.7699  0.5448
  164TCq2    C3 2499   0.669   4.530  11.345  0.0239  0.4320 -0.5126
  164TCq2    C4 2500   0.624   4.589  11.227 -0.6516  0.8025 -0.6335
  164TCq2    C5 2501   0.510   4.661  11.219 -0.3200  0.6216  0.0290
  164TCq2    C6 2502   0.445   4.688  11.338  0.4263  0.3140  0.7285
  164TCq2    C7 2503   0.485   4.628  11.459  0.5970 -0.0051 -0.4529
  164TCq2    C8 2504   0.321   0.039  11.341  0.1537  0.6160  0.0910
  164TCq2    O4 2505   0.247   0.031  11.244  0.0965 -0.3536  0.1469
  164TCq2    C9 2506   0.708   4.571  11.112  0.0120  0.3050  0.1059
  164TCq2    O5 2507   0.825   4.528  11.130  0.6178  0.2168 -0.2866
  164TCq2    O6 2508   0.663   4.611  11.003 -0.1694 -0.6655  0.2928
  164TCq2    H2 2509   0.753   4.462  11.343  0.3260  0.8180 -1.3903
  164TCq2    H3 2510   0.467   4.714  11.135 -1.1015  0.0755  0.0833
  164TCq2    H4 2511   0.430   4.631  11.552  1.2873 -1.0283 -0.0021
  165MPD2     C 2512   0.683   2.454   1.576 -0.2303  0.6288 -0.5473
  165MPD2    C1 2513   0.766   2.404   1.482 -0.5283 -0.2514  0.3338
  165MPD2    C2 2514   0.897   2.378   1.516 -0.5752  0.3592 -1.3507
  165MPD2    C3 2515   0.945   2.397   1.647  0.5470  0.5425 -0.5230
  165MPD2    C4 2516   0.854   2.432   1.745 -0.2691  0.0492 -0.4960
  165MPD2    C5 2517   0.731   2.465   1.708 -0.4261 -0.4396 -0.4328
  165MPD2     H 2518   0.959   2.340   1.436  2.4664  1.0310  0.6687
  165MPD2    H1 2519   0.888   2.460   1.844 -1.3419 -2.9720  0.7252
  165MPD2    H2 2520   0.580   2.486   1.559 -1.1544 -0.3384  3.2010
  165MPD2    H3 2521   0.660   2.500   1.782  2.2059  0.0368  1.8627
  165MPD2     N 2522   1.078   2.375   1.682  0.0679 -0.0349 -0.0624
  165MPD2    H5 2523   1.107   2.368   1.779  2.8136  0.5764 -0.8350
  165MPD2    N1 2524   0.706   2.380   1.353 -0.2285  0.2728  0.0672
  165MPD2    H7 2525   0.609   2.407   1.344 -0.2804 -0.4136 -1.4090
  166TCq2    C1 2526   1.179   2.351   1.594  0.2263  0.9904 -0.0494
  166TCq2    O2 2527   1.178   2.365   1.473  0.8906 -0.2245  0.3790
  166TCq2    C2 2528   1.309   2.337   1.660 -0.1092  0.0906  0.0783
  166TCq2    C3 2529   1.310   2.292   1.788  0.6010  0.5812 -0.4558
  166TCq2    C4 2530   1.422   2.320   1.864 -0.1983 -0.0779  0.6755
  166TCq2    C5 2531   1.530   2.382   1.809 -0.0654 -0.1528 -0.2420
  166TCq2    C6 2532   1.524   2.416   1.673 -0.7553 -0.0207  0.7059
  166TCq2    C7 2533   1.414   2.392   1.598  0.3624 -0.1041  0.3089
  166TCq2    C8 2534   1.633   2.481   1.607  0.2195 -0.5131  0.8743
  166TCq2    O4 2535   1.750   2.440   1.623  0.1010 -0.3398 -0.1384
  166TCq2    C9 2536   1.416   2.296   2.014  0.6209  0.5442  0.2834
  166TCq2    O5 2537   1.300   2.265   2.056 -0.1997  0.0589  0.5294
  166TCq2    O6 2538   1.524   2.300   2.077  0.4840  0.6875  0.0139
  166TCq2    H2 2539   1.227   2.247   1.840 -0.3941  1.7897 -1.0019
  166TCq2    H3 2540   1.614   2.420   1.866 -1.0863 -0.8692  1.7092
  166TCq2    H4 2541   1.416   2.416   1.493  0.0580  1.7990  0.7422
  167TMC2    C1 2542   4.524   4.120  12.821  0.4554  0.1628  0.3350
  167TMC2    C2 2543   4.517   4.132  12.958  0.4437 -0.1064 -0.0457
  167TMC2    C3 2544   4.456   4.034  13.030 -1.1256 -0.6984  0.0026
  167TMC2    C4 2545   4.493   3.994  12.765  0.5169 -0.5634  0.5282
  167TMC2    C5 2546   4.424   3.909  12.847 -0.1077 -0.1828  0.2574
  167TMC2    C6 2547   4.406   3.916  12.981 -0.3316  0.3209  0.0856
  167TMC2     C 2548   4.586   4.227  12.746  0.0785  0.3474  0.2601
  167TMC2     O 2549   4.605   4.334  12.800  0.3490 -0.4062  0.0223
  167TMC2     H 2550   4.540   4.225  13.008  2.6210  0.7576 -2.6855
  167TMC2    H1 2551   4.480   3.974  12.659  1.4671 -1.9472  0.6875
  167TMC2    H2 2552   4.344   3.848  13.037  0.6797  1.2581  2.3362
  167TMC2    C7 2553   4.370   3.790  12.776 -0.7641 -0.1623 -0.0227
  167TMC2    C8 2554   4.437   4.067  13.169  0.2411 -0.3425  0.5916
  167TMC2    O1 2555   4.269   3.731  12.819 -0.0861 -0.1650  0.1694
  167TMC2    O2 2556   4.447   4.178  13.214 -0.6306 -0.0665  0.2861
  167TMC2    O5 2557   4.429   3.961  13.244 -0.2302  0.1671  0.1342
  167TMC2    H5 2558   4.434   3.872  13.203  0.5578  1.1887 -1.9806
  168MPD2     C 2559   4.673   4.403  12.521  0.4323  0.1969  0.0950
  168MPD2    C1 2560   4.651   4.269  12.513  0.1767 -0.5855  0.5214
  168MPD2    C2 2561   4.661   4.212  12.388 -0.5107 -0.4158 -0.5890
  168MPD2    C3 2562   4.688   4.286  12.278 -0.5686 -0.0095  0.5004
  168MPD2    C4 2563   0.002   4.417  12.290  0.6076 -0.6081  0.1084
  168MPD2    C5 2564   4.715   4.475  12.412  0.1764 -0.0850  0.1368
  168MPD2     H 2565   4.631   4.109  12.374  1.3879 -1.1502  0.6852
  168MPD2    H1 2566   0.033   4.481  12.209  0.8045 -0.6578  0.1449
  168MPD2    H2 2567   4.655   4.455  12.614  1.0296  1.2468 -0.3796
  168MPD2    H3 2568   0.005   4.582  12.422  0.0318 -0.1930  1.5407
  168MPD2     N 2569   4.647   4.228  12.156 -0.6323 -0.0646 -0.0947
  168MPD2    H5 2570   4.611   4.133  12.150 -0.7452 -0.0321  0.0812
  168MPD2    N1 2571   4.605   4.188  12.616 -0.0575 -0.2296 -0.0866
  168MPD2    H7 2572   4.595   4.089  12.595  1.5746 -0.3465 -0.2612
  169MPD1     C 2573   2.200   3.634   9.408 -0.2665  0.3563 -0.0107
  169MPD1    C1 2574   2.323   3.580   9.372 -0.9193 -0.5315  0.1795
  169MPD1    C2 2575   2.324   3.441   9.383 -0.1831 -0.3039 -0.0283
  169MPD1    C3 2576   2.217   3.365   9.421  1.5270 -0.5733 -0.3453
  169MPD1    C4 2577   2.097   3.424   9.463 -0.6110 -0.5015 -0.5156
  169MPD1    C5 2578   2.093   3.560   9.450  0.5702 -0.2295 -0.9260
  169MPD1     H 2579   2.409   3.383   9.350  1.2317  2.1645 -0.7261
  169MPD1    H1 2580   2.009   3.369   9.494  0.3841 -1.8002  0.0433
  169MPD1    H2 2581   2.183   3.741   9.409 -3.0176 -0.0776 -1.3050
  169MPD1    H3 2582   2.004   3.609   9.486  1.8668  1.0730  0.4918
  169MPD1     N 2583   2.235   3.225   9.421  0.2050 -0.3541 -0.4427
  169MPD1    H5 2584   2.329   3.189   9.406  0.5134  1.1004 -1.9292
  169MPD1    N1 2585   2.423   3.650   9.302 -0.9013 -0.1210 -0.2438
  169MPD1    H6 2586   2.425   3.749   9.325 -0.5517  0.0805 -1.1476
  169MPD1    H7 2587   2.516   3.614   9.319 -0.4150  0.5676 -1.4806
  170MPD1     C 2588   0.972   1.631  12.708 -0.3678 -0.3343 -0.1800
  170MPD1    C1 2589   0.917   1.580  12.824  0.0998 -0.2376  0.0835
  170MPD1    C2 2590   0.871   1.665  12.919 -0.0038 -0.0182  0.3562
  170MPD1    C3 2591   0.870   1.810  12.902  0.0906 -0.2743  0.3754
  170MPD1    C4 2592   0.937   1.854  12.785 -0.1498  0.2999  0.3556
  170MPD1    C5 2593   0.984   1.767  12.692  0.5627  0.1433 -0.0033
  170MPD1     H 2594   0.832   1.614  13.006  0.7096  0.4868  0.9704
  170MPD1    H1 2595   0.951   1.960  12.770 -1.6073  0.2901 -1.0950
  170MPD1    H2 2596   1.010   1.563  12.633 -1.9702 -0.1403 -1.1507
  170MPD1    H3 2597   1.037   1.801  12.603 -0.9909  0.0618 -0.9651
  170MPD1     N 2598   0.822   1.893  13.000 -0.7603  0.3436  0.4105
  170MPD1    H5 2599   0.757   1.846  13.062 -1.7605 -0.6313 -1.3791
  170MPD1    N1 2600   0.882   1.446  12.818  0.1444  0.3405 -0.0117
  170MPD1    H6 2601   0.951   1.390  12.768  0.5768 -1.0723  2.1772
  170MPD1    H7 2602   0.894   1.410  12.912 -0.2781 -0.6107 -0.3177
  171MPD1     C 2603   3.959   3.115  15.471  0.6569  0.5919  0.9789
  171MPD1    C1 2604   4.046   3.071  15.376 -0.4668  0.5202  0.3730
  171MPD1    C2 2605   4.144   2.977  15.406  1.1540 -0.7283  0.1950
  171MPD1    C3 2606   4.159   2.945  15.541  0.1993  0.1482 -0.1405
  171MPD1    C4 2607   4.067   2.995  15.632 -0.4857 -0.3955 -0.4158
  171MPD1    C5 2608   3.973   3.086  15.600 -0.5524  1.0743  0.0871
  171MPD1     H 2609   4.218   2.946  15.333  0.5099  0.4611 -0.9837
  171MPD1    H1 2610   4.068   2.962  15.736  1.7927 -0.1079 -0.3452
  171MPD1    H2 2611   3.882   3.190  15.452  0.3547 -0.4207 -1.7482
  171MPD1    H3 2612   3.915   3.134  15.679  2.4186  0.9074  2.3913
  171MPD1     N 2613   4.241   2.842  15.584 -0.0040  0.2682  0.1128
  171MPD1    H5 2614   4.268   2.840  15.682 -1.6569 -1.2269  0.5514
  171MPD1    N1 2615   4.016   3.095  15.245 -0.4017 -0.1269 -0.3111
  171MPD1    H6 2616   4.097   3.093  15.184  0.0411 -0.9834  0.3173
  171MPD1    H7 2617   3.961   3.179  15.225  0.3779  0.2622 -0.8226
  172MPD1     C 2618   2.912   1.659  17.661 -0.0153  0.8082 -0.8874
  172MPD1    C1 2619   2.939   1.676   0.097  1.2992 -0.4312 -0.2637
  172MPD1    C2 2620   3.022   1.776   0.137  0.3133 -0.2585 -0.0406
  172MPD1    C3 2621   3.094   1.846   0.041  0.7744  0.6024 -0.3938
  172MPD1    C4 2622   3.069   1.826  17.606 -0.1116  0.5096  0.4421
  172MPD1    C5 2623   2.972   1.738  17.566 -0.2904 -0.2441  0.2319
  172MPD1     H 2624   3.023   1.796   0.244  0.1654  0.0245 -0.0939
  172MPD1    H1 2625   3.108   1.879  17.519  0.8906  1.1572  1.2766
  172MPD1    H2 2626   2.823   1.606  17.629  1.1789  0.2348 -3.2762
  172MPD1    H3 2627   2.946   1.720  17.462  0.9548  0.3506 -0.1717
  172MPD1     N 2628   3.182   1.950   0.072  0.2325  0.5634  0.0421
  172MPD1    H5 2629   3.219   2.006  17.693 -2.6829  4.4620  1.4483
  172MPD1    N1 2630   2.855   1.606   0.193 -0.3266 -0.0683 -0.3580
  172MPD1    H6 2631   2.908   1.589   0.279 -1.3464 -1.3159  0.0217
  172MPD1    H7 2632   2.814   1.520   0.160 -1.1581  0.9930 -2.0913
  173MPD1     C 2633   4.398   2.503  14.883 -0.2342  1.2659  0.5472
  173MPD1    C1 2634   4.333   2.432  14.985  0.1251  0.2092  0.4814
  173MPD1    C2 2635   4.257   2.327  14.939  0.5759 -0.3963  0.0167
  173MPD1    C3 2636   4.252   2.286  14.809  0.1024  0.2108 -0.2278
  173MPD1    C4 2637   4.330   2.346  14.713 -0.2005  0.1276  0.0106
  173MPD1    C5 2638   4.394   2.460  14.754 -0.7178 -0.5206 -0.3944
  173MPD1     H 2639   4.195   2.268  15.007  1.4661 -0.3005  0.9102
  173MPD1    H1 2640   4.349   2.319  14.610 -1.5663  0.7561 -0.4026
  173MPD1    H2 2641   4.453   2.594  14.904 -0.1631  1.3341  0.0578
  173MPD1    H3 2642   4.453   2.519  14.684 -0.8321 -0.1447 -0.1731
  173MPD1     N 2643   4.187   2.171  14.772 -0.8335  0.0433  0.3764
  173MPD1    H5 2644   4.156   2.105  14.843  0.2234 -1.1282 -0.2709
  173MPD1    N1 2645   4.336   2.487  15.114  0.6423  0.3511  0.3999
  173MPD1    H6 2646   4.283   2.443  15.188  0.4672  0.2713  0.2270
  173MPD1    H7 2647   4.431   2.510  15.143  0.1463 -1.3091  3.3010
  174MPD1     C 2648   4.219   1.776  13.882  0.6324  0.5732  0.0191
  174MPD1    C1 2649   4.109   1.709  13.935  0.3028 -0.2592 -0.0344
  174MPD1    C2 2650   4.079   1.730  14.067  0.4720 -0.7269  0.1100
  174MPD1    C3 2651   4.133   1.826  14.149 -1.1480  0.4311 -0.0486
  174MPD1    C4 2652   4.236   1.900  14.091 -0.6528  0.7725 -0.2543
  174MPD1    C5 2653   4.276   1.883  13.963 -0.2372  0.4048  0.1647
  174MPD1     H 2654   4.001   1.670  14.113 -0.1767  0.0087 -0.0260
  174MPD1    H1 2655   4.287   1.986  14.132  1.8710 -1.4674  1.2563
  174MPD1    H2 2656   4.244   1.766  13.777  1.3498 -0.9892  0.3521
  174MPD1    H3 2657   4.344   1.954  13.919  2.4443 -0.4602  2.9488
  174MPD1     N 2658   4.100   1.858  14.284 -0.1450 -0.0614  0.2252
  174MPD1    H5 2659   4.153   1.939  14.314 -0.4481 -0.8196  2.7882
  174MPD1    N1 2660   4.062   1.595  13.875  0.7942 -0.5841  0.7136
  174MPD1    H6 2661   3.968   1.584  13.913  0.3463 -1.7824 -0.6811
  174MPD1    H7 2662   4.054   1.611  13.775  1.4570  1.1531  0.9566
  175MPD1     C 2663   3.398   2.697  15.398 -0.5708 -0.3939  0.4332
  175MPD1    C1 2664   3.269   2.746  15.421  0.2598 -0.0843 -0.5989
  175MPD1    C2 2665   3.239   2.761  15.556 -0.1453 -0.0994  0.4000
  175MPD1    C3 2666   3.329   2.755  15.665  0.5268 -0.8075 -0.0477
  175MPD1    C4 2667   3.455   2.702  15.633  0.1944  0.3468 -0.3033
  175MPD1    C5 2668   3.489   2.690  15.502  0.9751 -0.0180 -0.8032
  175MPD1     H 2669   3.139   2.801  15.569  0.5002  1.2955  1.1011
  175MPD1    H1 2670   3.529   2.689  15.711 -0.6740 -1.3048  0.2466
  175MPD1    H2 2671   3.445   2.676  15.303  0.2773 -0.6324  0.9004
  175MPD1    H3 2672   3.583   2.637  15.493  0.7807 -0.5946  0.4447
  175MPD1     N 2673   3.299   2.786  15.798 -0.1590 -0.6800  0.4641
  175MPD1    H5 2674   3.379   2.767  15.858 -0.1567 -0.1721  0.6210
  175MPD1    N1 2675   3.170   2.750  15.324 -0.5697 -0.1266 -0.6277
  175MPD1    H6 2676   3.218   2.775  15.238  0.6730 -2.4627 -0.6215
  175MPD1    H7 2677   3.095   2.816  15.341  1.3293  2.0241 -0.4731
  176MPD1     C 2678   0.106   4.236  16.918 -0.3520  0.3657 -0.2432
  176MPD1    C1 2679   0.078   4.310  16.806 -0.1620  0.2527 -0.1123
  176MPD1    C2 2680   0.059   4.445  16.833 -0.4584  0.0763  0.3277
  176MPD1    C3 2681   0.081   4.501  16.956  0.0059 -0.2034 -1.1940
  176MPD1    C4 2682   0.123   4.419  17.060 -0.6083 -0.8073 -0.6539
  176MPD1    C5 2683   0.132   4.283  17.040  0.7342  0.3699 -0.0329
  176MPD1     H 2684   0.035   4.516  16.753  2.9028  0.0879 -0.6556
  176MPD1    H1 2685   0.155   4.452  17.159  1.7962  1.8482 -2.3157
  176MPD1    H2 2686   0.118   4.128  16.912 -0.2334  0.4444 -1.3413
  176MPD1    H3 2687   0.161   4.220  17.123  1.3549 -0.6599 -1.0258
  176MPD1     N 2688   0.061   4.639  16.978 -0.0762 -0.2884  0.2556
  176MPD1    H5 2689   0.027   4.701  16.905  0.0238 -0.3885  0.1242
  176MPD1    N1 2690   0.031   4.244  16.688  0.1901  0.3617 -0.4155
  176MPD1    H6 2691   0.050   4.303  16.607  2.4322 -1.5494 -1.2932
  176MPD1    H7 2692   0.068   4.150  16.671 -1.8447 -0.3524 -0.9248
  177MPD1     C 2693   3.521   4.087  10.242  0.9561  0.0864  0.2895
  177MPD1    C1 2694   3.418   4.013  10.200  0.1701  0.0611  0.0361
  177MPD1    C2 2695   3.344   4.062  10.094  0.0213  0.6106  0.4570
  177MPD1    C3 2696   3.360   4.192  10.043  0.3263 -0.7259  0.2360
  177MPD1    C4 2697   3.461   4.270  10.104  0.1749  0.6160 -0.2475
  177MPD1    C5 2698   3.546   4.212  10.195 -0.5598  0.2137 -0.1143
  177MPD1     H 2699   3.266   4.002  10.050 -0.3045  0.4011  1.3232
  177MPD1    H1 2700   3.480   4.371  10.067  0.4746 -0.3276 -2.6856
  177MPD1    H2 2701   3.596   4.052  10.313  2.0188 -0.0204 -0.8815
  177MPD1    H3 2702   3.627   4.269  10.240  0.7253 -1.4654 -0.2749
  177MPD1     N 2703   3.292   4.222   9.924 -0.1385  0.2192  0.4061
  177MPD1    H5 2704   3.231   4.155   9.877  0.0210 -0.3881  1.0600
  177MPD1    N1 2705   3.412   3.880  10.251 -0.9307 -0.4756  0.5058
  177MPD1    H6 2706   3.446   3.865  10.346 -1.7851 -0.7771  0.7666
  177MPD1    H7 2707   3.317   3.843  10.245 -1.6042  1.0453  1.8811
  178MPD1     C 2708   0.500   1.075   0.143  0.6114 -0.4953 -0.1711
  178MPD1    C1 2709   0.434   1.028   0.034  0.7934 -0.2615 -0.2205
  178MPD1    C2 2710   0.505   1.018  17.610  0.6364  0.1121  0.0003
  178MPD1    C3 2711   0.634   1.066  17.606  0.8233 -0.2380 -0.2148
  178MPD1    C4 2712   0.695   1.128   0.012 -0.0118 -0.3011  0.2612
  178MPD1    C5 2713   0.626   1.129   0.134 -0.5692  0.5147  0.1619
  178MPD1     H 2714   0.451   0.982  17.523  0.8038 -0.9220  0.3224
  178MPD1    H1 2715   0.793   1.173  17.696  0.8331 -2.4065 -0.5242
  178MPD1    H2 2716   0.449   1.084   0.238  0.4714 -1.2554 -0.1806
  178MPD1    H3 2717   0.665   1.186   0.217  0.4032 -0.1730  0.1702
  178MPD1     N 2718   0.707   1.067  17.482  0.0414  0.2530 -0.3237
  178MPD1    H5 2719   0.796   1.115  17.473  1.3520 -1.6829  2.3208
  178MPD1    N1 2720   0.302   0.978   0.048  0.5723 -0.0190 -0.2194
  178MPD1    H6 2721   0.261   0.980  17.653 -1.3402  0.6708  0.6249
  178MPD1    H7 2722   0.300   0.880   0.076 -0.3258  0.4844  1.5236
  179MPD1     C 2723   0.110   4.149  15.052  0.2846  0.4623 -0.1711
  179MPD1    C1 2724   0.162   4.181  15.176  1.1141 -0.1582  0.3493
  179MPD1    C2 2725   0.185   4.080  15.268  0.2071 -0.2173 -0.2736
  179MPD1    C3 2726   0.190   3.945  15.231 -0.3233 -0.2344  0.9403
  179MPD1    C4 2727   0.145   3.917  15.105  0.2448 -0.7356 -0.0903
  179MPD1    C5 2728   0.108   4.019  15.025  0.4137  0.2348 -0.5983
  179MPD1     H 2729   0.206   4.108  15.371 -0.4455  2.3016 -0.8126
  179MPD1    H1 2730   0.146   3.812  15.076  0.3903 -0.9111  0.5544
  179MPD1    H2 2731   0.059   4.211  14.980 -1.1896 -1.4593 -0.7762
  179MPD1    H3 2732   0.083   3.988  14.924  1.5580 -3.0630  0.1293
  179MPD1     N 2733   0.210   3.835  15.312  0.1533 -0.1813  0.5255
  179MPD1    H5 2734   0.208   3.742  15.272 -0.7469  0.1912 -0.2919
  179MPD1    N1 2735   0.149   4.317  15.215 -0.0632 -0.7549 -0.7288
  179MPD1    H6 2736   0.219   4.352  15.279 -1.5131  1.9806 -0.6678
  179MPD1    H7 2737   0.158   4.385  15.140  0.2240 -2.0226 -1.8493
  180MPD1     C 2738   4.654   0.852  15.358  0.3052 -0.0302  1.0020
  180MPD1    C1 2739   4.553   0.851  15.265  0.2392 -0.1441  0.6800
  180MPD1    C2 2740   4.579   0.849  15.130 -0.7653 -0.9897  0.0148
  180MPD1    C3 2741   4.709   0.838  15.083  0.8047  0.0250 -0.1231
  180MPD1    C4 2742   0.090   0.843  15.180 -0.2113 -0.5880 -0.1532
  180MPD1    C5 2743   0.057   0.839  15.311  0.3484 -0.2248 -0.5015
  180MPD1     H 2744   4.496   0.852  15.060 -0.4872  1.5232 -0.1913
  180MPD1    H1 2745   0.193   0.828  15.147 -0.1632  2.1652 -1.2248
  180MPD1    H2 2746   4.637   0.838  15.464  0.0747 -1.1601  0.8156
  180MPD1    H3 2747   0.141   0.829  15.380  2.1444  1.2996 -2.4761
  180MPD1     N 2748   0.014   0.824  14.945  0.0017  0.4166  0.5692
  180MPD1    H5 2749   4.653   0.819  14.890  0.6581 -3.3978 -0.0782
  180MPD1    N1 2750   4.422   0.844  15.312  0.3254 -0.1029  0.4899
  180MPD1    H6 2751   4.405   0.876  15.407  0.4191  1.0216  0.1210
  180MPD1    H7 2752   4.364   0.904  15.252  0.6562  0.7189  0.9965
  181MPD1     C 2753   1.315   1.208   9.857  0.0546  0.0195  0.5624
  181MPD1    C1 2754   1.300   1.335   9.904  0.3370 -0.2126 -0.1611
  181MPD1    C2 2755   1.415   1.417   9.903  0.1662 -0.1615  0.2125
  181MPD1    C3 2756   1.544   1.369   9.883 -0.6592  0.0953 -0.2417
  181MPD1    C4 2757   1.562   1.239   9.854  0.2831 -0.1386 -0.2026
  181MPD1    C5 2758   1.447   1.160   9.848  0.9352 -0.1663  0.9130
  181MPD1     H 2759   1.402   1.523   9.922  2.0037  0.3730 -1.5387
  181MPD1    H1 2760   1.657   1.189   9.869  0.5249  0.1171 -0.8611
  181MPD1    H2 2761   1.236   1.139   9.827  0.8424 -0.7195  0.1772
  181MPD1    H3 2762   1.452   1.054   9.830 -1.9054 -0.0229 -0.6267
  181MPD1     N 2763   1.659   1.454   9.902 -0.2713 -0.3485  0.2404
  181MPD1    H5 2764   1.752   1.413   9.903 -1.7400 -3.7271 -1.5622
  181MPD1    N1 2765   1.176   1.394   9.907  0.1649 -0.1152  0.7274
  181MPD1    H6 2766   1.106   1.329   9.942  1.0328 -0.7291  1.3124
  181MPD1    H7 2767   1.171   1.482   9.957 -0.8280  0.2041  0.0783
  182MPD1     C 2768   3.422   1.028   0.726  0.2877  0.3653  0.6778
  182MPD1    C1 2769   3.400   1.165   0.736  0.3988 -0.0274 -0.6110
  182MPD1    C2 2770   3.270   1.203   0.753 -0.3566  0.1791 -0.1607
  182MPD1    C3 2771   3.167   1.111   0.753  0.1564  0.3696 -0.6152
  182MPD1    C4 2772   3.199   0.975   0.720  0.3669 -0.1521 -0.0684
  182MPD1    C5 2773   3.329   0.939   0.703  0.0104 -0.0085  1.3204
  182MPD1     H 2774   3.261   1.307   0.780 -0.8749 -0.3257  1.6084
  182MPD1    H1 2775   3.127   0.895   0.704  0.5842 -0.1689 -0.9780
  182MPD1    H2 2776   3.526   0.998   0.733 -0.0103 -0.6267  0.8693
  182MPD1    H3 2777   3.352   0.837   0.676  0.1134  0.3133  0.1927
  182MPD1     N 2778   3.029   1.135   0.777 -0.0021  0.0737 -0.3520
  182MPD1    H5 2779   2.956   1.066   0.766 -0.5084  0.5591 -0.0279
  182MPD1    N1 2780   3.507   1.256   0.759 -0.1745  0.4911  0.2663
  182MPD1    H6 2781   3.490   1.354   0.736  0.3688  0.6838  0.6644
  182MPD1    H7 2782   3.592   1.221   0.716 -0.2130 -0.8023  1.2529
  183MPD1     C 2783   3.651   2.503   9.819 -0.4298 -0.1939 -0.3473
  183MPD1    C1 2784   3.526   2.566   9.799 -0.6488 -0.6171  0.6228
  183MPD1    C2 2785   3.408   2.501   9.821 -0.4577  0.5102  0.2658
  183MPD1    C3 2786   3.409   2.372   9.870  1.0205 -0.4712  0.2446
  183MPD1    C4 2787   3.532   2.313   9.893  1.1165  0.6353 -0.2272
  183MPD1    C5 2788   3.652   2.374   9.872 -0.2747 -0.3618  0.4366
  183MPD1     H 2789   3.317   2.547   9.784  1.6434  2.6125 -2.2862
  183MPD1    H1 2790   3.544   2.217   9.941 -0.6954  1.2427  1.4485
  183MPD1    H2 2791   3.749   2.546   9.802 -0.9700  0.7528 -1.0735
  183MPD1    H3 2792   3.746   2.321   9.880 -1.0988 -2.2308 -2.4512
  183MPD1     N 2793   3.279   2.314   9.893  0.3685  0.2256  0.0727
  183MPD1    H5 2794   3.200   2.375   9.878  0.5035  0.1257 -1.0902
  183MPD1    N1 2795   3.527   2.692   9.732  0.6841 -0.4313 -0.0188
  183MPD1    H6 2796   3.437   2.739   9.743  1.2797  0.9517 -1.0732
  183MPD1    H7 2797   3.602   2.748   9.773  1.0822  0.1594 -1.5344
  184MPD1     C 2798   2.696   4.040   9.596  0.0880 -0.1777 -0.2490
  184MPD1    C1 2799   2.567   4.058   9.548  0.6992 -0.0408 -0.0919
  184MPD1    C2 2800   2.497   4.170   9.599 -0.0533  0.0278 -0.0181
  184MPD1    C3 2801   2.549   4.257   9.692  0.0545  0.5625  0.1582
  184MPD1    C4 2802   2.682   4.241   9.725  0.6234  0.1802  0.2558
  184MPD1    C5 2803   2.748   4.134   9.686  0.1087 -0.5962 -0.2175
  184MPD1     H 2804   2.394   4.187   9.571 -0.2708  1.2036  1.5350
  184MPD1    H1 2805   2.735   4.308   9.792 -1.0932  1.0167  0.8010
  184MPD1    H2 2806   2.750   3.950   9.569  0.4226  0.7611 -2.6781
  184MPD1    H3 2807   2.845   4.112   9.728  0.2536  1.5498  0.5486
  184MPD1     N 2808   2.479   4.364   9.751  0.2766 -0.0547 -0.0165
  184MPD1    H5 2809   2.541   4.415   9.814  0.8070 -0.0260 -0.5687
  184MPD1    N1 2810   2.509   3.952   9.469 -0.1461 -0.1671  0.5762
  184MPD1    H6 2811   2.422   3.981   9.425  0.8944 -0.6566 -1.8377
  184MPD1    H7 2812   2.570   3.930   9.390 -1.1390  1.1619 -0.5606
  185MPD1     C 2813   1.498   4.488   9.675 -0.1154 -0.3094 -0.0666
  185MPD1    C1 2814   1.533   4.610   9.727  0.6895 -0.0858 -0.3681
  185MPD1    C2 2815   1.656   4.626   9.780 -0.2452 -0.5560 -0.0495
  185MPD1    C3 2816   1.748   4.524   9.780 -0.2277  0.4921  0.4766
  185MPD1    C4 2817   1.713   4.397   9.733  0.6680 -0.2965  0.0771
  185MPD1    C5 2818   1.587   4.384   9.687 -0.0925  0.6344 -0.7689
  185MPD1     H 2819   1.673   4.722   9.827  0.8230 -0.9218  0.3043
  185MPD1    H1 2820   1.786   4.317   9.737  1.8825  0.8480  0.8857
  185MPD1    H2 2821   1.408   4.460   9.621  0.1078 -0.7854 -0.1859
  185MPD1    H3 2822   1.556   4.287   9.649 -2.3736  1.1742 -0.3124
  185MPD1     N 2823   1.885   4.531   9.824  0.1829  0.5288 -1.0183
  185MPD1    H5 2824   1.943   4.448   9.832 -0.0628  0.2258 -2.3911
  185MPD1    N1 2825   1.439   4.717   9.727  0.2505  0.3557  0.0987
  185MPD1    H6 2826   1.364   4.709   9.659  1.1296 -0.0364 -0.8147
  185MPD1    H7 2827   1.495   0.076   9.713 -1.8412  1.3997 -1.8573
  186MPD1     C 2828   0.570   4.267  15.318 -0.1805 -0.2932 -1.2374
  186MPD1    C1 2829   0.503   4.359  15.398 -0.8780 -0.1723 -0.0637
  186MPD1    C2 2830   0.541   4.367  15.535 -0.5695 -0.6863  0.4086
  186MPD1    C3 2831   0.637   4.288  15.597 -0.8858  0.1966  0.6061
  186MPD1    C4 2832   0.706   4.207  15.513 -0.3315 -0.1875 -0.3760
  186MPD1    C5 2833   0.670   4.194  15.382  0.1698  0.6355  0.5523
  186MPD1     H 2834   0.484   4.443  15.587 -0.5415 -1.7119  1.9090
  186MPD1    H1 2835   0.795   4.151  15.542  0.2774  0.4356 -1.0298
  186MPD1    H2 2836   0.542   4.239  15.217 -0.7401  0.9401 -1.4253
  186MPD1    H3 2837   0.726   4.118  15.328 -0.3886  1.7129 -1.5309
  186MPD1     N 2838   0.678   4.319  15.733 -0.4102 -0.3310 -0.1280
  186MPD1    H5 2839   0.773   4.295  15.760  0.0093  2.4729  0.9457
  186MPD1    N1 2840   0.393   4.425  15.346 -0.1927 -0.2401 -0.0443
  186MPD1    H6 2841   0.386   4.515  15.394 -1.7443 -0.4049  0.0478
  186MPD1    H7 2842   0.423   4.460  15.255 -2.8486  1.8774 -0.1247
  187MPD1     C 2843   4.519   1.439   0.456  0.2041  1.1497 -0.4237
  187MPD1    C1 2844   4.555   1.563   0.414  0.1927 -0.2064  0.6976
  187MPD1    C2 2845   4.578   1.586   0.279 -1.0045  0.4078  0.1575
  187MPD1    C3 2846   4.574   1.477   0.183 -0.1828 -0.1743  0.2207
  187MPD1    C4 2847   4.514   1.354   0.225  0.1048 -0.0505 -0.6628
  187MPD1    C5 2848   4.504   1.332   0.364 -0.1726 -0.0814 -0.2737
  187MPD1     H 2849   4.603   1.684   0.240 -1.9607  0.1074 -1.2026
  187MPD1    H1 2850   4.480   1.277   0.156 -2.3515 -0.1710  0.7065
  187MPD1    H2 2851   4.511   1.422   0.563 -0.6452 -1.2759 -0.8638
  187MPD1    H3 2852   4.484   1.231   0.400 -0.2817 -0.3173 -0.9956
  187MPD1     N 2853   4.604   1.491   0.047  0.2483  0.3504 -0.0352
  187MPD1    H5 2854   4.593   1.410  17.685  0.7199  1.2198 -1.3048
  187MPD1    N1 2855   4.558   1.672   0.506 -0.2937  0.4443  0.6320
  187MPD1    H6 2856   4.548   1.634   0.600  1.3439 -2.8421 -0.5147
  187MPD1    H7 2857   4.649   1.716   0.501  0.0672 -0.4617 -0.8140
  188MPD1     C 2858   4.249   1.352  10.078 -0.1232 -0.0610  0.2335
  188MPD1    C1 2859   4.221   1.320   9.941 -0.7923  0.1790  0.3705
  188MPD1    C2 2860   4.171   1.187   9.916 -0.8790  0.1985  0.4522
  188MPD1    C3 2861   4.181   1.084  10.015 -0.3865 -0.1074  0.4581
  188MPD1    C4 2862   4.213   1.118  10.141 -0.1063  0.2108 -0.4734
  188MPD1    C5 2863   4.250   1.251  10.167 -0.3634  0.3963  0.0320
  188MPD1     H 2864   4.129   1.181   9.816  0.1923 -1.0921  0.0954
  188MPD1    H1 2865   4.195   1.047  10.221 -3.4322 -0.1947 -1.5765
  188MPD1    H2 2866   4.302   1.443  10.104 -1.4521  0.5347  0.8111
  188MPD1    H3 2867   4.287   1.280  10.265  0.4101 -1.5892  0.3090
  188MPD1     N 2868   4.133   0.950   9.998  0.5808  0.2172  0.4177
  188MPD1    H5 2869   4.139   0.889  10.079  1.3922 -0.7760 -0.3982
  188MPD1    N1 2870   4.211   1.428   9.858 -0.0779  0.6218 -0.1004
  188MPD1    H6 2871   4.287   1.490   9.887  1.9807 -1.3258 -1.3165
  188MPD1    H7 2872   4.225   1.414   9.758 -3.2189  1.7957 -0.7167
  189MPD1     C 2873   1.518   1.303   0.148 -0.1281 -0.6863 -0.4928
  189MPD1    C1 2874   1.404   1.299   0.070  0.0967  0.0050 -0.0875
  189MPD1    C2 2875   1.350   1.414   0.026 -0.8915 -0.2506 -0.2866
  189MPD1    C3 2876   1.405   1.536   0.066  0.1203 -1.0552 -0.4309
  189MPD1    C4 2877   1.517   1.543   0.142 -0.0950  0.2993  0.0588
  189MPD1    C5 2878   1.564   1.424   0.198  0.4534 -0.4189  0.1661
  189MPD1     H 2879   1.265   1.415  17.656 -0.1899  2.0222 -1.1491
  189MPD1    H1 2880   1.555   1.636   0.183  1.1069 -0.6064  0.9940
  189MPD1    H2 2881   1.549   1.213   0.199  0.6534  0.0231  0.2921
  189MPD1    H3 2882   1.648   1.420   0.267  0.9377 -1.9763 -0.5135
  189MPD1     N 2883   1.323   1.650   0.036  0.1932 -0.5101  0.1223
  189MPD1    H5 2884   1.232   1.621   0.002 -1.0703  1.3525  1.8899
  189MPD1    N1 2885   1.355   1.180   0.022 -0.4909  0.2010  0.3803
  189MPD1    H6 2886   1.367   1.105   0.089 -0.3153 -0.5873 -0.5444
  189MPD1    H7 2887   1.258   1.198  17.693 -0.5721 -0.5954  0.1448
  190MPD1     C 2888   0.035   0.017  15.736  0.4964  0.0887  1.0550
  190MPD1    C1 2889   0.057   0.151  15.735  0.3501 -0.1720  0.2656
  190MPD1    C2 2890   0.169   0.197  15.669  0.8328 -0.2919 -0.3685
  190MPD1    C3 2891   0.244   0.109  15.595 -0.0631  0.1266 -0.3613
  190MPD1    C4 2892   0.208   4.701  15.577 -0.7317 -0.6453 -0.3020
  190MPD1    C5 2893   0.104   4.655  15.648 -0.6367 -0.7495  0.3572
  190MPD1     H 2894   0.217   0.291  15.694 -1.7262  0.6045  1.1645
  190MPD1    H1 2895   0.259   4.621  15.525 -1.9345 -2.1716  0.8715
  190MPD1    H2 2896   4.672   4.702  15.787 -0.9710  1.4440 -0.4297
  190MPD1    H3 2897   0.075   4.552  15.633 -3.8193  0.0907  0.8066
  190MPD1     N 2898   0.367   0.168  15.553 -0.2915  0.5871 -0.1175
  190MPD1    H5 2899   0.385   0.263  15.585 -0.1671  0.0541  1.4312
  190MPD1    N1 2900   4.708   0.237  15.824 -0.5447  0.0754 -0.5922
  190MPD1    H6 2901   4.613   0.204  15.840 -0.1755 -0.9683 -0.5418
  190MPD1    H7 2902   4.703   0.330  15.784 -1.8313  0.0538 -0.4960
  191MPD1     C 2903   4.555   2.103  12.420  0.0605  0.1122 -0.3005
  191MPD1    C1 2904   4.660   2.188  12.386  0.2738  0.5346  0.0871
  191MPD1    C2 2905   4.655   2.250  12.261  0.4557 -0.3824  0.3328
  191MPD1    C3 2906   4.559   2.226  12.166 -0.5786 -0.2340 -0.0849
  191MPD1    C4 2907   4.456   2.147  12.206  0.4533  0.3639  0.3740
  191MPD1    C5 2908   4.452   2.092  12.329  0.2497  0.4514  0.0761
  191MPD1     H 2909   0.016   2.312  12.235  0.1502  0.3057  0.9673
  191MPD1    H1 2910   4.372   2.125  12.141  1.1860  1.7421 -1.0305
  191MPD1    H2 2911   4.544   2.057  12.517  0.2930 -0.2326 -0.4355
  191MPD1    H3 2912   4.362   2.042  12.361  0.5721 -0.7515 -0.9147
  191MPD1     N 2913   4.578   2.276  12.039  0.0288 -0.6652  0.3965
  191MPD1    H5 2914   4.660   2.333  12.019  0.8206 -1.3659  1.6359
  191MPD1    N1 2915   0.039   2.218  12.469 -0.1500 -0.3065  0.1215
  191MPD1    H6 2916   0.083   2.137  12.511  0.5120 -0.9570 -1.8431
  191MPD1    H7 2917   0.115   2.272  12.429 -0.3246  0.2906  0.5791
  192MPD1     C 2918   4.222   2.646  11.095 -0.4170  0.6136 -0.0237
  192MPD1    C1 2919   4.161   2.601  11.207  0.5310  0.1467  0.0820
  192MPD1    C2 2920   4.233   2.522  11.292 -0.2416 -0.8308 -0.7084
  192MPD1    C3 2921   4.371   2.510  11.280  0.5756  0.6543 -0.0161
  192MPD1    C4 2922   4.437   2.573  11.177 -0.4218  0.1603  0.5007
  192MPD1    C5 2923   4.357   2.631  11.078  0.3891  0.5714 -0.3409
  192MPD1     H 2924   4.183   2.462  11.367  0.0701  0.0866  0.2300
  192MPD1    H1 2925   4.546   2.571  11.178 -0.3977  0.2626 -1.5298
  192MPD1    H2 2926   4.162   2.686  11.014  0.7956 -0.1404 -1.2995
  192MPD1    H3 2927   4.402   2.673  10.988  0.0399 -2.0421 -1.7267
  192MPD1     N 2928   4.449   2.438  11.377  0.2956 -0.0335  0.0538
  192MPD1    H5 2929   4.549   2.447  11.360  0.1154  2.2201  0.2605
  192MPD1    N1 2930   4.024   2.599  11.228 -0.0977 -0.3599 -0.0426
  192MPD1    H6 2931   3.987   2.684  11.187  0.6878  0.2675  0.5357
  192MPD1    H7 2932   3.997   2.602  11.326 -0.9264  0.4956 -0.3016
  193MPD1     C 2933   3.914   2.608  16.281  0.1038 -0.0850 -0.0867
  193MPD1    C1 2934   4.028   2.556  16.230 -0.5235  0.3767 -0.0498
  193MPD1    C2 2935   4.151   2.591  16.292 -0.3402 -0.3440 -0.4456
  193MPD1    C3 2936   4.157   2.661  16.411 -0.5607 -1.1324 -0.3801
  193MPD1    C4 2937   4.038   2.698  16.468 -0.6716  0.3204 -0.3337
  193MPD1    C5 2938   3.916   2.677  16.403  0.1879 -0.1137  0.0509
  193MPD1     H 2939   4.240   2.567  16.234  0.6422  0.8551  0.5662
  193MPD1    H1 2940   4.031   2.762  16.556  1.4459  0.3807 -0.2067
  193MPD1    H2 2941   3.823   2.597  16.223  0.0438  0.9104 -0.1728
  193MPD1    H3 2942   3.827   2.711  16.455 -0.4298  1.6523 -2.1875
  193MPD1     N 2943   4.282   2.697  16.471  0.7096  0.2676  0.0345
  193MPD1    H5 2944   4.266   2.747  16.558 -1.2610  0.0724 -0.2017
  193MPD1    N1 2945   4.028   2.504  16.097  0.1736 -0.3179  0.3101
  193MPD1    H6 2946   3.951   2.440  16.076 -0.2391  0.1148  0.5245
  193MPD1    H7 2947   4.107   2.440  16.087  0.3617 -0.2913  1.7300
  194MPD1     C 2948   2.405   4.710  16.212 -0.1137 -0.4200  0.3029
  194MPD1    C1 2949   2.491   0.022  16.310 -0.4465  0.5405 -0.1158
  194MPD1    C2 2950   2.470   4.689  16.433 -0.0928  0.6014 -0.4679
  194MPD1    C3 2951   2.364   4.594  16.460 -0.1608  0.1635 -0.0618
  194MPD1    C4 2952   2.279   4.565  16.357 -0.0809 -0.7626  0.0001
  194MPD1    C5 2953   2.297   4.614  16.231 -0.0762  0.3924  0.2975
  194MPD1     H 2954   2.532   4.721  16.516  0.9236 -1.5877 -0.3597
  194MPD1    H1 2955   2.189   4.505  16.366 -0.5284 -0.3648 -1.6958
  194MPD1    H2 2956   2.416   0.020  16.109  1.2254 -2.1940 -0.1285
  194MPD1    H3 2957   2.231   4.591  16.148 -0.1917 -0.8165  0.7245
  194MPD1     N 2958   2.334   4.539  16.584  0.5210  0.0424  0.4656
  194MPD1    H5 2959   2.247   4.488  16.595  0.3097  0.0869 -0.9550
  194MPD1    N1 2960   2.585   0.132  16.299  0.0293  0.8145  0.0006
  194MPD1    H6 2961   2.606   0.144  16.200  0.9026  0.1643  0.1028
  194MPD1    H7 2962   2.665   0.103  16.356 -0.4829  0.2272  0.4108
  195MPD1     C 2963   3.769   1.310  16.842  0.4915 -0.6533 -0.4775
  195MPD1    C1 2964   3.819   1.308  16.974  0.0546 -0.0332  1.1090
  195MPD1    C2 2965   3.764   1.228  17.073  0.7742 -0.6049  0.3869
  195MPD1    C3 2966   3.673   1.131  17.027 -0.1701  0.5685 -0.4642
  195MPD1    C4 2967   3.619   1.129  16.895 -0.7858  0.1365 -0.2958
  195MPD1    C5 2968   3.664   1.227  16.809  0.7917 -0.2094  0.4355
  195MPD1     H 2969   3.801   1.221  17.174  0.4760 -0.0741  0.5292
  195MPD1    H1 2970   3.551   1.054  16.856 -0.4393 -1.2838  1.8312
  195MPD1    H2 2971   3.786   1.392  16.774 -1.1275  1.4905  1.6959
  195MPD1    H3 2972   3.615   1.234  16.713  1.7779  1.7065  0.0635
  195MPD1     N 2973   3.631   1.024  17.109  0.0708 -0.3420 -0.1084
  195MPD1    H5 2974   3.576   0.954  17.061  1.5416 -2.8344  1.8416
  195MPD1    N1 2975   3.887   1.426  17.026  0.8468 -0.2379  0.4501
  195MPD1    H6 2976   3.954   1.401  17.098  1.2574  0.8983  0.4661
  195MPD1    H7 2977   3.939   1.483  16.960 -0.7175  0.3408 -0.2840
  196MPD1     C 2978   4.148   0.572  17.506 -0.0186 -0.3206  0.1250
  196MPD1    C1 2979   4.171   0.700  17.537 -0.3409  0.0098 -0.0773
  196MPD1    C2 2980   4.092   0.766  17.634  0.1360 -0.8285 -0.2141
  196MPD1    C3 2981   3.986   0.700   0.003  0.3993 -0.6175  0.6375
  196MPD1    C4 2982   3.961   0.578  17.657 -0.9165 -0.3702 -0.8012
  196MPD1    C5 2983   4.038   0.511  17.559 -0.1917  0.5825 -0.2540
  196MPD1     H 2984   4.116   0.865  17.669 -2.1775 -0.7131  1.0655
  196MPD1    H1 2985   3.875   0.537   0.011  1.0535 -1.4728  1.6102
  196MPD1    H2 2986   4.215   0.521  17.437 -2.4873 -0.6737 -2.0053
  196MPD1    H3 2987   4.022   0.407  17.533 -1.4949  0.4963  0.9336
  196MPD1     N 2988   3.917   0.749   0.115  0.5389 -0.6026 -0.5345
  196MPD1    H5 2989   3.866   0.676   0.163  2.6454 -3.6703 -2.9554
  196MPD1    N1 2990   4.274   0.772  17.479 -0.2953  0.7618  0.0555
  196MPD1    H6 2991   4.270   0.753  17.379 -0.5263 -0.5791  0.3161
  196MPD1    H7 2992   4.257   0.872  17.480  1.7082  1.1159 -2.3698
  197MPD1     C 2993   3.259   3.783   0.015 -0.3922  0.2961 -0.3418
  197MPD1    C1 2994   3.231   3.655  17.673 -0.2931  0.0154 -0.4407
  197MPD1    C2 2995   3.227   3.629  17.540  0.3727 -0.6048  0.1022
  197MPD1    C3 2996   3.250   3.726  17.445  0.4365 -0.4181 -0.1500
  197MPD1    C4 2997   3.263   3.859  17.493 -0.0630  0.2587 -0.4918
  197MPD1    C5 2998   3.268   3.884  17.629 -1.1644  0.3778  0.8142
  197MPD1     H 2999   3.225   3.525  17.508 -2.0759 -0.8405  1.0770
  197MPD1    H1 3000   3.269   3.938  17.420  1.5676 -2.3748 -3.1944
  197MPD1    H2 3001   3.265   3.811   0.120  0.1483 -3.2101  0.5511
  197MPD1    H3 3002   3.274   3.985  17.668  1.8302  0.2412  0.7195
  197MPD1     N 3003   3.246   3.708  17.309  0.0098 -0.5366  0.2811
  197MPD1    H5 3004   3.263   3.789  17.250  1.3393  0.4369  2.0236
  197MPD1    N1 3005   3.234   3.550   0.072 -0.1049  0.0110  0.6235
  197MPD1    H6 3006   3.184   3.575   0.157  2.0592  2.0056  1.3244
  197MPD1    H7 3007   3.184   3.468   0.037  0.5066 -1.3093  2.8460
  198MPD1     C 3008   0.041   1.262  15.620  0.6794 -0.3215  0.1749
  198MPD1    C1 3009   0.166   1.268  15.556 -0.0760 -0.2745 -0.3131
  198MPD1    C2 3010   0.262   1.334  15.626 -0.2614  0.6456 -0.1734
  198MPD1    C3 3011   0.233   1.405  15.741  0.5674  0.3035 -0.1368
  198MPD1    C4 3012   0.104   1.399  15.792  0.6529  0.1315 -0.4250
  198MPD1    C5 3013   0.001   1.330  15.734 -0.4945 -0.4691  0.1274
  198MPD1     H 3014   0.361   1.344  15.584  0.2913 -1.8080  0.5723
  198MPD1    H1 3015   0.083   1.463  15.877 -0.7462  0.0949 -0.7502
  198MPD1    H2 3016   4.682   1.208  15.578  0.5396 -0.2416  0.3469
  198MPD1    H3 3017   4.623   1.336  15.772 -0.7668 -0.1934 -0.6599
  198MPD1     N 3018   0.335   1.487  15.792  0.3218 -0.0511  0.8345
  198MPD1    H5 3019   0.409   1.499  15.723 -2.1177 -0.2561 -1.8100
  198MPD1    N1 3020   0.194   1.197  15.442 -0.0744 -0.5664 -0.0663
  198MPD1    H6 3021   0.259   1.249  15.384 -0.1459  0.4608  0.7661
  198MPD1    H7 3022   0.113   1.168  15.388  0.7315  0.3349 -1.7689
  199MPD1     C 3023   0.755   3.260   8.779 -0.7530 -0.1229  0.3529
  199MPD1    C1 3024   0.892   3.270   8.787  0.0878  0.3154 -0.4620
  199MPD1    C2 3025   0.950   3.206   8.891 -0.3203  0.4310  0.1095
  199MPD1    C3 3026   0.890   3.090   8.943  0.6468 -0.0407 -0.3445
  199MPD1    C4 3027   0.756   3.072   8.920 -0.2973  0.6499  0.0076
  199MPD1    C5 3028   0.688   3.163   8.845 -1.2092 -1.0125 -0.4651
  199MPD1     H 3029   1.053   3.225   8.917  1.2902 -4.5664 -2.5422
  199MPD1    H1 3030   0.712   2.984   8.967  1.2596 -0.2860 -0.2834
  199MPD1    H2 3031   0.692   3.326   8.721  1.3913 -0.3546 -2.2483
  199MPD1    H3 3032   0.580   3.160   8.846 -1.3042  2.1617 -0.1461
  199MPD1     N 3033   0.953   3.006   9.037  0.4163 -0.4399  0.5554
  199MPD1    H5 3034   0.905   2.921   9.065 -0.5921 -0.0211  0.0951
  199MPD1    N1 3035   0.964   3.382   8.738  0.5018  0.7945 -0.2962
  199MPD1    H6 3036   1.064   3.362   8.730 -0.0920 -1.7747 -1.3634
  199MPD1    H7 3037   0.943   3.418   8.646 -2.0356  0.0218 -0.0104
  200MPD1     C 3038   0.749   2.693  14.838  0.1565  0.1498 -0.7993
  200MPD1    C1 3039   0.858   2.735  14.917  0.1557 -0.5922 -0.0980
  200MPD1    C2 3040   0.972   2.774  14.857  0.2863  0.2892 -0.2138
  200MPD1    C3 3041   1.006   2.737  14.734 -0.2203  0.1905 -0.2314
  200MPD1    C4 3042   0.906   2.694  14.649  0.8189  0.7849  0.4978
  200MPD1    C5 3043   0.775   2.680  14.699  0.5308 -0.7347 -0.6077
  200MPD1     H 3044   1.052   2.814  14.918 -0.5454 -0.5531  1.4389
  200MPD1    H1 3045   0.927   2.673  14.545 -0.7143  1.1467  0.1053
  200MPD1    H2 3046   0.650   2.675  14.876  0.9055 -2.0019  0.1538
  200MPD1    H3 3047   0.697   2.645  14.632 -1.2949 -0.1497  1.2122
  200MPD1     N 3048   1.139   2.763  14.686  0.7848 -0.9272 -0.4460
  200MPD1    H5 3049   1.201   2.791  14.762 -1.3506  0.8799  0.6080
  200MPD1    N1 3050   0.845   2.755  15.056  0.0208 -0.2995 -0.2385
  200MPD1    H6 3051   0.783   2.683  15.092  1.2206 -0.7836  0.8563
  200MPD1    H7 3052   0.929   2.736  15.110 -1.5605 -0.7744  2.0799
  201MPD1     C 3053   3.649   2.082  12.643  0.4340 -0.2555 -0.4845
  201MPD1    C1 3054   3.731   2.041  12.743  0.4869  0.3170 -0.0506
  201MPD1    C2 3055   3.814   1.929  12.732 -0.4724 -0.6921 -0.4731
  201MPD1    C3 3056   3.811   1.858  12.614  0.0870  0.2226 -0.3680
  201MPD1    C4 3057   3.719   1.897  12.508 -0.1617  0.1532 -0.3177
  201MPD1    C5 3058   3.654   2.019  12.521  0.0566 -0.6083  0.1778
  201MPD1     H 3059   3.877   1.896  12.814  0.0452  1.3335 -0.0619
  201MPD1    H1 3060   3.701   1.840  12.418  2.5288  1.2241 -1.5457
  201MPD1    H2 3061   3.579   2.163  12.658  1.5831  0.4984  0.7402
  201MPD1    H3 3062   3.588   2.058  12.445  1.0237  2.9983  1.2026
  201MPD1     N 3063   3.892   1.740  12.608 -0.1133 -0.0522 -0.0351
  201MPD1    H5 3064   3.955   1.723  12.686  1.4441 -0.1900 -1.3141
  201MPD1    N1 3065   3.700   2.105  12.867  0.2972  0.1744  0.3704
  201MPD1    H6 3066   3.659   2.197  12.853  0.4872  0.3527  0.9829
  201MPD1    H7 3067   3.769   2.119  12.941 -0.6433 -2.3192  1.7328
  202MPD1     C 3068   3.076   0.559   9.396 -0.4034 -0.3774 -0.6171
  202MPD1    C1 3069   3.055   0.692   9.383 -0.0676  0.6078 -0.2465
  202MPD1    C2 3070   3.119   0.784   9.468  0.0428 -0.2593  0.4876
  202MPD1    C3 3071   3.229   0.745   9.537  0.4480  0.6471 -0.4690
  202MPD1    C4 3072   3.269   0.611   9.542  0.5466 -0.3416  0.7079
  202MPD1    C5 3073   3.186   0.521   9.472  0.4262 -0.0031 -0.7105
  202MPD1     H 3074   3.094   0.888   9.448 -0.9463 -0.2904  1.5662
  202MPD1    H1 3075   3.351   0.582   9.606 -0.5594 -1.0697  1.8081
  202MPD1    H2 3076   3.021   0.484   9.341 -0.7672 -0.6849  0.1731
  202MPD1    H3 3077   3.204   0.415   9.467 -1.0983 -0.3465  1.2585
  202MPD1     N 3078   3.307   0.829   9.618 -0.5418  0.4212  0.2098
  202MPD1    H5 3079   3.389   0.782   9.654  0.7154  2.0305 -0.5291
  202MPD1    N1 3080   2.939   0.737   9.318 -0.2702 -0.1096  0.2479
  202MPD1    H6 3081   2.945   0.837   9.297 -0.4684 -0.3519 -1.0064
  202MPD1    H7 3082   2.931   0.690   9.228  0.5545 -0.8115  0.5453
  203MPD1     C 3083   1.887   2.338  12.043 -0.2577  0.7302  0.1947
  203MPD1    C1 3084   1.949   2.233  11.979 -0.4323 -0.5710  0.4638
  203MPD1    C2 3085   2.054   2.173  12.042  0.1007 -0.3277  0.3723
  203MPD1    C3 3086   2.098   2.222  12.164 -0.0571 -0.1582  0.4375
  203MPD1    C4 3087   2.055   2.345  12.209 -0.1170  0.4444 -0.9326
  203MPD1    C5 3088   1.944   2.395  12.154 -0.0311 -1.0764  0.8775
  203MPD1     H 3089   2.098   2.083  12.001 -3.7275 -2.0213  0.0548
  203MPD1    H1 3090   2.095   2.401  12.293 -0.5893  0.6963 -0.8709
  203MPD1    H2 3091   1.793   2.371  12.000  0.1661  0.2327 -1.1051
  203MPD1    H3 3092   1.902   2.486  12.196 -0.0966 -0.4022 -0.6524
  203MPD1     N 3093   2.188   2.145  12.235  0.6245 -0.3709  0.2700
  203MPD1    H5 3094   2.191   2.050  12.199 -0.8269  0.3025 -1.5729
  203MPD1    N1 3095   1.900   2.167  11.865 -0.3459  0.5805 -0.3176
  203MPD1    H6 3096   1.832   2.220  11.811  0.8044  0.0292 -2.2896
  203MPD1    H7 3097   1.964   2.107  11.812 -0.4651  2.2310 -2.3358
  204MPD1     C 3098   2.033   3.264  17.541  0.0928 -0.5164 -0.5756
  204MPD1    C1 3099   2.112   3.260  17.430 -0.0498 -0.0741  0.2529
  204MPD1    C2 3100   2.100   3.145  17.354 -0.0686 -0.4356 -0.0815
  204MPD1    C3 3101   2.012   3.040  17.377 -0.0218  0.0032 -0.0692
  204MPD1    C4 3102   1.944   3.046  17.492  0.1670  0.7061  0.0050
  204MPD1    C5 3103   1.954   3.155  17.573  0.4515 -0.3810  0.1220
  204MPD1     H 3104   2.160   3.134  17.264 -0.5112 -1.0738 -0.2955
  204MPD1    H1 3105   1.886   2.961  17.526  1.7610  0.0191  0.9867
  204MPD1    H2 3106   2.038   3.341  17.617 -2.9234 -1.4144  0.5365
  204MPD1    H3 3107   1.896   3.166  17.664  0.2797  2.3274 -0.3104
  204MPD1     N 3108   2.009   2.926  17.293  0.4777 -0.0355 -0.1380
  204MPD1    H5 3109   2.079   2.923  17.219  1.5976  0.6706  0.8924
  204MPD1    N1 3110   2.218   3.350  17.408  0.4968 -0.4147 -0.6301
  204MPD1    H6 3111   2.245   3.361  17.311  0.0850 -1.3511 -0.8585
  204MPD1    H7 3112   2.204   3.438  17.457  0.7959 -1.1528  0.7869
  205MPD1     C 3113   1.172   1.326  16.967  0.5710 -0.1437 -0.6783
  205MPD1    C1 3114   1.239   1.312  16.845 -0.6153  0.8434  0.4795
  205MPD1    C2 3115   1.367   1.361  16.840  0.0667  0.7495  0.5745
  205MPD1    C3 3116   1.422   1.443  16.934 -0.1603 -1.1650  0.2907
  205MPD1    C4 3117   1.362   1.446  17.059 -0.4750  0.1660  0.7067
  205MPD1    C5 3118   1.234   1.388  17.068 -0.0890 -0.6726  0.1411
  205MPD1     H 3119   1.420   1.350  16.746  1.9854  0.6878  1.6612
  205MPD1    H1 3120   1.402   1.492  17.149  2.6478  0.7016 -0.9798
  205MPD1    H2 3121   1.071   1.287  16.972  0.2984  0.8292  1.9464
  205MPD1    H3 3122   1.184   1.394  17.164 -1.6427 -2.0874 -0.5877
  205MPD1     N 3123   1.550   1.493  16.925 -0.3674 -0.3397 -0.4332
  205MPD1    H5 3124   1.586   1.525  17.014  1.5133 -2.0414 -0.5591
  205MPD1    N1 3125   1.190   1.228  16.747 -0.2919  0.4946  0.4592
  205MPD1    H6 3126   1.088   1.226  16.753 -0.5634 -1.1030 -4.7660
  205MPD1    H7 3127   1.211   1.260  16.653 -0.1017 -0.4057  0.2007
  206MPD1     C 3128   2.214   0.446  16.499 -0.2673 -0.0582  0.1191
  206MPD1    C1 3129   2.245   0.334  16.425 -0.0354  1.1427  0.0717
  206MPD1    C2 3130   2.163   0.295  16.322  0.1136  0.3391 -0.6356
  206MPD1    C3 3131   2.068   0.386  16.266  0.2603  0.0150  0.0552
  206MPD1    C4 3132   2.046   0.502  16.335 -0.2386  0.3049 -0.3615
  206MPD1    C5 3133   2.115   0.524  16.449 -0.5095  0.4596 -0.1514
  206MPD1     H 3134   2.174   0.195  16.283 -1.4632  0.1727 -0.6546
  206MPD1    H1 3135   1.981   0.577  16.292  0.3747  1.5184  0.8430
  206MPD1    H2 3136   2.271   0.484  16.582  3.0284  0.0270 -2.1671
  206MPD1    H3 3137   2.094   0.617  16.500 -2.7387  0.6620 -1.4318
  206MPD1     N 3138   1.997   0.370  16.145  0.6648  0.3988 -0.0797
  206MPD1    H5 3139   1.953   0.446  16.094  0.1455 -0.5856 -1.1203
  206MPD1    N1 3140   2.332   0.244  16.484  0.1779  0.8966  0.4825
  206MPD1    H6 3141   2.403   0.281  16.547 -0.1934  0.1073  1.3603
  206MPD1    H7 3142   2.387   0.191  16.417 -0.9797 -1.9334  1.7943
  207MPD1     C 3143   4.059   2.625   9.305 -0.2822  0.1738  0.2586
  207MPD1    C1 3144   4.111   2.521   9.389  0.0631  0.4100 -0.4335
  207MPD1    C2 3145   4.221   2.556   9.466  0.0609 -0.2502  0.0402
  207MPD1    C3 3146   4.280   2.688   9.463  0.2815 -0.0698  0.4738
  207MPD1    C4 3147   4.227   2.783   9.385  0.5528  0.2158 -0.9771
  207MPD1    C5 3148   4.115   2.754   9.305  0.6162 -0.5915 -0.2485
  207MPD1     H 3149   4.268   2.480   9.527 -0.2312 -0.3465  0.1458
  207MPD1    H1 3150   4.265   2.885   9.391  1.1132  0.0788 -2.2585
  207MPD1    H2 3151   3.975   2.617   9.237 -0.3726  0.8457  0.2896
  207MPD1    H3 3152   4.068   2.832   9.246 -0.7180 -2.2321 -1.3612
  207MPD1     N 3153   4.394   2.711   9.543  0.1661  0.2116  0.9238
  207MPD1    H5 3154   4.415   2.637   9.610  1.8486 -1.6734 -1.6754
  207MPD1    N1 3155   4.069   2.385   9.366 -0.0886 -0.2053  0.5842
  207MPD1    H6 3156   4.083   2.312   9.435  1.3380 -0.4644  0.0092
  207MPD1    H7 3157   3.969   2.385   9.344  0.0498  0.7046 -0.0535
  208MPD1     C 3158   3.315   1.792  17.179 -0.3360 -0.3778  0.5148
  208MPD1    C1 3159   3.209   1.771  17.091  0.1822  0.0260 -0.7126
  208MPD1    C2 3160   3.112   1.675  17.119  1.1950 -0.4914  0.1672
  208MPD1    C3 3161   3.117   1.597  17.232 -0.1100 -0.1424  0.4868
  208MPD1    C4 3162   3.223   1.621  17.322  0.3577  0.1404 -0.3442
  208MPD1    C5 3163   3.318   1.719  17.294  0.1949 -0.3787  0.5399
  208MPD1     H 3164   3.034   1.672  17.044  0.9221  2.4279  0.3320
  208MPD1    H1 3165   3.223   1.567  17.416  0.0901  0.4748 -0.1518
  208MPD1    H2 3166   3.381   1.877  17.167 -3.4692  2.0708  0.7283
  208MPD1    H3 3167   3.405   1.740  17.355  0.8130 -2.4523  0.3720
  208MPD1     N 3168   3.006   1.522  17.270  0.6307 -0.2300 -0.5187
  208MPD1    H5 3169   2.928   1.533  17.206 -0.3576  0.5792  0.7982
  208MPD1    N1 3170   3.182   1.855  16.977 -0.2297 -0.1498  0.2843
  208MPD1    H6 3171   3.150   1.807  16.894  1.2003 -0.7565  0.0893
  208MPD1    H7 3172   3.272   1.898  16.953 -0.6604 -1.1232 -2.9747
  209MPD1     C 3173   0.270   1.668  11.008  0.7422 -0.7301 -0.0296
  209MPD1    C1 3174   0.344   1.780  11.060 -0.3611 -0.3796  0.9197
  209MPD1    C2 3175   0.333   1.903  10.996 -0.3415  1.0100 -0.0061
  209MPD1    C3 3176   0.239   1.931  10.891 -0.9531 -0.2018  0.2378
  209MPD1    C4 3177   0.160   1.826  10.849 -0.1774 -0.6577 -0.3156
  209MPD1    C5 3178   0.181   1.697  10.903 -0.2502 -1.1172 -1.1245
  209MPD1     H 3179   0.383   1.991  11.034 -0.8026  0.9616  0.7065
  209MPD1    H1 3180   0.076   1.843  10.782  1.6408 -0.1557 -2.4960
  209MPD1    H2 3181   0.275   1.572  11.057 -1.1571 -0.2128  1.1461
  209MPD1    H3 3182   0.111   1.620  10.875  0.7275 -2.4411  0.0658
  209MPD1     N 3183   0.226   2.067  10.847  0.1825 -0.3809 -0.3371
  209MPD1    H5 3184   0.280   2.135  10.899  0.7493 -0.4497 -0.8261
  209MPD1    N1 3185   0.433   1.765  11.172  0.6357 -0.2728 -0.1334
  209MPD1    H6 3186   0.404   1.718  11.258  1.2408  0.0760  0.2624
  209MPD1    H7 3187   0.449   1.853  11.221 -0.1023 -1.6765  2.5995
  210MPD1     C 3188   4.691   2.980  11.139  0.3494 -0.1939  0.4778
  210MPD1    C1 3189   0.002   2.862  11.200  0.6729 -0.5262  0.3989
  210MPD1    C2 3190   0.050   2.764  11.119  0.7117 -0.2402  0.0282
  210MPD1    C3 3191   0.084   2.783  10.986 -0.8959  0.1037 -0.6227
  210MPD1    C4 3192   0.073   2.914  10.943  0.5248 -0.5050  1.0018
  210MPD1    C5 3193   0.020   3.014  11.022 -0.6968  0.9057 -0.4837
  210MPD1     H 3194   0.024   2.665  11.154 -2.5282 -0.2349 -2.3461
  210MPD1    H1 3195   0.093   2.944  10.841  1.9770 -0.0827  1.4219
  210MPD1    H2 3196   4.638   3.053  11.199 -0.0653 -2.0808  2.3944
  210MPD1    H3 3197   0.011   3.113  10.979  2.5482  1.2768 -0.3362
  210MPD1     N 3198   0.117   2.684  10.892 -0.3494 -0.5125  0.2176
  210MPD1    H5 3199   0.139   2.718  10.799 -2.3872 -1.5840 -0.6565
  210MPD1    N1 3200   4.674   2.837  11.326 -0.2272 -0.2050  1.2836
  210MPD1    H6 3201   4.684   2.921  11.383  2.0292  0.6797 -0.4185
  210MPD1    H7 3202   4.713   2.755  11.372  1.0810 -0.5457 -0.4357
  211MPD1     C 3203   3.120   1.875  16.231 -0.4202  0.1607 -0.9167
  211MPD1    C1 3204   3.014   1.838  16.312  0.4339  0.1383 -0.1500
  211MPD1    C2 3205   2.886   1.847  16.251 -0.3093 -0.3494  0.1979
  211MPD1    C3 3206   2.862   1.916  16.136  0.2246  0.5478  0.5148
  211MPD1    C4 3207   2.961   1.975  16.069  0.2307 -0.6238 -0.0465
  211MPD1    C5 3208   3.091   1.947  16.118  0.6181  0.3603 -0.3703
  211MPD1     H 3209   2.807   1.792  16.300 -1.7398 -0.8176 -2.5982
  211MPD1    H1 3210   2.948   2.030  15.977  1.4669 -0.1892  0.0376
  211MPD1    H2 3211   3.224   1.852  16.252 -0.9428 -2.6383 -1.3503
  211MPD1    H3 3212   3.175   1.989  16.065  2.0958 -0.5801  1.2339
  211MPD1     N 3213   2.727   1.919  16.096 -0.6495  0.0427  0.3950
  211MPD1    H5 3214   2.660   1.876  16.159 -0.1067 -2.0702 -0.4867
  211MPD1    N1 3215   3.045   1.754  16.418 -0.5114  0.1038  0.2480
  211MPD1    H6 3216   3.136   1.770  16.461 -0.6126  1.5724 -0.0770
  211MPD1    H7 3217   2.971   1.758  16.487 -0.5558 -0.3179  0.2237
  212MPD1     C 3218   1.802   0.390  16.599 -0.2008  0.1341 -0.3788
  212MPD1    C1 3219   1.832   0.259  16.573 -0.2341  0.7466 -0.0923
  212MPD1    C2 3220   1.742   0.163  16.612 -0.3002  0.3743 -0.7653
  212MPD1    C3 3221   1.619   0.205  16.664  0.0199 -0.3090 -0.1581
  212MPD1    C4 3222   1.596   0.340  16.692 -0.0734 -0.5220  0.1503
  212MPD1    C5 3223   1.688   0.430  16.654 -0.6032 -0.6828  0.2027
  212MPD1     H 3224   1.761   0.057  16.599  0.6358  0.4613 -0.1283
  212MPD1    H1 3225   1.495   0.369  16.719  0.9603  0.6856  2.8279
  212MPD1    H2 3226   1.871   0.472  16.578  0.1773  0.5677  2.5133
  212MPD1    H3 3227   1.677   0.536  16.673  2.6174 -0.2656 -0.2456
  212MPD1     N 3228   1.517   0.117  16.714  0.3683  0.5551  0.2464
  212MPD1    H5 3229   1.435   0.155  16.761 -2.0578 -3.0514 -1.0894
  212MPD1    N1 3230   1.961   0.213  16.531 -0.7045 -0.3164  0.1882
  212MPD1    H6 3231   1.960   0.124  16.482  0.4483 -1.0708  1.5186
  212MPD1    H7 3232   2.013   0.274  16.469  1.1877  0.4384  2.4838
  213MPD1     C 3233   4.592   1.329  15.344  0.5433 -0.1069  0.1683
  213MPD1    C1 3234   4.661   1.319  15.224 -0.7569 -0.2921 -0.1871
  213MPD1    C2 3235   4.583   1.260  15.121  0.0880 -0.9146  0.0825
  213MPD1    C3 3236   4.466   1.201  15.150  0.3376 -0.0336 -0.3159
  213MPD1    C4 3237   4.420   1.195  15.277 -0.1264  0.6508 -0.1053
  213MPD1    C5 3238   4.485   1.262  15.375 -0.4019  0.6171  0.0629
  213MPD1     H 3239   4.615   1.272  15.018  2.7392 -2.1626  0.7554
  213MPD1    H1 3240   4.332   1.142  15.310  0.0447  0.8193  0.6299
  213MPD1    H2 3241   4.631   1.385  15.429  1.1159 -1.0141  0.4983
  213MPD1    H3 3242   4.453   1.257  15.478 -0.2790  2.9114  0.2255
  213MPD1     N 3243   4.400   1.148  15.040 -0.9684 -0.0682 -0.0013
  213MPD1    H5 3244   4.444   1.157  14.950  0.6694 -1.1357  0.6856
  213MPD1    N1 3245   0.022   1.422  15.185 -0.5405 -0.0597 -0.5349
  213MPD1    H6 3246   0.083   1.451  15.261  1.1696  0.4351 -2.1174
  213MPD1    H7 3247   0.072   1.384  15.105  0.3072  0.5866 -0.3047
  214MPD1     C 3248   3.441   0.731  14.693 -0.6801  0.6765 -0.2416
  214MPD1    C1 3249   3.520   0.691  14.794  0.8182 -0.7005 -0.7235
  214MPD1    C2 3250   3.632   0.768  14.834 -0.2783 -0.1970  0.4274
  214MPD1    C3 3251   3.667   0.882  14.763  0.0507 -0.3559 -0.7728
  214MPD1    C4 3252   3.577   0.921  14.661 -0.4929  0.2557 -0.0617
  214MPD1    C5 3253   3.469   0.847  14.624  0.8740 -0.2109  0.7351
  214MPD1     H 3254   3.685   0.744  14.925 -1.8149 -1.6103  0.9473
  214MPD1    H1 3255   3.603   1.006  14.598  1.6571 -1.0756 -0.9852
  214MPD1    H2 3256   3.352   0.680  14.659  0.5330 -1.5436 -0.0819
  214MPD1    H3 3257   3.423   0.879  14.532  0.5107 -0.5906  0.7858
  214MPD1     N 3258   3.783   0.958  14.788  0.6883  0.0310 -0.6226
  214MPD1    H5 3259   3.786   1.038  14.725 -0.2834  0.8371  0.3469
  214MPD1    N1 3260   3.479   0.587  14.884 -0.5453 -0.8423 -0.5852
  214MPD1    H6 3261   3.558   0.541  14.929 -2.3454 -2.5429  0.8247
  214MPD1    H7 3262   3.437   0.510  14.834  1.3576 -1.6798 -0.8861
  215MPD1     C 3263   4.212   1.315  10.504  0.0730  0.1549 -0.2014
  215MPD1    C1 3264   4.331   1.290  10.576  0.2776 -0.1763  0.2260
  215MPD1    C2 3265   4.402   1.395  10.625 -0.3986 -0.4670 -0.4789
  215MPD1    C3 3266   4.379   1.522  10.601 -0.9418  0.7729  0.8298
  215MPD1    C4 3267   4.263   1.550  10.528 -0.2695 -0.8033  0.2233
  215MPD1    C5 3268   4.186   1.448  10.476 -0.4240 -0.3172  0.0095
  215MPD1     H 3269   4.493   1.375  10.680 -0.7247  2.3101  1.1012
  215MPD1    H1 3270   4.230   1.651  10.505  0.4180 -1.1893 -2.4625
  215MPD1    H2 3271   4.143   1.243  10.463  0.8678 -0.6632 -0.0951
  215MPD1    H3 3272   4.093   1.476  10.427  0.4831  2.5621 -0.0694
  215MPD1     N 3273   4.457   1.623  10.670 -0.1509 -0.1171  0.1419
  215MPD1    H5 3274   4.535   1.611  10.733  0.3854 -2.2423 -0.9358
  215MPD1    N1 3275   4.374   1.159  10.602  0.0315 -0.2003 -0.0209
  215MPD1    H6 3276   4.318   1.078  10.577 -1.7824  1.3225 -0.8986
  215MPD1    H7 3277   4.473   1.138  10.596 -0.4333 -2.3727 -0.2440
  216MPD1     C 3278   2.262   0.145  17.206  0.2117 -0.3618  0.2429
  216MPD1    C1 3279   2.266   0.072  17.321  0.3964  0.2545 -0.0890
  216MPD1    C2 3280   2.180   4.689  17.323  0.2273  0.4895  0.7576
  216MPD1    C3 3281   2.112   4.647  17.207  0.3155 -0.0534  0.0787
  216MPD1    C4 3282   2.114   4.716  17.093  0.0398  1.0355 -0.0444
  216MPD1    C5 3283   2.186   0.106  17.095  0.2031  0.2236  1.0925
  216MPD1     H 3284   2.164   4.634  17.415 -0.1600  1.7138  1.4197
  216MPD1    H1 3285   2.064   4.683  17.003 -1.4916  0.8168  0.8723
  216MPD1    H2 3286   2.314   0.240  17.197 -0.4419 -0.2912 -2.5149
  216MPD1    H3 3287   2.182   0.167  17.006 -2.6102 -0.2610  0.8988
  216MPD1     N 3288   2.047   4.525  17.211 -0.7458  0.4566 -0.5882
  216MPD1    H5 3289   2.057   4.476  17.299 -0.7739  0.8154 -0.3833
  216MPD1    N1 3290   2.328   0.122  17.438 -0.0396 -0.8034  0.3300
  216MPD1    H6 3291   2.421   0.154  17.413 -0.1239 -1.9141 -1.4337
  216MPD1    H7 3292   2.337   0.040  17.498  4.7365 -0.1015  0.5552
  217MPD1     C 3293   1.677   4.160   8.988  0.2766 -0.5247 -0.0933
  217MPD1    C1 3294   1.771   4.174   9.079  0.1884  1.0589  0.4946
  217MPD1    C2 3295   1.832   4.297   9.083  0.2508 -0.3667  0.4968
  217MPD1    C3 3296   1.788   4.406   9.007 -0.0927 -0.1902 -0.0883
  217MPD1    C4 3297   1.684   4.385   8.924  0.5393 -0.1750 -0.3055
  217MPD1    C5 3298   1.632   4.259   8.908  0.2851 -0.7522 -0.0264
  217MPD1     H 3299   1.905   4.312   9.161  0.2222 -0.1387  0.4802
  217MPD1    H1 3300   1.657   4.467   8.858 -3.2764  1.2066  2.9485
  217MPD1    H2 3301   1.631   4.062   8.978  1.0095 -0.8033 -0.6273
  217MPD1    H3 3302   1.549   4.249   8.840  1.1531  0.1285 -1.2271
  217MPD1     N 3303   1.843   4.537   9.014 -0.1750  0.3271  0.1952
  217MPD1    H5 3304   1.792   4.607   8.960 -1.5225 -0.7545  0.0683
  217MPD1    N1 3305   1.806   4.059   9.157  0.1674  0.0944 -0.4239
  217MPD1    H6 3306   1.722   4.010   9.188  1.7585 -2.3702  0.0278
  217MPD1    H7 3307   1.858   4.086   9.240  0.8622 -1.4664 -0.3425
  218MPD1     C 3308   3.209   1.972  12.261 -0.1304  0.6205  0.5335
  218MPD1    C1 3309   3.309   1.888  12.211  0.7133  0.1502  0.2526
  218MPD1    C2 3310   3.425   1.956  12.154 -0.5708 -0.5115  0.1538
  218MPD1    C3 3311   3.458   2.085  12.185  0.2586  0.0595 -0.1597
  218MPD1    C4 3312   3.364   2.163  12.250  0.2306  0.3859 -0.5719
  218MPD1    C5 3313   3.240   2.109  12.277  0.3756  0.3493  0.4412
  218MPD1     H 3314   3.497   1.890  12.107  0.3395  0.8011 -0.2872
  218MPD1    H1 3315   3.375   2.269  12.270 -2.4400  0.4169  0.7512
  218MPD1    H2 3316   3.107   1.941  12.284 -0.2369  0.9420  0.4987
  218MPD1    H3 3317   3.166   2.176  12.320  1.5302  0.5226  2.1645
  218MPD1     N 3318   3.583   2.132  12.147  0.6620  0.5173  0.0142
  218MPD1    H5 3319   3.648   2.059  12.117  1.4839  1.4994 -0.5805
  218MPD1    N1 3320   3.277   1.759  12.171 -0.3527 -0.8088 -0.3098
  218MPD1    H6 3321   3.355   1.693  12.173 -1.0399 -1.5525  2.6231
  218MPD1    H7 3322   3.195   1.723  12.219 -1.9786  1.2491 -1.5636
  219MPD1     C 3323   4.392   2.692  11.703  0.8022 -0.0126 -0.0441
  219MPD1    C1 3324   4.259   2.657  11.667  0.2882 -0.1280  0.2874
  219MPD1    C2 3325   4.179   2.586  11.753 -0.0100  0.5270  0.1262
  219MPD1    C3 3326   4.230   2.530  11.867 -0.0486  0.3833  0.4572
  219MPD1    C4 3327   4.364   2.562  11.900  0.4725 -0.3907  0.5087
  219MPD1    C5 3328   4.442   2.635  11.815  0.1131 -0.0828 -0.5717
  219MPD1     H 3329   4.073   2.579  11.731 -0.4031  1.3169  1.7678
  219MPD1    H1 3330   4.409   2.529  11.993  1.1821  1.7607  0.9368
  219MPD1    H2 3331   4.453   2.761  11.647  2.3901 -1.9536 -0.7367
  219MPD1    H3 3332   4.546   2.654  11.841  1.1641 -3.9513 -1.9068
  219MPD1     N 3333   4.150   2.463  11.962  0.0071  0.1394  0.5359
  219MPD1    H5 3334   4.202   2.419  12.037 -0.4023  1.7378  1.7736
  219MPD1    N1 3335   4.195   2.737  11.569 -0.0461 -0.0624 -0.3845
  219MPD1    H6 3336   4.259   2.755  11.492  2.1313 -0.3210  1.3797
  219MPD1    H7 3337   4.106   2.699  11.536 -0.5485 -0.7780  1.7969
  220MPD1     C 3338   4.026   3.217   9.692  0.3332  0.1111  1.3059
  220MPD1    C1 3339   4.027   3.229   9.830 -0.2150  0.4033 -0.0045
  220MPD1    C2 3340   4.061   3.117   9.900  0.2517  0.5539  0.1299
  220MPD1    C3 3341   4.104   3.003   9.838  0.2690  0.2692  0.2288
  220MPD1    C4 3342   4.109   2.998   9.701  0.2713 -0.9363 -0.2584
  220MPD1    C5 3343   4.070   3.107   9.627 -0.5666 -0.1870 -0.4829
  220MPD1     H 3344   4.067   3.124  10.008 -0.4522  0.7830  0.1515
  220MPD1    H1 3345   4.142   2.909   9.649 -0.8707 -0.6961 -1.4069
  220MPD1    H2 3346   4.002   3.302   9.628 -1.0172  0.4943  2.3182
  220MPD1    H3 3347   4.069   3.109   9.519  0.1957  1.8170 -0.4498
  220MPD1     N 3348   4.132   2.894   9.918 -0.5688 -0.0013 -0.7182
  220MPD1    H5 3349   4.130   2.906  10.018 -0.4923 -1.1058 -0.5839
  220MPD1    N1 3350   3.964   3.341   9.885 -0.1933  0.1313 -0.5862
  220MPD1    H6 3351   3.968   3.424   9.827 -0.0937  1.1216  0.8278
  220MPD1    H7 3352   4.008   3.356   9.975  0.5884  0.3669 -1.0117
  221MPD1     C 3353   2.748   0.545  15.494 -0.5177 -0.3343  0.2753
  221MPD1    C1 3354   2.611   0.533  15.518 -0.0378 -0.3395  0.0115
  221MPD1    C2 3355   2.558   0.642  15.591  0.0502  0.5685 -0.5803
  221MPD1    C3 3356   2.627   0.763  15.619  0.2094 -0.2270 -0.0369
  221MPD1    C4 3357   2.758   0.764  15.587  0.1185 -0.0824  0.1284
  221MPD1    C5 3358   2.816   0.660  15.526 -0.3668 -0.7435 -0.2433
  221MPD1     H 3359   2.454   0.633  15.620 -0.0717  4.4697  0.2531
  221MPD1    H1 3360   2.834   0.838  15.611 -0.1977 -0.5109  2.3975
  221MPD1    H2 3361   2.805   0.456  15.470  0.2826  0.5458 -1.0357
  221MPD1    H3 3362   2.924   0.666  15.519 -0.3633 -1.0520 -0.4320
  221MPD1     N 3363   2.573   0.877  15.677 -1.0604 -0.4213  0.4421
  221MPD1    H5 3364   2.647   0.942  15.701 -1.7311  0.7660 -0.6560
  221MPD1    N1 3365   2.548   0.412  15.510 -0.0171 -0.3966  0.2372
  221MPD1    H6 3366   2.454   0.423  15.474  0.9137  1.5562 -1.5404
  221MPD1    H7 3367   2.607   0.360  15.445 -0.3481 -0.3874 -0.0702
  222MPD1     C 3368   1.641   0.819  16.779 -0.0527 -0.2535 -0.6158
  222MPD1    C1 3369   1.616   0.835  16.909  0.5976  0.5093 -0.0148
  222MPD1    C2 3370   1.722   0.821  17.002 -0.3266 -0.5626  0.6925
  222MPD1    C3 3371   1.849   0.782  16.957  0.4354 -0.0995 -0.8999
  222MPD1    C4 3372   1.860   0.746  16.827 -0.1764 -0.0666  0.0302
  222MPD1    C5 3373   1.758   0.776  16.737  0.2745 -0.4663 -0.2887
  222MPD1     H 3374   1.704   0.856  17.103  1.0113  2.4477 -0.1027
  222MPD1    H1 3375   1.952   0.708  16.786  0.3932  2.7164 -1.2783
  222MPD1    H2 3376   1.564   0.814  16.703 -0.3392  0.5077 -0.3709
  222MPD1    H3 3377   1.784   0.744  16.637  1.4189 -1.5554  0.3614
  222MPD1     N 3378   1.962   0.774  17.046 -0.2822 -0.3626  0.1030
  222MPD1    H5 3379   2.030   0.703  17.024 -0.6840  0.5020 -3.8819
  222MPD1    N1 3380   1.490   0.888  16.949  0.1920 -0.2863 -0.7896
  222MPD1    H6 3381   1.412   0.848  16.897  0.7168 -1.9358 -0.3035
  222MPD1    H7 3382   1.466   0.875  17.047 -2.5694  3.6220 -0.9506
  223MPD1     C 3383   2.629   0.255  16.907  0.4702  0.8761  0.4476
  223MPD1    C1 3384   2.501   0.279  16.861 -0.4668 -0.6833 -0.1664
  223MPD1    C2 3385   2.424   0.374  16.929 -0.5996 -0.0381  0.1827
  223MPD1    C3 3386   2.474   0.437  17.046 -0.6974  0.0336  0.0600
  223MPD1    C4 3387   2.599   0.402  17.090 -0.0587 -0.0311 -0.0596
  223MPD1    C5 3388   2.675   0.317  17.020  0.6864 -1.0480 -0.0829
  223MPD1     H 3389   2.325   0.404  16.897  0.0631  0.5840 -1.2691
  223MPD1    H1 3390   2.642   0.443  17.181  0.1577 -0.5638  0.0830
  223MPD1    H2 3391   2.699   0.181  16.869  0.2912  0.7592  0.3464
  223MPD1    H3 3392   2.770   0.285  17.062  0.7934  1.8394  1.9173
  223MPD1     N 3393   2.385   0.533  17.104 -0.8035 -0.0666 -0.1598
  223MPD1    H5 3394   2.298   0.554  17.056 -1.6785 -2.6810  0.2853
  223MPD1    N1 3395   2.446   0.228  16.738  0.5076 -0.5319  0.5019
  223MPD1    H6 3396   2.485   0.134  16.731  2.3154  0.2289  0.5264
  223MPD1    H7 3397   2.349   0.195  16.745  0.9917 -1.9781  0.4615
  224MPD1     C 3398   3.016   1.813   9.541 -1.1469 -0.2499 -0.2991
  224MPD1    C1 3399   3.048   1.686   9.502 -0.3215  0.0156 -1.1607
  224MPD1    C2 3400   3.011   1.577   9.574 -0.9377 -0.5737  0.7879
  224MPD1    C3 3401   2.920   1.597   9.676  0.1323 -0.6006 -0.0869
  224MPD1    C4 3402   2.867   1.725   9.696 -0.3073 -0.6384  0.0927
  224MPD1    C5 3403   2.925   1.833   9.637  0.0842  0.0411 -0.5577
  224MPD1     H 3404   3.043   1.481   9.536  1.2716  1.4317 -2.4442
  224MPD1    H1 3405   2.801   1.731   9.782 -0.5030 -1.0634 -0.0225
  224MPD1    H2 3406   3.052   1.901   9.489  2.5738 -1.6326 -0.0310
  224MPD1    H3 3407   2.890   1.930   9.668  0.9307  0.2656 -0.2879
  224MPD1     N 3408   2.881   1.496   9.764  0.1970 -0.5377 -0.0349
  224MPD1    H5 3409   2.810   1.511   9.836  1.3862 -1.0659  1.2459
  224MPD1    N1 3410   3.146   1.666   9.403 -0.3031  0.2964  0.1420
  224MPD1    H6 3411   3.152   1.739   9.333  0.5828 -0.5672 -0.6737
  224MPD1    H7 3412   3.134   1.574   9.359  1.4100 -0.4364  1.2107
  225MPD1     C 3413   3.727   2.963  12.867 -0.7724  0.1180  0.1465
  225MPD1    C1 3414   3.837   2.919  12.804  0.4186  0.6303  0.4583
  225MPD1    C2 3415   3.831   2.852  12.682  0.0693 -0.5329 -0.6562
  225MPD1    C3 3416   3.711   2.844  12.613 -0.2358  0.1658  0.5526
  225MPD1    C4 3417   3.606   2.886  12.682 -0.0201  0.3170  0.1319
  225MPD1    C5 3418   3.609   2.942  12.804 -0.6426  0.0751 -1.2814
  225MPD1     H 3419   3.920   2.799  12.650 -0.0044  0.3930 -2.4476
  225MPD1    H1 3420   3.510   2.857  12.640  0.1892  1.1087 -0.8836
  225MPD1    H2 3421   3.730   3.009  12.965  1.3121  0.5853 -0.1371
  225MPD1    H3 3422   3.512   2.970  12.843 -0.4321 -0.1755 -0.5744
  225MPD1     N 3423   3.695   2.793  12.483  0.2914 -0.0436 -0.4144
  225MPD1    H5 3424   3.606   2.819  12.441 -0.1916  1.6578  1.6541
  225MPD1    N1 3425   3.949   2.911  12.886 -0.2357 -0.4144  0.3416
  225MPD1    H6 3426   4.033   2.916  12.829 -0.9163 -1.0490 -0.7175
  225MPD1    H7 3427   3.963   2.985  12.955 -0.1818  0.3992 -0.5568
  226MPD1     C 3428   1.287   2.851   9.754 -0.2908 -0.2947 -0.1721
  226MPD1    C1 3429   1.308   2.729   9.812  0.6371  0.8914 -0.1415
  226MPD1    C2 3430   1.436   2.672   9.819 -0.4715  0.2893 -0.7483
  226MPD1    C3 3431   1.542   2.731   9.760 -0.1367 -0.1485  0.1741
  226MPD1    C4 3432   1.521   2.854   9.696  0.2875  0.2402  0.1644
  226MPD1    C5 3433   1.395   2.907   9.689 -0.5531  0.4206  0.0727
  226MPD1     H 3434   1.452   2.578   9.870 -1.2140  0.7103  0.2754
  226MPD1    H1 3435   1.600   2.901   9.639  0.6342  0.3190  0.7167
  226MPD1    H2 3436   1.185   2.886   9.744 -1.3268 -3.4003 -0.7210
  226MPD1    H3 3437   1.375   2.994   9.627 -0.4091  0.5539  0.2130
  226MPD1     N 3438   1.667   2.670   9.769  0.2393 -0.3442 -0.5508
  226MPD1    H5 3439   1.660   2.573   9.798  0.7173 -0.2643 -0.1727
  226MPD1    N1 3440   1.204   2.668   9.886  0.3298 -0.1280 -0.2150
  226MPD1    H6 3441   1.217   2.569   9.903  0.5031 -0.1683 -0.5860
  226MPD1    H7 3442   1.117   2.664   9.834 -1.0593  1.0338  2.0013
  227MPD1     C 3443   1.768   1.850   9.547 -1.6442  0.1469  0.2869
  227MPD1    C1 3444   1.671   1.947   9.558 -0.0586 -0.9547 -0.7357
  227MPD1    C2 3445   1.710   2.066   9.624 -0.7726  0.0848  0.2478
  227MPD1    C3 3446   1.846   2.093   9.654  0.1929  0.2773 -0.3818
  227MPD1    C4 3447   1.941   1.992   9.638 -0.0739  0.2824  0.1339
  227MPD1    C5 3448   1.897   1.871   9.588 -0.1105  0.8906 -0.7160
  227MPD1     H 3449   1.640   2.147   9.640 -0.7566  0.0838  0.3270
  227MPD1    H1 3450   2.047   2.010   9.652 -0.4062  0.6806  2.2306
  227MPD1    H2 3451   1.733   1.759   9.500 -1.5490 -0.9405  2.3246
  227MPD1    H3 3452   1.978   1.800   9.572 -0.3338  0.3681  0.4562
  227MPD1     N 3453   1.875   2.225   9.703 -0.4169  0.3052 -0.1053
  227MPD1    H5 3454   1.800   2.293   9.708  0.3122  0.9669  2.0211
  227MPD1    N1 3455   1.540   1.917   9.518 -0.0978  0.1004 -0.0208
  227MPD1    H6 3456   1.543   1.852   9.440  3.9148 -0.3598  0.4757
  227MPD1    H7 3457   1.486   2.001   9.495  1.2769  0.4640 -1.9314
  228MPD1     C 3458   1.013   0.538  12.335  0.8863 -0.1145  0.0228
  228MPD1    C1 3459   0.898   0.585  12.271  0.4511 -0.0554  0.0961
  228MPD1    C2 3460   0.774   0.565  12.328 -0.7203  0.2463  0.2314
  228MPD1    C3 3461   0.773   0.483  12.440 -0.7691  1.0112 -1.0685
  228MPD1    C4 3462   0.884   0.438  12.504  0.0564  0.8331 -0.0573
  228MPD1    C5 3463   1.003   0.459  12.447  0.0468  0.0056 -0.8985
  228MPD1     H 3464   0.684   0.610  12.287 -0.0422  1.9540  0.6432
  228MPD1    H1 3465   0.886   0.374  12.592  0.5150 -0.6608 -1.1500
  228MPD1    H2 3466   1.113   0.543  12.293  0.7337  1.0343 -0.2025
  228MPD1    H3 3467   1.080   0.413  12.508 -1.4323  0.1826  1.1126
  228MPD1     N 3468   0.641   0.463  12.490 -0.6622  0.0374 -0.3681
  228MPD1    H5 3469   0.566   0.510  12.439 -0.1423 -1.0477 -2.1516
  228MPD1    N1 3470   0.910   0.680  12.175  0.0256  0.0560  0.4524
  228MPD1    H6 3471   0.833   0.673  12.109  0.2606 -1.0138  0.2791
  228MPD1    H7 3472   1.000   0.675  12.127 -0.4656  0.7105 -0.5525
  229MPD1     C 3473   0.019   3.978  14.524  0.3378  0.2282 -0.2113
  229MPD1    C1 3474   0.013   3.840  14.524 -0.6228  0.3968  0.2929
  229MPD1    C2 3475   0.094   3.767  14.608 -0.2169  0.2573  0.2520
  229MPD1    C3 3476   0.179   3.834  14.695  0.0188  0.0190  0.4036
  229MPD1    C4 3477   0.185   3.971  14.691 -0.5254 -0.8416  0.4530
  229MPD1    C5 3478   0.107   4.040  14.603 -0.1842  0.0790  0.0079
  229MPD1     H 3479   0.089   3.658  14.608  1.5397  0.1932 -0.7490
  229MPD1    H1 3480   0.254   4.023  14.756 -1.0687 -1.3306  1.4226
  229MPD1    H2 3481   4.679   4.030  14.454  1.2966  2.1761  0.3820
  229MPD1    H3 3482   0.123   4.147  14.595  0.8409 -0.0702 -0.0290
  229MPD1     N 3483   0.281   3.772  14.775  0.4231 -0.3668 -0.3070
  229MPD1    H5 3484   0.334   3.836  14.833  0.9268  0.9197 -2.1883
  229MPD1    N1 3485   4.657   3.787  14.422  0.5294 -0.4548  0.4149
  229MPD1    H6 3486   4.596   3.862  14.391 -2.2079 -2.4644  0.9702
  229MPD1    H7 3487   4.598   3.713  14.460  0.9858 -0.7429  0.5547
  230MPD1     C 3488   0.657   3.811  15.643 -0.4873 -1.0983  0.2201
  230MPD1    C1 3489   0.678   3.677  15.618  0.5365 -0.3903 -0.1015
  230MPD1    C2 3490   0.682   3.636  15.486 -0.6242  0.6865  0.0631
  230MPD1    C3 3491   0.651   3.710  15.383  0.0182  0.3194  0.3353
  230MPD1    C4 3492   0.621   3.842  15.406  0.4339  0.0565 -0.3429
  230MPD1    C5 3493   0.620   3.886  15.534 -1.1423  0.2776  0.3524
  230MPD1     H 3494   0.729   3.541  15.463 -3.1633 -0.3561 -0.8192
  230MPD1    H1 3495   0.584   3.913  15.333 -0.3203 -1.5532 -1.5222
  230MPD1    H2 3496   0.663   3.860  15.740  1.0110 -1.2886  0.2325
  230MPD1    H3 3497   0.581   3.984  15.560  0.8825  1.3492 -0.6979
  230MPD1     N 3498   0.654   3.659  15.250 -0.0238 -0.4999 -0.0987
  230MPD1    H5 3499   0.696   3.567  15.243 -0.6826 -0.8550  0.6881
  230MPD1    N1 3500   0.734   3.596  15.718 -0.0296  0.3143 -0.1873
  230MPD1    H6 3501   0.682   3.614  15.804 -0.1177  1.9571 -0.5837
  230MPD1    H7 3502   0.724   3.497  15.698  0.4266  0.2330 -0.0112
  231MPD1     C 3503   3.158   0.493  15.477  0.0093  0.1825 -0.1107
  231MPD1    C1 3504   3.129   0.513  15.342 -0.3604 -1.2012 -0.6654
  231MPD1    C2 3505   3.181   0.625  15.285 -0.2630  0.5848 -0.5729
  231MPD1    C3 3506   3.244   0.721  15.356 -0.5638 -0.8653  0.0101
  231MPD1    C4 3507   3.258   0.706  15.495  0.1275  0.3644  0.0006
  231MPD1    C5 3508   3.234   0.585  15.549  0.4633  0.0432  0.5153
  231MPD1     H 3509   3.181   0.640  15.177 -1.1837  1.4757 -0.4521
  231MPD1    H1 3510   3.285   0.791  15.556 -2.6362  0.5883  0.9150
  231MPD1    H2 3511   3.135   0.398  15.523 -0.1842 -0.3736 -1.3906
  231MPD1    H3 3512   3.246   0.563  15.655  0.7146 -1.5733  0.1551
  231MPD1     N 3513   3.294   0.837  15.288 -0.3272 -0.2042  0.2661
  231MPD1    H5 3514   3.282   0.840  15.187 -2.3931  0.8452  0.5356
  231MPD1    N1 3515   3.077   0.412  15.263 -0.0989  0.1467 -1.0748
  231MPD1    H6 3516   3.022   0.455  15.189 -1.5145  1.5834  0.8196
  231MPD1    H7 3517   3.009   0.353  15.310  1.7943 -1.7593 -0.7362
  232MPD1     C 3518   1.351   4.238   0.516  0.4740 -0.0923 -0.9071
  232MPD1    C1 3519   1.223   4.295   0.496 -0.6050 -0.0757  0.1279
  232MPD1    C2 3520   1.115   4.210   0.489 -0.1721 -0.1724 -0.2435
  232MPD1    C3 3521   1.128   4.070   0.497 -0.3114 -0.0925  0.1421
  232MPD1    C4 3522   1.257   4.021   0.511  0.1908  0.2609 -0.3935
  232MPD1    C5 3523   1.362   4.105   0.519 -0.1961 -0.2053  0.1426
  232MPD1     H 3524   1.017   4.256   0.487  0.1362  0.4927  0.1438
  232MPD1    H1 3525   1.289   3.918   0.503  0.9323  0.5124 -0.7283
  232MPD1    H2 3526   1.438   4.299   0.538  1.1559 -1.7124  0.8667
  232MPD1    H3 3527   1.463   4.071   0.540 -0.2196  0.5786  1.5226
  232MPD1     N 3528   1.014   3.991   0.481  0.4214 -0.0105  0.0081
  232MPD1    H5 3529   0.930   4.045   0.460  0.2280  0.0032  0.8427
  232MPD1    N1 3530   1.212   4.436   0.514 -0.7201 -0.1762  0.1561
  232MPD1    H6 3531   1.128   4.474   0.471 -0.5879 -2.5103 -2.1678
  232MPD1    H7 3532   1.294   4.485   0.478 -0.4844  1.1274  2.4509
  233MPD1     C 3533   1.845   2.148   1.873  0.3462  0.1555 -0.1910
  233MPD1    C1 3534   1.759   2.043   1.881  0.0558  0.3859  0.1812
  233MPD1    C2 3535   1.803   1.918   1.838  0.3062  0.7592 -0.5315
  233MPD1    C3 3536   1.921   1.910   1.762  0.3253  0.0809  0.2153
  233MPD1    C4 3537   1.996   2.020   1.736 -0.4116  0.1028  0.3238
  233MPD1    C5 3538   1.956   2.140   1.792  0.0065 -0.5888 -1.1811
  233MPD1     H 3539   1.748   1.830   1.869 -1.1924  2.0923  0.5927
  233MPD1    H1 3540   2.079   2.022   1.666  0.2898  0.9286  1.1827
  233MPD1    H2 3541   1.828   2.247   1.913  1.2771 -0.1108  0.8579
  233MPD1    H3 3542   2.013   2.225   1.754 -1.4743 -0.2205 -2.5576
  233MPD1     N 3543   1.977   1.789   1.713 -0.1547 -0.4738  0.3691
  233MPD1    H5 3544   2.060   1.798   1.655 -0.5898  0.6099 -0.0761
  233MPD1    N1 3545   1.659   2.051   1.976  0.3048  0.4305  0.4198
  233MPD1    H6 3546   1.575   1.999   1.950 -0.6488  2.5639 -0.7369
  233MPD1    H7 3547   1.630   2.146   1.998 -0.3181 -0.1288  2.0490
  234MPD1     C 3548   3.424   4.371   9.388 -0.3061 -0.2908  0.2765
  234MPD1    C1 3549   3.465   4.475   9.464  0.5914 -0.2717 -0.2031
  234MPD1    C2 3550   3.389   4.589   9.468  0.2313 -0.5074 -0.0220
  234MPD1    C3 3551   3.269   4.600   9.403  0.2915  0.0047 -0.9469
  234MPD1    C4 3552   3.236   4.504   9.312  0.5424  0.0441  0.5280
  234MPD1    C5 3553   3.312   4.390   9.306 -0.2960  1.1337  0.1930
  234MPD1     H 3554   3.438   4.665   9.527  0.9765 -1.8193  1.0752
  234MPD1    H1 3555   3.153   4.511   9.242  0.8448  0.1907  0.1840
  234MPD1    H2 3556   3.479   4.278   9.380 -0.6811 -0.8758  4.7950
  234MPD1    H3 3557   3.269   4.317   9.239  0.9055  0.1399  0.5136
  234MPD1     N 3558   3.190   4.718   9.426  0.0781 -0.0822 -0.5497
  234MPD1    H5 3559   3.238   0.069   9.475  0.0106  0.3381 -1.1277
  234MPD1    N1 3560   3.584   4.466   9.539  0.3953 -0.4953 -0.4481
  234MPD1    H6 3561   3.598   4.372   9.576  1.4665 -0.4644 -0.7731
  234MPD1    H7 3562   3.589   4.536   9.613 -1.0027 -0.4680 -0.3757
  235MPD1     C 3563   4.206   3.023  10.930 -0.3195 -0.8096  0.1171
  235MPD1    C1 3564   4.152   2.951  10.822 -0.0704  0.1419 -0.2509
  235MPD1    C2 3565   4.229   2.945  10.705  0.0369  0.0122  0.2345
  235MPD1    C3 3566   4.351   3.001  10.700 -0.2562 -0.0350  0.0387
  235MPD1    C4 3567   4.406   3.053  10.808  0.2270  0.2431  0.3564
  235MPD1    C5 3568   4.331   3.069  10.923  0.0019  0.2495  0.3832
  235MPD1     H 3569   4.179   2.888  10.627  1.2805 -1.4189  0.4845
  235MPD1    H1 3570   4.508   3.088  10.800 -0.6519  2.1196 -2.3157
  235MPD1    H2 3571   4.158   3.033  11.027 -2.5095 -0.0646 -1.0522
  235MPD1    H3 3572   4.373   3.129  11.003  0.0564 -1.3640  1.5607
  235MPD1     N 3573   4.421   2.986  10.578 -0.0866  0.5614  0.8581
  235MPD1    H5 3574   4.378   2.937  10.500  1.0223  2.1226 -0.7290
  235MPD1    N1 3575   4.035   2.881  10.845 -0.6483 -0.5528  0.2701
  235MPD1    H6 3576   3.961   2.929  10.896 -2.5133 -1.1423 -1.8608
  235MPD1    H7 3577   3.990   2.847  10.760 -1.0135 -0.8315  0.5733
  236MPD1     C 3578   4.598   4.073   9.887  0.0197  0.3397  0.3102
  236MPD1    C1 3579   4.467   4.044   9.864 -0.2514  0.0053 -0.2311
  236MPD1    C2 3580   4.399   3.962   9.955  0.7144  0.3965 -0.2006
  236MPD1    C3 3581   4.473   3.903  10.046  0.0513  0.2332 -0.7923
  236MPD1    C4 3582   4.607   3.939  10.071 -0.2142  0.5493  0.0363
  236MPD1    C5 3583   4.669   4.020   9.988 -0.0944  0.0858 -0.5669
  236MPD1     H 3584   4.292   3.942   9.952  0.6397  0.8561 -0.8253
  236MPD1    H1 3585   4.664   3.897  10.153  0.1999 -0.4971 -0.7948
  236MPD1    H2 3586   4.645   4.135   9.811 -0.9016 -1.6172 -1.8463
  236MPD1    H3 3587   0.053   4.031   9.992 -0.0069 -0.4598 -1.3968
  236MPD1     N 3588   4.427   3.813  10.143  0.3834 -0.0892 -0.1023
  236MPD1    H5 3589   4.500   3.786  10.209 -0.3202  1.0327  1.1359
  236MPD1    N1 3590   4.397   4.127   9.780  0.1953  0.1436  0.6456
  236MPD1    H6 3591   4.442   4.149   9.692  0.3199 -3.1981 -0.1449
  236MPD1    H7 3592   4.303   4.090   9.770  1.5355 -2.6380 -1.8337
  237MPD1     C 3593   4.032   2.498  15.636  0.0959  0.7640  0.1486
  237MPD1    C1 3594   3.991   2.472  15.511  0.0959 -0.4376  0.1450
  237MPD1    C2 3595   3.919   2.354  15.480  0.4215 -0.5662  0.0875
  237MPD1    C3 3596   3.900   2.261  15.574  0.0504 -0.6708  0.0235
  237MPD1    C4 3597   3.955   2.280  15.699  0.7330  0.1351 -1.0205
  237MPD1    C5 3598   4.019   2.393  15.726 -0.6117  0.5396  0.1691
  237MPD1     H 3599   3.892   2.341  15.376 -0.3253 -0.7591  0.3052
  237MPD1    H1 3600   3.936   2.203  15.773  0.6018  0.9113 -0.2553
  237MPD1    H2 3601   4.070   2.595  15.666  2.3837 -0.0389 -0.1506
  237MPD1    H3 3602   4.054   2.406  15.828  0.3724  0.0276 -0.1066
  237MPD1     N 3603   3.843   2.136  15.549  0.1007  0.2351  0.4593
  237MPD1    H5 3604   3.854   2.058  15.612 -1.1183  0.1359  0.5589
  237MPD1    N1 3605   3.992   2.577  15.429 -0.4210 -0.6865 -0.1928
  237MPD1    H6 3606   3.954   2.554  15.337 -1.1528  2.0341 -0.5881
  237MPD1    H7 3607   4.075   2.636  15.429 -0.3104 -0.8505 -1.0204
  238MPD1     C 3608   0.563   1.653  15.087  0.0380 -0.1213  0.6595
  238MPD1    C1 3609   0.422   1.653  15.087 -0.2505 -0.1665  0.2143
  238MPD1    C2 3610   0.357   1.554  15.012 -0.2384 -1.0568 -0.2267
  238MPD1    C3 3611   0.425   1.477  14.920 -0.1541 -0.2872 -0.3362
  238MPD1    C4 3612   0.558   1.492  14.902  0.6295  0.0022  0.9234
  238MPD1    C5 3613   0.622   1.577  14.989  0.0317 -0.3783  0.3521
  238MPD1     H 3614   0.250   1.545  15.024 -0.4129 -0.0476 -1.0225
  238MPD1    H1 3615   0.616   1.434  14.831 -0.0618 -0.1315  0.4702
  238MPD1    H2 3616   0.624   1.708  15.158  2.0899  0.8876 -1.9006
  238MPD1    H3 3617   0.730   1.589  14.986  0.1025 -0.3684  3.5957
  238MPD1     N 3618   0.357   1.382  14.844  0.0853  0.4327  0.2308
  238MPD1    H5 3619   0.398   1.344  14.759  1.9717  2.5751  0.1857
  238MPD1    N1 3620   0.352   1.725  15.193  0.2925  0.6838  0.4376
  238MPD1    H6 3621   0.400   1.813  15.209  0.1875  0.9203 -0.4951
  238MPD1    H7 3622   0.259   1.740  15.154  0.2121 -1.2064 -0.0921
  239MPD1     C 3623   0.872   1.974  14.775 -0.3960 -0.4982  0.5934
  239MPD1    C1 3624   0.962   2.054  14.712  0.5630  0.2223  0.8190
  239MPD1    C2 3625   0.944   2.059  14.579  0.3824 -0.2178  0.3176
  239MPD1    C3 3626   0.835   2.017  14.511  0.1086 -0.2990  0.2252
  239MPD1    C4 3627   0.735   1.953  14.578 -0.0162 -0.4901 -0.2804
  239MPD1    C5 3628   0.764   1.923  14.708  0.6225  0.5725  0.1525
  239MPD1     H 3629   1.023   2.089  14.511 -1.1207 -0.2313 -1.4223
  239MPD1    H1 3630   0.652   1.906  14.527 -1.5726 -0.3319  2.0820
  239MPD1    H2 3631   0.873   1.950  14.880 -1.9968  1.8684  1.1556
  239MPD1    H3 3632   0.697   1.862  14.766  2.0661 -3.1851 -2.1546
  239MPD1     N 3633   0.819   2.030  14.375 -0.2253  0.1142 -0.1342
  239MPD1    H5 3634   0.724   2.016  14.343  0.4132 -2.6053 -0.7969
  239MPD1    N1 3635   1.077   2.088  14.781 -0.5790 -0.0558 -0.1538
  239MPD1    H6 3636   1.115   2.176  14.746 -0.0325  0.0279  0.6666
  239MPD1    H7 3637   1.070   2.090  14.882  0.3485  1.8977 -0.1289
  240MPD1     C 3638   4.611   1.966  13.684 -0.6364 -0.5827 -0.4449
  240MPD1    C1 3639   4.580   1.833  13.665 -0.2068 -0.0406  0.4231
  240MPD1    C2 3640   4.598   1.759  13.780  0.1996  0.1471  0.1779
  240MPD1    C3 3641   4.636   1.809  13.899 -0.5079 -0.1090 -0.6392
  240MPD1    C4 3642   4.663   1.941  13.916 -0.4432  0.9888 -0.2900
  240MPD1    C5 3643   4.649   2.019  13.807  0.1133  0.2361  0.3559
  240MPD1     H 3644   4.575   1.653  13.779  1.6105 -0.1587  0.1207
  240MPD1    H1 3645   4.674   1.992  14.012  0.2488  0.0479  0.1259
  240MPD1    H2 3646   4.575   2.045  13.618 -4.3268 -0.8039  1.2875
  240MPD1    H3 3647   4.642   2.126  13.820 -1.4766 -0.0845  2.1577
  240MPD1     N 3648   4.631   1.720  14.016 -0.4796 -0.4803 -0.3735
  240MPD1    H5 3649   4.588   1.629  14.014 -1.0963 -0.1561 -1.9760
  240MPD1    N1 3650   4.553   1.782  13.537 -0.4179  0.3822 -0.1613
  240MPD1    H6 3651   4.490   1.702  13.542 -0.0807 -0.0192 -2.5072
  240MPD1    H7 3652   4.507   1.855  13.483  0.0387  0.1610 -0.8363
  241MPD1     C 3653   0.156   1.917  14.947 -0.0141  0.2776  0.4685
  241MPD1    C1 3654   0.085   1.795  14.968 -0.2746  0.0994  0.1221
  241MPD1    C2 3655   0.088   1.706  14.857  0.2412 -0.0620 -0.1149
  241MPD1    C3 3656   0.141   1.745  14.735 -0.1968  0.4992  0.2628
  241MPD1    C4 3657   0.195   1.870  14.719 -0.2117  0.3167  0.7703
  241MPD1    C5 3658   0.202   1.964  14.824 -0.3561 -0.2938  0.1580
  241MPD1     H 3659   0.053   1.604  14.864 -0.9344  0.5468  2.7304
  241MPD1    H1 3660   0.214   1.900  14.617  2.2538 -0.1456  1.0923
  241MPD1    H2 3661   0.172   1.985  15.030 -0.6835  2.3620 -1.1194
  241MPD1    H3 3662   0.250   2.060  14.812  0.4412 -0.8495 -1.0887
  241MPD1     N 3663   0.121   1.675  14.617 -0.2748 -0.2602 -0.6096
  241MPD1    H5 3664   0.181   1.706  14.541  0.8765  1.7705  1.1279
  241MPD1    N1 3665   0.055   1.751  15.100 -0.6466  0.0852 -0.2146
  241MPD1    H6 3666   4.706   1.680  15.098  0.1881 -0.8651  3.5892
  241MPD1    H7 3667   0.010   1.822  15.158 -1.3002 -0.4418 -0.0752
  242MPD1     C 3668   4.522   0.044  15.488 -0.7294  0.3731  0.1787
  242MPD1    C1 3669   4.465   4.656  15.449  0.0295 -0.2328  0.0234
  242MPD1    C2 3670   4.470   4.613  15.317  0.5605  0.1228  0.1523
  242MPD1    C3 3671   4.546   4.684  15.229  0.4123  0.4453 -0.6625
  242MPD1    C4 3672   4.615   0.067  15.272  0.7668 -0.7175 -0.7485
  242MPD1    C5 3673   4.607   0.107  15.398 -0.4994 -0.3951 -0.4961
  242MPD1     H 3674   4.449   4.509  15.293 -2.1124  1.3220 -2.7553
  242MPD1    H1 3675   4.685   0.119  15.208  0.2751  1.1989  0.2708
  242MPD1    H2 3676   4.500   0.077  15.589 -1.1604 -4.6002  1.6752
  242MPD1    H3 3677   4.670   0.192  15.425  0.2874 -0.7822 -1.1297
  242MPD1     N 3678   4.579   4.630  15.098  0.0919 -1.0052 -0.1494
  242MPD1    H5 3679   4.663   4.670  15.057 -1.0330  2.2478  0.7107
  242MPD1    N1 3680   4.403   4.582  15.548  0.1482  0.2156  0.3683
  242MPD1    H6 3681   4.379   4.643  15.626 -1.5651  0.6886 -0.5232
  242MPD1    H7 3682   4.313   4.557  15.506  2.1351 -0.9285 -3.2315
  243MPD1     C 3683   2.545   3.749  17.227 -0.1425  0.3115  0.6200
  243MPD1    C1 3684   2.461   3.826  17.148  0.7147 -0.3305  0.3906
  243MPD1    C2 3685   2.357   3.759  17.088 -0.5626  0.0248 -0.8571
  243MPD1    C3 3686   2.325   3.628  17.118  0.8209 -0.2729 -0.0450
  243MPD1    C4 3687   2.412   3.557  17.201  0.2699  0.1368  0.3941
  243MPD1    C5 3688   2.530   3.621  17.251 -0.2813 -0.1877 -0.0127
  243MPD1     H 3689   2.296   3.814  17.017  2.7853  1.1466 -2.8627
  243MPD1    H1 3690   2.400   3.450  17.215 -2.5796  0.1298 -2.1639
  243MPD1    H2 3691   2.634   3.797  17.265  0.5550 -0.1069 -0.4830
  243MPD1    H3 3692   2.600   3.560  17.308 -0.5013 -0.3606  0.0746
  243MPD1     N 3693   2.230   3.571  17.035  0.2424 -0.2659  0.3787
  243MPD1    H5 3694   2.178   3.636  16.977 -1.7803 -1.2369  1.0810
  243MPD1    N1 3695   2.498   3.951  17.103 -0.5020 -0.5956 -0.4402
  243MPD1    H6 3696   2.423   3.995  17.051 -0.4564 -0.9881 -0.8355
  243MPD1    H7 3697   2.543   4.006  17.176  1.3893 -0.4274 -1.7268
  244MPD1     C 3698   1.524   3.014  17.413  0.1591  0.6554  0.5014
  244MPD1    C1 3699   1.553   3.139  17.438 -0.5599 -0.2961  0.1260
  244MPD1    C2 3700   1.628   3.200  17.343  0.5417 -0.4427 -0.7331
  244MPD1    C3 3701   1.675   3.145  17.222  0.0005  0.6370  0.5792
  244MPD1    C4 3702   1.637   3.017  17.198  0.4156  0.1927  0.1372
  244MPD1    C5 3703   1.565   2.955  17.293 -0.3528 -0.3033 -0.0420
  244MPD1     H 3704   1.675   3.294  17.369 -1.3914 -0.4445  2.7489
  244MPD1    H1 3705   1.661   2.947  17.119  2.5479 -0.1487  1.0871
  244MPD1    H2 3706   1.460   2.966  17.486 -0.2103  0.1252 -0.1710
  244MPD1    H3 3707   1.544   2.849  17.282  2.4758 -0.5781 -2.7652
  244MPD1     N 3708   1.762   3.218  17.144 -0.0643 -0.6377 -0.0555
  244MPD1    H5 3709   1.801   3.303  17.182  0.0828 -0.7128 -0.0405
  244MPD1    N1 3710   1.489   3.203  17.552 -0.4732  0.1423  0.1047
  244MPD1    H6 3711   1.542   3.285  17.580  0.8253 -0.0713 -1.7184
  244MPD1    H7 3712   1.511   3.139  17.627 -1.1290 -0.0199  0.1571
  245MPD1     C 3713   4.314   4.151  12.291  0.8625 -0.2639 -0.2019
  245MPD1    C1 3714   4.304   4.287  12.319 -0.8549  0.1180  0.5332
  245MPD1    C2 3715   4.275   4.326  12.445  0.3117 -0.0280 -0.2354
  245MPD1    C3 3716   4.256   4.235  12.546 -0.4079 -0.5933  0.0950
  245MPD1    C4 3717   4.269   4.101  12.512 -0.3376 -0.4741 -0.5379
  245MPD1    C5 3718   4.292   4.059  12.384  0.6502 -1.0396 -0.4857
  245MPD1     H 3719   4.268   4.432  12.468 -0.6185 -0.3716  1.0416
  245MPD1    H1 3720   4.248   4.025  12.586  0.2099  1.0198  1.1539
  245MPD1    H2 3721   4.325   4.116  12.189  0.7820 -2.0241  0.4032
  245MPD1    H3 3722   4.307   3.954  12.360 -3.3104 -1.8316  0.5486
  245MPD1     N 3723   4.231   4.281  12.677  0.4338  0.1613  0.6859
  245MPD1    H5 3724   4.238   4.381  12.694  0.2354  0.3488 -0.3323
  245MPD1    N1 3725   4.296   4.378  12.216 -0.3180 -0.3037  0.6107
  245MPD1    H6 3726   4.323   4.471  12.246  1.4320 -0.6835  0.2111
  245MPD1    H7 3727   4.357   4.350  12.139 -3.3778 -0.4949 -1.7598
  246MPD1     C 3728   3.727   1.321   9.892 -0.1971  0.9246 -0.1722
  246MPD1    C1 3729   3.618   1.360   9.822  0.7717  0.3921  0.3070
  246MPD1    C2 3730   3.590   1.307   9.702 -0.3038  0.1482  0.5209
  246MPD1    C3 3731   3.660   1.196   9.656 -0.4658 -0.2316  0.2779
  246MPD1    C4 3732   3.764   1.152   9.733  0.7445 -0.4508  0.1574
  246MPD1    C5 3733   3.800   1.215   9.845 -0.2376  0.0614 -0.1676
  246MPD1     H 3734   3.505   1.344   9.646 -0.3459 -1.3527 -0.4019
  246MPD1    H1 3735   3.835   1.082   9.690 -1.2962 -1.7241 -1.1325
  246MPD1    H2 3736   3.762   1.363   9.985  1.4040 -0.6230 -0.0808
  246MPD1    H3 3737   3.882   1.169   9.898  1.0133  1.1153 -1.1888
  246MPD1     N 3738   3.625   1.137   9.534 -0.3947  1.2851  0.2405
  246MPD1    H5 3739   3.534   1.162   9.495 -0.2719  1.0666 -0.1867
  246MPD1    N1 3740   3.552   1.476   9.864  0.1004 -0.3150  0.0951
  246MPD1    H6 3741   3.456   1.479   9.831  0.5540 -0.7101 -1.2298
  246MPD1    H7 3742   3.553   1.485   9.966 -1.5389 -3.2894  0.3518
  247MPD1     C 3743   2.947   4.436  15.883  0.0200 -0.5471  0.0721
  247MPD1    C1 3744   2.997   4.403  16.015  0.3252 -0.4596  0.2137
  247MPD1    C2 3745   3.022   4.267  16.047 -0.2998 -0.2724 -0.2223
  247MPD1    C3 3746   2.972   4.169  15.960  0.1658 -0.3417 -0.8309
  247MPD1    C4 3747   2.899   4.208  15.846 -0.1533  0.3326  0.7236
  247MPD1    C5 3748   2.892   4.336  15.809 -0.2902 -0.5397 -0.2196
  247MPD1     H 3749   3.075   4.251  16.140  1.2721  0.5268 -0.9753
  247MPD1    H1 3750   2.851   4.128  15.790  1.3436 -2.0767  2.9049
  247MPD1    H2 3751   2.936   4.540  15.856  0.6514 -0.3299  0.6711
  247MPD1    H3 3752   2.838   4.371  15.721  0.0176  2.7393  0.8744
  247MPD1     N 3753   2.970   4.029  15.988 -0.8102  0.4506 -0.2236
  247MPD1    H5 3754   2.957   3.975  15.902  1.4319 -0.1699 -0.1797
  247MPD1    N1 3755   3.062   4.495  16.094 -0.0947 -0.5309  0.0320
  247MPD1    H6 3756   3.016   4.585  16.094 -1.0545 -1.0151  1.4358
  247MPD1    H7 3757   3.074   4.468  16.192  0.0041 -1.8662 -0.3456
  248MPD1     C 3758   3.785   4.010  17.347  0.0246  0.5932  0.4617
  248MPD1    C1 3759   3.669   4.047  17.409 -0.2544 -0.1108  0.4438
  248MPD1    C2 3760   3.632   3.992  17.530 -0.1629  0.1495  0.2563
  248MPD1    C3 3761   3.706   3.893  17.583 -0.4225  0.1472 -0.3642
  248MPD1    C4 3762   3.824   3.855  17.523 -0.4923 -0.1900  0.4628
  248MPD1    C5 3763   3.857   3.914  17.402 -0.3151  0.7613  0.0777
  248MPD1     H 3764   3.533   4.007  17.572 -0.8228 -1.9323 -0.5715
  248MPD1    H1 3765   3.896   3.789  17.570 -0.3156 -0.6977 -0.5233
  248MPD1    H2 3766   3.818   4.055  17.254 -3.7675 -1.4002 -1.8795
  248MPD1    H3 3767   3.953   3.883  17.363 -0.1886  2.1938 -0.7457
  248MPD1     N 3768   3.678   3.830   0.015  0.1691  0.2476  0.3092
  248MPD1    H5 3769   3.603   3.878   0.064 -0.0216  0.8166 -0.5236
  248MPD1    N1 3770   3.587   4.149  17.346 -0.1320  0.1052  0.5126
  248MPD1    H6 3771   3.583   4.138  17.244 -1.5580  2.1098  0.3458
  248MPD1    H7 3772   3.496   4.159  17.390 -0.6897 -3.0198  0.0804
  249MPD1     C 3773   0.416   2.072  10.553 -0.1090  0.6621 -0.5774
  249MPD1    C1 3774   0.413   2.215  10.534  0.7002  0.3164  0.2237
  249MPD1    C2 3775   0.356   2.257  10.412  0.0757 -0.4607 -0.1303
  249MPD1    C3 3776   0.290   2.172  10.325  0.2490 -1.3401 -0.3687
  249MPD1    C4 3777   0.298   2.040  10.345 -0.6341  0.4856 -0.1714
  249MPD1    C5 3778   0.364   1.992  10.452 -0.2251 -0.2186 -0.5993
  249MPD1     H 3779   0.355   2.364  10.398 -0.4321 -0.5957 -1.1384
  249MPD1    H1 3780   0.257   1.967  10.278  1.3003 -0.7915  0.0228
  249MPD1    H2 3781   0.460   2.029  10.643 -1.8832 -0.0938 -0.0677
  249MPD1    H3 3782   0.379   1.885  10.463 -0.4574 -0.1670  0.2448
  249MPD1     N 3783   0.214   2.240  10.227  0.2377  0.0982  0.1189
  249MPD1    H5 3784   0.227   2.340  10.231  2.2297 -0.2515  1.9274
  249MPD1    N1 3785   0.503   2.302  10.600  0.7073  0.1860  0.4915
  249MPD1    H6 3786   0.466   2.397  10.592  1.4135  0.3717 -0.5602
  249MPD1    H7 3787   0.533   2.279  10.695 -1.1833 -0.1170  1.0127
  250MPD2     C 3788   1.335   2.900  13.086  0.4563  0.4487 -0.1103
  250MPD2    C1 3789   1.341   2.898  12.948 -0.1187  0.2206 -0.7193
  250MPD2    C2 3790   1.322   2.777  12.882 -0.2293 -0.6317  0.4475
  250MPD2    C3 3791   1.293   2.658  12.954  0.2509 -0.3794 -0.1135
  250MPD2    C4 3792   1.279   2.670  13.094  0.0443  0.0201  0.4179
  250MPD2    C5 3793   1.305   2.790  13.154  0.5587 -0.0139 -0.6474
  250MPD2     H 3794   1.310   2.779  12.774 -1.6465 -0.5869  0.6013
  250MPD2    H1 3795   1.258   2.577  13.145  1.0003  1.0057  2.5876
  250MPD2    H2 3796   1.342   2.997  13.135  0.1736  1.7068 -2.5524
  250MPD2    H3 3797   1.303   2.792  13.262  2.1312  0.2489 -0.6292
  250MPD2     N 3798   1.264   2.532  12.893 -0.6823  0.5602  0.1255
  250MPD2    H5 3799   1.220   2.465  12.955  1.9008 -1.4708 -0.2465
  250MPD2    N1 3800   1.365   3.022  12.884  0.0122 -0.2168  0.3888
  250MPD2    H7 3801   1.373   3.100  12.948  1.7867  0.9282 -1.2438
  251TMC3    C1 3802   1.411   3.173  12.711  0.2916 -0.2145 -0.4439
  251TMC3    C2 3803   1.375   3.270  12.799  0.7360 -0.7266  0.0404
  251TMC3    C3 3804   1.447   3.388  12.791  0.1846 -0.8473  0.7786
  251TMC3    C4 3805   1.502   3.191  12.612  0.7569  0.4776  0.5266
  251TMC3    C5 3806   1.569   3.303  12.607  0.3702  0.1035 -0.2813
  251TMC3    C6 3807   1.550   3.402  12.705 -0.1016  0.0380  0.5573
  251TMC3     C 3808   1.383   3.035  12.747 -0.6720  0.4897  0.0211
  251TMC3     O 3809   1.402   2.959  12.653  0.1843 -0.2088  0.1617
  251TMC3     H 3810   1.303   3.254  12.879  1.7544 -3.5279  0.3828
  251TMC3    H1 3811   1.539   3.112  12.547  1.6950  3.3164 -2.4153
  251TMC3    H2 3812   1.625   3.478  12.721 -1.3936  1.5565 -0.5872
  251TMC3    C7 3813   1.706   3.283  12.562 -0.5007 -0.3474 -0.2629
  251TMC3    C8 3814   1.416   3.489  12.894  0.1384 -0.3724 -0.1326
  251TMC3    O1 3815   1.746   3.168  12.563 -0.4402  0.4362  0.0544
  251TMC3    O2 3816   1.368   3.451  13.002 -0.4264  0.1770  0.0547
  252TMC3    C1 3817   2.174   3.000   9.464  0.0450  0.0959  0.0023
  252TMC3    C2 3818   2.285   2.983   9.546  0.0091 -0.7988 -0.3051
  252TMC3    C3 3819   2.314   2.854   9.590 -0.4948  0.0087 -0.0439
  252TMC3    C4 3820   2.084   2.904   9.438 -0.0201 -0.4562 -0.1795
  252TMC3    C5 3821   2.116   2.777   9.479  0.5508 -0.3884 -0.0704
  252TMC3    C6 3822   2.237   2.746   9.541  0.0481 -0.5081  0.8082
  252TMC3     C 3823   2.130   3.136   9.432 -0.4212 -0.8199 -0.4841
  252TMC3     O 3824   2.011   3.154   9.410 -0.3646  0.2753 -0.9920
  252TMC3     H 3825   2.342   3.070   9.576  1.2484 -1.6276 -0.2491
  252TMC3    H1 3826   2.010   2.922   9.361 -0.9982  0.5933  0.9983
  252TMC3    H2 3827   2.272   2.644   9.551 -1.1604 -0.7198  3.0616
  252TMC3    C7 3828   2.031   2.663   9.451 -0.2696  0.0742 -0.3351
  252TMC3    C8 3829   2.454   2.819   9.617  0.7315 -0.7676  0.0798
  252TMC3    O1 3830   2.066   2.548   9.468  0.1957  0.3611 -0.4779
  252TMC3    O2 3831   2.507   2.723   9.563 -0.1684 -0.3049 -0.7039
  253MPD2     C 3832   2.892   1.714  15.154 -0.1293 -0.4989  0.1811
  253MPD2    C1 3833   2.776   1.783  15.174 -0.2899 -0.1331 -0.0076
  253MPD2    C2 3834   2.790   1.898  15.244 -0.1026  0.4294  0.8678
  253MPD2    C3 3835   2.915   1.959  15.282 -0.5677 -0.3535 -0.3409
  253MPD2    C4 3836   3.023   1.885  15.262 -1.1212  0.6194  0.5531
  253MPD2    C5 3837   3.013   1.762  15.203  0.5663  0.3353  0.3468
  253MPD2     H 3838   2.705   1.959  15.274  0.2069  0.4941  1.6092
  253MPD2    H1 3839   3.120   1.929  15.284 -0.2580 -1.8744  1.7273
  253MPD2    H2 3840   2.897   1.622  15.098 -2.2665 -1.8285  2.2114
  253MPD2    H3 3841   3.101   1.698  15.200 -0.5219 -1.0484 -2.0928
  253MPD2     N 3842   2.932   2.095  15.323 -0.5503 -0.3275 -0.5382
  253MPD2    H5 3843   3.030   2.121  15.335 -0.5203  1.2577 -3.9786
  253MPD2    N1 3844   2.649   1.754  15.131  0.2626 -0.0107 -0.5457
  253MPD2    H7 3845   2.585   1.831  15.141  1.1498  0.6145  0.2618
  254TMC3    C1 3846   2.872   2.327  15.354 -0.6093  0.1918 -0.5998
  254TMC3    C2 3847   2.800   2.419  15.295 -0.1386  0.5797 -0.0831
  254TMC3    C3 3848   2.816   2.545  15.332 -0.4121  0.7734 -1.3683
  254TMC3    C4 3849   2.973   2.351  15.443  0.7427 -0.7524  0.1455
  254TMC3    C5 3850   2.988   2.482  15.484  0.4579  0.3205  0.1374
  254TMC3    C6 3851   2.906   2.576  15.435  0.6674  0.0198  0.2081
  254TMC3     C 3852   2.835   2.190  15.309 -0.4790 -0.6691 -0.8392
  254TMC3     O 3853   2.713   2.177  15.290  0.1434  0.4304 -0.4355
  254TMC3     H 3854   2.722   2.395  15.223  2.2754  0.9531 -2.8376
  254TMC3    H1 3855   3.030   2.270  15.488 -0.2511 -0.5710  1.7327
  254TMC3    H2 3856   2.920   2.674  15.480  4.0940 -0.3461 -0.0772
  254TMC3    C7 3857   2.996   2.502  15.628 -0.5631 -0.0370 -0.4272
  254TMC3    C8 3858   2.699   2.625  15.326  0.2806 -0.2430 -0.1509
  254TMC3    O1 3859   2.905   2.570  15.679 -0.9371  0.1308  0.4101
  254TMC3    O2 3860   2.625   2.616  15.229 -0.3167  0.0622 -0.9332
  255MPD2     C 3861   1.335   0.081  10.595 -0.0643  0.0724  0.1584
  255MPD2    C1 3862   1.425   0.079  10.497 -0.7249  0.5903 -0.0486
  255MPD2    C2 3863   1.487   4.684  10.463 -0.3144  0.4238  0.0975
  255MPD2    C3 3864   1.459   4.572  10.539  0.5701 -0.4756  0.0148
  255MPD2    C4 3865   1.372   4.576  10.646  0.3352  0.9561  0.0449
  255MPD2    C5 3866   1.319   4.697  10.679  0.1093 -0.2799  0.4999
  255MPD2     H 3867   1.573   4.686  10.397 -0.6274  2.7835 -0.2412
  255MPD2    H1 3868   1.348   4.490  10.707  3.7511  0.4327  0.6465
  255MPD2    H2 3869   1.271   0.167  10.611 -0.9720 -0.7044  0.6909
  255MPD2    H3 3870   1.258   4.713  10.766 -0.4750  0.5236 -0.0502
  255MPD2     N 3871   1.542   4.458  10.512  0.0368  0.1737  0.0626
  255MPD2    H5 3872   1.610   4.473  10.438  0.2068 -2.3709 -0.2999
  255MPD2    N1 3873   1.430   0.186  10.409  0.3930  0.3696  0.7241
  255MPD2    H7 3874   1.355   0.254  10.403  2.5011  2.8432  2.4141
  256TMC3    C1 3875   1.498   0.298  10.216  0.0570  0.0998 -1.0288
  256TMC3    C2 3876   1.588   0.389  10.153  0.0488  0.9723  0.0665
  256TMC3    C3 3877   1.545   0.451  10.031  0.8806 -0.4985 -0.2603
  256TMC3    C4 3878   1.384   0.256  10.146 -0.1724  0.3233  0.1941
  256TMC3    C5 3879   1.353   0.312  10.023  0.3681 -0.1554 -0.5128
  256TMC3    C6 3880   1.431   0.406   9.965  0.1549 -0.2211  0.9881
  256TMC3     C 3881   1.540   0.221  10.327 -0.1745  0.2418  0.1342
  256TMC3     O 3882   1.657   0.191  10.339  0.6295 -0.0340  0.6310
  256TMC3     H 3883   1.680   0.427  10.195  0.1663  0.9737 -0.1911
  256TMC3    H1 3884   1.319   0.177  10.181  0.5626 -0.2248  0.3306
  256TMC3    H2 3885   1.415   0.425   9.860  0.0406 -1.1493  0.8392
  256TMC3    C7 3886   1.256   0.236   9.947  0.1285 -0.0625 -0.1201
  256TMC3    C8 3887   1.609   0.574   9.986  0.4842 -0.2004 -0.0332
  256TMC3    O1 3888   1.250   0.111   9.953  0.1127 -0.3132 -0.0583
  256TMC3    O2 3889   1.721   0.597  10.041  0.3516 -0.5641  0.0466
  257MPD2     C 3890   0.584   2.858  12.899 -0.3847  0.0326 -0.6074
  257MPD2    C1 3891   0.575   2.745  12.819  0.2006  0.2824 -0.0671
  257MPD2    C2 3892   0.581   2.615  12.872 -0.5587  0.3560  0.2271
  257MPD2    C3 3893   0.594   2.597  13.012 -0.5881 -0.6471 -0.1713
  257MPD2    C4 3894   0.592   2.706  13.088  0.3749 -0.0979  0.6280
  257MPD2    C5 3895   0.589   2.833  13.034  0.1285  0.1798  0.3240
  257MPD2     H 3896   0.577   2.526  12.812  0.3393  1.2184 -1.1075
  257MPD2    H1 3897   0.595   2.697  13.196 -0.7250 -1.0371  0.5800
  257MPD2    H2 3898   0.582   2.957  12.855 -0.8040  0.0532 -0.5406
  257MPD2    H3 3899   0.600   2.915  13.105  1.2489  1.2131 -1.0503
  257MPD2     N 3900   0.594   2.462  13.059  0.5074 -0.2305  0.7105
  257MPD2    H5 3901   0.576   2.393  12.987 -1.1512  0.4669  0.4545
  257MPD2    N1 3902   0.576   2.762  12.680 -0.2173 -1.2604  0.2710
  257MPD2    H7 3903   0.582   2.858  12.647  0.0396 -0.4349  2.7768
  258TMC3    C1 3904   0.624   2.268  13.198 -0.9475 -0.2776 -0.4251
  258TMC3    C2 3905   0.679   2.198  13.091  0.0867  0.5292 -0.2610
  258TMC3    C3 3906   0.746   2.083  13.109 -0.2668 -0.6609 -0.2798
  258TMC3    C4 3907   0.626   2.211  13.323  0.5126 -0.0091 -0.1922
  258TMC3    C5 3908   0.689   2.088  13.337  0.9814 -0.1737 -0.3337
  258TMC3    C6 3909   0.759   2.025  13.232  0.2129  0.1698 -0.3810
  258TMC3     C 3910   0.616   2.414  13.184  0.3342 -0.5313  0.5980
  258TMC3     O 3911   0.656   2.477  13.278  0.1724 -0.0652  0.4463
  258TMC3     H 3912   0.676   2.235  12.989 -0.7891  0.3143 -0.3166
  258TMC3    H1 3913   0.586   2.264  13.410  1.2105  3.1599 -1.8296
  258TMC3    H2 3914   0.828   1.945  13.255  0.2439 -0.0310 -1.1799
  258TMC3    C7 3915   0.678   2.015  13.462 -0.1184  0.8383  0.2668
  258TMC3    C8 3916   0.831   2.027  13.009 -0.0694  0.8674  0.0611
  258TMC3    O1 3917   0.580   2.056  13.519 -0.0073  0.2119  0.7527
  258TMC3    O2 3918   0.871   2.100  12.919  0.3008 -0.1068  0.1864
  259MPD2     C 3919   4.258   4.185   0.701  0.3479  0.2269  0.2767
  259MPD2    C1 3920   4.344   4.074   0.694 -0.3942  0.0719  0.3498
  259MPD2    C2 3921   4.382   4.026   0.568 -0.0243 -0.7730  1.0257
  259MPD2    C3 3922   4.348   4.094   0.453 -0.9678  0.7193 -0.2181
  259MPD2    C4 3923   4.271   4.208   0.460 -0.5257 -0.8778 -0.3344
  259MPD2    C5 3924   4.228   4.253   0.583  0.6815 -0.1603  0.3692
  259MPD2     H 3925   4.444   3.939   0.554  0.1714 -0.8968  2.6053
  259MPD2    H1 3926   4.236   4.258   0.370  2.4725 -1.5424 -1.8513
  259MPD2    H2 3927   4.224   4.221   0.798 -0.8384 -0.2543  0.0366
  259MPD2    H3 3928   4.179   4.349   0.587  2.6924  0.8915  0.1291
  259MPD2     N 3929   4.392   4.042   0.328 -0.5043  0.0732  0.1685
  259MPD2    H5 3930   4.441   3.953   0.332  1.6435  1.2531 -0.3973
  259MPD2    N1 3931   4.383   4.013   0.815  0.4931  0.8229 -0.1114
  259MPD2    H7 3932   4.369   4.063   0.902  0.6244 -1.3228  1.1286
  260TMC3    C1 3933   4.465   4.028   0.111  0.4003 -0.6541  0.1337
  260TMC3    C2 3934   4.564   4.114   0.074  0.6781  0.5979 -0.0977
  260TMC3    C3 3935   4.673   4.058   0.016 -0.3243 -0.2893 -0.0206
  260TMC3    C4 3936   4.464   3.893   0.085  0.0819  0.5862  0.1749
  260TMC3    C5 3937   4.578   3.835   0.038 -0.1323 -0.0973 -0.3801
  260TMC3    C6 3938   4.684   3.916   0.001  0.3720  0.3471 -0.0972
  260TMC3     C 3939   4.374   4.100   0.203 -0.4645  0.5362  0.1247
  260TMC3     O 3940   4.328   4.205   0.163  0.1632  0.1093 -0.0062
  260TMC3     H 3941   4.546   4.219   0.094  1.7076  0.6432  0.5887
  260TMC3    H1 3942   4.376   3.831   0.099 -0.7663  1.7132 -0.1640
  260TMC3    H2 3943   0.049   3.861  17.671 -0.7715 -2.0973  1.0008
  260TMC3    C7 3944   4.575   3.702  17.693  0.5299 -0.3751 -0.2135
  260TMC3    C8 3945   0.067   4.144   0.018  0.6558  0.3191 -0.2447
  260TMC3    O1 3946   4.640   3.675  17.589  0.0058  0.1119  0.0248
  260TMC3    O2 3947   0.045   4.262   0.015 -0.3106 -0.1133 -0.2266
  261MPD2     C 3948   1.047   2.135  12.142 -0.0665 -0.5936 -0.6116
  261MPD2    C1 3949   1.117   2.243  12.189 -1.0873  0.0406  0.7171
  261MPD2    C2 3950   1.194   2.322  12.099  0.1530 -0.4209 -0.0839
  261MPD2    C3 3951   1.184   2.306  11.960  0.1387 -0.4290  0.2917
  261MPD2    C4 3952   1.095   2.208  11.918 -0.2364  0.4472 -0.3407
  261MPD2    C5 3953   1.029   2.128  12.004  0.2291  0.6996 -0.9421
  261MPD2     H 3954   1.266   2.393  12.138 -1.4711 -0.6136  3.2664
  261MPD2    H1 3955   1.064   2.199  11.814  1.5742  0.8326 -0.9300
  261MPD2    H2 3956   1.011   2.052  12.202 -0.9500  0.4993  0.3918
  261MPD2    H3 3957   0.976   2.046  11.955  0.5807 -0.1846  0.1558
  261MPD2     N 3958   1.259   2.392  11.874  0.2279  0.5016 -0.6308
  261MPD2    H5 3959   1.298   2.473  11.921 -0.4213  1.2623 -1.4051
  261MPD2    N1 3960   1.144   2.262  12.332  0.3943  0.8246 -0.0154
  261MPD2    H7 3961   1.198   2.343  12.362  1.2054 -1.2061  3.9506
  262TMC3    C1 3962   1.337   2.485  11.661 -0.0137  0.6112 -0.1705
  262TMC3    C2 3963   1.322   2.615  11.686  0.0003  0.7551 -0.2137
  262TMC3    C3 3964   1.342   2.701  11.585  0.1330 -0.0969 -0.2327
  262TMC3    C4 3965   1.365   2.435  11.538 -0.0411 -0.1708 -0.2863
  262TMC3    C5 3966   1.388   2.520  11.435  0.3370 -0.9966 -0.2054
  262TMC3    C6 3967   1.362   2.659  11.457  0.0729 -0.7366 -0.6414
  262TMC3     C 3968   1.269   2.382  11.738 -0.0220  0.2751  0.3625
  262TMC3     O 3969   1.244   2.284  11.668  0.0656 -0.3397 -0.3332
  262TMC3     H 3970   1.292   2.648  11.785 -0.9074 -2.3255  0.5218
  262TMC3    H1 3971   1.398   2.332  11.524 -1.9786 -0.5756 -1.7917
  262TMC3    H2 3972   1.375   2.733  11.379 -0.5126 -0.4350 -0.4514
  262TMC3    C7 3973   1.387   2.462  11.303 -0.9496 -0.7772  0.3866
  262TMC3    C8 3974   1.361   2.840  11.615  0.9308  0.3021 -0.1413
  262TMC3    O1 3975   1.353   2.348  11.297  0.0982  0.5107  0.4962
  262TMC3    O2 3976   1.446   2.890  11.540  0.3683  0.0331 -0.0058
  263MPD2     C 3977   2.218   1.535  11.457  0.0178 -0.3413  0.1806
  263MPD2    C1 3978   2.327   1.479  11.387 -1.1734  0.0392  0.1502
  263MPD2    C2 3979   2.338   1.484  11.248  0.8669  0.7020 -0.3587
  263MPD2    C3 3980   2.233   1.551  11.180  0.4271  0.7162  0.1017
  263MPD2    C4 3981   2.123   1.586  11.254 -0.4455 -0.1882  0.2840
  263MPD2    C5 3982   2.116   1.587  11.391 -0.0975 -0.2345  0.7635
  263MPD2     H 3983   2.427   1.440  11.204  1.3182  0.8346  0.4172
  263MPD2    H1 3984   2.041   1.637  11.204  1.7647  1.6880 -1.3942
  263MPD2    H2 3985   2.205   1.532  11.565 -0.8725  5.5908  0.2263
  263MPD2    H3 3986   2.023   1.629  11.428  0.4900  0.2706  1.6650
  263MPD2     N 3987   2.227   1.588  11.043  0.0190 -0.4160 -0.5208
  263MPD2    H5 3988   2.137   1.624  11.015  1.1690  1.2938 -2.0612
  263MPD2    N1 3989   2.422   1.410  11.469  0.9150 -0.8403 -0.2408
  263MPD2    H7 3990   2.411   1.418  11.570  2.2050 -1.6081 -0.0403
  264TMC3    C1 3991   2.328   1.675  10.838 -0.1327  0.2485  0.6708
  264TMC3    C2 3992   2.247   1.786  10.838  0.0317 -0.3013  0.8735
  264TMC3    C3 3993   2.277   1.879  10.746 -0.1855 -0.2012  0.2933
  264TMC3    C4 3994   2.429   1.650  10.748 -0.3858 -0.0473  0.2235
  264TMC3    C5 3995   2.450   1.737  10.648  0.4952 -0.1443  0.1405
  264TMC3    C6 3996   2.367   1.849  10.645  0.1688  0.1577 -0.2078
  264TMC3     C 3997   2.342   1.602  10.965  0.5151 -0.1483  0.3523
  264TMC3     O 3998   2.454   1.583  10.999  0.4370  0.1666  0.1348
  264TMC3     H 3999   2.201   1.817  10.932 -0.7119  2.0284 -0.2770
  264TMC3    H1 4000   2.507   1.576  10.763  0.5577  0.9088  0.0363
  264TMC3    H2 4001   2.379   1.935  10.579  3.5759  0.7343  1.1786
  264TMC3    C7 4002   2.588   1.762  10.620 -0.1589  0.4649 -0.1008
  264TMC3    C8 4003   2.307   2.018  10.800  0.3378 -0.4383 -0.2042
  264TMC3    O1 4004   2.655   1.663  10.588  0.3979 -0.2768 -0.2397
  264TMC3    O2 4005   2.414   2.069  10.771  0.4331  0.3758  0.2144
  265MPD2     C 4006   4.389   2.032  15.335 -0.4717  0.3837 -0.5905
  265MPD2    C1 4007   4.441   2.159  15.288  0.4563 -0.5389  0.2611
  265MPD2    C2 4008   4.490   2.165  15.159 -0.0787  0.4806  0.6810
  265MPD2    C3 4009   4.515   2.041  15.089  0.1942  0.8456  0.6694
  265MPD2    C4 4010   4.477   1.920  15.144  0.4931  0.2689 -0.1971
  265MPD2    C5 4011   4.414   1.922  15.265 -0.4243  0.1893  0.2194
  265MPD2     H 4012   4.512   2.258  15.107 -0.4320 -0.8200 -1.7654
  265MPD2    H1 4013   4.493   1.824  15.096  1.8965  0.8301 -0.8375
  265MPD2    H2 4014   4.330   2.016  15.424 -0.5080  1.0245 -0.4967
  265MPD2    H3 4015   4.377   1.830  15.311  0.0280  0.2584  0.7258
  265MPD2     N 4016   4.558   2.032  14.954  0.0482  0.6398 -0.2834
  265MPD2    H5 4017   4.541   1.945  14.906  0.2998 -0.3636  1.4550
  265MPD2    N1 4018   4.430   2.276  15.375  0.6021  0.2768  0.2932
  265MPD2    H7 4019   4.463   2.364  15.338  2.7357 -0.5363  0.2307
  266TMC3    C1 4020   4.377   2.409  15.568 -0.5596  0.1381  0.1465
  266TMC3    C2 4021   4.405   2.411  15.705  0.0854 -0.1631 -0.0678
  266TMC3    C3 4022   4.417   2.535  15.763 -0.4284  0.1040 -0.6957
  266TMC3    C4 4023   4.348   2.516  15.498 -0.2264  0.5395  1.0014
  266TMC3    C5 4024   4.354   2.635  15.564 -0.6838  0.1348  0.5370
  266TMC3    C6 4025   4.388   2.651  15.694 -0.4083  0.7603  0.3691
  266TMC3     C 4026   4.371   2.275  15.502  0.0266  0.7293 -0.4804
  266TMC3     O 4027   4.357   2.180  15.584  0.5380 -0.0358  0.0663
  266TMC3     H 4028   4.435   2.317  15.750 -0.0270 -0.1139  0.1083
  266TMC3    H1 4029   4.331   2.502  15.392  0.8355 -1.9385  1.1466
  266TMC3    H2 4030   4.407   2.751  15.731 -1.2486  1.1645 -0.2625
  266TMC3    C7 4031   4.280   2.740  15.496  0.1227  0.2249  0.3123
  266TMC3    C8 4032   4.514   2.536  15.868  0.2768 -0.0628  0.3220
  266TMC3    O1 4033   4.241   2.712  15.383 -0.1110 -0.4699  0.0113
  266TMC3    O2 4034   4.575   2.433  15.886  0.4184  0.2210 -0.1293
  267MPD2     C 4035   1.999   3.706   0.025 -0.2294  0.3612 -0.4249
  267MPD2    C1 4036   2.056   3.832   0.029  0.2585 -0.1434  0.3188
  267MPD2    C2 4037   2.003   3.933  17.650  0.0866  0.4029  0.0551
  267MPD2    C3 4038   1.896   3.912  17.564  0.2351 -0.2089 -0.0678
  267MPD2    C4 4039   1.835   3.790  17.562  0.3973  0.0511 -0.2893
  267MPD2    C5 4040   1.889   3.689  17.641 -0.0387 -0.3435  0.0270
  267MPD2     H 4041   2.056   4.028  17.645  0.2963  0.4225  2.5907
  267MPD2    H1 4042   1.748   3.761  17.504  0.4366 -1.2816  0.3072
  267MPD2    H2 4043   2.027   3.619   0.082  1.7871  1.2459 -0.0775
  267MPD2    H3 4044   1.833   3.597  17.649 -1.0112  0.2346 -0.1579
  267MPD2     N 4045   1.849   4.007  17.468 -0.5482  0.4201 -0.1912
  267MPD2    H5 4046   1.786   3.970  17.397  1.8865 -1.1976 -1.5439
  267MPD2    N1 4047   2.174   3.844   0.104  0.4092  0.1300 -0.8992
  267MPD2    H7 4048   2.210   3.754   0.135 -0.9749  0.1892  0.8955
  268TMC3    C1 4049   2.371   3.954   0.188 -0.2006 -0.0495  0.2605
  268TMC3    C2 4050   2.446   4.064   0.168  0.0881 -0.6023  0.1790
  268TMC3    C3 4051   2.584   4.055   0.172  0.6353 -0.0708 -0.0651
  268TMC3    C4 4052   2.432   3.832   0.215 -0.2441  0.0510 -0.3267
  268TMC3    C5 4053   2.568   3.823   0.210 -0.0943 -0.7986 -0.2339
  268TMC3    C6 4054   2.650   3.932   0.203  0.2749 -0.0139  0.1825
  268TMC3     C 4055   2.240   3.964   0.129  0.0751  0.0633 -0.1355
  268TMC3     O 4056   2.219   4.080   0.091  0.3389  0.1247 -0.2834
  268TMC3     H 4057   2.393   4.158   0.158  1.8540  0.6295  2.3847
  268TMC3    H1 4058   2.373   3.743   0.234 -0.3486  0.3989  1.0122
  268TMC3    H2 4059   2.758   3.923   0.199  0.0670 -2.2731 -0.2050
  268TMC3    C7 4060   2.621   3.694   0.257 -0.4631  0.0357 -0.3543
  268TMC3    C8 4061   2.653   4.148   0.076 -0.1600  0.5458  0.0572
  268TMC3    O1 4062   2.543   3.632   0.327  0.4510 -0.1299  0.2496
  268TMC3    O2 4063   2.767   4.170   0.106  0.0386  0.0431  0.4663
  269MPD2     C 4064   2.021   2.517  15.379 -0.5454 -0.2940  0.2672
  269MPD2    C1 4065   1.930   2.570  15.467  0.0520  0.5885  0.5526
  269MPD2    C2 4066   1.907   2.712  15.471 -0.4135  0.0994  0.4059
  269MPD2    C3 4067   1.974   2.798  15.382  0.0106  0.1270  0.3419
  269MPD2    C4 4068   2.073   2.741  15.298  0.4951 -0.2813  0.1118
  269MPD2    C5 4069   2.086   2.606  15.302 -0.0657  0.0316  0.9741
  269MPD2     H 4070   1.837   2.754  15.542  0.2733  1.0710  0.5064
  269MPD2    H1 4071   2.132   2.797  15.226 -1.2613 -0.1051 -1.2099
  269MPD2    H2 4072   2.034   2.412  15.356  1.9511  0.3384 -1.1965
  269MPD2    H3 4073   2.163   2.569  15.235 -0.1965  4.1219 -1.3849
  269MPD2     N 4074   1.952   2.936  15.395  0.0699  0.0113  0.4535
  269MPD2    H5 4075   1.886   2.970  15.464 -0.3321 -0.5947  0.3756
  269MPD2    N1 4076   1.851   2.480  15.536 -0.4634 -0.1263 -0.2795
  269MPD2    H7 4077   1.878   2.382  15.526 -0.6196 -0.6516  4.2755
  270TMC3    C1 4078   1.695   2.372  15.667  0.4450  0.8253 -0.0075
  270TMC3    C2 4079   1.581   2.344  15.595  0.2847  0.5221  0.1142
  270TMC3    C3 4080   1.544   2.216  15.578  0.0811  0.4129 -0.1664
  270TMC3    C4 4081   1.775   2.269  15.709 -0.6539 -0.9968 -0.1234
  270TMC3    C5 4082   1.737   2.138  15.686 -0.1361 -0.0890 -0.1816
  270TMC3    C6 4083   1.615   2.110  15.624 -0.5875 -0.1153  0.2430
  270TMC3     C 4084   1.752   2.499  15.629  0.6893  0.1766  0.0367
  270TMC3     O 4085   1.704   2.605  15.664  0.0064 -0.0572  0.0516
  270TMC3     H 4086   1.536   2.432  15.552 -2.0605 -1.0866 -0.7295
  270TMC3    H1 4087   1.869   2.285  15.759  0.0744  0.7187 -2.0116
  270TMC3    H2 4088   1.578   2.015  15.587 -1.4331  0.1399  0.4408
  270TMC3    C7 4089   1.848   2.044  15.689 -0.1363 -0.1138 -0.1750
  270TMC3    C8 4090   1.486   2.206  15.443  0.1941 -0.0545 -0.4214
  270TMC3    O1 4091   1.945   2.092  15.636  0.1363 -0.4507 -1.0655
  270TMC3    O2 4092   1.519   2.293  15.367  0.3814 -0.2396 -0.5232
  271MPD2     C 4093   1.141   2.497  13.780 -0.4509 -0.2402  0.4462
  271MPD2    C1 4094   1.077   2.487  13.904 -0.5709  0.9541 -0.5034
  271MPD2    C2 4095   0.933   2.500  13.900  0.0104 -0.5805  0.1865
  271MPD2    C3 4096   0.872   2.533  13.782 -0.3783  0.2608 -0.5143
  271MPD2    C4 4097   0.935   2.548  13.661  0.0759 -0.2785  0.5029
  271MPD2    C5 4098   1.069   2.527  13.663  0.1660 -0.4643 -0.1318
  271MPD2     H 4099   0.873   2.486  13.989  0.3400 -3.4176 -0.0570
  271MPD2    H1 4100   0.891   2.556  13.562 -0.8905  1.1142  1.0399
  271MPD2    H2 4101   1.248   2.481  13.768 -0.1042  4.3298 -2.3933
  271MPD2    H3 4102   1.119   2.518  13.567 -1.0520 -2.6085 -0.5662
  271MPD2     N 4103   0.729   2.550  13.782 -0.2101 -0.1829 -0.1984
  271MPD2    H5 4104   0.677   2.558  13.696  1.4578 -1.1211 -1.2925
  271MPD2    N1 4105   1.133   2.420  14.019  0.2610 -0.0790  0.3270
  271MPD2    H7 4106   1.069   2.407  14.096 -1.1980 -1.2780 -1.0747
  272TMC3    C1 4107   1.269   2.292  14.153 -0.2571 -0.1818  0.3655
  272TMC3    C2 4108   1.380   2.207  14.158  0.4959 -0.2490 -0.2362
  272TMC3    C3 4109   1.405   2.150  14.282  0.4399  0.7306 -0.1703
  272TMC3    C4 4110   1.196   2.323  14.259  0.7866  0.0088  0.3373
  272TMC3    C5 4111   1.225   2.261  14.377  0.6960  0.8862 -0.4902
  272TMC3    C6 4112   1.329   2.174  14.390 -0.0689  0.3861  0.0878
  272TMC3     C 4113   1.254   2.366  14.030 -0.9729 -0.0333 -0.1446
  272TMC3     O 4114   1.351   2.375  13.949  0.0491 -0.0730  0.0173
  272TMC3     H 4115   1.448   2.187  14.076  0.3155  1.0295 -0.6960
  272TMC3    H1 4116   1.105   2.383  14.256  0.0274 -1.2726 -1.9118
  272TMC3    H2 4117   1.354   2.130  14.486 -1.7071 -0.4081  0.1460
  272TMC3    C7 4118   1.166   2.319  14.492 -0.4332 -0.4284 -0.3175
  272TMC3    C8 4119   1.535   2.081  14.283  0.2436 -0.2756  0.1196
  272TMC3    O1 4120   1.045   2.324  14.505  0.7173 -0.1398 -0.4737
  272TMC3    O2 4121   1.601   2.103  14.186 -0.3689 -0.0023 -0.1281
  273MPD2     C 4122   2.938   0.291  11.987  0.0299 -0.3080 -0.1593
  273MPD2    C1 4123   3.066   0.325  11.967 -0.2049  0.1570 -0.2445
  273MPD2    C2 4124   3.117   0.328  11.837  0.3955  0.3548 -0.9685
  273MPD2    C3 4125   3.026   0.298  11.734  0.1819  0.3282 -0.2345
  273MPD2    C4 4126   2.899   0.250  11.762  0.1201 -0.0253 -0.1712
  273MPD2    C5 4127   2.852   0.251  11.889  1.0981  0.2168  0.0314
  273MPD2     H 4128   3.215   0.362  11.808  0.3423  1.2299 -0.1214
  273MPD2    H1 4129   2.835   0.231  11.677 -0.4882 -2.7686  0.9145
  273MPD2    H2 4130   2.906   0.287  12.091 -3.3757 -1.0641 -1.2306
  273MPD2    H3 4131   2.749   0.238  11.920  0.4451  0.6939 -1.9105
  273MPD2     N 4132   3.049   0.319  11.597  0.4539 -0.3697 -0.2337
  273MPD2    H5 4133   2.969   0.292  11.541  2.2902 -3.5605 -1.3043
  273MPD2    N1 4134   3.130   0.375  12.077 -0.5763  0.0846  0.1720
  273MPD2    H7 4135   3.081   0.396  12.163 -3.0370  1.7751 -1.6436
  274TMC3    C1 4136   3.167   0.397  11.400 -0.1499  0.0257  0.4536
  274TMC3    C2 4137   3.057   0.404  11.328  0.2963  0.3556 -0.7080
  274TMC3    C3 4138   3.043   0.513  11.252  0.5097  0.1532  0.0347
  274TMC3    C4 4139   3.269   0.492  11.382 -0.4689  0.3397  0.1699
  274TMC3    C5 4140   3.239   0.610  11.323  0.3807 -0.5061  0.3132
  274TMC3    C6 4141   3.131   0.614  11.242  0.1179  1.0205  0.2029
  274TMC3     C 4142   3.161   0.372  11.542  0.2093 -0.4800 -0.1112
  274TMC3     O 4143   3.249   0.436  11.601 -0.1733 -0.5829  0.9334
  274TMC3     H 4144   2.975   0.334  11.321  1.3048 -1.0984  2.0803
  274TMC3    H1 4145   3.366   0.483  11.431 -0.8923 -3.7069  0.3168
  274TMC3    H2 4146   3.086   0.709  11.215 -0.0073  0.3681 -1.8517
  274TMC3    C7 4147   3.249   0.732  11.392  0.2585  0.1583 -0.6902
  274TMC3    C8 4148   2.921   0.520  11.168  0.7162 -0.2962  0.6800
  274TMC3    O1 4149   3.231   0.837  11.330  0.6822 -0.2317  0.1842
  274TMC3    O2 4150   2.821   0.460  11.205  0.2753  0.1712  0.6566
  275MPD2     C 4151   2.862   2.896  14.268 -0.3283 -0.0753  0.6026
  275MPD2    C1 4152   2.772   2.875  14.377 -0.1301 -0.3490  0.2336
  275MPD2    C2 4153   2.641   2.908  14.364  0.0767 -0.8114 -0.8023
  275MPD2    C3 4154   2.590   2.954  14.241  0.5213  0.3538 -0.3224
  275MPD2    C4 4155   2.675   2.971  14.135  0.6374 -0.1796  0.2767
  275MPD2    C5 4156   2.810   2.939  14.144 -0.1189  0.2968 -0.3683
  275MPD2     H 4157   2.575   2.895  14.449  0.6862 -1.5854 -0.4510
  275MPD2    H1 4158   2.638   2.998  14.037  2.2952  0.7418 -0.0954
  275MPD2    H2 4159   2.968   2.876  14.278 -0.0557 -0.0585 -2.2063
  275MPD2    H3 4160   2.884   2.949  14.066  2.4773 -1.6705  1.8310
  275MPD2     N 4161   2.448   2.970  14.222  0.3762 -0.1935  0.3357
  275MPD2    H5 4162   2.421   2.987  14.125  2.0143 -0.6947 -0.2077
  275MPD2    N1 4163   2.828   2.835  14.502  0.0110  0.5774 -0.2808
  275MPD2    H7 4164   2.929   2.842  14.510  0.4159 -1.5105 -3.8199
  276TMC3    C1 4165   2.853   2.773  14.720  0.4013  0.2584 -0.1941
  276TMC3    C2 4166   2.821   2.688  14.822  0.8853 -0.5643  0.7596
  276TMC3    C3 4167   2.886   2.697  14.941  0.2408  0.0601 -0.3737
  276TMC3    C4 4168   2.928   2.882  14.745  0.3450 -0.0045  0.0185
  276TMC3    C5 4169   2.979   2.904  14.874 -0.4316  0.2140 -0.5267
  276TMC3    C6 4170   2.962   2.807  14.969 -0.6638 -0.2919  0.2706
  276TMC3     C 4171   2.762   2.781  14.607 -1.2657 -0.4665  0.2411
  276TMC3     O 4172   2.648   2.739  14.612  0.1684  0.3816  0.5414
  276TMC3     H 4173   2.740   2.618  14.802  0.7370 -0.3855  0.7323
  276TMC3    H1 4174   2.917   2.970  14.682 -2.1351  0.0096  0.4631
  276TMC3    H2 4175   3.008   2.824  15.065 -0.5996  1.2075 -0.0167
  276TMC3    C7 4176   3.058   3.026  14.897 -0.7401  0.2109 -0.2565
  276TMC3    C8 4177   2.931   2.563  14.993 -0.2041  0.3162 -0.0038
  276TMC3    O1 4178   3.054   3.064  15.011  0.6201 -0.3617  0.4989
  276TMC3    O2 4179   3.033   2.561  15.064 -0.1846 -0.4067  0.0936
  277MPD2     C 4180   4.548   2.228  12.944  0.5413 -0.0205 -0.1594
  277MPD2    C1 4181   4.413   2.256  12.938  0.4049  0.1077  0.4108
  277MPD2    C2 4182   4.338   2.212  13.045  0.5290  0.1116  0.1456
  277MPD2    C3 4183   4.386   2.140  13.149  0.5561  0.4750 -0.3202
  277MPD2    C4 4184   4.521   2.121  13.164  0.6719  0.6118 -0.7034
  277MPD2    C5 4185   4.599   2.167  13.056 -0.0968 -0.3950  0.4855
  277MPD2     H 4186   4.230   2.222  13.055 -0.0603 -5.0433 -1.2825
  277MPD2    H1 4187   4.564   2.071  13.251 -1.1187 -2.5264 -1.6352
  277MPD2    H2 4188   4.621   2.261  12.872  0.1870  1.4490  0.1499
  277MPD2    H3 4189   4.706   2.152  13.056  0.2991  2.3778 -1.4510
  277MPD2     N 4190   4.289   2.100  13.250 -0.1800  0.5128 -0.7052
  277MPD2    H5 4191   4.193   2.117  13.223 -0.2143  0.1759 -0.7918
  277MPD2    N1 4192   4.357   2.311  12.821  0.7393  0.0770 -0.1687
  277MPD2    H7 4193   4.424   2.317  12.745 -0.6722  1.6308 -1.2798
  278TMC3    C1 4194   4.187   2.011  13.437  0.6645 -0.4188  0.4568
  278TMC3    C2 4195   4.188   1.883  13.494 -0.0547 -0.9059  0.1700
  278TMC3    C3 4196   4.062   1.830  13.518 -0.4612  0.2976  0.0314
  278TMC3    C4 4197   4.081   2.093  13.420 -0.3432  0.2476  0.7519
  278TMC3    C5 4198   3.958   2.035  13.451 -0.3021  0.3715 -0.7028
  278TMC3    C6 4199   3.948   1.905  13.493 -0.3042 -0.5756 -0.0710
  278TMC3     C 4200   4.314   2.035  13.368  0.5687  0.3639 -0.4519
  278TMC3     O 4201   4.418   1.971  13.391 -0.0121 -0.5224  0.0753
  278TMC3     H 4202   4.282   1.830  13.494 -0.9006 -2.4400 -2.2517
  278TMC3    H1 4203   4.089   2.197  13.390 -0.9346  0.2909  0.7425
  278TMC3    H2 4204   3.849   1.863  13.509  0.6027 -3.1292 -1.1062
  278TMC3    C7 4205   3.842   2.126  13.446  0.6823  0.2391 -0.2559
  278TMC3    C8 4206   4.055   1.690  13.485  0.5432  0.8853  0.0316
  278TMC3    O1 4207   3.845   2.212  13.362 -0.2518 -0.1900  0.1841
  278TMC3    O2 4208   4.121   1.615  13.556 -0.2706  0.0812  0.2279
  279MPD2     C 4209   3.914   2.356   0.011 -0.8585 -0.0620  1.1408
  279MPD2    C1 4210   3.791   2.317  17.666  0.1990 -1.2856  0.1641
  279MPD2    C2 4211   3.744   2.346  17.543 -0.0579 -0.0376 -0.0859
  279MPD2    C3 4212   3.821   2.426  17.464  0.2199  0.3037  0.4435
  279MPD2    C4 4213   3.942   2.481  17.510  1.5294 -0.3736 -0.6071
  279MPD2    C5 4214   3.983   2.442  17.634  0.0591  0.5885  0.4009
  279MPD2     H 4215   3.649   2.315  17.502 -0.3525 -0.7999  1.1635
  279MPD2    H1 4216   4.011   2.549  17.462 -1.2512  2.4047 -0.7449
  279MPD2    H2 4217   3.961   2.333   0.106 -0.0677  1.9199  1.2190
  279MPD2    H3 4218   4.077   2.475  17.675  0.2856 -0.8881  1.0722
  279MPD2     N 4219   3.785   2.461  17.331  0.7343 -0.2620 -0.0333
  279MPD2    H5 4220   3.837   2.539  17.290  2.9868  0.3250  3.9911
  279MPD2    N1 4221   3.731   2.230   0.056  0.4187  0.1640 -0.5689
  279MPD2    H7 4222   3.760   2.227   0.153 -0.5798 -1.3922 -0.3336
  280TMC3    C1 4223   3.555   2.104   0.151 -0.2524  0.1411 -0.0427
  280TMC3    C2 4224   3.433   2.052   0.119  0.1737  0.4388  0.0506
  280TMC3    C3 4225   3.329   2.077   0.201 -0.5598 -0.5962  0.2944
  280TMC3    C4 4226   3.574   2.172   0.269 -0.1680 -0.2035  0.2124
  280TMC3    C5 4227   3.459   2.207   0.332  1.1114 -0.1744  0.2098
  280TMC3    C6 4228   3.335   2.151   0.313  0.0739 -0.1153  0.0619
  280TMC3     C 4229   3.619   2.158   0.038  0.4634  0.5721 -0.0632
  280TMC3     O 4230   3.569   2.119  17.629 -0.2666 -0.1760 -0.2103
  280TMC3     H 4231   3.425   1.976   0.042 -1.9884  1.9771 -1.2521
  280TMC3    H1 4232   3.670   2.217   0.291  0.0223 -1.4233  1.8006
  280TMC3    H2 4233   3.244   2.168   0.369 -0.2748 -0.0321 -0.5278
  280TMC3    C7 4234   3.466   2.337   0.387  0.0749 -0.2251 -0.5825
  280TMC3    C8 4235   3.224   1.983   0.195 -0.8574 -0.5062 -0.6671
  280TMC3    O1 4236   3.572   2.371   0.433  0.0491 -0.6192 -0.1211
  280TMC3    O2 4237   3.188   1.940   0.306  0.0088  0.4540  0.2745
  281TMC3    C1 4238   2.438   3.053  12.839 -0.4038 -0.5061  0.1351
  281TMC3    C2 4239   2.364   3.113  12.743  0.0028 -0.2434 -0.4554
  281TMC3    C3 4240   2.308   3.039  12.639 -0.3135 -0.2955 -0.1013
  281TMC3    C4 4241   2.453   2.920  12.841 -0.1541  0.2375  0.1412
  281TMC3    C5 4242   2.390   2.851  12.743 -0.5062  0.1343 -0.0473
  281TMC3    C6 4243   2.320   2.901  12.644 -0.1225  0.1202  0.2739
  281TMC3     C 4244   2.450   3.114  12.968 -0.0054 -0.7873 -0.2533
  281TMC3     O 4245   2.476   3.049  13.064  0.2362 -0.2493  0.2967
  281TMC3     H 4246   2.327   3.214  12.753  1.8384  0.2197  1.6192
  281TMC3    H1 4247   2.523   2.875  12.911  1.0945  1.4208 -0.3604
  281TMC3    H2 4248   2.290   2.845  12.557  1.7784 -1.2084  0.4669
  281TMC3    C7 4249   2.422   2.710  12.726 -0.7409  0.6026  1.0642
  281TMC3    C8 4250   2.195   3.083  12.573  0.2113 -0.5053 -0.2569
  281TMC3    O1 4251   2.431   2.663  12.613 -0.5315 -0.1556  0.0180
  281TMC3    O2 4252   2.089   3.023  12.572 -0.2481  0.1469  0.3998
  282MPD2     C 4253   4.465   4.016  14.959  0.2528  0.0416  0.2828
  282MPD2    C1 4254   4.344   4.074  14.990 -0.7736 -0.3768  0.8383
  282MPD2    C2 4255   4.242   4.096  14.896 -0.3237 -0.8151  0.0715
  282MPD2    C3 4256   4.267   4.072  14.768 -0.4777 -0.4256 -0.0104
  282MPD2    C4 4257   4.390   4.027  14.728 -0.0265 -0.4243  0.2695
  282MPD2    C5 4258   4.487   4.006  14.826  0.3535  0.3875 -0.2654
  282MPD2     H 4259   4.147   4.141  14.921 -1.2669 -0.6428 -3.8044
  282MPD2    H1 4260   4.412   4.002  14.625 -1.8907  1.2787 -0.5240
  282MPD2    H2 4261   4.545   3.995  15.030 -1.0938 -0.1680  1.7393
  282MPD2    H3 4262   4.581   3.961  14.796 -0.1370 -2.2406  2.1660
  282MPD2     N 4263   4.157   4.078  14.681  0.2931  0.3079 -0.2608
  282MPD2    H5 4264   4.068   4.116  14.713 -0.1152 -1.9666  1.3315
  282MPD2    N1 4265   4.307   4.100  15.122  0.2467 -0.0202 -0.7889
  282MPD2    H7 4266   4.236   4.170  15.141  1.9346  1.3313  0.5767
  283TMC3    C1 4267   4.284   4.083  15.346 -0.2618 -0.3607 -0.5138
  283TMC3    C2 4268   4.240   4.210  15.366 -0.2875  0.5205  0.2191
  283TMC3    C3 4269   4.147   4.236  15.461 -0.2178  0.6960  0.3687
  283TMC3    C4 4270   4.235   3.977  15.419  0.3364 -0.5372  0.7486
  283TMC3    C5 4271   4.143   4.010  15.517  0.1866 -0.1708 -0.2515
  283TMC3    C6 4272   4.097   4.143  15.540  0.6088 -0.2270 -0.3196
  283TMC3     C 4273   4.359   4.046  15.230  0.2261 -0.7019 -1.1388
  283TMC3     O 4274   4.419   3.938  15.234  0.6295  0.3580 -0.0316
  283TMC3     H 4275   4.300   4.284  15.315  0.6052 -0.5186 -0.2215
  283TMC3    H1 4276   4.257   3.875  15.390  0.2662 -0.0547 -1.0120
  283TMC3    H2 4277   4.034   4.172  15.624  1.0866  1.2546 -0.4734
  283TMC3    C7 4278   4.067   3.901  15.572 -0.9961 -0.5459 -0.3625
  283TMC3    C8 4279   4.124   4.370  15.507  0.7941  0.3041  0.7338
  283TMC3    O1 4280   3.953   3.934  15.599 -0.4314 -0.5816  0.1011
  283TMC3    O2 4281   4.114   4.396  15.628  0.4226  0.3761 -0.0944
  284MPD2     C 4282   2.149   3.179  12.000  0.0348  0.3395  0.3201
  284MPD2    C1 4283   2.171   3.176  11.862 -0.5088 -0.4934  0.3538
  284MPD2    C2 4284   2.106   3.079  11.793  0.5666 -0.9798 -0.4640
  284MPD2    C3 4285   2.045   2.976  11.853 -0.2720  0.3700  0.7541
  284MPD2    C4 4286   2.014   2.981  11.988  0.1798  0.0003 -0.5579
  284MPD2    C5 4287   2.066   3.082  12.063  0.1215  0.0393  0.0971
  284MPD2     H 4288   2.120   3.084  11.685  0.4084  2.1661 -0.3346
  284MPD2    H1 4289   1.960   2.902  12.037  2.9198 -2.3489 -1.3050
  284MPD2    H2 4290   2.193   3.255  12.064 -0.3030  0.9624 -0.1909
  284MPD2    H3 4291   2.043   3.090  12.169 -0.9040  0.2562 -0.1397
  284MPD2     N 4292   2.010   2.865  11.772 -0.0185  0.7613  0.5411
  284MPD2    H5 4293   2.029   2.888  11.675  0.4379 -0.3564  0.3688
  284MPD2    N1 4294   2.265   3.251  11.785 -0.1442  0.3904 -0.4197
  284MPD2    H7 4295   2.283   3.226  11.688 -2.0194  1.8625 -1.1196
  285TMC3    C1 4296   2.454   3.381  11.749 -0.3697  0.2509  0.8250
  285TMC3    C2 4297   2.474   3.303  11.636 -0.1791 -0.1032 -0.2912
  285TMC3    C3 4298   2.590   3.315  11.567 -1.2664  0.2888 -0.5330
  285TMC3    C4 4299   2.558   3.454  11.803  0.1263  0.0798 -0.3507
  285TMC3    C5 4300   2.672   3.459  11.729  0.1580  0.7308 -0.1233
  285TMC3    C6 4301   2.689   3.391  11.613  0.1455  0.5889 -0.3851
  285TMC3     C 4302   2.349   3.346  11.840 -0.1871 -0.1713 -0.6473
  285TMC3     O 4303   2.354   3.404  11.948 -0.3171 -0.5847 -0.0376
  285TMC3     H 4304   2.390   3.255  11.587  0.3513 -0.8250 -0.4822
  285TMC3    H1 4305   2.545   3.526  11.884  2.3335  0.9375 -0.7817
  285TMC3    H2 4306   2.792   3.389  11.581 -0.2591 -0.4492 -1.6357
  285TMC3    C7 4307   2.768   3.552  11.772 -0.7701 -0.9957 -0.2448
  285TMC3    C8 4308   2.602   3.261  11.430 -0.2958  0.0971 -0.1053
  285TMC3    O1 4309   2.736   3.668  11.801 -0.4532  0.3880  0.7765
  285TMC3    O2 4310   2.539   3.163  11.397  0.3929  0.3143 -0.1397
  286MPD2     C 4311   2.580   2.310   1.440  1.0376  0.0750 -0.3010
  286MPD2    C1 4312   2.564   2.294   1.304 -0.1110 -0.1238 -0.0823
  286MPD2    C2 4313   2.605   2.174   1.244 -0.1182 -0.7080  0.2163
  286MPD2    C3 4314   2.659   2.066   1.323 -0.7369  0.8118  0.4243
  286MPD2    C4 4315   2.674   2.088   1.456  0.3588  1.0641  0.1167
  286MPD2    C5 4316   2.637   2.204   1.513  0.1832  0.4634 -0.1552
  286MPD2     H 4317   2.601   2.157   1.137  0.5746 -0.9347  0.2192
  286MPD2    H1 4318   2.722   2.015   1.521 -0.0223  0.1228 -0.6545
  286MPD2    H2 4319   2.551   2.397   1.496 -2.0419 -1.2645  0.1463
  286MPD2    H3 4320   2.652   2.217   1.619  2.7651  0.5257 -0.5237
  286MPD2     N 4321   2.721   1.949   1.268 -0.5958 -0.6280  0.3462
  286MPD2    H5 4322   2.778   1.894   1.331  1.0097 -0.5614 -1.0433
  286MPD2    N1 4323   2.503   2.393   1.223  0.3767 -0.2080  0.0013
  286MPD2    H7 4324   2.503   2.375   1.123 -1.9206 -3.0681  0.5086
  287TMC3    C1 4325   2.816   1.800   1.113 -0.4407 -0.3355 -0.2306
  287TMC3    C2 4326   2.807   1.744   0.988  0.5745 -0.0963  0.2718
  287TMC3    C3 4327   2.913   1.667   0.951 -0.2791 -0.5773 -0.5828
  287TMC3    C4 4328   2.928   1.793   1.204 -0.2124  0.1230 -0.4791
  287TMC3    C5 4329   3.024   1.698   1.161  0.2239 -0.3458  0.9390
  287TMC3    C6 4330   3.019   1.649   1.037  0.0738  0.8073 -0.1059
  287TMC3     C 4331   2.716   1.899   1.137 -0.4924 -0.0372 -0.2288
  287TMC3     O 4332   2.660   1.945   1.042  1.2280 -0.0450 -0.1274
  287TMC3     H 4333   2.728   1.762   0.916  0.2160 -0.4099  0.5878
  287TMC3    H1 4334   2.936   1.834   1.304 -0.8295  0.8678 -0.7388
  287TMC3    H2 4335   3.095   1.580   1.004  0.2199 -0.1189  2.1694
  287TMC3    C7 4336   3.160   1.737   1.206 -0.4445  0.9430  0.5788
  287TMC3    C8 4337   2.929   1.633   0.813 -0.8809  1.1193  0.5500
  287TMC3    O1 4338   3.161   1.851   1.248 -0.0272 -0.2347  0.2423
  287TMC3    O2 4339   2.827   1.623   0.743  0.1227  0.2760  0.3626
  288TMC3    C1 4340   4.022   1.834  14.496 -0.0253  0.0491  0.3990
  288TMC3    C2 4341   4.038   1.732  14.592 -0.3687 -0.3647  0.1783
  288TMC3    C3 4342   4.095   1.770  14.713 -0.9275  0.1401 -0.1517
  288TMC3    C4 4343   4.049   1.964  14.522 -0.3372 -0.1326  0.4960
  288TMC3    C5 4344   4.120   1.993  14.639 -0.3534  1.3654  0.3481
  288TMC3    C6 4345   4.150   1.893  14.739  0.0142 -0.0707  0.3996
  288TMC3     C 4346   4.020   1.779  14.361  0.5656  0.1844  0.0642
  288TMC3     O 4347   3.969   1.670  14.337 -0.3189  0.0206  0.1099
  288TMC3     H 4348   4.040   1.626  14.566 -2.2152 -0.3389 -0.0884
  288TMC3    H1 4349   4.028   2.051  14.460  1.3913 -0.2225 -0.2116
  288TMC3    H2 4350   4.209   1.920  14.825 -0.4891 -2.2199  1.4100
  288TMC3    C7 4351   4.176   2.125  14.647 -0.0945 -0.7543 -0.2907
  288TMC3    C8 4352   4.117   1.667  14.813 -0.2459  0.2921  0.0784
  288TMC3    O1 4353   4.176   2.187  14.543 -0.3609 -0.1896 -0.4829
  288TMC3    O2 4354   4.210   1.693  14.888 -0.1370  0.5455  0.0951
  289MPD2     C 4355   4.573   1.107  13.968  0.0630  0.2380  0.4108
  289MPD2    C1 4356   4.499   1.158  14.068 -1.1708 -0.1697  0.2364
  289MPD2    C2 4357   4.379   1.109  14.108 -0.1251 -0.0308 -0.6067
  289MPD2    C3 4358   4.330   1.003  14.042  1.2175 -0.0738  0.3435
  289MPD2    C4 4359   4.406   0.939  13.941 -0.5735  0.0630  0.3815
  289MPD2    C5 4360   4.525   0.992  13.900 -0.1122 -1.2774  0.3083
  289MPD2     H 4361   4.329   1.155  14.192  0.8442  1.2607 -0.7488
  289MPD2    H1 4362   4.356   0.858  13.890 -0.0778  0.4899 -0.7825
  289MPD2    H2 4363   4.674   1.135  13.944 -0.3519  1.1303 -0.2439
  289MPD2    H3 4364   4.581   0.939  13.824  3.2927  0.3663  1.6291
  289MPD2     N 4365   4.199   0.947  14.067  0.0703  0.5868 -0.4343
  289MPD2    H5 4366   4.179   0.862  14.016 -1.6770 -0.3883  1.9241
  289MPD2    N1 4367   4.566   1.261  14.139 -0.5242 -0.2907  0.3307
  289MPD2    H7 4368   4.636   1.321  14.096 -1.8694  1.2373  0.2492
  290TMC3    C1 4369   3.965   0.962  14.094  0.1876 -0.0238 -0.2307
  290TMC3    C2 4370   3.865   1.042  14.039  0.1415  0.2815 -0.0690
  290TMC3    C3 4371   3.748   0.986  13.993 -0.5939  0.4567 -0.1403
  290TMC3    C4 4372   3.950   0.825  14.084  0.7203 -0.3894  0.2041
  290TMC3    C5 4373   3.827   0.766  14.051  0.1171 -0.4713 -0.4708
  290TMC3    C6 4374   3.725   0.849  14.002 -0.1543  0.5340  0.3480
  290TMC3     C 4375   4.093   1.026  14.115 -0.7323 -0.2159  0.1970
  290TMC3     O 4376   4.091   1.145  14.134  0.0172  0.7896  0.1926
  290TMC3     H 4377   3.894   1.147  14.037 -1.3989  0.7524  2.3964
  290TMC3    H1 4378   4.033   0.764  14.118  0.4089 -1.1309 -0.3738
  290TMC3    H2 4379   3.630   0.798  13.992  0.8703 -0.8640 -2.4263
  290TMC3    C7 4380   3.789   0.641  14.118  0.0219 -0.6937 -0.5703
  290TMC3    C8 4381   3.631   1.067  13.957  0.0319  0.2182 -0.3475
  290TMC3    O1 4382   3.672   0.622  14.156  0.2694  0.3196 -0.4050
  290TMC3    O2 4383   3.521   1.009  13.949 -0.2638 -0.2403  0.5706
  291MPD2     C 4384   3.302   0.755   0.290 -0.1418  0.1335 -0.1394
  291MPD2    C1 4385   3.297   0.656   0.195  0.2282 -0.1957  0.0107
  291MPD2    C2 4386   3.402   0.645   0.103  0.5108 -0.6282 -0.0279
  291MPD2    C3 4387   3.494   0.743   0.092 -0.4949  0.1067 -0.4226
  291MPD2    C4 4388   3.490   0.852   0.185 -0.0769 -0.3255  0.3372
  291MPD2    C5 4389   3.398   0.852   0.285 -0.0698 -1.0306 -0.1163
  291MPD2     H 4390   3.398   0.570   0.025  0.4615 -0.3614 -0.2826
  291MPD2    H1 4391   3.544   0.944   0.168 -1.4984  0.4752  0.1790
  291MPD2    H2 4392   3.229   0.754   0.369 -1.3632  0.2148 -1.2769
  291MPD2    H3 4393   3.399   0.930   0.360 -0.1157 -0.0728 -1.1287
  291MPD2     N 4394   3.573   0.765  17.675 -0.3875  0.0662  0.3001
  291MPD2    H5 4395   3.624   0.852  17.679 -0.4894  0.1812 -1.0973
  291MPD2    N1 4396   3.193   0.564   0.189  0.3577 -0.0903  0.2723
  291MPD2    H7 4397   3.203   0.487   0.123 -0.3991  0.3296 -0.3347
  292TMC3    C1 4398   2.992   0.457   0.217 -0.3969  0.0859  1.3596
  292TMC3    C2 4399   2.870   0.449   0.278  0.2181 -0.0536 -0.0783
  292TMC3    C3 4400   2.780   0.359   0.239 -0.1907  0.0483  0.0275
  292TMC3    C4 4401   3.010   0.383   0.106  0.0329  0.1175  0.0821
  292TMC3    C5 4402   2.919   0.283   0.064 -0.2399 -0.2147  0.3385
  292TMC3    C6 4403   2.804   0.277   0.134  0.7201  0.3743 -0.0598
  292TMC3     C 4404   3.078   0.563   0.261 -0.1935  0.4510 -0.1825
  292TMC3     O 4405   3.021   0.645   0.332 -0.4089  0.6136 -0.0412
  292TMC3     H 4406   2.847   0.516   0.360 -1.5740 -2.0388  1.0525
  292TMC3    H1 4407   3.101   0.387   0.048  0.5040 -2.5106  0.6523
  292TMC3    H2 4408   2.723   0.212   0.103  1.7296 -0.3355 -1.2002
  292TMC3    C7 4409   2.974   0.163   0.001  0.2441  0.0243  0.4962
  292TMC3    C8 4410   2.657   0.336   0.307 -0.2519  0.1099 -0.8485
  292TMC3    O1 4411   3.047   0.177  17.599 -0.1505  0.1921  0.4143
  292TMC3    O2 4412   2.553   0.317   0.248  1.2735 -0.1012  0.0743
  293MPD2     C 4413   1.020   2.600  12.305 -0.1146  0.6526  0.1083
  293MPD2    C1 4414   0.922   2.521  12.350  0.7014  0.2399 -0.4857
  293MPD2    C2 4415   0.889   2.516  12.485  0.4257  0.4837 -0.8090
  293MPD2    C3 4416   0.946   2.611  12.568  0.8734  1.2667  0.9381
  293MPD2    C4 4417   1.036   2.703  12.514 -0.6163 -0.0963 -0.5343
  293MPD2    C5 4418   1.085   2.681  12.391 -0.2940  0.9548 -0.8642
  293MPD2     H 4419   0.814   2.448  12.524  0.0758  0.9031 -0.7582
  293MPD2    H1 4420   1.092   2.764  12.584  0.3646 -1.6353  0.0245
  293MPD2    H2 4421   1.053   2.602  12.202  0.4831  0.0825  0.2918
  293MPD2    H3 4422   1.163   2.743  12.348  0.5735  0.8918  0.6146
  293MPD2     N 4423   0.908   2.619  12.700  0.0429  0.0017 -0.0502
  293MPD2    H5 4424   0.860   2.537  12.736 -0.6476  0.7380  0.7012
  293MPD2    N1 4425   0.853   2.446  12.251 -0.0909  0.4090  0.2976
  293MPD2    H7 4426   0.875   2.476  12.157 -0.3762  0.8304  0.3652
  294TMC3    C1 4427   0.696   2.314  12.150  0.7687  0.4870 -0.0410
  294TMC3    C2 4428   0.569   2.267  12.159 -0.0403  0.1924  0.2849
  294TMC3    C3 4429   0.513   2.196  12.060 -0.3642  0.1951  0.3595
  294TMC3    C4 4430   0.760   2.302  12.031  0.1502 -0.2777  0.5235
  294TMC3    C5 4431   0.702   2.233  11.931 -0.3313 -0.3214  0.3706
  294TMC3    C6 4432   0.575   2.178  11.942 -0.1256  0.1850 -0.4214
  294TMC3     C 4433   0.756   2.354  12.273 -0.4988  0.8164  1.4251
  294TMC3     O 4434   0.716   2.311  12.381 -0.1531 -0.0363  0.4185
  294TMC3     H 4435   0.525   2.271  12.258  0.7552 -1.3681  0.7063
  294TMC3    H1 4436   0.865   2.328  12.022  0.0896 -0.0029  0.5891
  294TMC3    H2 4437   0.526   2.136  11.855 -1.6121  0.2363  0.3886
  294TMC3    C7 4438   0.770   2.191  11.814  0.1006  0.1584  0.3441
  294TMC3    C8 4439   0.379   2.144  12.087  0.7630 -0.9495  0.5267
  294TMC3    O1 4440   0.730   2.085  11.770  0.0105 -0.2109  0.0754
  294TMC3    O2 4441   0.329   2.176  12.196  0.3591  0.0760 -0.8855
  295MPD2     C 4442   1.414   0.887   0.509 -0.4399 -0.1550  0.1829
  295MPD2    C1 4443   1.468   1.015   0.513  0.2967 -0.1752  0.2622
  295MPD2    C2 4444   1.395   1.127   0.462  0.0028  1.0948  0.3003
  295MPD2    C3 4445   1.272   1.110   0.403  0.1573 -0.2379  0.2579
  295MPD2    C4 4446   1.226   0.983   0.390 -0.0839 -0.4473  0.2649
  295MPD2    C5 4447   1.297   0.869   0.438 -0.3559 -0.3654  0.3305
  295MPD2     H 4448   1.443   1.224   0.468 -0.5420  1.2890  1.6312
  295MPD2    H1 4449   1.125   0.960   0.359 -0.4868 -0.4649  1.5986
  295MPD2    H2 4450   1.466   0.800   0.546  2.6302  0.9388 -1.5876
  295MPD2    H3 4451   1.252   0.771   0.439 -1.2522  0.0585  0.8666
  295MPD2     N 4452   1.178   1.208   0.369  0.1386  0.0382  0.3097
  295MPD2    H5 4453   1.086   1.185   0.332 -0.6429 -1.0115  2.9413
  295MPD2    N1 4454   1.600   1.043   0.563  0.0918 -0.2982 -0.2043
  295MPD2    H7 4455   1.640   1.136   0.568  0.9563 -0.6878  0.2652
  296TMC3    C1 4456   1.072   1.423   0.357 -0.1468  0.3277  0.3879
  296TMC3    C2 4457   1.082   1.560   0.348  0.7690 -0.1208 -0.0291
  296TMC3    C3 4458   0.975   1.640   0.366 -0.3537  0.0365  0.0538
  296TMC3    C4 4459   0.951   1.366   0.397 -0.7150  0.0601 -0.1480
  296TMC3    C5 4460   0.849   1.451   0.412 -0.5977  0.0419  0.7032
  296TMC3    C6 4461   0.863   1.585   0.398 -0.0965  0.3356 -0.9228
  296TMC3     C 4462   1.186   1.346   0.394 -0.4812 -0.1955  1.2853
  296TMC3     O 4463   1.289   1.412   0.429 -0.0069 -0.3337 -0.2098
  296TMC3     H 4464   1.180   1.596   0.319  0.4407  0.0530 -0.9274
  296TMC3    H1 4465   0.935   1.259   0.396 -2.9334  0.3656  2.1908
  296TMC3    H2 4466   0.769   1.636   0.418  0.5772  0.8370  0.9472
  296TMC3    C7 4467   0.718   1.399   0.435  0.6947 -0.2551  0.8487
  296TMC3    C8 4468   1.006   1.783   0.373  0.5147  0.2658 -0.5571
  296TMC3    O1 4469   0.627   1.471   0.400  0.5132 -0.9114  0.1531
  296TMC3    O2 4470   1.114   1.828   0.325 -0.2508 -0.8929  0.4005
  297MPD2     C 4471   3.517   2.824  16.537 -0.0442 -0.7356  0.2071
  297MPD2    C1 4472   3.531   2.872  16.406 -0.6886  0.4955 -0.2170
  297MPD2    C2 4473   3.627   2.969  16.374 -0.2846 -0.1914 -0.2150
  297MPD2    C3 4474   3.704   3.025  16.479 -0.0849  0.3422 -0.4817
  297MPD2    C4 4475   3.680   2.991  16.609 -0.1083  0.2469  0.3454
  297MPD2    C5 4476   3.590   2.888  16.638 -0.4328  0.2550 -0.1773
  297MPD2     H 4477   3.649   2.993  16.270  1.8695  1.5159  0.6284
  297MPD2    H1 4478   3.730   3.038  16.693 -0.3807  3.6508 -1.3790
  297MPD2    H2 4479   3.459   2.743  16.579 -0.3762 -1.2694 -1.2812
  297MPD2    H3 4480   3.584   2.844  16.736  0.2909  0.1379 -0.1841
  297MPD2     N 4481   3.797   3.121  16.435  0.0780  0.6121  0.3928
  297MPD2    H5 4482   3.796   3.151  16.338 -1.0032  1.3695  0.6425
  297MPD2    N1 4483   3.458   2.826  16.293  0.3944 -0.0695 -1.2862
  297MPD2    H7 4484   3.459   2.889  16.213  0.0605 -1.4119 -2.3436
  298TMC3    C1 4485   3.247   2.748  16.197  0.5558 -0.1872  0.3747
  298TMC3    C2 4486   3.282   2.780  16.070 -0.2155  0.3878 -0.1280
  298TMC3    C3 4487   3.182   2.839  15.996  0.0677 -0.0557 -0.8826
  298TMC3    C4 4488   3.121   2.725  16.232 -0.4918  0.1491 -0.3611
  298TMC3    C5 4489   3.025   2.791  16.163  0.3913 -0.5627  0.0205
  298TMC3    C6 4490   3.054   2.839  16.039  0.0309 -0.5124  0.9334
  298TMC3     C 4491   3.351   2.733  16.301 -0.0409  0.1321  0.1850
  298TMC3     O 4492   3.332   2.641  16.381 -0.2129 -0.6654  0.1504
  298TMC3     H 4493   3.382   2.779  16.027 -0.0199  0.2209  0.3299
  298TMC3    H1 4494   3.095   2.686  16.330  2.6881 -0.8425  0.1055
  298TMC3    H2 4495   2.974   2.868  15.972  0.7973  0.5924  0.4842
  298TMC3    C7 4496   2.903   2.834  16.226 -0.3946 -0.2438  0.2041
  298TMC3    C8 4497   3.180   2.834  15.850 -0.3014  0.1046 -0.1885
  298TMC3    O1 4498   2.899   2.857  16.348 -0.9325 -0.1339  0.0775
  298TMC3    O2 4499   3.087   2.870  15.783  0.4113 -0.3755  0.1139
  299MPD2     C 4500   3.682   2.771  10.717 -0.2584 -1.2806 -0.2070
  299MPD2    C1 4501   3.743   2.823  10.602 -0.3030 -0.1486 -0.0353
  299MPD2    C2 4502   3.739   2.751  10.488  0.4002 -0.0784  0.2693
  299MPD2    C3 4503   3.674   2.630  10.488 -0.6098 -0.1527 -0.7050
  299MPD2    C4 4504   3.625   2.574  10.604  0.3216 -0.1130 -0.1177
  299MPD2    C5 4505   3.632   2.644  10.714 -0.3033  0.4311 -0.2462
  299MPD2     H 4506   3.774   2.784  10.392  0.9283  0.0514  0.5099
  299MPD2    H1 4507   3.582   2.474  10.601 -0.5000  0.2165  0.7985
  299MPD2    H2 4508   3.700   2.828  10.807 -1.3081  0.4758 -1.1290
  299MPD2    H3 4509   3.588   2.603  10.804 -1.6712  1.4536 -0.4479
  299MPD2     N 4510   3.654   2.547  10.380  0.0741 -0.0252 -0.4438
  299MPD2    H5 4511   3.613   2.456  10.402 -0.1231  0.6788  2.1548
  299MPD2    N1 4512   3.798   2.950  10.604  0.1927 -0.1208 -0.1851
  299MPD2    H7 4513   3.777   3.012  10.681 -2.5482 -2.3920  0.8930
  300TMC3    C1 4514   3.564   2.493  10.177 -0.3752 -0.5814  0.3977
  300TMC3    C2 4515   3.462   2.574  10.131  0.0883 -0.3641  0.4359
  300TMC3    C3 4516   3.332   2.538  10.143  0.0784  0.6953  0.7116
  300TMC3    C4 4517   3.529   2.374  10.237 -0.0038  0.3164 -0.2815
  300TMC3    C5 4518   3.397   2.351  10.262 -0.3643 -0.1603  0.2536
  300TMC3    C6 4519   3.295   2.427  10.209 -0.3318  0.2515  0.4254
  300TMC3     C 4520   3.657   2.579  10.248  0.1910 -0.4705 -0.1479
  300TMC3     O 4521   3.673   2.691  10.204 -0.3513 -0.4130 -0.2072
  300TMC3     H 4522   3.481   2.671  10.088  1.7858 -0.4715  0.9404
  300TMC3    H1 4523   3.609   2.309  10.268 -1.2165 -1.4547 -0.8449
  300TMC3    H2 4524   3.190   2.406  10.227 -0.4729 -0.2430 -0.9561
  300TMC3    C7 4525   3.378   2.305  10.398 -0.4304 -0.3897 -0.3386
  300TMC3    C8 4526   3.224   2.629  10.109 -0.7121  0.2574 -0.3020
  300TMC3    O1 4527   3.474   2.246  10.452 -0.1904 -0.2955  0.4174
  300TMC3    O2 4528   3.128   2.575  10.063  0.2242 -0.8213  0.0824
  301MPD2     C 4529   0.438   3.884   1.764  0.9187  0.5060 -0.0639
  301MPD2    C1 4530   0.434   3.885   1.625  0.0206 -0.0216  0.1744
  301MPD2    C2 4531   0.518   3.795   1.567  1.0607 -0.8143 -0.2351
  301MPD2    C3 4532   0.609   3.711   1.626 -0.2758 -0.8754  0.7790
  301MPD2    C4 4533   0.611   3.721   1.761  0.2159 -0.1446  0.2560
  301MPD2    C5 4534   0.524   3.800   1.831 -0.5808  0.0257 -0.5696
  301MPD2     H 4535   0.504   3.793   1.459 -1.5099  0.6723  0.0688
  301MPD2    H1 4536   0.677   3.659   1.821 -0.5208 -0.9129  0.2660
  301MPD2    H2 4537   0.378   3.944   1.831 -0.2908 -0.7247 -0.0384
  301MPD2    H3 4538   0.529   3.797   1.940  3.0534  0.5127 -0.7349
  301MPD2     N 4539   0.702   3.637   1.553 -0.5362 -0.2152  0.1383
  301MPD2    H5 4540   0.790   3.606   1.591 -0.5484  0.7637  0.9718
  301MPD2    N1 4541   0.357   3.971   1.543 -0.1007 -0.2010 -0.5176
  301MPD2    H7 4542   0.364   3.949   1.444  1.2017  1.7273 -0.8523
  302TMC3    C1 4543   0.798   3.525   1.359 -0.1698 -0.4784 -0.9008
  302TMC3    C2 4544   0.890   3.444   1.425  0.0930 -0.5657 -0.5563
  302TMC3    C3 4545   1.016   3.438   1.366 -1.0082 -0.0863 -0.5056
  302TMC3    C4 4546   0.821   3.584   1.241 -0.1887 -0.5131  0.1294
  302TMC3    C5 4547   0.942   3.575   1.185 -0.8313  0.2642  0.6145
  302TMC3    C6 4548   1.044   3.509   1.254 -0.2225 -0.1935  1.1040
  302TMC3     C 4549   0.682   3.594   1.422 -0.0640 -0.4928  0.9691
  302TMC3     O 4550   0.576   3.608   1.354  0.0709  0.0917  0.2180
  302TMC3     H 4551   0.864   3.401   1.522  0.7571 -0.9466 -0.5496
  302TMC3    H1 4552   0.743   3.648   1.202 -0.6242 -1.7597 -1.0522
  302TMC3    H2 4553   1.144   3.506   1.213 -0.2015  0.4054  1.1033
  302TMC3    C7 4554   0.969   3.660   1.070  0.3625 -0.4493  0.4937
  302TMC3    C8 4555   1.128   3.379   1.441  0.3923 -0.1454 -0.3837
  302TMC3    O1 4556   1.080   3.707   1.060  1.1994 -0.5584  0.5704
  302TMC3    O2 4557   1.240   3.417   1.408 -0.4290  0.1685  0.3185
  303MPD2     C 4558   1.113   2.458  10.257  0.4864  0.2552 -0.0736
  303MPD2    C1 4559   1.069   2.328  10.261 -0.0903  0.0384  0.7110
  303MPD2    C2 4560   0.953   2.296  10.197 -0.4021 -0.0059  0.7428
  303MPD2    C3 4561   0.879   2.390  10.130  0.4234  0.2139 -0.0279
  303MPD2    C4 4562   0.931   2.516  10.120 -0.2339 -0.0350 -0.4331
  303MPD2    C5 4563   1.040   2.553  10.191 -0.6063 -0.1615 -0.0649
  303MPD2     H 4564   0.913   2.196  10.198 -0.0604 -0.1440  0.7452
  303MPD2    H1 4565   0.889   2.593  10.056 -0.1476  0.2873 -0.1014
  303MPD2    H2 4566   1.204   2.482  10.310  0.3858 -0.6944  0.5251
  303MPD2    H3 4567   1.077   2.655  10.188 -0.0435 -0.4267 -2.5427
  303MPD2     N 4568   0.759   2.366  10.069  0.3459 -0.2418 -0.3035
  303MPD2    H5 4569   0.742   2.419   9.983 -0.9619 -0.4625 -0.1788
  303MPD2    N1 4570   1.145   2.233  10.341 -0.6406  0.5054  0.5974
  303MPD2    H7 4571   1.207   2.267  10.414  0.9540  2.1967 -1.5534
  304TMC3    C1 4572   1.218   2.038  10.434  0.9772 -0.1480 -0.2014
  304TMC3    C2 4573   1.206   2.093  10.561  0.2533 -0.3788 -0.3473
  304TMC3    C3 4574   1.226   2.008  10.669  0.1183 -0.1009  0.1152
  304TMC3    C4 4575   1.257   1.908  10.418 -0.3420 -0.3374  0.0759
  304TMC3    C5 4576   1.277   1.829  10.529 -0.1450 -0.1704 -0.0510
  304TMC3    C6 4577   1.271   1.879  10.656  0.0191  0.3650  0.4827
  304TMC3     C 4578   1.144   2.098  10.330 -0.3894 -0.6344  0.8088
  304TMC3     O 4579   1.085   2.025  10.254  0.3363  0.2384  0.4460
  304TMC3     H 4580   1.168   2.193  10.577 -1.7978 -1.2292  0.0503
  304TMC3    H1 4581   1.254   1.859  10.322  1.2760  0.2808 -0.2960
  304TMC3    H2 4582   1.301   1.813  10.736  0.3813 -0.7798 -0.5930
  304TMC3    C7 4583   1.231   1.696  10.531 -0.2084 -0.6326 -0.4064
  304TMC3    C8 4584   1.129   2.012  10.776 -0.2510 -0.2535  0.4819
  304TMC3    O1 4585   1.164   1.671  10.630 -0.0909  0.2998  0.2107
  304TMC3    O2 4586   1.071   2.116  10.805  0.0061 -0.0549 -0.2464
  305MPD2     C 4587   3.909   3.311  13.820 -1.2645 -0.0686  0.5302
  305MPD2    C1 4588   3.967   3.431  13.789  0.0337 -0.8191  0.5129
  305MPD2    C2 4589   3.992   3.464  13.653  0.2261 -0.6450  0.6824
  305MPD2    C3 4590   3.973   3.370  13.550  0.6280  0.0812 -0.7537
  305MPD2    C4 4591   3.913   3.247  13.585 -0.5974 -0.3479 -0.5949
  305MPD2    C5 4592   3.885   3.219  13.721  0.4275  0.3394  0.9223
  305MPD2     H 4593   4.025   3.561  13.619 -1.3680 -1.1058 -2.1238
  305MPD2    H1 4594   3.891   3.169  13.513 -2.5813 -1.1472  0.8849
  305MPD2    H2 4595   3.893   3.279  13.922  0.1175 -0.1126  0.7350
  305MPD2    H3 4596   3.859   3.119  13.753  1.0197  0.3827  1.5440
  305MPD2     N 4597   4.011   3.388  13.414  0.4630  0.2501 -0.2782
  305MPD2    H5 4598   3.974   3.317  13.352  0.6688 -0.2195  0.1421
  305MPD2    N1 4599   4.017   3.504  13.901 -0.0140  0.1978  0.4877
  305MPD2    H7 4600   4.039   3.443  13.979  0.5365  0.7721  0.7888
  306TMC3    C1 4601   4.091   3.698  14.008  0.1265 -0.0553 -1.0968
  306TMC3    C2 4602   4.154   3.628  14.106 -0.4113 -0.1211 -0.4323
  306TMC3    C3 4603   4.214   3.697  14.211  0.1441 -0.4526 -0.2244
  306TMC3    C4 4604   4.100   3.838  14.005  0.1108 -0.6462 -0.1842
  306TMC3    C5 4605   4.172   3.905  14.103 -0.0744 -0.5470  0.2177
  306TMC3    C6 4606   4.232   3.833  14.206 -0.2307  0.2778  0.5776
  306TMC3     C 4607   4.041   3.637  13.889  0.6161  0.1704 -1.0610
  306TMC3     O 4608   3.998   3.704  13.799 -0.5201  0.1229 -0.7119
  306TMC3     H 4609   4.165   3.521  14.108  2.0059  0.0992 -0.8268
  306TMC3    H1 4610   4.042   3.889  13.929  0.7436 -1.0818 -0.9663
  306TMC3    H2 4611   4.310   3.877  14.267  0.0284  0.4865  0.0908
  306TMC3    C7 4612   4.148   4.044  14.127 -0.2553 -0.0044 -0.3840
  306TMC3    C8 4613   4.278   3.618  14.307  0.2604  0.3013 -0.0403
  306TMC3    O1 4614   4.073   4.106  14.048  0.0954 -0.1981  0.5561
  306TMC3    O2 4615   4.291   3.501  14.289  0.6610  0.4449  0.8772
  307MPD2     C 4616   1.769   1.494   1.330  1.2269 -0.0046  0.2389
  307MPD2    C1 4617   1.845   1.601   1.286 -0.0252 -0.4597 -0.1620
  307MPD2    C2 4618   1.837   1.726   1.349 -0.0456  0.2260 -0.1265
  307MPD2    C3 4619   1.736   1.744   1.445 -0.0112  0.5236 -0.0178
  307MPD2    C4 4620   1.664   1.637   1.486  0.6393 -0.3325  0.4060
  307MPD2    C5 4621   1.681   1.516   1.429 -0.2096  0.2276  0.0595
  307MPD2     H 4622   1.890   1.809   1.305 -1.4998 -0.5834 -3.3445
  307MPD2    H1 4623   1.582   1.634   1.557 -0.2362  0.0639 -0.5942
  307MPD2    H2 4624   1.772   1.401   1.274 -0.2734 -0.9219  1.6664
  307MPD2    H3 4625   1.621   1.431   1.459 -1.1226  0.7588 -0.2653
  307MPD2     N 4626   1.697   1.878   1.478  0.7357 -0.4175  1.0816
  307MPD2    H5 4627   1.760   1.946   1.437 -0.6321 -0.2954 -0.8409
  307MPD2    N1 4628   1.919   1.594   1.167  0.2768 -0.4795 -0.0505
  307MPD2    H7 4629   1.962   1.681   1.137  0.9581 -0.5016  0.8608
  308TMC3    C1 4630   1.481   2.172   1.328 -0.2227 -0.0766 -0.5525
  308TMC3    C2 4631   1.607   2.219   1.304  1.0338  0.2214  0.2221
  308TMC3    C3 4632   1.708   2.211   1.395  0.9573 -0.5450  0.6957
  308TMC3    C4 4633   1.463   2.091   1.444 -0.4476 -0.0602  0.0921
  308TMC3    C5 4634   1.574   2.057   1.522  0.0246 -0.3638 -0.1027
  308TMC3    C6 4635   1.689   2.131   1.511  0.2507  0.4683 -0.1424
  308TMC3     C 4636   1.390   2.147   1.224 -0.0511  0.4563  0.2347
  308TMC3     O 4637   1.312   2.052   1.229  0.1384  0.1308 -0.1911
  308TMC3     H 4638   1.619   2.254   1.202  1.5336 -0.9264 -0.1128
  308TMC3    H1 4639   1.368   2.043   1.463  0.0444 -0.3341  1.8154
  308TMC3    H2 4640   1.763   2.105   1.586  0.5144  1.4247 -0.0733
  308TMC3    C7 4641   1.584   1.918   1.542  0.3318  0.2300  1.0448
  308TMC3    C8 4642   1.841   2.203   1.340  0.8027 -0.4046 -0.3107
  308TMC3    O1 4643   1.481   1.848   1.564  0.3824  0.2341 -0.2780
  308TMC3    O2 4644   1.915   2.117   1.382  0.0605 -0.2363 -0.3906
  309MPD2     C 4645   1.580   2.664  16.919 -0.3721 -0.4438  0.6920
  309MPD2    C1 4646   1.479   2.705  16.827 -0.7656 -0.3749  0.0627
  309MPD2    C2 4647   1.359   2.750  16.879  0.2380  0.0248 -0.3115
  309MPD2    C3 4648   1.325   2.740  17.013 -0.3941 -0.2728  1.0642
  309MPD2    C4 4649   1.423   2.697  17.102 -0.0036  0.3940  1.3593
  309MPD2    C5 4650   1.549   2.666  17.059 -0.2424 -0.0750 -0.1456
  309MPD2     H 4651   1.278   2.795  16.823 -1.9301 -3.7923 -0.2639
  309MPD2    H1 4652   1.395   2.696  17.207  0.4705 -1.0444  1.4788
  309MPD2    H2 4653   1.680   2.642  16.884 -1.0734  2.3081 -3.0031
  309MPD2    H3 4654   1.622   2.626  17.128 -0.6881 -0.9054 -0.1591
  309MPD2     N 4655   1.191   2.778  17.055 -0.3096 -0.0722  0.2914
  309MPD2    H5 4656   1.128   2.810  16.982 -0.5249 -2.2436 -0.4872
  309MPD2    N1 4657   1.509   2.713  16.689  0.4830  0.4586 -0.7483
  309MPD2    H7 4658   1.436   2.751  16.631  0.8899  2.1126 -0.1781
  310TMC3    C1 4659   1.639   2.721  16.493 -0.0659  0.1338  0.3190
  310TMC3    C2 4660   1.565   2.817  16.441  0.0772 -0.5153  0.0999
  310TMC3    C3 4661   1.593   2.865  16.318 -0.2838  1.0340 -0.0107
  310TMC3    C4 4662   1.747   2.674  16.436 -0.4549  0.3791 -0.2249
  310TMC3    C5 4663   1.777   2.722  16.310  0.0651 -0.0618 -0.5223
  310TMC3    C6 4664   1.696   2.816  16.247 -1.3804 -0.0255 -0.5012
  310TMC3     C 4665   1.623   2.673  16.628 -0.0424 -0.3289  0.4713
  310TMC3     O 4666   1.680   2.569  16.656 -0.4942 -0.3260 -0.2095
  310TMC3     H 4667   1.490   2.870  16.499  0.5297  1.8557 -1.4303
  310TMC3    H1 4668   1.816   2.604  16.481  2.0686  4.1670  1.8989
  310TMC3    H2 4669   1.697   2.827  16.139  0.4352 -1.0998 -0.6026
  310TMC3    C7 4670   1.872   2.644  16.240 -0.6192 -0.3665  0.2087
  310TMC3    C8 4671   1.510   2.970  16.262 -0.0275  0.3048 -0.0746
  310TMC3    O1 4672   1.927   2.551  16.297 -0.1872 -0.1191  0.1593
  310TMC3    O2 4673   1.409   3.004  16.319  0.5006  0.1924  0.0588
  311MPD2     C 4674   3.531   3.606  12.808  0.6537  0.2485 -0.1377
  311MPD2    C1 4675   3.504   3.737  12.772 -0.1561  0.0519 -0.0444
  311MPD2    C2 4676   3.374   3.768  12.782 -0.4120  0.1166  0.2988
  311MPD2    C3 4677   3.271   3.678  12.809  0.1886  0.3188  0.2461
  311MPD2    C4 4678   3.307   3.556  12.848  0.2415  0.7356 -0.1882
  311MPD2    C5 4679   3.436   3.517  12.853 -0.8160 -0.3048  0.4194
  311MPD2     H 4680   3.345   3.870  12.762 -0.6045  0.4154  2.1308
  311MPD2    H1 4681   3.233   3.488  12.888  1.1514  0.7339  1.5032
  311MPD2    H2 4682   3.634   3.578  12.825  0.3979 -0.8380 -0.4074
  311MPD2    H3 4683   3.463   3.418  12.888 -1.4615 -0.9813 -1.0201
  311MPD2     N 4684   3.138   3.727  12.810  0.5247  0.3739 -0.5822
  311MPD2    H5 4685   3.126   3.827  12.798  0.1228  0.2303 -1.3661
  311MPD2    N1 4686   3.601   3.824  12.718  0.0698  0.2479 -0.1754
  311MPD2    H7 4687   3.581   3.923  12.703  0.4122  0.2452 -0.6459
  312TMC3    C1 4688   2.908   3.722  12.806 -0.5651 -0.6133  0.0380
  312TMC3    C2 4689   2.833   3.717  12.698  0.4379  0.0617  0.4168
  312TMC3    C3 4690   2.771   3.830  12.649 -0.4385  1.0688 -0.6037
  312TMC3    C4 4691   2.912   3.834  12.882 -0.0729 -0.1862 -0.1790
  312TMC3    C5 4692   2.825   3.932  12.848  0.8867  0.6572  0.1065
  312TMC3    C6 4693   2.755   3.938  12.732  0.1798  0.0990  0.1685
  312TMC3     C 4694   3.029   3.643  12.814  0.3419 -0.1333 -0.3414
  312TMC3     O 4695   3.015   3.525  12.788  0.0915  0.3928 -0.8717
  312TMC3     H 4696   2.846   3.630  12.635  0.7172  0.9306 -0.7184
  312TMC3    H1 4697   2.969   3.827  12.974  0.4270  0.4216 -0.4388
  312TMC3    H2 4698   2.697   4.026  12.709 -0.7402 -0.6569 -0.4166
  312TMC3    C7 4699   2.838   4.052  12.926  1.0009  0.5263  0.4287
  312TMC3    C8 4700   2.718   3.823  12.515 -0.1749 -0.0093 -0.7377
  312TMC3    O1 4701   2.832   4.160  12.873  0.1134 -0.1930 -0.5946
  312TMC3    O2 4702   2.676   3.711  12.485 -0.2822 -0.3462 -0.0686
  313MPD2     C 4703   2.404   3.126  10.980  0.5250 -0.5600  0.2129
  313MPD2    C1 4704   2.462   3.183  10.870  0.1599  0.3578  0.3420
  313MPD2    C2 4705   2.464   3.106  10.753  0.5899 -0.4351 -0.0856
  313MPD2    C3 4706   2.394   2.988  10.746 -0.5931 -0.2550  0.1364
  313MPD2    C4 4707   2.320   2.943  10.859  0.1244  0.0987  0.1472
  313MPD2    C5 4708   2.325   3.015  10.977 -0.0408 -0.2618 -1.0769
  313MPD2     H 4709   2.518   3.147  10.669  1.2386 -2.9898 -0.9306
  313MPD2    H1 4710   2.262   2.851  10.860  1.8918 -1.0216 -0.6950
  313MPD2    H2 4711   2.429   3.177  11.073 -0.4687 -0.5849  0.4877
  313MPD2    H3 4712   2.268   2.975  11.060  0.6545  1.0056  0.0139
  313MPD2     N 4713   2.411   2.914  10.625 -0.3135 -0.3786 -0.1574
  313MPD2    H5 4714   2.462   2.959  10.550 -2.5774  0.1145 -1.4050
  313MPD2    N1 4715   2.531   3.303  10.872  0.3065  0.4134 -0.3564
  313MPD2    H7 4716   2.588   3.327  10.791 -2.2977  0.6838 -2.1106
  314TMC3    C1 4717   2.569   3.530  10.934 -0.1241 -0.1006 -0.5612
  314TMC3    C2 4718   2.597   3.599  11.052 -0.0496  0.9349  0.6508
  314TMC3    C3 4719   2.575   3.731  11.054  0.8983 -0.1447 -0.4911
  314TMC3    C4 4720   2.520   3.587  10.824 -0.2462 -0.1880 -0.2952
  314TMC3    C5 4721   2.504   3.726  10.829  0.2326  0.4222 -0.5159
  314TMC3    C6 4722   2.534   3.799  10.941  0.2726 -0.0606 -0.4571
  314TMC3     C 4723   2.528   3.399  10.976  0.1467  0.5092 -0.5085
  314TMC3     O 4724   2.459   3.403  11.076 -0.8282  0.2396 -0.7283
  314TMC3     H 4725   2.615   3.545  11.144  2.3908  0.3141 -0.1851
  314TMC3    H1 4726   2.505   3.529  10.734  1.2377 -0.1221 -0.5804
  314TMC3    H2 4727   2.531   3.907  10.940  2.7965  0.0169  1.7244
  314TMC3    C7 4728   2.506   3.802  10.712  0.0458 -0.8398 -0.2084
  314TMC3    C8 4729   2.693   3.797  11.100  0.0616  0.1396 -1.2082
  314TMC3    O1 4730   2.468   3.919  10.719  0.1439  0.2635  0.1685
  314TMC3    O2 4731   2.729   3.896  11.039  0.0628 -0.7409 -0.5014
  315MPD2     C 4732   2.425   2.495   0.176  0.5164 -0.0557  0.8628
  315MPD2    C1 4733   2.556   2.458   0.194  0.8410 -0.1260  0.3873
  315MPD2    C2 4734   2.649   2.536   0.123  0.6830  0.0144  1.1786
  315MPD2    C3 4735   2.621   2.642   0.039 -0.4226 -0.6811  0.3854
  315MPD2    C4 4736   2.489   2.683   0.036  0.5437 -0.4280 -0.1308
  315MPD2    C5 4737   2.400   2.606   0.102  0.0029  0.2061  0.1895
  315MPD2     H 4738   2.754   2.511   0.128  0.9028  0.8990  0.9200
  315MPD2    H1 4739   2.449   2.771  17.685  3.4885  1.4030  0.7035
  315MPD2    H2 4740   2.341   2.442   0.220 -0.3787  2.4828  2.2137
  315MPD2    H3 4741   2.295   2.636   0.097 -0.1190  0.0797  1.7961
  315MPD2     N 4742   2.731   2.701  17.674 -0.6157  0.0382  0.1557
  315MPD2    H5 4743   2.821   2.657  17.688  0.2957  1.4256 -1.3572
  315MPD2    N1 4744   2.588   2.336   0.252  0.2786 -0.0380  0.4837
  315MPD2    H7 4745   2.684   2.310   0.234  0.5749  2.0670 -0.9197
  316TMC3    C1 4746   2.861   2.858  17.567 -0.9471  0.0788  0.3762
  316TMC3    C2 4747   2.966   2.846  17.652  0.2536  0.1281 -0.3576
  316TMC3    C3 4748   3.086   2.906  17.626 -0.5793 -0.5510  0.0413
  316TMC3    C4 4749   2.866   2.949  17.462 -0.9873  0.2062  0.6091
  316TMC3    C5 4750   2.988   3.016  17.435  0.3180 -1.0131 -0.1503
  316TMC3    C6 4751   3.098   2.986  17.511  0.0400  0.4209  0.0597
  316TMC3     C 4752   2.729   2.806  17.591  0.4153 -0.0779 -0.5192
  316TMC3     O 4753   2.635   2.837  17.524 -0.0249  0.5226  0.3886
  316TMC3     H 4754   2.957   2.806   0.055 -2.3435 -1.4857 -1.2489
  316TMC3    H1 4755   2.777   2.973  17.404  0.1424  0.1945 -1.1365
  316TMC3    H2 4756   3.197   3.023  17.486 -0.8062  1.7488 -1.3862
  316TMC3    C7 4757   2.993   3.139  17.352  0.0483  0.8470 -0.5769
  316TMC3    C8 4758   3.194   2.903   0.027  0.0911  0.9015 -0.2336
  316TMC3    O1 4759   3.094   3.203  17.368 -0.0665 -0.3908 -0.9120
  316TMC3    O2 4760   3.259   3.007   0.035 -0.2112 -0.7890 -0.4393
  317MPD2     C 4761   4.385   1.407  12.681  0.0874 -0.1366  0.5570
  317MPD2    C1 4762   4.428   1.276  12.654 -0.8114 -0.3598  0.9042
  317MPD2    C2 4763   4.450   1.192  12.757  0.0607 -0.6046 -0.8462
  317MPD2    C3 4764   4.445   1.237  12.887  0.0854  0.0906  0.1345
  317MPD2    C4 4765   4.407   1.363  12.912  0.5264  1.0373 -0.0186
  317MPD2    C5 4766   4.378   1.449  12.808  0.9999  0.1319 -0.2611
  317MPD2     H 4767   4.483   1.089  12.745  0.0106 -0.9251  1.6892
  317MPD2    H1 4768   4.409   1.400  13.014  1.1542  1.6680 -0.2597
  317MPD2    H2 4769   4.353   1.474  12.602  0.1153  0.2612  0.8820
  317MPD2    H3 4770   4.360   1.553  12.835  0.4445  0.5503 -2.2141
  317MPD2     N 4771   4.481   1.144  12.987  0.3068  0.1650 -0.1649
  317MPD2    H5 4772   4.484   1.047  12.955 -0.8644 -0.4662  1.5749
  317MPD2    N1 4773   4.441   1.216  12.523  0.1155  0.3273 -0.0120
  317MPD2    H7 4774   4.479   1.122  12.514  0.5569  0.2223  2.9167
  318TMC3    C1 4775   4.609   1.064  13.166 -0.1896 -0.1346  0.3985
  318TMC3    C2 4776   4.565   0.934  13.151 -0.5724  0.1996  0.1444
  318TMC3    C3 4777   4.643   0.835  13.198  1.1450 -0.1017 -0.0685
  318TMC3    C4 4778   0.000   1.097  13.235  0.4674 -0.1077 -0.0285
  318TMC3    C5 4779   0.069   0.992  13.291 -1.1508  0.2168 -0.1494
  318TMC3    C6 4780   0.027   0.862  13.273  0.2916  0.0289 -1.0656
  318TMC3     C 4781   4.536   1.174  13.107  0.2137 -0.0733  0.2681
  318TMC3     O 4782   4.533   1.285  13.162 -0.6496  0.4469 -0.3445
  318TMC3     H 4783   4.467   0.914  13.108 -1.6136  1.0488  2.1430
  318TMC3    H1 4784   0.039   1.198  13.239 -0.9574  0.5126 -2.0325
  318TMC3    H2 4785   0.089   0.785  13.318 -0.3593  1.3244  2.0197
  318TMC3    C7 4786   0.177   1.018  13.378  0.3644  0.1145 -0.7806
  318TMC3    C8 4787   4.635   0.692  13.165 -0.4518  0.0824  0.2024
  318TMC3    O1 4788   0.157   1.117  13.447  0.2306 -0.0577 -0.3749
  318TMC3    O2 4789   4.707   0.616  13.233 -0.3967 -0.2806  0.2007
  319MPD2     C 4790   1.011   2.434  16.655 -0.7563 -0.2677 -0.2485
  319MPD2    C1 4791   0.929   2.338  16.717 -1.1103  0.0544  0.4670
  319MPD2    C2 4792   0.819   2.282  16.653  0.9351 -0.3992  0.4582
  319MPD2    C3 4793   0.803   2.307  16.521 -0.4351  0.2079 -0.4060
  319MPD2    C4 4794   0.875   2.400  16.460 -0.1892 -0.9083 -0.4995
  319MPD2    C5 4795   0.971   2.465  16.527  0.0352 -0.2338  0.6261
  319MPD2     H 4796   0.763   2.198  16.693 -0.4009  0.3322  0.1517
  319MPD2    H1 4797   0.840   2.439  16.365 -0.8535 -0.3773 -0.0400
  319MPD2    H2 4798   1.092   2.488  16.702 -3.4063  2.3362  1.3409
  319MPD2    H3 4799   1.028   2.542  16.475  1.8761  0.5522  3.7878
  319MPD2     N 4800   0.701   2.249  16.432 -0.3427  0.0146  0.4740
  319MPD2    H5 4801   0.702   2.265  16.332 -2.4821  0.6767  0.5439
  319MPD2    N1 4802   0.934   2.317  16.857 -0.2167  0.5806  0.5720
  319MPD2    H7 4803   0.866   2.255  16.897  1.7118 -0.9923  1.3835
  320TMC3    C1 4804   0.484   2.183  16.389 -0.2516  0.0069 -0.0199
  320TMC3    C2 4805   0.486   2.267  16.281 -0.3610  0.3274 -0.5477
  320TMC3    C3 4806   0.406   2.240  16.179 -0.6836  0.1741  0.3752
  320TMC3    C4 4807   0.400   2.076  16.396 -0.4363  0.1443  1.4361
  320TMC3    C5 4808   0.312   2.063  16.289  0.6329  0.4769 -0.0354
  320TMC3    C6 4809   0.313   2.139  16.176 -0.5890  0.6771 -0.5689
  320TMC3     C 4810   0.585   2.185  16.483  0.0230  0.0772 -0.4650
  320TMC3     O 4811   0.546   2.149  16.595  0.6076 -0.2446  0.5575
  320TMC3     H 4812   0.543   2.359  16.280 -0.9516  0.7087  0.1888
  320TMC3    H1 4813   0.406   2.003  16.476  1.3959  0.0336  1.1982
  320TMC3    H2 4814   0.252   2.111  16.091 -1.3657  1.2066 -0.1943
  320TMC3    C7 4815   0.241   1.935  16.277  0.0380 -0.0662  1.0777
  320TMC3    C8 4816   0.375   2.347  16.086 -0.3934 -0.3188 -0.4252
  320TMC3    O1 4817   0.211   1.898  16.166  0.2776 -0.6887  0.4500
  320TMC3    O2 4818   0.382   2.468  16.120 -0.2793 -0.4883 -0.1551
  321TMC3    C1 4819   1.015   2.312  17.078 -0.0552 -0.5247  0.3542
  321TMC3    C2 4820   0.976   2.182  17.087  0.6411  0.0009 -0.2044
  321TMC3    C3 4821   0.983   2.118  17.209 -0.4591 -0.0983  0.0331
  321TMC3    C4 4822   1.074   2.384  17.178  0.1534  0.2976  0.6472
  321TMC3    C5 4823   1.079   2.316  17.302 -0.1504 -0.1871  0.4652
  321TMC3    C6 4824   1.026   2.195  17.314 -0.4080  0.1171 -0.0327
  321TMC3     C 4825   1.026   2.372  16.942 -1.0124 -0.3394 -0.6178
  321TMC3     O 4826   1.084   2.477  16.933 -0.5538 -0.5018 -0.1295
  321TMC3     H 4827   0.951   2.127  16.997 -0.3556 -1.7293  1.1440
  321TMC3    H1 4828   1.119   2.482  17.166 -1.4358  0.7086 -1.9192
  321TMC3    H2 4829   1.012   2.146  17.409  2.1816  2.8288  1.7268
  321TMC3    C7 4830   1.215   2.312  17.365 -0.0424 -0.9337 -0.2459
  321TMC3    C8 4831   1.021   1.980  17.212 -0.0752  0.1268 -0.1700
  321TMC3    O1 4832   1.240   2.211  17.432 -0.0959  0.3298 -0.0473
  321TMC3    O2 4833   0.972   1.895  17.136  0.0789 -0.4564 -0.2926
  322MPD2     C 4834   4.563   3.338  13.340  0.9760 -0.3746  0.1463
  322MPD2    C1 4835   4.455   3.289  13.409  0.1087 -0.1865 -0.4823
  322MPD2    C2 4836   4.387   3.188  13.345  0.1687  0.0556 -0.4050
  322MPD2    C3 4837   4.419   3.128  13.222  0.4137 -0.2768 -0.7040
  322MPD2    C4 4838   4.525   3.186  13.157 -0.4278 -0.5103  0.0941
  322MPD2    C5 4839   4.601   3.283  13.218  0.0098 -0.1819 -0.0210
  322MPD2     H 4840   4.303   3.153  13.405  0.8883 -2.2624 -0.7728
  322MPD2    H1 4841   4.569   3.145  13.067  0.5965 -0.4522  0.5684
  322MPD2    H2 4842   4.620   3.418  13.386 -0.0582 -0.4474  1.5681
  322MPD2    H3 4843   4.683   3.327  13.161  0.2659 -1.4544 -0.6454
  322MPD2     N 4844   4.342   3.015  13.185  0.7847 -0.4149 -0.5679
  322MPD2    H5 4845   4.268   2.981  13.245 -0.8442  2.2079 -1.1118
  322MPD2    N1 4846   4.422   3.345  13.533  0.2554 -0.2415 -0.5719
  322MPD2    H7 4847   4.475   3.424  13.568  0.7428 -0.0278 -1.8091
  323TMC3    C1 4848   4.337   3.339  13.762  0.1180 -0.2533 -0.1922
  323TMC3    C2 4849   4.408   3.448  13.793 -1.1162 -0.1033  0.4341
  323TMC3    C3 4850   4.432   3.469  13.930 -0.8630 -0.3327  0.0938
  323TMC3    C4 4851   4.292   3.253  13.861 -0.5884  0.5130 -0.2660
  323TMC3    C5 4852   4.325   3.274  13.993  0.5918 -0.0405  0.3045
  323TMC3    C6 4853   4.400   3.378  14.032 -0.4351 -0.4873  0.3054
  323TMC3     C 4854   4.348   3.278  13.625  0.6509  0.3575 -0.5776
  323TMC3     O 4855   4.301   3.164  13.617 -0.5764 -0.3177 -0.5500
  323TMC3     H 4856   4.442   3.516  13.716 -2.8544  1.2894  0.8926
  323TMC3    H1 4857   4.238   3.162  13.839 -0.0738 -0.3354  2.0871
  323TMC3    H2 4858   4.430   3.395  14.134  0.0577 -0.5185  0.1714
  323TMC3    C7 4859   4.334   3.161  14.080  0.2315  0.2217  0.0224
  323TMC3    C8 4860   4.489   3.595  13.984  0.4531 -0.1076  0.3255
  323TMC3    O1 4861   4.347   3.049  14.030  0.8957 -0.1041 -0.1930
  323TMC3    O2 4862   4.525   3.599  14.100 -0.1537  0.0179 -0.4432
  324MPD2     C 4863   1.406   0.100  14.124  0.2963 -0.0820 -0.2462
  324MPD2    C1 4864   1.495   0.206  14.151  0.2623 -0.1414  1.4399
  324MPD2    C2 4865   1.450   0.318  14.221 -0.5794 -0.1454  0.2513
  324MPD2    C3 4866   1.313   0.321  14.253  0.5659  1.0970 -0.3041
  324MPD2    C4 4867   1.224   0.220  14.223  0.2960 -0.3057  0.7567
  324MPD2    C5 4868   1.274   0.113  14.160  0.3244 -0.1557 -0.6318
  324MPD2     H 4869   1.513   0.397  14.260  1.5549 -2.0805  0.6846
  324MPD2    H1 4870   1.116   0.219  14.239  0.5842  2.6431  2.8621
  324MPD2    H2 4871   1.431   0.012  14.066 -1.3409  0.4574 -1.7833
  324MPD2    H3 4872   1.212   0.034  14.118 -1.0851  1.5084 -1.6538
  324MPD2     N 4873   1.258   0.433  14.324  0.6506 -0.2543 -0.4383
  324MPD2    H5 4874   1.172   0.417  14.376 -0.1565  1.1821 -1.2943
  324MPD2    N1 4875   1.631   0.191  14.125  0.8198  0.2712  0.1954
  324MPD2    H7 4876   1.698   0.261  14.154 -0.2311  0.0039  3.2863
  325TMC3    C1 4877   1.216   0.648  14.402 -0.1622  0.1146 -0.2093
  325TMC3    C2 4878   1.176   0.599  14.521  0.0919  0.5276 -0.4178
  325TMC3    C3 4879   1.090   0.674  14.602 -0.4669  0.1883  0.2104
  325TMC3    C4 4880   1.189   0.781  14.367  0.1082  0.3634 -0.4624
  325TMC3    C5 4881   1.113   0.858  14.449 -0.8266  0.2332  0.3123
  325TMC3    C6 4882   1.069   0.808  14.570  0.3614 -0.7941  0.5011
  325TMC3     C 4883   1.304   0.564  14.322  0.2452 -0.3408  0.2310
  325TMC3     O 4884   1.390   0.607  14.244 -0.7280 -0.2712 -0.6171
  325TMC3     H 4885   1.214   0.501  14.549 -1.3293 -0.0507 -0.5198
  325TMC3    H1 4886   1.201   0.813  14.265 -1.2888  1.7271 -0.1927
  325TMC3    H2 4887   1.017   0.869  14.643  1.4075  2.4140 -1.4450
  325TMC3    C7 4888   1.022   0.955  14.392  0.1189 -0.2619  0.8020
  325TMC3    C8 4889   0.989   0.600  14.659 -0.1709 -0.1331  0.0164
  325TMC3    O1 4890   1.050   1.005  14.283  0.4244  0.0819  0.1817
  325TMC3    O2 4891   0.984   0.481  14.630  0.6862  0.1049 -0.1710
  326MPD2     C 4892   2.225   0.891  11.219 -0.4605 -0.3629  0.5409
  326MPD2    C1 4893   2.297   0.834  11.118 -0.5241 -0.6046  0.3892
  326MPD2    C2 4894   2.409   0.897  11.079  0.1930 -0.4694  0.0722
  326MPD2    C3 4895   2.430   1.026  11.127  0.3234  0.5916 -0.6767
  326MPD2    C4 4896   2.357   1.084  11.223  0.3587  0.0763  0.8165
  326MPD2    C5 4897   2.243   1.018  11.264  0.2964  0.0207  0.1192
  326MPD2     H 4898   2.467   0.845  11.004  0.1231 -0.3675 -0.0540
  326MPD2    H1 4899   2.368   1.190  11.242  0.4044  0.3252 -0.6175
  326MPD2    H2 4900   2.146   0.833  11.265 -0.1216 -3.2628 -2.5432
  326MPD2    H3 4901   2.165   1.070  11.319  0.5095 -1.3021  1.6737
  326MPD2     N 4902   2.556   1.087  11.105 -0.6991  0.5431 -0.2511
  326MPD2    H5 4903   2.580   1.161  11.170 -2.4253  1.3117 -0.4582
  326MPD2    N1 4904   2.261   0.709  11.060 -0.7811 -0.7911  0.4784
  326MPD2    H7 4905   2.323   0.665  10.993  1.3331  0.5336  1.5645
  327TMC3    C1 4906   2.146   0.519  10.978  0.0578 -0.2430  1.0815
  327TMC3    C2 4907   2.039   0.516  10.892  0.1946 -0.0177  0.2012
  327TMC3    C3 4908   2.067   0.483  10.760  0.2695 -0.6149 -0.6993
  327TMC3    C4 4909   2.272   0.500  10.937  0.3590  0.0462 -0.0469
  327TMC3    C5 4910   2.295   0.494  10.800 -0.2209 -0.0695 -0.1324
  327TMC3    C6 4911   2.194   0.477  10.709  0.2938 -0.1217 -0.7346
  327TMC3     C 4912   2.135   0.643  11.061  0.4348 -0.0536  0.2689
  327TMC3     O 4913   2.025   0.698  11.076 -0.6342  0.3615  0.2175
  327TMC3     H 4914   1.938   0.533  10.927  0.1315 -0.1340  0.0756
  327TMC3    H1 4915   2.351   0.475  11.007  0.0784  0.6431  0.4881
  327TMC3    H2 4916   2.220   0.475  10.603 -3.0059  0.2090 -1.5379
  327TMC3    C7 4917   2.413   0.557  10.745 -0.2805  0.0571  0.2659
  327TMC3    C8 4918   1.955   0.516  10.674  0.6757  0.8032  0.0148
  327TMC3    O1 4919   2.400   0.651  10.668 -0.0356 -0.4270 -0.1518
  327TMC3    O2 4920   1.976   0.567  10.567  0.4286 -0.6014 -0.7525
  328MPD2     C 4921   0.331   0.552  17.314  0.1096 -0.1068  0.1900
  328MPD2    C1 4922   0.200   0.544  17.262  0.7447 -0.0226  0.0117
  328MPD2    C2 4923   0.157   0.647  17.182  0.5019  0.3269 -0.0015
  328MPD2    C3 4924   0.225   0.759  17.152 -0.2104 -0.9101  0.5140
  328MPD2    C4 4925   0.343   0.778  17.220 -0.3704  0.4243  0.6748
  328MPD2    C5 4926   0.394   0.674  17.293 -0.4639 -0.6070  0.2904
  328MPD2     H 4927   0.054   0.638  17.147  0.2703  3.3300 -0.1077
  328MPD2    H1 4928   0.406   0.861  17.192  1.3840 -0.8190  0.9560
  328MPD2    H2 4929   0.381   0.482  17.381  1.0679  0.2496 -0.1546
  328MPD2    H3 4930   0.490   0.686  17.342 -1.3157  3.2639  0.9819
  328MPD2     N 4931   0.170   0.860  17.070 -0.2116  0.6443 -0.5249
  328MPD2    H5 4932   0.199   0.955  17.086  0.7081  0.3750 -0.5934
  328MPD2    N1 4933   0.121   0.425  17.284  0.1071 -0.3663 -0.1600
  328MPD2    H7 4934   0.170   0.346  17.324  2.0761  1.0306  0.2182
  329TMC3    C1 4935   4.663   0.280  17.245  0.3717  0.5560  0.0189
  329TMC3    C2 4936   4.538   0.281  17.194 -0.2367  0.5735 -0.2234
  329TMC3    C3 4937   4.511   0.175  17.106 -0.1724 -0.1141  0.6785
  329TMC3    C4 4938   0.030   0.180  17.210  0.0848  0.1447  0.3196
  329TMC3    C5 4939   0.003   0.096  17.108  0.0953  0.1453 -0.1209
  329TMC3    C6 4940   4.602   0.090  17.056  0.4686  0.2075 -1.2100
  329TMC3     C 4941   4.715   0.419  17.263 -0.6868  0.7061  0.2491
  329TMC3     O 4942   4.631   0.508  17.235  0.1554 -0.4363  0.1081
  329TMC3     H 4943   4.470   0.357  17.230 -2.7559 -1.6747 -0.2841
  329TMC3    H1 4944   0.133   0.182  17.243  0.0556 -0.7528  0.4851
  329TMC3    H2 4945   4.565   0.011  16.992  1.7455 -0.8153 -0.6819
  329TMC3    C7 4946   0.075   4.703  17.105  0.3776  0.0901  0.8083
  329TMC3    C8 4947   4.371   0.172  17.063 -0.3285 -0.4594  0.3888
  329TMC3    O1 4948   0.118   4.668  17.215  0.4032 -0.2738 -0.2810
  329TMC3    O2 4949   4.349   0.100  16.966  0.4664 -0.1280  0.2610
  330TMC3    C1 4950   3.032   4.467   9.643 -0.2954 -0.3606  0.7485
  330TMC3    C2 4951   3.022   4.367   9.551  0.0859  0.4920 -0.7311
  330TMC3    C3 4952   3.091   4.254   9.573 -0.7331 -0.3566 -0.5094
  330TMC3    C4 4953   3.113   4.457   9.752  0.3188  0.1368  0.1187
  330TMC3    C5 4954   3.198   4.352   9.759 -0.1086  0.2397 -0.0743
  330TMC3    C6 4955   3.195   4.247   9.669 -0.0555  0.1667 -0.2218
  330TMC3     C 4956   2.924   4.565   9.671 -0.1586 -1.0650  0.0147
  330TMC3     O 4957   2.952   4.663   9.739  0.2383  0.1995 -0.4492
  330TMC3     H 4958   2.952   4.361   9.468 -0.0966 -3.3515 -0.3067
  330TMC3    H1 4959   3.117   4.545   9.816  0.2969  1.1738 -1.3005
  330TMC3    H2 4960   3.267   4.167   9.664 -0.2949 -0.0974  0.5578
  330TMC3    C7 4961   3.299   4.343   9.861 -0.6995 -0.0337  0.5374
  330TMC3    C8 4962   3.088   4.147   9.473 -0.2007  0.1516 -0.7917
  330TMC3    O1 4963   3.366   4.446   9.890  0.5772  0.0726  0.0873
  330TMC3    O2 4964   3.071   4.182   9.360  0.1047 -0.0110 -0.0381
  331MPD2     C 4965   1.060   4.075  12.829  0.4082  0.2232 -0.2238
  331MPD2    C1 4966   1.019   4.095  12.696  0.5404  0.0438  0.3615
  331MPD2    C2 4967   1.065   4.008  12.604 -0.1045 -0.6092 -0.3413
  331MPD2    C3 4968   1.151   3.898  12.630  0.5366  0.3094 -0.3831
  331MPD2    C4 4969   1.195   3.888  12.761 -0.4501 -0.4465 -0.0153
  331MPD2    C5 4970   1.150   3.970  12.858  0.0785  0.1643  0.0193
  331MPD2     H 4971   1.023   4.015  12.505 -1.4610  1.3637  0.3703
  331MPD2    H1 4972   1.264   3.809  12.790  1.9549  1.7950  0.4695
  331MPD2    H2 4973   1.031   4.149  12.903 -0.7469 -1.9780  1.5083
  331MPD2    H3 4974   1.187   3.959  12.959 -0.4377  1.3130  0.3329
  331MPD2     N 4975   1.190   3.812  12.526  0.5449  0.1624 -0.2411
  331MPD2    H5 4976   1.135   3.824  12.441  1.0058  0.6978 -0.4581
  331MPD2    N1 4977   0.945   4.206  12.659 -0.2424  0.1089  0.1409
  331MPD2    H7 4978   0.963   4.287  12.717 -1.6426  0.6985 -0.2370
  332TMC3    C1 4979   1.307   3.666  12.395  0.1029  0.0356 -0.2533
  332TMC3    C2 4980   1.317   3.760  12.302  1.5726 -0.4703  0.1833
  332TMC3    C3 4981   1.352   3.729  12.177 -0.9798 -0.2023  0.3437
  332TMC3    C4 4982   1.350   3.539  12.368 -0.5267  0.6457 -0.2185
  332TMC3    C5 4983   1.397   3.507  12.248  0.2816  1.3357  0.4655
  332TMC3    C6 4984   1.384   3.598  12.141 -0.2694 -0.4523 -0.1420
  332TMC3     C 4985   1.262   3.699  12.529  0.2452  0.3542  0.0850
  332TMC3     O 4986   1.323   3.645  12.620  0.4496  0.3044 -0.3347
  332TMC3     H 4987   1.284   3.862  12.320 -1.5240 -1.3851 -0.3451
  332TMC3    H1 4988   1.347   3.462  12.443  1.4275 -1.7528 -2.6097
  332TMC3    H2 4989   1.432   3.571  12.048  0.1900  0.6926 -0.2364
  332TMC3    C7 4990   1.503   3.406  12.251  0.1445 -0.3916  0.4829
  332TMC3    C8 4991   1.401   3.835  12.100 -0.2416 -0.5246 -0.3951
  332TMC3    O1 4992   1.487   3.295  12.296  0.4661  0.1536  0.2244
  332TMC3    O2 4993   1.412   3.944  12.148  0.3742 -0.1034  0.0217
  333MPD2     C 4994   1.132   4.176  11.497 -0.6000  0.6448 -0.4780
  333MPD2    C1 4995   1.208   4.087  11.412  0.7125  0.6489  0.1371
  333MPD2    C2 4996   1.206   3.953  11.443 -0.1391  0.0694 -0.1682
  333MPD2    C3 4997   1.136   3.907  11.552  0.4163 -0.1617  0.9069
  333MPD2    C4 4998   1.073   3.990  11.641  0.3578  0.3381 -0.2877
  333MPD2    C5 4999   1.069   4.124  11.609 -0.0778  0.3194  0.0350
  333MPD2     H 5000   1.263   3.878  11.390  2.4012 -0.7795  3.7392
  333MPD2    H1 5001   1.017   3.949  11.724 -2.7686  2.6212 -1.2668
  333MPD2    H2 5002   1.127   4.284  11.486  2.5508  0.7410 -0.7043
  333MPD2    H3 5003   1.013   4.192  11.671 -1.2565 -1.3279  0.7803
  333MPD2     N 5004   1.136   3.766  11.575  0.0272 -0.3962 -0.5832
  333MPD2    H5 5005   1.182   3.709  11.505  2.3269  1.5349 -0.6424
  333MPD2    N1 5006   1.287   4.141  11.310 -0.2810  0.6141 -0.7245
  333MPD2    H7 5007   1.303   4.242  11.312  0.2684  0.5091  0.4907
  334TMC3    C1 5008   1.442   4.142  11.135 -0.4160  0.7490  0.1906
  334TMC3    C2 5009   1.479   4.094  11.012 -0.5684  0.6895 -0.3553
  334TMC3    C3 5010   1.556   4.171  10.926  0.1844  0.1221 -0.1788
  334TMC3    C4 5011   1.482   4.271  11.170  0.8537 -0.6809 -0.1631
  334TMC3    C5 5012   1.558   4.342  11.081  0.0886  0.3645  0.0940
  334TMC3    C6 5013   1.596   4.297  10.957  0.3212 -0.2043 -0.0326
  334TMC3     C 5014   1.353   4.065  11.218  0.3123  0.2931  0.7155
  334TMC3     O 5015   1.344   3.946  11.184  0.2648 -0.1604  0.1867
  334TMC3     H 5016   1.460   3.989  10.990  2.7236  0.3682 -1.7451
  334TMC3    H1 5017   1.465   4.304  11.272 -2.4085  2.1187 -1.6140
  334TMC3    H2 5018   1.642   4.362  10.884 -0.9368  0.3882 -0.2970
  334TMC3    C7 5019   1.561   4.484  11.100  0.3348  0.0978  0.4312
  334TMC3    C8 5020   1.641   4.098  10.836 -0.4058 -0.4534 -0.2907
  334TMC3    O1 5021   1.515   4.547  11.008  0.0706  0.0244  0.4444
  334TMC3    O2 5022   1.605   3.991  10.791 -0.1491  0.4332 -0.2239
  335TMC3    C1 5023   0.742   1.056  17.253 -0.1113  0.4216 -0.6815
  335TMC3    C2 5024   0.675   1.060  17.136 -0.4544  0.2605 -0.1342
  335TMC3    C3 5025   0.747   1.061  17.021 -0.3682 -0.0909 -0.6966
  335TMC3    C4 5026   0.878   1.047  17.268 -0.0350  0.1567 -0.4871
  335TMC3    C5 5027   0.951   1.039  17.149 -0.7163  0.0865 -0.4232
  335TMC3    C6 5028   0.889   1.044  17.025 -0.4193 -0.0850  0.3779
  335TMC3     C 5029   0.648   1.043  17.362 -0.6328  0.1922  0.4182
  335TMC3     O 5030   0.532   1.021  17.329  0.2098  0.5787  0.5437
  335TMC3     H 5031   0.569   1.083  17.124 -0.9285 -1.2874  1.0369
  335TMC3    H1 5032   0.914   1.012  17.364 -0.3630 -0.8759 -0.7478
  335TMC3    H2 5033   0.938   1.036  16.929  1.2898  1.2368  1.1613
  335TMC3    C7 5034   1.088   1.017  17.154  0.6837 -0.0164 -0.1968
  335TMC3    C8 5035   0.697   0.955  16.935 -0.9587  0.0529 -0.1246
  335TMC3    O1 5036   1.139   0.963  17.056  0.3373 -0.3664 -0.6738
  335TMC3    O2 5037   0.766   0.853  16.931 -0.0867 -0.0039 -0.2235
  336MPD2     C 5038   0.550   3.355  15.974  0.6528 -0.4961 -0.4652
  336MPD2    C1 5039   0.491   3.296  15.863  0.2966 -0.5317 -0.3041
  336MPD2    C2 5040   0.493   3.155  15.844  0.1954  0.5471  0.9193
  336MPD2    C3 5041   0.562   3.075  15.936  0.1532 -0.4081 -0.6102
  336MPD2    C4 5042   0.619   3.138  16.042 -0.0007  0.9045  0.8412
  336MPD2    C5 5043   0.629   3.272  16.043  0.0611 -0.3944 -0.1463
  336MPD2     H 5044   0.443   3.109  15.760 -0.5947  1.8168  0.6878
  336MPD2    H1 5045   0.665   3.079  16.121 -0.1563  0.2064  0.4165
  336MPD2    H2 5046   0.542   3.458  16.007  0.1495 -0.7178  0.1041
  336MPD2    H3 5047   0.684   3.316  16.126  0.9408 -0.5468 -0.6519
  336MPD2     N 5048   0.584   2.936  15.926  0.2953 -0.1839  0.0857
  336MPD2    H5 5049   0.635   2.887  15.999  1.1607  0.6535  0.0376
  336MPD2    N1 5050   0.408   3.363  15.771 -0.1260  0.2790 -0.0272
  336MPD2    H7 5051   0.358   3.309  15.702 -2.3630  1.2092  0.8869
  337TMC3    C1 5052   0.316   3.536  15.647 -0.2573  0.0284 -0.4306
  337TMC3    C2 5053   0.208   3.455  15.624 -0.2100  0.7143  0.2159
  337TMC3    C3 5054   0.121   3.493  15.520 -0.8084 -0.3907 -0.4692
  337TMC3    C4 5055   0.327   3.660  15.587 -0.6726 -0.3596 -1.0709
  337TMC3    C5 5056   0.236   3.703  15.493 -0.7747  0.4756  0.4056
  337TMC3    C6 5057   0.134   3.618  15.452  0.1933  0.6093 -0.0248
  337TMC3     C 5058   0.398   3.498  15.763  0.0371 -0.4625  0.3509
  337TMC3     O 5059   0.471   3.579  15.819 -0.0265 -0.2962  0.0717
  337TMC3     H 5060   0.188   3.363  15.679 -0.8960 -0.2662 -1.6612
  337TMC3    H1 5061   0.410   3.726  15.609  0.2222 -1.1620 -2.1085
  337TMC3    H2 5062   0.054   3.650  15.386  0.8059  1.3302 -0.4235
  337TMC3    C7 5063   0.246   3.838  15.440 -0.6355 -0.0539  0.3561
  337TMC3    C8 5064   4.720   3.414  15.519  0.3957 -0.3227  0.2313
  337TMC3    O1 5065   0.275   3.924  15.519  0.4161 -0.2048  0.1064
  337TMC3    O2 5066   4.701   3.350  15.620  0.0366 -0.0557  0.2707
  338MPD2     C 5067   1.659   3.095   0.773  0.1858 -0.0434 -0.0096
  338MPD2    C1 5068   1.588   2.986   0.823  0.8100  0.3762  0.1177
  338MPD2    C2 5069   1.521   2.991   0.941  1.3092 -0.0898 -0.1394
  338MPD2    C3 5070   1.524   3.110   1.015  0.2638  0.4181  0.2194
  338MPD2    C4 5071   1.596   3.217   0.967  0.3601 -0.6294  0.4326
  338MPD2    C5 5072   1.665   3.210   0.849  0.4175 -0.4437  0.1946
  338MPD2     H 5073   1.454   2.910   0.969  3.8562 -2.9130 -2.2637
  338MPD2    H1 5074   1.607   3.307   1.026 -1.5735 -0.8528  1.1331
  338MPD2    H2 5075   1.715   3.088   0.680 -1.3125  1.6682 -1.0526
  338MPD2    H3 5076   1.719   3.296   0.812 -0.8245  0.1868 -0.1378
  338MPD2     N 5077   1.434   3.134   1.122 -0.1208  0.3809 -0.0796
  338MPD2    H5 5078   1.430   3.226   1.164 -0.7207  1.2844 -2.0789
  338MPD2    N1 5079   1.559   2.876   0.733 -0.3336 -0.1113 -0.2816
  338MPD2    H7 5080   1.503   2.797   0.763  1.0475 -0.6572  0.8370
  339TMC3    C1 5081   1.236   3.088   1.249  0.0221 -0.4894  0.2013
  339TMC3    C2 5082   1.168   3.006   1.335 -0.2033 -0.0635  0.3603
  339TMC3    C3 5083   1.037   3.002   1.329 -0.0971 -0.1343  0.9837
  339TMC3    C4 5084   1.169   3.180   1.167 -0.4857 -0.3178 -0.2371
  339TMC3    C5 5085   1.029   3.176   1.165 -0.3329 -0.0910  0.2727
  339TMC3    C6 5086   0.966   3.082   1.244 -0.2038  0.4648  0.5530
  339TMC3     C 5087   1.356   3.032   1.184  0.1227  0.5512  0.7244
  339TMC3     O 5088   1.360   2.908   1.167  0.6349 -0.7006 -0.1000
  339TMC3     H 5089   1.230   2.929   1.379 -1.4698 -0.7364  0.9713
  339TMC3    H1 5090   1.225   3.250   1.106 -2.3007 -0.4883 -2.0844
  339TMC3    H2 5091   0.859   3.066   1.245  0.0230 -0.9828  0.2664
  339TMC3    C7 5092   0.966   3.242   1.059  0.1590 -0.2010  0.0252
  339TMC3    C8 5093   0.966   2.938   1.442 -0.7287 -0.3861 -0.4027
  339TMC3    O1 5094   1.038   3.309   0.990  0.3694  0.1872  0.4783
  339TMC3    O2 5095   1.039   2.865   1.508  0.7282 -0.2057 -0.3276
  340MPD2     C 5096   0.912   0.221   9.566 -0.1105 -0.3887  0.3454
  340MPD2    C1 5097   1.003   0.127   9.607 -0.4806 -0.4897 -0.4338
  340MPD2    C2 5098   1.096   0.158   9.711  0.1524 -0.4910  0.0138
  340MPD2    C3 5099   1.084   0.284   9.776 -0.5141 -0.1331  0.5445
  340MPD2    C4 5100   0.998   0.385   9.729  0.7142 -0.6799 -0.0694
  340MPD2    C5 5101   0.910   0.348   9.625  0.2079  0.7194  0.3721
  340MPD2     H 5102   1.173   0.086   9.735 -0.9523 -1.4923  0.5795
  340MPD2    H1 5103   0.976   0.481   9.773 -0.9305 -2.0455  2.0893
  340MPD2    H2 5104   0.835   0.190   9.497 -0.6740  1.9727 -0.1003
  340MPD2    H3 5105   0.838   0.419   9.586  0.1313  1.3191  1.5754
  340MPD2     N 5106   1.174   0.319   9.877 -0.0633  0.1521 -0.0818
  340MPD2    H5 5107   1.196   0.416   9.896 -1.3662  0.7786 -1.6729
  340MPD2    N1 5108   0.998   0.005   9.537  0.0099 -0.3253 -0.3752
  340MPD2    H7 5109   0.920   4.708   9.475  0.8682 -0.8144 -1.2767
  341TMC3    C1 5110   1.052   4.520   9.476  0.2273  0.2865 -0.1487
  341TMC3    C2 5111   0.925   4.476   9.462  0.6836  0.6648  0.3033
  341TMC3    C3 5112   0.912   4.348   9.413 -0.2054  0.2768  0.4698
  341TMC3    C4 5113   1.163   4.454   9.431  0.1183  0.5819  0.3386
  341TMC3    C5 5114   1.143   4.325   9.381  0.6056 -0.6992 -0.1130
  341TMC3    C6 5115   1.018   4.273   9.368 -0.6510  0.1795  0.2693
  341TMC3     C 5116   1.093   4.635   9.555  0.1818 -0.1417  0.4252
  341TMC3     O 5117   1.207   4.642   9.597 -0.2514  0.3543  0.0042
  341TMC3     H 5118   0.847   4.538   9.505  0.9229  0.1515  1.4661
  341TMC3    H1 5119   1.263   4.487   9.455  0.0767  1.3159 -0.4935
  341TMC3    H2 5120   1.004   4.169   9.340 -2.3148  0.1735  1.1393
  341TMC3    C7 5121   1.256   4.239   9.353 -0.1990 -0.8667  0.9270
  341TMC3    C8 5122   0.788   4.273   9.429 -0.0122  0.4826  0.1180
  341TMC3    O1 5123   1.343   4.230   9.444  0.4656  0.1093 -0.0287
  341TMC3    O2 5124   0.773   4.177   9.356 -0.0535 -0.1499 -0.8053
  342MPD2     C 5125   3.521   3.734  16.703 -0.8156 -0.1994  0.3082
  342MPD2    C1 5126   3.528   3.705  16.836 -0.6066 -0.1860  0.5736
  342MPD2    C2 5127   3.479   3.799  16.923 -0.6908  0.7386  0.1299
  342MPD2    C3 5128   3.422   3.915  16.870 -1.1036 -0.0311  0.3281
  342MPD2    C4 5129   3.411   3.933  16.737  0.1958  0.4013  1.0515
  342MPD2    C5 5130   3.464   3.845  16.653 -0.2078 -0.2485 -0.0283
  342MPD2     H 5131   3.479   3.786  17.030 -0.1112 -1.1047 -0.0782
  342MPD2    H1 5132   3.366   4.023  16.696 -1.0959 -0.7440 -0.0473
  342MPD2    H2 5133   3.567   3.662  16.635  0.1284  1.5194 -0.8763
  342MPD2    H3 5134   3.459   3.859  16.545 -0.5121 -1.8120 -0.2162
  342MPD2     N 5135   3.374   4.025  16.941  0.6716  0.0228 -0.2971
  342MPD2    H5 5136   3.362   4.115  16.896  2.8208 -0.1821 -1.2465
  342MPD2    N1 5137   3.586   3.584  16.881 -0.4489  0.2104 -0.0543
  342MPD2    H7 5138   3.604   3.577  16.981  3.8893 -2.2895 -1.0048
  343TMC3    C1 5139   3.664   3.370  16.883 -0.3955  0.2216  0.1136
  343TMC3    C2 5140   3.781   3.407  16.942  0.3055  0.4768 -0.3690
  343TMC3    C3 5141   3.857   3.298  16.992 -0.1249 -0.4030 -0.4841
  343TMC3    C4 5142   3.613   3.253  16.878 -0.2746  0.3731  0.1868
  343TMC3    C5 5143   3.677   3.151  16.946  0.0886 -0.0505 -0.2705
  343TMC3    C6 5144   3.805   3.170  16.992  0.4856  0.3584  0.9811
  343TMC3     C 5145   3.599   3.472  16.808 -0.5024 -0.6556 -0.0863
  343TMC3     O 5146   3.570   3.446  16.690 -0.4806 -0.3233  0.4182
  343TMC3     H 5147   3.811   3.511  16.928 -1.5248  0.8538 -1.5767
  343TMC3    H1 5148   3.508   3.240  16.854 -0.0933  1.3717 -1.1306
  343TMC3    H2 5149   3.859   3.083  17.026  1.1564 -0.7224 -2.8834
  343TMC3    C7 5150   3.605   3.033  16.992 -0.5730  0.2040 -0.5249
  343TMC3    C8 5151   3.999   3.315  17.011  0.3398 -0.5502  0.1559
  343TMC3    O1 5152   3.497   3.011  16.937  0.3689  0.3203 -0.2817
  343TMC3    O2 5153   4.038   3.428  17.045  0.9438  0.2864 -0.0274
  344MPD2     C 5154   4.518   3.353  10.564  0.6894 -0.2688 -0.4883
  344MPD2    C1 5155   4.427   3.347  10.469  0.4566 -0.0074 -0.3961
  344MPD2    C2 5156   4.455   3.389  10.337 -0.1996  0.1055  0.1245
  344MPD2    C3 5157   4.579   3.441  10.310  0.8065  0.0741 -0.1351
  344MPD2    C4 5158   4.675   3.454  10.408 -0.9533 -0.4015 -0.3747
  344MPD2    C5 5159   4.640   3.408  10.533  0.5122  0.5419 -0.1131
  344MPD2     H 5160   4.376   3.377  10.264 -0.7873  1.3325  0.5646
  344MPD2    H1 5161   0.050   3.497  10.392 -1.5140  0.1143 -2.5730
  344MPD2    H2 5162   4.498   3.326  10.667 -1.1341 -2.7650 -1.4882
  344MPD2    H3 5163   4.717   3.404  10.609  0.1964  1.7797  0.2679
  344MPD2     N 5164   4.617   3.475  10.176  0.4564  0.2397 -0.6286
  344MPD2    H5 5165   4.700   3.533  10.169  0.3364  0.5166  0.3362
  344MPD2    N1 5166   4.295   3.299  10.494  0.4223 -0.5637 -0.3169
  344MPD2    H7 5167   4.239   3.254  10.423 -0.5622 -1.1242  0.8198
  345TMC3    C1 5168   4.616   3.508   9.954  0.2772  0.1027  0.4439
  345TMC3    C2 5169   0.028   3.519   9.974 -0.5038 -0.4374 -0.0189
  345TMC3    C3 5170   0.093   3.626   9.915 -0.2146 -0.5565  0.2570
  345TMC3    C4 5171   4.547   3.587   9.858 -0.3024  0.1384  0.3633
  345TMC3    C5 5172   4.622   3.686   9.797  0.2832 -0.3203 -0.0831
  345TMC3    C6 5173   0.030   3.702   9.822  0.2464  0.0639  0.6642
  345TMC3     C 5174   4.541   3.459  10.064  0.1870 -0.9174  0.9095
  345TMC3     O 5175   4.424   3.435  10.049  0.7980  0.0660 -0.3557
  345TMC3     H 5176   0.096   3.462  10.036  1.1246  1.3401 -0.1670
  345TMC3    H1 5177   4.440   3.570   9.851 -0.0502 -1.1720 -0.1876
  345TMC3    H2 5178   0.079   3.792   9.787  1.3711 -1.0701 -0.6777
  345TMC3    C7 5179   4.562   3.763   9.684  0.3845  1.3681  0.9130
  345TMC3    C8 5180   0.133   3.714  10.028  0.1820 -0.3211 -0.1642
  345TMC3    O1 5181   4.628   3.859   9.644 -0.1905  0.5389  0.2068
  345TMC3    O2 5182   0.099   3.671  10.136 -0.4772  0.1395 -0.0744
  346MPD2     C 5183   4.664   0.268  14.125 -0.4302  0.1628  0.2821
  346MPD2    C1 5184   4.622   0.386  14.076 -0.7723 -1.4341 -0.0255
  346MPD2    C2 5185   4.620   0.495  14.160 -0.5379 -0.5339 -0.2937
  346MPD2    C3 5186   4.647   0.478  14.299  0.1549 -0.0437 -0.1737
  346MPD2    C4 5187   4.694   0.358  14.347 -0.1127 -0.0483 -0.2009
  346MPD2    C5 5188   4.697   0.254  14.255 -0.7169 -0.0837  0.1213
  346MPD2     H 5189   4.597   0.592  14.118 -0.6901 -1.0497 -1.3850
  346MPD2    H1 5190   4.702   0.331  14.452 -3.0044  1.8048  0.4993
  346MPD2    H2 5191   4.655   0.177  14.067 -2.1221  0.4944  0.0096
  346MPD2    H3 5192   4.723   0.158  14.299 -2.1759 -0.5577 -0.0495
  346MPD2     N 5193   4.644   0.602  14.369 -1.1444 -0.0176 -0.1962
  346MPD2    H5 5194   4.637   0.691  14.322  0.9538 -1.1239 -2.6661
  346MPD2    N1 5195   4.589   0.386  13.937 -0.1858  0.0652  0.5135
  346MPD2    H7 5196   4.608   0.300  13.886  1.6031  0.6147  0.2569
  347TMC3    C1 5197   4.703   0.735  14.563 -0.9921  0.0004  0.6817
  347TMC3    C2 5198   0.058   0.812  14.479 -0.0711 -0.4196 -0.3506
  347TMC3    C3 5199   0.179   0.859  14.520  0.5088 -0.7818  0.4784
  347TMC3    C4 5200   0.009   0.731  14.697  0.6334  0.3020  0.2459
  347TMC3    C5 5201   0.121   0.804  14.743  0.5036 -0.8653  0.2729
  347TMC3    C6 5202   0.214   0.856  14.655 -0.8045  0.6808  0.1889
  347TMC3     C 5203   4.650   0.611  14.510 -0.0708  0.3585 -0.0740
  347TMC3     O 5204   4.644   0.522  14.592 -0.1640  0.6316 -0.1788
  347TMC3     H 5205   0.047   0.810  14.371 -0.3644 -1.0449 -0.3153
  347TMC3    H1 5206   4.679   0.665  14.764  0.2628  1.3232  0.9549
  347TMC3    H2 5207   0.303   0.906  14.690 -1.6195  0.9473  1.8476
  347TMC3    C7 5208   0.136   0.835  14.881  0.1432 -0.1349 -0.9390
  347TMC3    C8 5209   0.281   0.905  14.420  0.3193 -0.3589 -0.3198
  347TMC3    O1 5210   0.249   0.872  14.915 -0.2234 -0.1833 -0.0863
  347TMC3    O2 5211   0.233   0.930  14.310 -0.1117 -0.0233  0.0072
  348MPD2     C 5212   3.149   4.585  12.147  0.2560 -0.1083  0.0259
  348MPD2    C1 5213   3.290   4.577  12.138  0.5946  0.1248  0.2287
  348MPD2    C2 5214   3.346   4.627  12.027  0.5278 -0.6601  0.1125
  348MPD2    C3 5215   3.281   4.696  11.931  0.5600 -0.0725  0.3478
  348MPD2    C4 5216   3.146   4.711  11.942  0.1853 -0.0752  0.2603
  348MPD2    C5 5217   3.083   4.646  12.043  0.0911  0.2622 -0.3331
  348MPD2     H 5218   3.453   4.609  12.014  0.9194  1.7906 -0.0346
  348MPD2    H1 5219   3.090   0.043  11.868  0.2323 -1.0365 -0.5105
  348MPD2    H2 5220   3.095   4.553  12.236 -0.5730 -0.8381 -0.7277
  348MPD2    H3 5221   2.976   4.643  12.056  0.3439 -0.6207  1.6362
  348MPD2     N 5222   3.350   0.010  11.804  0.1001  0.4218 -0.4110
  348MPD2    H5 5223   3.452   0.005  11.806  0.2293  2.9685 -0.5066
  348MPD2    N1 5224   3.380   4.524  12.224  0.3700 -0.0117 -0.2672
  348MPD2    H7 5225   3.474   4.510  12.190  0.2968 -0.6320 -0.2093
  349TMC3    C1 5226   3.474   4.413  12.393 -0.0289 -0.2682  0.4365
  349TMC3    C2 5227   3.442   4.293  12.436 -0.0951 -0.9050  0.8759
  349TMC3    C3 5228   3.527   4.188  12.405 -0.5182  0.2841  0.4258
  349TMC3    C4 5229   3.594   4.438  12.331  0.2209 -0.2469  0.2644
  349TMC3    C5 5230   3.673   4.330  12.299  0.2006 -0.9550 -0.2936
  349TMC3    C6 5231   3.639   4.207  12.336  0.7419  0.0769  0.5302
  349TMC3     C 5232   3.358   4.489  12.353  0.0674  0.4059  0.4040
  349TMC3     O 5233   3.248   4.480  12.408 -0.5155  0.3829  0.5205
  349TMC3     H 5234   3.346   4.288  12.486  0.9243  0.7741  3.0201
  349TMC3    H1 5235   3.612   4.543  12.306  0.5817  0.3504  3.0346
  349TMC3    H2 5236   3.697   4.120  12.307 -0.0634  0.4070 -2.1481
  349TMC3    C7 5237   3.697   4.322  12.158  0.6984 -0.0751 -0.2414
  349TMC3    C8 5238   3.482   4.049  12.426  0.1916  0.7577 -0.0331
  349TMC3    O1 5239   3.686   4.214  12.107  0.5904 -0.4629 -0.3783
  349TMC3    O2 5240   3.571   3.967  12.426 -0.9283  0.3501  0.4029
  350MPD2     C 5241   1.851   2.266  10.103  0.1764 -0.4769  0.1177
  350MPD2    C1 5242   1.970   2.198  10.092  0.5913  0.4467  0.8648
  350MPD2    C2 5243   2.084   2.261  10.126 -0.2297 -0.1175 -0.0100
  350MPD2    C3 5244   2.090   2.393  10.166  0.2180 -1.1362 -0.4504
  350MPD2    C4 5245   1.967   2.455  10.174 -0.4579  0.2153 -0.5454
  350MPD2    C5 5246   1.850   2.396  10.128 -0.6106  0.2040 -1.1334
  350MPD2     H 5247   2.177   2.206  10.122  0.0376  0.2289  1.2249
  350MPD2    H1 5248   1.966   2.561  10.196  0.9451  0.8946 -3.7977
  350MPD2    H2 5249   1.749   2.227  10.100  0.8269 -2.1731  0.0991
  350MPD2    H3 5250   1.759   2.456  10.132 -1.0809 -0.7538  2.5283
  350MPD2     N 5251   2.213   2.459  10.192 -0.5027  0.1926 -0.4589
  350MPD2    H5 5252   2.298   2.404  10.188 -1.5021 -1.3068 -1.2987
  350MPD2    N1 5253   1.970   2.063  10.043  0.6032  0.5132  0.1946
  350MPD2    H7 5254   2.065   2.028  10.041 -0.1524 -1.5592  0.7905
  351TMC3    C1 5255   1.906   1.852   9.959  0.2840 -0.3790  0.3272
  351TMC3    C2 5256   2.000   1.785  10.030  0.2254 -0.3844 -0.1025
  351TMC3    C3 5257   1.975   1.653  10.061 -0.3305  0.5526 -0.1336
  351TMC3    C4 5258   1.799   1.788   9.898 -0.0446  0.9000  0.4539
  351TMC3    C5 5259   1.778   1.657   9.924  0.7945  0.0518  0.5262
  351TMC3    C6 5260   1.864   1.591  10.012 -0.3373 -0.3708  0.5356
  351TMC3     C 5261   1.867   1.988   9.998  0.0668  0.1433 -0.5281
  351TMC3     O 5262   1.751   2.019   9.980  0.1632  0.3576  0.6309
  351TMC3     H 5263   2.081   1.833  10.083 -0.9505  1.7365 -0.2444
  351TMC3    H1 5264   1.730   1.836   9.830 -0.7464 -1.1769 -0.2913
  351TMC3    H2 5265   1.850   1.485  10.030 -0.8397 -0.2282  1.0175
  351TMC3    C7 5266   1.650   1.592   9.905 -0.7417  0.2838 -0.6168
  351TMC3    C8 5267   2.088   1.567  10.096  0.7858 -0.1495  0.3083
  351TMC3    O1 5268   1.560   1.662   9.868 -0.4791  0.1770 -0.1648
  351TMC3    O2 5269   2.197   1.627  10.082 -0.4405  0.1741 -0.2958
  352MPD2     C 5270   0.563   0.097   1.208 -0.2144 -0.3219 -0.2821
  352MPD2    C1 5271   0.427   0.092   1.182 -0.3941 -0.6753 -0.0396
  352MPD2    C2 5272   0.343   4.722   1.239 -0.4034 -0.4568 -0.2334
  352MPD2    C3 5273   0.392   4.626   1.322 -0.4704 -0.3884 -0.7974
  352MPD2    C4 5274   0.526   4.635   1.349 -0.4157  0.5753  0.0403
  352MPD2    C5 5275   0.613   0.005   1.293 -0.1005 -0.0383 -0.3261
  352MPD2     H 5276   0.236   4.723   1.222 -0.1826 -0.4315 -1.6674
  352MPD2    H1 5277   0.574   4.551   1.398 -2.0011 -0.5898 -0.4073
  352MPD2    H2 5278   0.628   0.173   1.166  0.6301 -0.7086  0.3107
  352MPD2    H3 5279   0.720   4.713   1.302 -0.3721 -1.4418  0.4100
  352MPD2     N 5280   0.325   4.515   1.377  0.1502 -0.5083 -0.3262
  352MPD2    H5 5281   0.387   4.450   1.423  1.0114 -0.5141 -1.4981
  352MPD2    N1 5282   0.379   0.179   1.082  0.5956 -0.4164  0.4597
  352MPD2    H7 5283   0.460   0.209   1.028  2.6349 -0.2189  3.6493
  353TMC3    C1 5284   0.164   4.346   1.367  0.3878  0.1635 -0.4317
  353TMC3    C2 5285   0.221   4.284   1.478  0.0528 -0.3146  0.5526
  353TMC3    C3 5286   0.218   4.142   1.482  0.4911  0.0410  0.7469
  353TMC3    C4 5287   0.102   4.269   1.275  0.6612 -0.0961 -0.1981
  353TMC3    C5 5288   0.079   4.136   1.299 -0.4300 -0.2515 -0.1895
  353TMC3    C6 5289   0.138   4.069   1.404 -0.5006  0.2959  0.2296
  353TMC3     C 5290   0.195   4.485   1.341  0.8109 -0.0398 -0.0964
  353TMC3     O 5291   0.107   4.540   1.273 -0.0346 -0.1783 -0.0031
  353TMC3     H 5292   0.264   4.344   1.557  0.9466 -0.0397 -0.1408
  353TMC3    H1 5293   0.075   4.319   1.183  0.3372 -0.0321 -0.0695
  353TMC3    H2 5294   0.132   3.962   1.416  0.0273  0.1958 -0.4158
  353TMC3    C7 5295   0.035   4.062   1.182  0.3555 -0.3981 -0.6424
  353TMC3    C8 5296   0.281   4.075   1.593 -0.7948 -0.9530 -0.0339
  353TMC3    O1 5297   0.018   4.127   1.079 -0.4131  0.1018  0.4268
  353TMC3    O2 5298   0.286   4.135   1.698 -0.5164 -0.1030  0.4567
  354TMC3    C1 5299   2.511   1.348  13.320 -0.6719 -0.1003 -0.5167
  354TMC3    C2 5300   2.478   1.477  13.283  0.0560  0.7466  0.6327
  354TMC3    C3 5301   2.556   1.530  13.186  0.1314  0.5041  0.2727
  354TMC3    C4 5302   2.607   1.270  13.265  0.3349 -0.8459  0.2792
  354TMC3    C5 5303   2.675   1.333  13.164 -0.1163  0.2997  0.9142
  354TMC3    C6 5304   2.652   1.458  13.123  0.3684 -0.7171 -0.3601
  354TMC3     C 5305   2.464   1.301  13.449 -0.5102  0.2316 -0.2808
  354TMC3     O 5306   2.369   1.358  13.498 -0.6122 -0.3132 -0.2293
  354TMC3     H 5307   2.406   1.534  13.342 -1.2523 -1.2506  0.9896
  354TMC3    H1 5308   2.589   1.164  13.248  0.9679 -0.8217 -0.5476
  354TMC3    H2 5309   2.706   1.493  13.036  0.3644 -0.6603 -0.3398
  354TMC3    C7 5310   2.760   1.250  13.081  0.3043 -0.3384  0.1862
  354TMC3    C8 5311   2.529   1.655  13.121  0.0199 -0.3060  0.4020
  354TMC3    O1 5312   2.740   1.127  13.079  0.2084  1.0854 -0.6987
  354TMC3    O2 5313   2.619   1.708  13.055 -0.8853  0.3850 -0.0227
  355MPD2     C 5314   2.297   1.796  11.618 -0.3455  0.0493  0.2612
  355MPD2    C1 5315   2.337   1.860  11.504 -0.4727 -0.0513 -0.8517
  355MPD2    C2 5316   2.467   1.903  11.488  0.3920  0.2828  0.1111
  355MPD2    C3 5317   2.553   1.889  11.598  0.3090 -0.8268 -1.3038
  355MPD2    C4 5318   2.512   1.833  11.715 -0.1226 -0.5541  0.2490
  355MPD2    C5 5319   2.379   1.793  11.727 -0.6009 -0.4008 -0.6168
  355MPD2     H 5320   2.509   1.915  11.389  0.1653 -0.4747 -0.0740
  355MPD2    H1 5321   2.566   1.819  11.807  2.0508 -1.3985 -1.1621
  355MPD2    H2 5322   2.195   1.763  11.634 -0.1243  1.5249  4.5840
  355MPD2    H3 5323   2.342   1.755  11.821 -2.1138  1.7122 -0.3678
  355MPD2     N 5324   2.691   1.920  11.598  0.4347 -0.0656  0.4633
  355MPD2    H5 5325   2.747   1.907  11.681  0.6594 -2.5961 -0.0897
  355MPD2    N1 5326   2.255   1.864  11.388 -0.5214 -0.8461  0.2229
  355MPD2    H7 5327   2.176   1.800  11.399  0.1686 -1.3562  2.2774
  356TMC3    C1 5328   2.874   2.057  11.527  0.1125 -0.1962  0.4504
  356TMC3    C2 5329   2.945   2.122  11.430  0.4613 -0.3959 -0.3916
  356TMC3    C3 5330   3.034   2.218  11.463  0.2508  0.5710  0.4252
  356TMC3    C4 5331   2.898   2.098  11.658 -0.6806  0.5242  0.7136
  356TMC3    C5 5332   2.992   2.189  11.691  0.9107  0.6428  0.3646
  356TMC3    C6 5333   3.070   2.251  11.592  0.3963 -0.0106 -0.0077
  356TMC3     C 5334   2.749   1.990  11.492 -1.2632  0.3311  0.5101
  356TMC3     O 5335   2.705   2.007  11.381 -0.3012  0.5296 -0.4801
  356TMC3     H 5336   2.911   2.122  11.327  0.1138  1.5194 -0.2851
  356TMC3    H1 5337   2.843   2.055  11.741 -2.3579 -0.9221 -1.1446
  356TMC3    H2 5338   3.149   2.322  11.615  0.7006 -0.8505  1.5195
  356TMC3    C7 5339   3.019   2.213  11.827  0.9158 -0.1853 -0.3463
  356TMC3    C8 5340   3.102   2.293  11.353  0.1641  0.1575 -0.1621
  356TMC3    O1 5341   2.964   2.139  11.909 -0.2803  0.5242  0.8578
  356TMC3    O2 5342   3.072   2.255  11.238  0.0182 -0.2665  0.3779
  357MPD2     C 5343   2.378   1.774   0.954  0.0698  0.5386 -0.2969
  357MPD2    C1 5344   2.423   1.654   1.006 -0.4934  0.8425 -0.2128
  357MPD2    C2 5345   2.363   1.612   1.126  0.7751  0.9007  0.5651
  357MPD2    C3 5346   2.270   1.693   1.188  0.2926  0.1226  0.0065
  357MPD2    C4 5347   2.234   1.821   1.139 -0.1713  0.5291 -0.4264
  357MPD2    C5 5348   2.287   1.854   1.015  0.3708 -0.8850 -0.9902
  357MPD2     H 5349   2.375   1.509   1.157  2.4222  1.6835  2.5474
  357MPD2    H1 5350   2.159   1.879   1.193 -0.1379 -0.1969  0.3912
  357MPD2    H2 5351   2.412   1.803   0.855 -0.7888  1.1103 -0.4273
  357MPD2    H3 5352   2.241   1.938   0.964  0.9757 -0.8238 -1.4320
  357MPD2     N 5353   2.202   1.652   1.302  0.3135  0.1385 -0.6315
  357MPD2    H5 5354   2.145   1.726   1.342 -2.0548 -2.4468  0.7072
  357MPD2    N1 5355   2.502   1.565   0.933 -0.2471 -0.2974  0.0463
  357MPD2    H7 5356   2.518   1.583   0.834  1.9565 -0.1534  0.4505
  358TMC3    C1 5357   2.651   1.382   0.891 -0.3793  0.1223  0.5345
  358TMC3    C2 5358   2.600   1.356   0.771  0.4067  0.5966 -0.5586
  358TMC3    C3 5359   2.670   1.292   0.673 -0.1373 -0.3610 -0.1024
  358TMC3    C4 5360   2.780   1.335   0.923 -0.1272  0.2119 -0.2522
  358TMC3    C5 5361   2.845   1.259   0.828  0.5170  0.1915 -0.0525
  358TMC3    C6 5362   2.791   1.227   0.705  0.3454 -0.4771  0.8000
  358TMC3     C 5363   2.582   1.466   0.991 -0.5421 -0.0882 -0.2461
  358TMC3     O 5364   2.622   1.448   1.106  0.2094  0.1374 -0.3805
  358TMC3     H 5365   2.496   1.386   0.762 -0.0839 -1.5310 -1.8645
  358TMC3    H1 5366   2.822   1.370   1.017  0.8362  0.8536 -0.9287
  358TMC3    H2 5367   2.845   1.191   0.618  1.9473  3.5060  0.1319
  358TMC3    C7 5368   2.989   1.245   0.843  0.7161  0.3886  0.6484
  358TMC3    C8 5369   2.640   1.323   0.535  0.7723  0.0899 -0.1354
  358TMC3    O1 5370   3.037   1.315   0.932  0.1521  0.1736 -0.4046
  358TMC3    O2 5371   2.731   1.311   0.451 -0.3658  0.9515 -0.7943
  359MPD2     C 5372   3.198   0.499  12.800  0.4971  0.1706 -0.2515
  359MPD2    C1 5373   3.119   0.462  12.691 -0.3509 -0.0974 -0.2256
  359MPD2    C2 5374   3.005   0.390  12.717 -0.5563  0.2678  0.5162
  359MPD2    C3 5375   2.965   0.358  12.846  0.0204  0.3758  0.3880
  359MPD2    C4 5376   3.048   0.395  12.948 -0.1469 -0.2617 -0.4961
  359MPD2    C5 5377   3.166   0.453  12.924  0.1973  0.8540 -0.2884
  359MPD2     H 5378   2.941   0.381  12.630  2.0461 -0.3739 -1.3071
  359MPD2    H1 5379   3.029   0.370  13.052  0.0193 -1.7192 -0.8127
  359MPD2    H2 5380   3.287   0.560  12.783  1.1929 -1.0376 -0.9331
  359MPD2    H3 5381   3.235   0.472  13.006 -0.5466 -1.4640  0.8554
  359MPD2     N 5382   2.849   0.292  12.883 -0.4767  0.3319  0.0069
  359MPD2    H5 5383   2.815   0.287  12.978 -0.0177 -2.2359  0.0208
  359MPD2    N1 5384   3.162   0.489  12.556  0.0362 -0.0649 -0.4264
  359MPD2    H7 5385   3.120   0.436  12.481  0.2304 -0.4537 -0.2595
  360TMC3    C1 5386   3.264   0.605  12.379 -0.3066  0.4829 -0.3720
  360TMC3    C2 5387   3.343   0.709  12.344  0.1979  0.3410  0.2805
  360TMC3    C3 5388   3.395   0.708  12.216  0.3931 -0.3702 -0.2019
  360TMC3    C4 5389   3.241   0.495  12.299 -0.5403 -0.4529  0.4771
  360TMC3    C5 5390   3.295   0.499  12.172  0.4558  0.2228 -0.2104
  360TMC3    C6 5391   3.372   0.607  12.128  0.4022  0.1751  0.4730
  360TMC3     C 5392   3.248   0.596  12.521 -0.2881 -0.4986 -0.1003
  360TMC3     O 5393   3.319   0.664  12.591 -0.5182 -0.3172  0.1357
  360TMC3     H 5394   3.343   0.798  12.407  1.6691 -0.2847  1.1643
  360TMC3    H1 5395   3.191   0.405  12.333  2.5263 -2.3797 -0.0848
  360TMC3    H2 5396   3.401   0.609  12.024 -0.9360 -1.9066  0.0587
  360TMC3    C7 5397   3.267   0.401  12.073  0.0028 -0.5837  0.2090
  360TMC3    C8 5398   3.491   0.809  12.171  0.1236  0.2041 -0.6571
  360TMC3    O1 5399   3.344   0.387  11.980  0.0741 -0.0998 -0.4083
  360TMC3    O2 5400   3.462   0.926  12.181  0.5791 -0.4506  0.0036
  361MPD2     C 5401   4.537   4.057  17.359  0.0619  0.7032  0.0472
  361MPD2    C1 5402   4.614   4.173  17.345 -0.6103 -0.2327  1.2380
  361MPD2    C2 5403   0.028   4.172  17.366  0.2665 -0.1904  0.7365
  361MPD2    C3 5404   0.094   4.048  17.372 -0.8503 -0.2226  0.2906
  361MPD2    C4 5405   0.017   3.931  17.366 -0.6593  0.1590 -0.2976
  361MPD2    C5 5406   4.602   3.936  17.369  0.6965 -0.0475 -0.1152
  361MPD2     H 5407   0.079   4.267  17.355  2.4638 -1.2634  1.6301
  361MPD2    H1 5408   0.065   3.834  17.374 -1.4928 -0.2399 -0.2067
  361MPD2    H2 5409   4.428   4.055  17.366  0.0229  0.6595 -0.6099
  361MPD2    H3 5410   4.545   3.844  17.373  1.4295 -0.4882  0.1578
  361MPD2     N 5411   0.233   4.028  17.388 -1.0017  0.3428  0.3351
  361MPD2    H5 5412   0.266   3.932  17.390 -0.4223  0.4712 -2.6483
  361MPD2    N1 5413   4.550   4.294  17.320  0.4622 -0.2447 -0.0761
  361MPD2    H7 5414   4.602   4.380  17.335  1.3295 -0.5067 -1.5531
  362TMC3    C1 5415   4.390   4.443  17.211 -0.2105  0.0382  0.7959
  362TMC3    C2 5416   4.331   4.511  17.313 -0.1780  0.3096  0.9692
  362TMC3    C3 5417   4.213   4.586  17.297  0.1902  0.7552  0.1191
  362TMC3    C4 5418   4.330   4.440  17.088  0.4007  0.4973 -0.1574
  362TMC3    C5 5419   4.214   4.510  17.072  0.0912  0.5894  0.0297
  362TMC3    C6 5420   4.153   4.581  17.176 -0.3055  0.1044  0.3882
  362TMC3     C 5421   4.426   4.309  17.255 -0.3718  0.4448 -0.0978
  362TMC3     O 5422   4.374   4.219  17.184  0.2218  0.4093 -0.4205
  362TMC3     H 5423   4.387   4.504  17.406  1.0173 -1.0803  0.1236
  362TMC3    H1 5424   4.368   4.387  17.002 -1.0060 -3.0593  1.4344
  362TMC3    H2 5425   4.065   4.638  17.151 -0.7033 -1.0200 -0.7780
  362TMC3    C7 5426   4.177   4.530  16.936 -0.0838  0.2968 -0.2874
  362TMC3    C8 5427   4.156   4.651  17.414 -0.0446 -0.1809  0.4092
  362TMC3    O1 5428   4.266   4.554  16.854 -0.2826  0.5118  0.1217
  362TMC3    O2 5429   4.206   4.619  17.524  0.5593  0.3012  0.5921
  363TMC3    C1 5430   3.103   2.159   9.957 -0.8478 -0.0551 -0.3673
  363TMC3    C2 5431   3.076   2.023   9.972  0.1703  0.2039 -0.3304
  363TMC3    C3 5432   2.940   1.986  10.000 -0.7819 -0.3510 -0.2203
  363TMC3    C4 5433   3.007   2.262   9.950 -0.2289  0.2448 -0.5970
  363TMC3    C5 5434   2.875   2.212   9.972 -0.3182  0.4527 -0.5891
  363TMC3    C6 5435   2.846   2.086  10.000 -0.3711  0.0899 -0.3471
  363TMC3     C 5436   3.248   2.183   9.941 -0.5392 -0.1404 -0.1187
  363TMC3     O 5437   3.327   2.096   9.971 -0.4348  0.7900  0.1722
  363TMC3     H 5438   3.158   1.953   9.979  0.2834  0.5394  1.5978
  363TMC3    H1 5439   3.025   2.368   9.933  0.3635  0.5775  2.1083
  363TMC3    H2 5440   2.743   2.061  10.026 -0.5249 -0.1438 -1.1907
  363TMC3    C7 5441   2.758   2.300   9.967 -0.4881  0.4667  0.2815
  363TMC3    C8 5442   2.912   1.865  10.074  0.1257 -0.3647  0.0591
  363TMC3    O1 5443   2.653   2.248   9.936  0.2702 -0.5118 -0.1226
  363TMC3    O2 5444   2.807   1.857  10.138 -0.1781  0.3149  0.0425
  364MPD2     C 5445   1.447   0.554  10.592 -0.1984 -0.5707 -0.4206
  364MPD2    C1 5446   1.551   0.624  10.541 -0.2036 -0.0702  0.1752
  364MPD2    C2 5447   1.682   0.593  10.581  0.1583 -0.1440 -0.9164
  364MPD2    C3 5448   1.707   0.482  10.664 -0.2607  0.5453  0.3954
  364MPD2    C4 5449   1.597   0.405  10.708  0.4119  0.4742  0.3921
  364MPD2    C5 5450   1.472   0.447  10.676 -0.4062 -0.1883 -0.4719
  364MPD2     H 5451   1.766   0.650  10.543 -0.2670 -0.1859 -1.9099
  364MPD2    H1 5452   1.616   0.323  10.776 -0.6504  1.3168  1.7044
  364MPD2    H2 5453   1.349   0.571  10.549  0.1284  0.5229 -0.7412
  364MPD2    H3 5454   1.394   0.392  10.728 -2.2230  1.2550 -1.6776
  364MPD2     N 5455   1.841   0.446  10.703  0.4812 -0.1218 -0.1673
  364MPD2    H5 5456   1.858   0.375  10.775  2.0355 -0.0159 -0.4372
  364MPD2    N1 5457   1.522   0.720  10.448 -0.0877  0.2533 -0.3775
  364MPD2    H7 5458   1.423   0.742  10.438 -0.0125  0.6025 -0.3673
  365TMC3    C1 5459   1.575   0.886  10.293  0.7350 -1.3954 -0.1540
  365TMC3    C2 5460   1.662   0.903  10.183 -0.2210 -0.2942 -0.3316
  365TMC3    C3 5461   1.697   1.029  10.143 -1.0342  0.2011  0.2301
  365TMC3    C4 5462   1.535   0.998  10.364  0.5487 -0.6329  0.4125
  365TMC3    C5 5463   1.569   1.121  10.315 -0.1526 -0.6202 -0.9092
  365TMC3    C6 5464   1.646   1.141  10.203 -0.0474 -0.1099  0.7650
  365TMC3     C 5465   1.617   0.772  10.371 -0.8820  1.2129 -0.2758
  365TMC3     O 5466   1.726   0.731  10.337 -0.3183  0.0808 -0.5395
  365TMC3     H 5467   1.678   0.815  10.121  3.9772 -0.8845  1.5679
  365TMC3    H1 5468   1.473   0.984  10.452  2.0730  4.8590  2.4011
  365TMC3    H2 5469   1.679   1.239  10.170 -0.3306 -0.1116  0.4755
  365TMC3    C7 5470   1.543   1.238  10.397 -0.6165  0.4524  0.3987
  365TMC3    C8 5471   1.831   1.050  10.081  0.2042 -1.0005 -0.3442
  365TMC3    O1 5472   1.536   1.340  10.331  0.0371  0.3227  0.2024
  365TMC3    O2 5473   1.853   1.156  10.020  0.4065  0.1699  0.1615
  366MPD2     C 5474   0.053   2.253  15.303  0.2715  0.5474 -0.8297
  366MPD2    C1 5475   0.126   2.360  15.248  0.2845  0.8259  0.0301
  366MPD2    C2 5476   0.254   2.330  15.200 -1.1221 -0.3843 -0.4305
  366MPD2    C3 5477   0.307   2.201  15.205 -0.6089 -0.2606 -0.2674
  366MPD2    C4 5478   0.235   2.100  15.269  0.7104  0.4254  0.3666
  366MPD2    C5 5479   0.110   2.132  15.315 -0.0179 -0.3357 -0.4989
  366MPD2     H 5480   0.319   2.405  15.156 -0.6690 -1.0099 -0.8284
  366MPD2    H1 5481   0.275   2.000  15.286  2.0079  1.0338  0.9630
  366MPD2    H2 5482   4.676   2.268  15.338  1.2365  0.2878  2.0459
  366MPD2    H3 5483   0.054   2.065  15.380 -0.4837  0.8474  0.3154
  366MPD2     N 5484   0.432   2.179  15.144 -0.0019  0.6873  0.2763
  366MPD2    H5 5485   0.471   2.262  15.102 -1.8878  2.2738  1.6606
  366MPD2    N1 5486   0.082   2.499  15.243  0.1919 -0.8467  0.7792
  366MPD2    H7 5487   0.146   2.566  15.203 -0.6508 -0.5809 -0.1142
  367TMC3    C1 5488   4.673   2.686  15.265 -0.7555 -1.0046  1.3152
  367TMC3    C2 5489   0.051   2.763  15.324 -0.2961  0.0327 -0.5146
  367TMC3    C3 5490   0.043   2.904  15.324 -0.4613  0.7498 -0.2280
  367TMC3    C4 5491   4.561   2.753  15.221 -0.7199  0.1029 -0.0007
  367TMC3    C5 5492   4.553   2.887  15.230 -0.3118 -0.4761  0.1609
  367TMC3    C6 5493   4.657   2.964  15.278  0.0165  0.1852 -0.0972
  367TMC3     C 5494   4.679   2.544  15.267  0.2795 -0.6076 -0.7475
  367TMC3     O 5495   4.571   2.478  15.263 -0.0283 -0.0703 -1.1956
  367TMC3     H 5496   0.130   2.708  15.372  1.1687  1.8505 -0.8380
  367TMC3    H1 5497   4.485   2.685  15.185 -0.3477 -0.0576 -0.4832
  367TMC3    H2 5498   4.631   3.068  15.297 -0.1276  0.6701 -2.8678
  367TMC3    C7 5499   4.449   2.956  15.156 -0.1270 -0.2821  0.5935
  367TMC3    C8 5500   0.154   2.971  15.386 -0.3792  0.5127 -0.0564
  367TMC3    O1 5501   4.485   3.067  15.113  0.4246  0.7101  0.2920
  367TMC3    O2 5502   0.230   2.900  15.447 -0.2246 -0.1224 -0.7639
  368MPD2     C 5503   0.986   4.694  13.594 -0.1967  0.3094  0.2914
  368MPD2    C1 5504   0.982   0.028  13.477 -0.6062 -0.0438  0.1628
  368MPD2    C2 5505   1.098   0.035  13.400 -0.1177  0.1613 -0.2559
  368MPD2    C3 5506   1.219   4.701  13.452 -0.3330 -0.2483 -0.2745
  368MPD2    C4 5507   1.210   4.637  13.571  0.1361  0.1014 -0.3824
  368MPD2    C5 5508   1.094   4.639  13.648  0.2756 -0.0774  0.1483
  368MPD2     H 5509   1.101   0.089  13.306 -0.2515  0.6794  0.0346
  368MPD2    H1 5510   1.299   4.586  13.605 -0.7605 -1.1419  0.1097
  368MPD2    H2 5511   0.896   4.683  13.654  0.3556 -0.4530  0.9697
  368MPD2    H3 5512   1.096   4.598  13.749  0.6657  2.3305  1.1022
  368MPD2     N 5513   1.346   4.711  13.398  0.2516 -0.0910 -0.4757
  368MPD2    H5 5514   1.423   4.672  13.451 -0.6510 -0.8083  0.3101
  368MPD2    N1 5515   0.867   0.092  13.441  1.5113  0.0484  0.4261
  368MPD2    H7 5516   0.789   0.110  13.503 -0.0918 -2.1009 -0.9525
  369TMC3    C1 5517   0.727   0.236  13.313 -0.1777  0.2960  0.2279
  369TMC3    C2 5518   0.733   0.340  13.223 -0.2917  0.1831  1.0055
  369TMC3    C3 5519   0.620   0.417  13.210 -0.5284 -0.0384  0.8504
  369TMC3    C4 5520   0.612   0.214  13.385 -0.2323 -0.4767  0.6045
  369TMC3    C5 5521   0.506   0.292  13.377 -0.0188 -0.2043 -0.1203
  369TMC3    C6 5522   0.507   0.394  13.282 -0.2307 -0.3783 -0.9940
  369TMC3     C 5523   0.839   0.143  13.314 -0.5344 -0.0315 -0.9505
  369TMC3     O 5524   0.912   0.144  13.217  0.1699 -0.2692 -0.4957
  369TMC3     H 5525   0.814   0.336  13.151 -0.1081  0.9827  1.1740
  369TMC3    H1 5526   0.605   0.138  13.462  0.4149 -0.8834  0.2644
  369TMC3    H2 5527   0.426   0.467  13.280  0.2273  0.2121  3.3934
  369TMC3    C7 5528   0.419   0.302  13.496  0.1691  0.1264  0.1343
  369TMC3    C8 5529   0.614   0.518  13.104 -0.0758  0.1653 -0.5893
  369TMC3    O1 5530   0.388   0.201  13.555  0.5376 -0.6519  0.2551
  369TMC3    O2 5531   0.514   0.590  13.092  0.2010  0.2824  0.0513
  370TMC3    C1 5532   0.846   0.498  16.174 -0.2735  0.0623 -0.6393
  370TMC3    C2 5533   0.854   0.411  16.284  0.2769 -0.6619 -0.0325
  370TMC3    C3 5534   0.891   0.276  16.259  0.4168 -0.6804  0.4195
  370TMC3    C4 5535   0.850   0.450  16.045  0.0870  0.6768 -0.0177
  370TMC3    C5 5536   0.876   0.318  16.029  0.0277  0.6292  0.2803
  370TMC3    C6 5537   0.901   0.227  16.133 -0.0818 -0.0395 -0.7700
  370TMC3     C 5538   0.838   0.643  16.203  0.4065 -0.5416 -0.1587
  370TMC3     O 5539   0.777   0.676  16.305  0.0140 -0.2966  0.0528
  370TMC3     H 5540   0.845   0.465  16.378 -1.6376  0.6727 -0.9905
  370TMC3    H1 5541   0.828   0.512  15.959  0.9487  0.8148 -0.1364
  370TMC3    H2 5542   0.898   0.120  16.114 -1.7698  0.0372 -0.9742
  370TMC3    C7 5543   0.852   0.259  15.895  1.0141 -0.4596 -0.6653
  370TMC3    C8 5544   0.897   0.169  16.363  0.1227  0.0409  0.8572
  370TMC3    O1 5545   0.777   0.306  15.810  0.5791  0.0526 -0.0993
  370TMC3    O2 5546   0.890   0.054  16.322 -0.2821  0.2700  0.5436
  371TMC3    C1 5547   2.008   3.167  15.367 -0.0052  0.2602  0.4561
  371TMC3    C2 5548   1.901   3.202  15.445  0.1106  0.3476  0.7023
  371TMC3    C3 5549   1.878   3.336  15.473 -0.6084 -0.1907 -0.4397
  371TMC3    C4 5550   2.085   3.273  15.315 -0.3272 -0.7222  0.5083
  371TMC3    C5 5551   2.058   3.405  15.346  0.1335 -0.1493 -0.0510
  371TMC3    C6 5552   1.961   3.439  15.431 -0.6408  0.2921 -0.1246
  371TMC3     C 5553   2.028   3.032  15.325  0.0968  0.1913 -0.2065
  371TMC3     O 5554   2.133   3.020  15.260 -0.0922 -0.2112  0.2651
  371TMC3     H 5555   1.831   3.129  15.483  0.7453 -0.8067 -0.3763
  371TMC3    H1 5556   2.172   3.246  15.256  0.6719  2.0031  0.7381
  371TMC3    H2 5557   1.963   3.540  15.470  0.6072  0.2896 -0.1662
  371TMC3    C7 5558   2.127   3.512  15.270 -0.5061 -0.8939 -0.5567
  371TMC3    C8 5559   1.748   3.365  15.524 -0.6967 -0.7045 -0.6213
  371TMC3    O1 5560   2.090   3.626  15.292  0.3898 -0.2852  0.2237
  371TMC3    O2 5561   1.673   3.268  15.530  0.3047  0.3375 -0.5111
  372MPD2     C 5562   1.833   0.345  13.478 -0.4280 -0.1973  0.7074
  372MPD2    C1 5563   1.918   0.244  13.521  0.0897  0.4637 -0.3336
  372MPD2    C2 5564   1.865   0.147  13.599 -0.1338  0.2236  0.6030
  372MPD2    C3 5565   1.733   0.142  13.626  0.2082 -0.2557  0.8219
  372MPD2    C4 5566   1.650   0.245  13.584 -0.2543 -0.2863 -0.3835
  372MPD2    C5 5567   1.704   0.353  13.522  0.8589  0.2882  0.1488
  372MPD2     H 5568   1.932   0.066  13.625 -2.1759 -0.9878  2.0688
  372MPD2    H1 5569   1.543   0.239  13.598 -0.6176 -0.1041 -3.1767
  372MPD2    H2 5570   1.878   0.423  13.418 -1.7614  0.8902  1.1262
  372MPD2    H3 5571   1.648   0.441  13.489 -0.1587 -0.0850  0.8782
  372MPD2     N 5572   1.692   0.025  13.695  0.0902 -0.1697 -0.9203
  372MPD2    H5 5573   1.770   4.690  13.722 -0.5864 -0.0979  1.1877
  372MPD2    N1 5574   2.062   0.250  13.499  0.4543 -0.0019  0.4785
  372MPD2    H7 5575   2.111   0.177  13.551  1.1368  0.3711  0.3645
  373TMC3    C1 5576   1.555   4.575  13.790  0.6049 -0.3542  0.2985
  373TMC3    C2 5577   1.431   4.542  13.853 -0.1098  0.6675  0.0754
  373TMC3    C3 5578   1.400   4.408  13.867 -0.0260  0.2453 -0.2524
  373TMC3    C4 5579   1.630   4.481  13.728  0.1472  0.3146 -0.2912
  373TMC3    C5 5580   1.591   4.353  13.750 -0.2796 -0.4729  0.4296
  373TMC3    C6 5581   1.471   4.314  13.797 -0.4212  0.2946 -0.5324
  373TMC3     C 5582   1.565   4.705  13.725 -0.3327  0.1238 -0.0874
  373TMC3     O 5583   1.461   0.046  13.718  0.1064  0.4950 -0.8365
  373TMC3     H 5584   1.383   4.621  13.910 -3.9171 -0.3123 -1.8192
  373TMC3    H1 5585   1.700   4.514  13.652 -0.6882  0.1740 -1.1224
  373TMC3    H2 5586   1.448   4.208  13.805 -3.5842  1.1160  1.2580
  373TMC3    C7 5587   1.661   4.260  13.673  0.0214 -0.0983  0.0441
  373TMC3    C8 5588   1.281   4.385  13.954 -0.3535  0.5141 -0.3755
  373TMC3    O1 5589   1.709   4.289  13.566  0.2814 -0.2843  0.6674
  373TMC3    O2 5590   1.200   4.476  13.945 -0.3700  0.1008  0.2408
  374TMC3    C1 5591   2.281   4.505   9.814  0.0866  0.2919 -0.3883
  374TMC3    C2 5592   2.365   4.601   9.874  0.1582  0.8424 -0.1989
  374TMC3    C3 5593   2.307   4.720   9.911  0.4100 -0.7535 -0.8310
  374TMC3    C4 5594   2.150   4.526   9.796 -0.0177  0.8556 -0.5132
  374TMC3    C5 5595   2.095   4.640   9.849 -0.9295 -0.0203  0.4201
  374TMC3    C6 5596   2.172   0.015   9.896  0.3876 -0.1851 -0.1526
  374TMC3     C 5597   2.345   4.396   9.737  0.2162  0.5121 -0.5942
  374TMC3     O 5598   2.262   4.336   9.667  0.3170 -0.0026 -0.5301
  374TMC3     H 5599   2.471   4.607   9.853  0.8526 -0.0200  2.9406
  374TMC3    H1 5600   2.088   4.456   9.742 -0.6175  1.4937 -0.6592
  374TMC3    H2 5601   2.125   0.103   9.939  1.0211  0.5291 -0.9181
  374TMC3    C7 5602   1.947   4.653   9.844  0.1072 -0.7029  0.3960
  374TMC3    C8 5603   2.382   0.110   9.954 -0.1055  0.8165 -0.4288
  374TMC3    O1 5604   1.896   0.043   9.831 -0.1104 -0.1726 -0.5400
  374TMC3    O2 5605   2.324   0.215   9.962 -0.0094  0.0020  0.0964
  375MPD2     C 5606   2.415   0.899  16.921 -0.0578  0.0334  0.1333
  375MPD2    C1 5607   2.329   0.901  16.811 -0.5606  0.3217 -0.1101
  375MPD2    C2 5608   2.351   0.810  16.711  0.8886  0.2186 -0.0284
  375MPD2    C3 5609   2.464   0.735  16.705 -0.3233  0.3869 -0.3512
  375MPD2    C4 5610   2.551   0.735  16.816 -0.2967  0.3708 -0.6616
  375MPD2    C5 5611   2.523   0.820  16.921 -0.1110 -0.5774  0.1168
  375MPD2     H 5612   2.276   0.806  16.633  1.7806  1.2988 -0.9454
  375MPD2    H1 5613   2.652   0.695  16.814 -0.3788  0.1413  0.0295
  375MPD2    H2 5614   2.405   0.970  17.002 -0.6158 -0.2888  0.3456
  375MPD2    H3 5615   2.591   0.823  17.006  0.0287  2.4847 -0.0902
  375MPD2     N 5616   2.497   0.664  16.588 -0.0894  0.1165  0.2306
  375MPD2    H5 5617   2.572   0.598  16.606 -2.3654 -3.1323 -2.2301
  375MPD2    N1 5618   2.208   0.974  16.814  0.0540 -0.6484  0.0225
  375MPD2    H7 5619   2.149   0.951  16.735 -0.2014 -3.3596  1.0023
  376TMC3    C1 5620   2.486   0.581  16.376 -0.6790 -0.1799  0.3610
  376TMC3    C2 5621   2.620   0.541  16.387  0.0695  0.0136 -0.1985
  376TMC3    C3 5622   2.653   0.455  16.285  0.6493 -0.6430  0.0950
  376TMC3    C4 5623   2.406   0.569  16.266 -0.7553 -0.1453 -0.4893
  376TMC3    C5 5624   2.461   0.500  16.168  0.5517  0.1144 -0.1486
  376TMC3    C6 5625   2.584   0.440  16.174 -0.2260  0.9766 -0.0369
  376TMC3     C 5626   2.448   0.681  16.463 -0.2861 -0.0469 -0.2413
  376TMC3     O 5627   2.378   0.768  16.414  0.1379 -0.0101  0.2003
  376TMC3     H 5628   2.694   0.575  16.458  0.7028  1.9663 -1.7646
  376TMC3    H1 5629   2.309   0.614  16.256  0.0180  2.1898  2.4432
  376TMC3    H2 5630   2.621   0.361  16.109  0.5958  0.8083  0.6489
  376TMC3    C7 5631   2.376   0.484  16.055  0.1947 -0.7077  0.3581
  376TMC3    C8 5632   2.788   0.415  16.271 -0.7713  0.0258 -0.2036
  376TMC3    O1 5633   2.326   0.589  16.009 -0.0038 -0.1057  0.4193
  376TMC3    O2 5634   2.832   0.413  16.161  0.3460  0.3807 -0.5245
  377MPD2     C 5635   0.169   0.113  12.569  0.0363 -0.2932  0.4189
  377MPD2    C1 5636   0.260   0.010  12.557 -0.3354  0.0969  0.3332
  377MPD2    C2 5637   0.250   4.625  12.642 -0.4415 -0.5337  0.1857
  377MPD2    C3 5638   0.154   4.622  12.739 -0.3856 -0.0363 -0.1648
  377MPD2    C4 5639   0.065   0.004  12.744  0.0576  0.3980 -0.3683
  377MPD2    C5 5640   0.066   0.106  12.655 -0.5161  0.2642  0.3652
  377MPD2     H 5641   0.320   4.542  12.630 -0.9026 -1.3227  2.8844
  377MPD2    H1 5642   4.717   0.009  12.825  0.1532 -1.2447 -0.1861
  377MPD2    H2 5643   0.172   0.202  12.507 -1.6344  0.1707  1.0235
  377MPD2    H3 5644   0.001   0.193  12.664 -2.2168 -1.1451  1.5756
  377MPD2     N 5645   0.138   4.524  12.836  0.6197  0.3967  0.7958
  377MPD2    H5 5646   0.063   4.547  12.900 -1.6273  0.7252 -1.9618
  377MPD2    N1 5647   0.369   0.046  12.477  0.2809  0.5255  0.2697
  377MPD2    H7 5648   0.344   0.122  12.413 -0.1986 -2.7422 -3.4127
  378TMC3    C1 5649   0.659   0.179  12.221 -0.3300 -0.8668 -0.1087
  378TMC3    C2 5650   0.557   0.122  12.288 -0.0979 -0.1391 -0.4591
  378TMC3    C3 5651   0.588   0.040  12.394  0.2762  0.1447  0.0830
  378TMC3    C4 5652   0.792   0.169  12.261 -0.2755  0.3730  0.1303
  378TMC3    C5 5653   0.818   0.091  12.376 -0.1821  0.7771 -0.2100
  378TMC3    C6 5654   0.717   0.036  12.447  0.5775 -0.3185 -0.3008
  378TMC3     C 5655   0.624   0.265  12.113 -0.2277 -0.2952 -0.6020
  378TMC3     O 5656   0.508   0.305  12.110  0.2323  1.1678 -0.2679
  378TMC3     H 5657   0.459   0.121  12.241 -1.5033 -2.3328  2.4913
  378TMC3    H1 5658   0.877   0.222  12.220  0.3804  0.8064  2.0668
  378TMC3    H2 5659   0.734   4.716  12.545 -0.8834 -1.0141 -0.3610
  378TMC3    C7 5660   0.953   0.094  12.437  1.0673  0.2498  0.7483
  378TMC3    C8 5661   0.490   4.698  12.479  0.2345  0.1368  0.0977
  378TMC3    O1 5662   0.956   0.054  12.555  0.3593 -0.5114  0.4154
  378TMC3    O2 5663   0.529   4.611  12.557 -0.3558 -0.5776 -0.5042
  379MPD2     C 5664   1.373   3.243  15.858 -0.0423 -0.1195  0.9192
  379MPD2    C1 5665   1.296   3.158  15.931 -0.1359  0.5614  0.1942
  379MPD2    C2 5666   1.357   3.076  16.027  0.3009  0.1854 -0.2447
  379MPD2    C3 5667   1.491   3.093  16.052 -0.7211 -0.6278  0.4418
  379MPD2    C4 5668   1.566   3.183  15.977 -0.4144  0.2852  0.4661
  379MPD2    C5 5669   1.510   3.257  15.882 -0.2592  0.2126  0.2624
  379MPD2     H 5670   1.290   3.017  16.089 -3.3722  2.5289 -1.9679
  379MPD2    H1 5671   1.670   3.198  16.003  0.0617  0.8050 -1.7682
  379MPD2    H2 5672   1.329   3.310  15.785 -2.0230 -0.2913  1.9608
  379MPD2    H3 5673   1.572   3.328  15.829  1.2314 -3.3929 -2.8123
  379MPD2     N 5674   1.567   3.020  16.144  0.0989 -0.9786 -0.0725
  379MPD2    H5 5675   1.667   3.016  16.134  0.0492  1.1919 -1.5452
  379MPD2    N1 5676   1.161   3.147  15.890 -0.4683 -0.0022  0.5535
  379MPD2    H7 5677   1.142   3.188  15.799  1.0974 -1.0095 -0.2280
  380TMC3    C1 5678   0.969   3.040  15.830  0.0382 -0.5723 -0.3858
  380TMC3    C2 5679   1.014   2.936  15.752 -0.2871 -0.2839  0.4521
  380TMC3    C3 5680   0.976   2.936  15.616  0.1689  0.6754  0.5130
  380TMC3    C4 5681   0.870   3.132  15.787  1.3004 -0.4300  0.3739
  380TMC3    C5 5682   0.816   3.100  15.660 -0.1548 -0.0873 -0.6586
  380TMC3    C6 5683   0.869   3.005  15.576 -0.0080  0.4028  0.4115
  380TMC3     C 5684   1.059   3.069  15.937 -0.5806  0.4832 -0.4076
  380TMC3     O 5685   1.072   2.986  16.026 -0.2161 -0.2629 -0.2090
  380TMC3     H 5686   1.102   2.887  15.793  0.5224  2.1427  1.6199
  380TMC3    H1 5687   0.831   3.219  15.839 -1.9109 -0.3617 -2.0972
  380TMC3    H2 5688   0.829   3.002  15.475  1.6834 -0.5276 -0.2403
  380TMC3    C7 5689   0.720   3.202  15.607  0.7457 -0.4318 -0.0550
  380TMC3    C8 5690   1.069   2.896  15.518  0.3994  0.2960  0.5658
  380TMC3    O1 5691   0.736   3.320  15.635 -0.4051 -0.1324 -0.1811
  380TMC3    O2 5692   1.040   2.912  15.397 -0.2802 -0.1584  0.4180
  381TMC3    C1 5693   0.667   4.405  15.953  0.4782  0.4503 -0.0778
  381TMC3    C2 5694   0.799   4.436  15.965 -0.0011 -0.0774  0.3096
  381TMC3    C3 5695   0.850   4.474  16.089  0.1003  0.2137  0.7759
  381TMC3    C4 5696   0.590   4.404  16.071  0.2016  0.0695  0.3977
  381TMC3    C5 5697   0.652   4.423  16.195  0.5451 -0.0989 -0.2657
  381TMC3    C6 5698   0.783   4.460  16.209  0.4424 -0.6840  0.5341
  381TMC3     C 5699   0.597   4.382  15.829 -0.7484  0.5754 -0.0810
  381TMC3     O 5700   0.479   4.414  15.838  1.1219 -0.0886 -0.5049
  381TMC3     H 5701   0.855   4.457  15.874  0.6799 -2.0077  0.2586
  381TMC3    H1 5702   0.483   4.384  16.071 -0.0405  1.3509 -2.0818
  381TMC3    H2 5703   0.838   4.463  16.302 -1.2406 -3.2769  1.5951
  381TMC3    C7 5704   0.587   4.362  16.310  0.4087 -0.0402  0.0655
  381TMC3    C8 5705   0.996   4.490  16.090 -0.1347  0.5339 -0.0771
  381TMC3    O1 5706   0.553   4.245  16.312  0.5268 -0.1125 -0.3663
  381TMC3    O2 5707   1.058   4.425  16.007  0.4732 -0.5051  0.2155
  382MPD2     C 5708   0.605   1.912  17.018 -0.3675 -0.1535  0.4027
  382MPD2    C1 5709   0.538   1.984  17.109  0.2411  0.1279  0.4378
  382MPD2    C2 5710   0.437   1.923  17.185 -0.7155  0.0692  0.4658
  382MPD2    C3 5711   0.388   1.790  17.153  0.2954 -0.9925 -0.5021
  382MPD2    C4 5712   0.459   1.720  17.052 -0.9651 -0.3540  0.5594
  382MPD2    C5 5713   0.572   1.780  16.992  0.1759 -0.1464  0.0645
  382MPD2     H 5714   0.398   1.986  17.264  0.8804 -1.1341  2.2242
  382MPD2    H1 5715   0.432   1.625  17.007  1.5250 -0.3974 -0.8743
  382MPD2    H2 5716   0.688   1.950  16.960  0.3508 -2.4983 -0.1191
  382MPD2    H3 5717   0.647   1.725  16.937  1.2297  0.8756  0.4785
  382MPD2     N 5718   0.279   1.722  17.220 -0.1993 -0.1256  0.3503
  382MPD2    H5 5719   0.256   1.627  17.193 -1.2848  0.9060 -2.3432
  382MPD2    N1 5720   0.579   2.114  17.141  0.1786 -0.1237  0.0846
  382MPD2    H7 5721   0.523   2.152  17.218  2.1167  0.8228  1.0151
  383TMC3    C1 5722   0.107   1.674  17.370  0.3996 -0.2268  1.1559
  383TMC3    C2 5723   0.034   1.604  17.282 -0.2526  0.4352  0.1820
  383TMC3    C3 5724   4.661   1.521  17.337 -0.2064  0.3894  1.0435
  383TMC3    C4 5725   0.081   1.663  17.504 -0.1822  0.2851 -0.2377
  383TMC3    C5 5726   4.720   1.571  17.559 -0.5917  0.4086  0.1542
  383TMC3    C6 5727   4.643   1.497  17.471  1.0042  0.0634 -0.5989
  383TMC3     C 5728   0.213   1.769  17.332 -0.1520 -0.4953 -0.3153
  383TMC3     O 5729   0.233   1.866  17.403 -0.1973 -0.2428  0.1216
  383TMC3     H 5730   0.060   1.598  17.177 -2.6191  1.5432 -0.4687
  383TMC3    H1 5731   0.131   1.733  17.570 -1.0312  2.3925 -1.8197
  383TMC3    H2 5732   4.553   1.445  17.502  1.3279 -0.0990  0.0651
  383TMC3    C7 5733   4.680   1.595  17.694 -0.2977  0.3682 -0.0328
  383TMC3    C8 5734   4.602   1.427  17.241 -0.0766 -0.1393 -0.0359
  383TMC3    O1 5735   0.027   1.675   0.058  0.4076 -0.1332 -0.6438
  383TMC3    O2 5736   4.560   1.471  17.132  0.2742  0.1694 -0.1685
  384MPD2     C 5737   1.704   2.625  11.610  0.2926  0.2300 -0.8262
  384MPD2    C1 5738   1.681   2.612  11.747 -0.3741  0.0856  0.0079
  384MPD2    C2 5739   1.656   2.482  11.790 -0.6659  0.8584 -0.1886
  384MPD2    C3 5740   1.655   2.372  11.709 -0.0675 -0.2895  0.1634
  384MPD2    C4 5741   1.670   2.395  11.577  0.1234 -0.3185  0.2963
  384MPD2    C5 5742   1.696   2.517  11.526 -1.1569 -0.3870 -0.1746
  384MPD2     H 5743   1.634   2.471  11.896  0.8360  2.3030  0.2829
  384MPD2    H1 5744   1.679   2.312  11.508 -1.3258  0.6234 -1.0231
  384MPD2    H2 5745   1.750   2.718  11.580 -0.2117  0.2486 -1.5368
  384MPD2    H3 5746   1.718   2.531  11.421  3.0927  1.1324  0.9418
  384MPD2     N 5747   1.607   2.242  11.756 -0.0729 -0.2397 -0.0507
  384MPD2    H5 5748   1.609   2.172  11.683 -1.0081  0.1765 -0.4831
  384MPD2    N1 5749   1.671   2.734  11.830  0.1717  0.4011 -0.2957
  384MPD2    H7 5750   1.678   2.816  11.772  1.0098 -0.9482 -2.1230
  385TMC3    C1 5751   1.547   2.071  11.914  0.4748 -0.2114  0.9134
  385TMC3    C2 5752   1.427   2.041  11.855 -0.1826 -0.6351  0.4178
  385TMC3    C3 5753   1.332   1.979  11.939  0.3805  0.0718  0.0512
  385TMC3    C4 5754   1.570   2.044  12.047 -0.1066  0.5754 -0.6257
  385TMC3    C5 5755   1.465   2.009  12.127 -0.3407 -0.3498 -0.4947
  385TMC3    C6 5756   1.343   1.974  12.075 -0.1654  0.1250  0.6817
  385TMC3     C 5757   1.574   2.206  11.884  0.6052  0.6639  0.2163
  385TMC3     O 5758   1.579   2.276  11.985 -0.3354 -0.6967  0.5152
  385TMC3     H 5759   1.413   2.062  11.750 -0.6566 -1.2474  0.3581
  385TMC3    H1 5760   1.670   2.063  12.083 -2.2304  2.2385  4.4975
  385TMC3    H2 5761   1.272   1.925  12.139  0.8637 -2.3408 -0.0714
  385TMC3    C7 5762   1.465   2.076  12.259  0.2857 -0.1091  0.3775
  385TMC3    C8 5763   1.244   1.872  11.886  0.4999 -0.0150  0.9118
  385TMC3    O1 5764   1.391   2.038  12.351  0.2636  0.3909 -0.5022
  385TMC3    O2 5765   1.138   1.847  11.938  0.8400  0.0115 -0.4117
  386TMC3    C1 5766   1.120   0.796  11.795  0.4335  0.5133 -0.6021
  386TMC3    C2 5767   1.118   0.771  11.664 -0.3879 -0.6385 -0.5767
  386TMC3    C3 5768   1.011   0.809  11.589 -0.4207 -0.1666 -0.4418
  386TMC3    C4 5769   1.011   0.858  11.852 -0.3098 -0.1336 -0.3651
  386TMC3    C5 5770   0.901   0.891  11.777  0.3130  0.1371 -0.5921
  386TMC3    C6 5771   0.900   0.856  11.647 -0.0432  0.4824  0.3149
  386TMC3     C 5772   1.192   0.706  11.885 -0.2643  0.4202 -1.1080
  386TMC3     O 5773   1.128   0.668  11.979  0.2473  0.2490  0.7180
  386TMC3     H 5774   1.204   0.720  11.623  0.6970 -0.1011  1.0547
  386TMC3    H1 5775   1.011   0.870  11.959 -0.7392  0.9978 -0.4908
  386TMC3    H2 5776   0.812   0.886  11.591  0.3481 -2.0976 -1.7462
  386TMC3    C7 5777   0.766   0.908  11.844  0.3870 -0.1773  0.2026
  386TMC3    C8 5778   1.012   0.736  11.466  0.2297 -0.0909 -0.0749
  386TMC3    O1 5779   0.755   0.864  11.957  0.0426 -0.8649 -0.2347
  386TMC3    O2 5780   1.101   0.657  11.453 -0.0141  0.1832 -0.2201
  387MPD2     C 5781   3.865   0.374   9.363 -0.0636  0.3967 -0.2197
  387MPD2    C1 5782   3.944   0.332   9.471 -0.1474 -0.3220 -0.7100
  387MPD2    C2 5783   4.019   0.217   9.462  0.0790 -0.6338  0.1626
  387MPD2    C3 5784   4.022   0.141   9.349  0.3404  0.0728  0.8349
  387MPD2    C4 5785   3.933   0.166   9.245 -0.1777  0.5229  0.2513
  387MPD2    C5 5786   3.863   0.285   9.253 -0.2350 -0.6073  1.3582
  387MPD2     H 5787   4.091   0.205   9.542 -1.3560  2.5693  1.9260
  387MPD2    H1 5788   3.940   0.110   9.152 -2.0422  1.7180 -0.6010
  387MPD2    H2 5789   3.807   0.465   9.364 -0.7014  0.0048 -1.5320
  387MPD2    H3 5790   3.810   0.308   9.162  0.4176  2.9771  1.8650
  387MPD2     N 5791   4.118   0.039   9.341 -0.6389  0.2090  0.2063
  387MPD2    H5 5792   4.171   0.018   9.425 -0.3318 -0.9558 -0.2659
  387MPD2    N1 5793   3.959   0.402   9.596  0.2288 -0.2930  0.5276
  387MPD2    H7 5794   3.988   0.339   9.670  2.5299 -0.0864 -0.2025
  388TMC3    C1 5795   3.989   0.586   9.753 -0.1729  0.4009  0.0018
  388TMC3    C2 5796   3.986   0.717   9.781 -0.0616  0.1966 -0.8606
  388TMC3    C3 5797   4.071   0.763   9.873  0.2567 -0.3699 -0.1567
  388TMC3    C4 5798   4.084   0.505   9.815 -0.7458 -0.7143  0.2442
  388TMC3    C5 5799   4.162   0.549   9.918 -0.0500 -0.9790 -0.0946
  388TMC3    C6 5800   4.161   0.684   9.948  0.6601  0.4685  0.4881
  388TMC3     C 5801   3.934   0.540   9.625 -0.6122  0.5867 -0.6423
  388TMC3     O 5802   3.899   0.632   9.557 -0.3021  0.5790 -0.4576
  388TMC3     H 5803   3.917   0.783   9.732  0.3233  2.1783  1.2789
  388TMC3    H1 5804   4.086   0.397   9.802  2.1016 -0.2514 -3.3760
  388TMC3    H2 5805   4.240   0.725  10.010 -0.1079  1.6137  0.6993
  388TMC3    C7 5806   4.272   0.459   9.960 -0.0418  0.1680 -0.4111
  388TMC3    C8 5807   4.088   0.904   9.872 -1.1096 -0.6620  0.0847
  388TMC3    O1 5808   4.288   0.448  10.080  0.1060  0.2170  0.3971
  388TMC3    O2 5809   4.057   0.971   9.779  0.2109  0.5997  0.4613
  389MPD2     C 5810   3.312   3.564  11.066 -0.9431 -0.2675  0.8325
  389MPD2    C1 5811   3.257   3.462  10.993 -0.2779 -0.4894 -0.3370
  389MPD2    C2 5812   3.219   3.354  11.070  0.1316 -0.5584  0.2436
  389MPD2    C3 5813   3.234   3.354  11.205  0.6728 -0.2180  0.3112
  389MPD2    C4 5814   3.282   3.463  11.273  0.7366 -0.1838  0.1907
  389MPD2    C5 5815   3.330   3.564  11.204 -0.0078 -0.0818 -0.1678
  389MPD2     H 5816   3.172   3.267  11.025 -0.6466 -0.0381  0.0584
  389MPD2    H1 5817   3.279   3.471  11.381  0.4123 -1.0518  0.2448
  389MPD2    H2 5818   3.362   3.647  11.017 -1.8453 -0.4520 -0.3935
  389MPD2    H3 5819   3.374   3.650  11.252 -0.7227  0.5743 -0.6885
  389MPD2     N 5820   3.167   3.254  11.281 -0.3150 -0.7585 -0.6600
  389MPD2    H5 5821   3.164   3.279  11.379  1.5301  0.0434 -0.7990
  389MPD2    N1 5822   3.241   3.482  10.853 -0.5293  0.2324 -0.0480
  389MPD2    H7 5823   3.280   3.562  10.805 -0.0138  0.1896  0.2945
  390TMC3    C1 5824   3.063   3.061  11.362 -0.4037  0.1812  0.1992
  390TMC3    C2 5825   3.084   2.926  11.367  0.0341  0.1832  0.1900
  390TMC3    C3 5826   3.050   2.858  11.478 -0.2362  0.3522  0.0765
  390TMC3    C4 5827   3.041   3.133  11.480  0.5702  0.4186 -0.1649
  390TMC3    C5 5828   3.015   3.052  11.590 -0.4689 -0.1889 -0.5091
  390TMC3    C6 5829   3.027   2.918  11.596  0.2075 -0.2230  0.1683
  390TMC3     C 5830   3.134   3.125  11.249 -0.7919  0.4393  0.0485
  390TMC3     O 5831   3.160   3.061  11.150  0.0365 -0.1494 -0.0323
  390TMC3     H 5832   3.109   2.873  11.277 -1.3254  1.1843 -0.7847
  390TMC3    H1 5833   3.005   3.235  11.465 -1.7243 -0.7491 -2.6442
  390TMC3    H2 5834   2.989   2.870  11.686  1.8924  0.7277  1.3811
  390TMC3    C7 5835   2.896   3.096  11.662  0.2206 -0.3659  0.1543
  390TMC3    C8 5836   3.009   2.719  11.462  1.1343  0.4111 -0.0326
  390TMC3    O1 5837   2.902   3.202  11.723  0.2521 -0.3333 -0.0264
  390TMC3    O2 5838   2.973   2.691  11.347  0.2740  0.8888  0.1083
  391MPD2     C 5839   3.164   4.429  11.150  0.5259  0.5234  0.0731
  391MPD2    C1 5840   3.253   4.530  11.133  0.4455 -0.3570  0.8619
  391MPD2    C2 5841   3.255   4.589  11.005  0.5821 -0.2562  0.2899
  391MPD2    C3 5842   3.185   4.539  10.901 -0.0888  0.4732 -0.2054
  391MPD2    C4 5843   3.098   4.430  10.922 -0.4868 -0.1681 -0.6791
  391MPD2    C5 5844   3.086   4.386  11.049 -0.6670 -0.4471  0.5243
  391MPD2     H 5845   3.306   4.681  10.980 -2.1788  1.0957 -0.3698
  391MPD2    H1 5846   3.025   4.388  10.853 -2.1683 -0.0736  1.0366
  391MPD2    H2 5847   3.163   4.383  11.248 -0.8398  1.5754  0.5369
  391MPD2    H3 5848   3.015   4.306  11.068 -0.1160 -0.7375  1.3590
  391MPD2     N 5849   3.197   4.594  10.773 -0.1993 -0.1174  0.2498
  391MPD2    H5 5850   3.276   4.655  10.757  0.1652 -0.6679 -0.0625
  391MPD2    N1 5851   3.323   4.576  11.242  0.2624 -0.9700  0.1815
  391MPD2    H7 5852   3.306   4.538  11.335  1.0737 -0.9313  0.3379
  392TMC3    C1 5853   3.130   4.672  10.563 -0.0971 -0.0417  0.4060
  392TMC3    C2 5854   3.031   4.691  10.471  0.3213  0.1082 -0.5593
  392TMC3    C3 5855   3.042   0.075  10.380 -0.7416  0.1496  0.5748
  392TMC3    C4 5856   3.237   0.038  10.567 -0.0333  0.3248  0.1039
  392TMC3    C5 5857   3.248   0.141  10.468 -0.1189 -0.3518 -0.7332
  392TMC3    C6 5858   3.148   0.161  10.374  0.3471  0.1795  0.4639
  392TMC3     C 5859   3.099   4.591  10.679 -0.0672  0.1960 -0.7080
  392TMC3     O 5860   2.977   4.571  10.683 -0.0294  0.5045  0.8072
  392TMC3     H 5861   2.964   4.608  10.456 -0.4578  0.3028  1.8181
  392TMC3    H1 5862   3.320   0.020  10.635 -0.7998  1.2757  1.3025
  392TMC3    H2 5863   3.153   0.231  10.291  0.1401  0.6845  0.8717
  392TMC3    C7 5864   3.363   0.225  10.475  0.2667  0.2273 -0.2182
  392TMC3    C8 5865   2.937   0.072  10.275 -0.3486  0.9574 -0.0852
  392TMC3    O1 5866   3.437   0.211  10.575 -0.1900  0.0325 -0.4797
  392TMC3    O2 5867   2.869   4.694  10.272 -0.1535  0.2251 -0.0882
  393TMC3    C1 5868   1.922   2.265  10.605  0.7247 -0.2395 -0.2974
  393TMC3    C2 5869   1.805   2.232  10.537 -0.8941 -0.4533  0.3572
  393TMC3    C3 5870   1.816   2.132  10.447 -0.0419 -0.0241  0.1408
  393TMC3    C4 5871   2.041   2.192  10.589  0.4663  0.0089  0.0280
  393TMC3    C5 5872   2.043   2.093  10.497 -0.6636  1.6408 -0.0118
  393TMC3    C6 5873   1.931   2.061  10.422  0.4654  0.2198  0.1358
  393TMC3     C 5874   1.942   2.397  10.648  0.0839 -0.2827 -0.2239
  393TMC3     O 5875   2.038   2.424  10.719 -0.3222  0.2215 -0.1818
  393TMC3     H 5876   1.708   2.280  10.549 -0.5647 -0.1119  1.6865
  393TMC3    H1 5877   2.130   2.231  10.638  0.7973  0.2183 -0.7384
  393TMC3    H2 5878   1.937   1.992  10.339 -0.3256  0.6863 -0.2994
  393TMC3    C7 5879   2.170   2.052  10.432  0.0147  0.6096 -0.4767
  393TMC3    C8 5880   1.696   2.092  10.380 -0.0562  0.2683 -0.2396
  393TMC3    O1 5881   2.162   1.961  10.352  0.4636 -0.5486 -0.4607
  393TMC3    O2 5882   1.597   2.161  10.381 -0.2991  0.4738 -0.1880
  394TMC3    C1 5883   3.182   3.438  10.632 -0.2696 -0.0056 -0.2159
  394TMC3    C2 5884   3.078   3.375  10.567  0.4350  0.3742  0.0266
  394TMC3    C3 5885   3.082   3.377  10.430  0.0625  0.4935 -0.1258
  394TMC3    C4 5886   3.290   3.495  10.575 -0.6529 -0.8473 -0.3139
  394TMC3    C5 5887   3.298   3.483  10.437  0.1286  0.0245 -0.0569
  394TMC3    C6 5888   3.194   3.422  10.367 -0.4371 -0.1285 -0.0037
  394TMC3     C 5889   3.192   3.387  10.768  0.1341  0.6915  0.0196
  394TMC3     O 5890   3.149   3.275  10.791 -0.7096 -0.2810  0.0519
  394TMC3     H 5891   2.999   3.326  10.622 -0.6110  1.1802 -0.7508
  394TMC3    H1 5892   3.376   3.528  10.633 -0.5343  0.3989 -1.1810
  394TMC3    H2 5893   3.194   3.420  10.258  0.7033  0.7025 -0.0229
  394TMC3    C7 5894   3.428   3.500  10.386  0.4624 -0.3255 -0.5136
  394TMC3    C8 5895   3.018   3.263  10.363 -0.2883  0.0745  0.2912
  394TMC3    O1 5896   3.488   3.597  10.427 -0.0596 -0.6839 -0.0377
  394TMC3    O2 5897   2.895   3.254  10.374  0.0230  0.2498  0.2759
  395TMC3    C1 5898   2.777   0.471  14.410  0.2817 -0.7696 -0.0375
  395TMC3    C2 5899   2.697   0.389  14.488 -0.1924  0.9840  0.1813
  395TMC3    C3 5900   2.678   0.424  14.616  0.5473  0.4448  0.5862
  395TMC3    C4 5901   2.827   0.594  14.462  1.3401  0.7495  0.0279
  395TMC3    C5 5902   2.804   0.616  14.592 -0.2513 -0.5383 -1.1437
  395TMC3    C6 5903   2.729   0.532  14.673  0.1152  0.6012  0.1302
  395TMC3     C 5904   2.884   0.407  14.327 -0.1874 -0.1461  0.0678
  395TMC3     O 5905   3.002   0.428  14.351 -0.3286  1.0000 -0.1418
  395TMC3     H 5906   2.637   0.313  14.438  0.7736 -0.2873  0.9362
  395TMC3    H1 5907   2.897   0.653  14.404  1.2005  0.1169 -0.7758
  395TMC3    H2 5908   2.724   0.546  14.781  0.0472  2.5105 -0.1213
  395TMC3    C7 5909   2.882   0.712  14.659  0.4859 -0.0761 -0.6202
  395TMC3    C8 5910   2.627   0.318  14.705 -0.3689  0.4428 -0.1460
  395TMC3    O1 5911   2.933   0.679  14.764 -0.0982  0.1401 -0.2586
  395TMC3    O2 5912   2.564   0.351  14.806  0.0233 -0.4897 -0.2100
  396MPD2     C 5913   2.668   1.628  16.616 -0.3431 -0.2918  0.3953
  396MPD2    C1 5914   2.787   1.678  16.660  0.7508 -0.2594 -0.4612
  396MPD2    C2 5915   2.820   1.812  16.631 -0.7991  0.0401 -0.5237
  396MPD2    C3 5916   2.735   1.888  16.555 -0.4645  0.1455 -0.5288
  396MPD2    C4 5917   2.622   1.834  16.507 -0.2494  0.7210 -0.2249
  396MPD2    C5 5918   2.587   1.702  16.536  0.4197 -0.2347  0.2061
  396MPD2     H 5919   2.912   1.861  16.660  0.6821 -2.8142 -0.4225
  396MPD2    H1 5920   2.555   1.894  16.447 -0.3681  1.6435  0.8484
  396MPD2    H2 5921   2.646   1.522  16.621  0.4600 -0.4782 -0.0644
  396MPD2    H3 5922   2.499   1.648  16.505 -0.3011  0.9849  0.1186
  396MPD2     N 5923   2.782   2.018  16.521  0.1787  0.0947  0.7272
  396MPD2    H5 5924   2.879   2.039  16.542 -0.0131 -1.7697  3.5485
  396MPD2    N1 5925   2.866   1.598  16.738  0.2820  0.5655 -0.1077
  396MPD2    H7 5926   2.845   1.500  16.755  2.1944  0.2401  0.3003
  397TMC3    C1 5927   3.061   1.519  16.834 -0.0560  0.3577 -0.1116
  397TMC3    C2 5928   3.173   1.482  16.772  0.4437  0.1445  0.3682
  397TMC3    C3 5929   3.205   1.352  16.773  0.5601 -0.2247 -0.6412
  397TMC3    C4 5930   2.987   1.430  16.906 -0.0236  0.0865  0.6113
  397TMC3    C5 5931   3.042   1.303  16.931 -0.0359 -0.3586  0.2044
  397TMC3    C6 5932   3.148   1.256  16.863  0.5022  0.2280 -0.7573
  397TMC3     C 5933   2.991   1.625  16.777 -0.2952 -0.0551 -0.2104
  397TMC3     O 5934   3.064   1.719  16.746 -0.2318 -0.5999 -0.2852
  397TMC3     H 5935   3.210   1.545  16.692 -1.0190 -1.4638 -1.5684
  397TMC3    H1 5936   2.906   1.465  16.969 -2.1452 -0.7131 -1.7149
  397TMC3    H2 5937   3.168   1.150  16.853  2.0052  0.4206  0.2206
  397TMC3    C7 5938   2.955   1.212  16.996  0.4575 -0.0462 -0.1769
  397TMC3    C8 5939   3.299   1.308  16.672 -0.1529  0.2742 -1.2496
  397TMC3    O1 5940   2.837   1.235  16.993 -0.5975 -0.3659  0.5543
  397TMC3    O2 5941   3.280   1.198  16.626 -0.4336 -0.5103  0.1341
  398MPD2     C 5942   1.331   2.498   0.066 -0.2895  0.7755 -0.2246
  398MPD2    C1 5943   1.377   2.375   0.115  0.3324 -0.3591  0.1121
  398MPD2    C2 5944   1.494   2.368   0.192 -0.5368  0.2576 -0.0602
  398MPD2    C3 5945   1.569   2.481   0.212 -0.7205  0.1958 -0.4460
  398MPD2    C4 5946   1.529   2.599   0.142 -0.4935  0.4141  0.2367
  398MPD2    C5 5947   1.412   2.610   0.078  0.3998 -0.2722  0.3739
  398MPD2     H 5948   1.523   2.270   0.227 -0.7096  0.1440 -0.2368
  398MPD2    H1 5949   1.593   2.686   0.156 -0.5195  0.6697 -1.2708
  398MPD2    H2 5950   1.241   2.499   0.006  0.9370 -2.7197 -2.1060
  398MPD2    H3 5951   1.386   2.700   0.024  0.5360 -0.6294 -0.2867
  398MPD2     N 5952   1.681   2.477   0.295 -0.7437  0.6687  0.2905
  398MPD2    H5 5953   1.719   2.389   0.329 -1.8216  0.2664  0.4674
  398MPD2    N1 5954   1.315   2.252   0.094 -0.1211  0.4568  0.0898
  398MPD2    H7 5955   1.375   2.173   0.116 -0.0792 -0.1831 -2.3220
  399TMC3    C1 5956   1.158   2.082   0.025  0.1046 -0.0505  0.1520
  399TMC3    C2 5957   1.265   1.997   0.033 -0.9246  0.6240 -0.0758
  399TMC3    C3 5958   1.232   1.866   0.030 -0.4401  0.5983  0.1977
  399TMC3    C4 5959   1.028   2.044   0.032 -0.0793  0.3217 -0.0451
  399TMC3    C5 5960   0.997   1.911   0.022  0.3775 -0.0203 -0.0665
  399TMC3    C6 5961   1.101   1.820   0.030 -0.2231 -0.1661 -0.4962
  399TMC3     C 5962   1.188   2.228   0.046 -0.7514 -0.5271 -0.1664
  399TMC3     O 5963   1.108   2.315   0.012  0.1588  0.0092  0.1053
  399TMC3     H 5964   1.368   2.029   0.024 -0.4319  0.1279  3.6676
  399TMC3    H1 5965   0.949   2.118   0.022 -1.7389 -1.1819  2.1244
  399TMC3    H2 5966   1.078   1.717   0.002  0.6534 -0.5526  0.1887
  399TMC3    C7 5967   0.868   1.861   0.044  0.0443 -0.6544 -0.5809
  399TMC3    C8 5968   1.347   1.781   0.067  0.9374 -0.0789 -0.0332
  399TMC3    O1 5969   0.852   1.741   0.026  0.1023 -0.4766 -0.1546
  399TMC3    O2 5970   1.450   1.833   0.105 -0.1917  0.0822  0.1984
  400TMC3    C1 5971   0.018   0.959  16.913  0.2571  0.4620  0.2132
  400TMC3    C2 5972   4.621   0.951  16.848  0.0192  0.1811 -0.2396
  400TMC3    C3 5973   4.566   1.062  16.800  0.3478 -0.3330  0.4245
  400TMC3    C4 5974   0.078   1.076  16.936  0.2011 -0.4035  0.1076
  400TMC3    C5 5975   0.012   1.195  16.902  0.3004  0.3801  0.3851
  400TMC3    C6 5976   4.611   1.189  16.835 -0.2130 -0.2925 -0.4931
  400TMC3     C 5977   0.067   0.840  16.977  0.4034  0.9015 -0.6554
  400TMC3     O 5978   4.720   0.740  16.960 -0.2472  0.6163  0.3130
  400TMC3     H 5979   4.564   0.858  16.851  0.7690 -0.3438 -1.7722
  400TMC3    H1 5980   0.180   1.085  16.972 -0.7355 -0.9243  2.9389
  400TMC3    H2 5981   4.565   1.276  16.790  0.3831  0.5452  0.5439
  400TMC3    C7 5982   0.092   1.313  16.907 -0.6287 -0.3288  0.6497
  400TMC3    C8 5983   4.458   1.055  16.698 -0.0330  0.4651  0.2249
  400TMC3    O1 5984   0.211   1.302  16.919  0.4764  0.0251 -0.0306
  400TMC3    O2 5985   4.389   1.151  16.673  0.2125 -0.0399  0.0619
  401MPD2     C 5986   2.379   4.281   1.196 -0.7053 -0.4313  0.3940
  401MPD2    C1 5987   2.504   4.283   1.132  0.4052 -0.7551  0.2165
  401MPD2    C2 5988   2.557   4.175   1.064  0.2437 -0.2135 -0.5034
  401MPD2    C3 5989   2.487   4.058   1.047 -0.1292  0.0236 -1.0521
  401MPD2    C4 5990   2.360   4.057   1.107  0.3665 -0.1743 -0.2748
  401MPD2    C5 5991   2.310   4.165   1.182  0.6712 -0.2029 -0.0281
  401MPD2     H 5992   2.653   4.183   1.014 -0.8587  0.1559 -2.5572
  401MPD2    H1 5993   2.303   3.966   1.096  1.3555 -0.6700 -1.1769
  401MPD2    H2 5994   2.338   4.366   1.249 -0.7128 -0.0271 -0.2592
  401MPD2    H3 5995   2.209   4.172   1.221  0.8749  0.3413  0.4178
  401MPD2     N 5996   2.543   3.949   0.980 -0.5018  0.1505  0.1161
  401MPD2    H5 5997   2.625   3.958   0.921 -1.1542  0.6674 -0.7139
  401MPD2    N1 5998   2.586   4.398   1.149 -0.3175  0.4381 -0.0878
  401MPD2    H7 5999   2.678   4.397   1.106 -0.4840  1.7278 -0.4642
  402TMC3    C1 6000   2.580   3.749   0.877 -0.5626  0.6136  0.0625
  402TMC3    C2 6001   2.637   3.632   0.918  0.6921  0.3954  0.4911
  402TMC3    C3 6002   2.745   3.589   0.850  0.1748  0.4501 -0.0459
  402TMC3    C4 6003   2.627   3.815   0.762  0.1636  0.6149  0.6322
  402TMC3    C5 6004   2.735   3.766   0.703  0.3163 -0.3032  0.2711
  402TMC3    C6 6005   2.804   3.654   0.745  1.1454  1.1001  0.8619
  402TMC3     C 6006   2.493   3.822   0.966 -0.7788 -0.0936  0.4033
  402TMC3     O 6007   2.426   3.764   1.048 -0.1262 -0.1720  0.2156
  402TMC3     H 6008   2.601   3.584   1.008 -0.4477  0.1595 -0.0853
  402TMC3    H1 6009   2.565   3.892   0.718 -0.0048 -1.6214 -3.1202
  402TMC3    H2 6010   2.890   3.608   0.700 -1.2772 -1.3240 -1.2915
  402TMC3    C7 6011   2.795   3.858   0.601 -0.0926 -0.5096  0.0296
  402TMC3    C8 6012   2.838   3.497   0.922  0.1862  0.6528 -0.2754
  402TMC3    O1 6013   2.724   3.950   0.565 -0.1123  0.3743 -0.1626
  402TMC3    O2 6014   2.957   3.522   0.898  0.7511  0.3683 -0.1248
  403MPD2     C 6015   1.106   3.182  13.209 -0.7265  0.2822 -0.3957
  403MPD2    C1 6016   1.088   3.061  13.274  0.3620 -0.8070  0.1843
  403MPD2    C2 6017   1.176   3.026  13.383  0.8554 -0.6487 -0.0574
  403MPD2    C3 6018   1.262   3.124  13.435  0.6650  0.3844  0.1282
  403MPD2    C4 6019   1.272   3.249  13.373 -0.0319 -0.0946 -1.1487
  403MPD2    C5 6020   1.201   3.271  13.258 -0.5047 -0.4875  0.0496
  403MPD2     H 6021   1.181   2.930  13.433  0.3534 -0.7089 -0.1187
  403MPD2    H1 6022   1.344   3.327  13.396 -0.1832 -0.0637 -0.7741
  403MPD2    H2 6023   1.042   3.205  13.124 -1.3564  1.2080  0.3342
  403MPD2    H3 6024   1.228   3.363  13.206  0.5140 -0.6332  0.3183
  403MPD2     N 6025   1.346   3.101  13.543 -0.4984 -0.4233 -0.0710
  403MPD2    H5 6026   1.344   3.007  13.581  2.0869  0.0398  1.2283
  403MPD2    N1 6027   1.009   2.966  13.207  0.4139  0.3917  0.1132
  403MPD2    H7 6028   0.959   3.002  13.126 -0.2826  0.3343  0.5214
  404TMC3    C1 6029   0.918   2.755  13.150  1.1100 -0.4910  0.0068
  404TMC3    C2 6030   0.917   2.622  13.189 -0.7149 -0.1308 -0.2317
  404TMC3    C3 6031   0.930   2.522  13.094 -0.0841 -0.4227  0.2285
  404TMC3    C4 6032   0.925   2.786  13.016  0.2382 -0.2491  0.3029
  404TMC3    C5 6033   0.936   2.683  12.930  0.0156  0.0866 -0.7121
  404TMC3    C6 6034   0.939   2.548  12.963 -0.6045  0.3756  0.0096
  404TMC3     C 6035   0.998   2.836  13.247  0.1607  0.3935 -0.2500
  404TMC3     O 6036   1.036   2.781  13.351  0.5805  0.2526 -0.3457
  404TMC3     H 6037   0.908   2.601  13.295  1.3730  0.2525  0.0090
  404TMC3    H1 6038   0.917   2.887  12.977 -2.1226 -1.1733 -1.6148
  404TMC3    H2 6039   0.966   2.468  12.895  1.5242  1.4260 -0.3712
  404TMC3    C7 6040   0.944   2.724  12.787  0.0861 -0.1233 -0.1279
  404TMC3    C8 6041   1.000   2.404  13.144 -0.3486 -0.8254 -1.2895
  404TMC3    O1 6042   0.972   2.840  12.761  0.5915 -0.0742  0.8245
  404TMC3    O2 6043   1.091   2.368  13.067 -0.0347  0.0510  0.4855
  405MPD2     C 6044   1.612   3.310  14.627 -0.1179  0.4105  0.0973
  405MPD2    C1 6045   1.567   3.239  14.521  0.2415  0.1893  0.2977
  405MPD2    C2 6046   1.514   3.289  14.410  0.6804  0.0356  0.1097
  405MPD2    C3 6047   1.506   3.429  14.397  0.0664  0.6240  0.1137
  405MPD2    C4 6048   1.558   3.508  14.499  0.0432  0.2717 -0.0193
  405MPD2    C5 6049   1.615   3.449  14.607 -0.4678  0.1099 -0.0026
  405MPD2     H 6050   1.470   3.221  14.338 -0.1550  0.8512 -0.1530
  405MPD2    H1 6051   1.543   3.615  14.499  0.4435  0.3246 -0.5022
  405MPD2    H2 6052   1.658   3.258  14.710  0.3572 -0.2257 -0.5728
  405MPD2    H3 6053   1.662   3.508  14.684 -0.8860 -1.5159  1.5061
  405MPD2     N 6054   1.433   3.481  14.287 -0.0951  0.2550  0.0294
  405MPD2    H5 6055   1.407   3.418  14.212  2.2326 -0.9748  0.2807
  405MPD2    N1 6056   1.561   3.095  14.529 -0.8797  0.6564  0.4605
  405MPD2    H7 6057   1.570   3.048  14.439 -1.0560  0.8735  0.3278
  406TMC3    C1 6058   1.045   3.646  14.142 -0.2777 -0.1354  0.2333
  406TMC3    C2 6059   1.038   3.537  14.057 -0.1199  0.0062  0.6018
  406TMC3    C3 6060   1.143   3.455  14.039 -0.0446  0.2162 -0.2713
  406TMC3    C4 6061   1.170   3.676  14.191  0.7135  0.0533 -0.0346
  406TMC3    C5 6062   1.278   3.596  14.169 -0.2190 -0.5537  0.4765
  406TMC3    C6 6063   1.266   3.489  14.084 -0.1962 -0.4934  0.1461
  406TMC3     C 6064   0.929   3.697  14.203 -0.5820  0.0028  0.6821
  406TMC3     O 6065   0.932   3.812  14.234 -0.2438  0.2512 -0.0957
  406TMC3     H 6066   0.943   3.514  14.009  0.3717  1.2378 -0.9562
  406TMC3    H1 6067   1.165   3.750  14.270  2.3240 -1.7706  1.7757
  406TMC3    H2 6068   1.360   3.445  14.053  1.5981  1.1075  3.2517
  406TMC3    C7 6069   1.379   3.602  14.271 -0.5707  0.2038  0.2628
  406TMC3    C8 6070   1.114   3.330  13.969 -1.2495  0.7898  0.1945
  406TMC3    O1 6071   1.388   3.702  14.348  0.1254 -0.8275 -0.2552
  406TMC3    O2 6072   1.020   3.315  13.895 -0.5956 -0.0989 -0.3117
  407MPD2     C 6073   4.020   4.433   9.542  0.3956  0.7122 -0.0667
  407MPD2    C1 6074   3.943   4.549   9.533 -0.0152  0.0698 -0.8778
  407MPD2    C2 6075   3.962   4.646   9.633 -0.3433  0.1859  0.1373
  407MPD2    C3 6076   4.055   4.630   9.736 -0.8125  0.0187  0.6272
  407MPD2    C4 6077   4.129   4.520   9.737  0.0634 -0.0653 -0.4479
  407MPD2    C5 6078   4.119   4.426   9.638  0.3054  0.2697  0.3926
  407MPD2     H 6079   3.902   0.011   9.621 -0.1039  0.4929  1.2467
  407MPD2    H1 6080   4.200   4.491   9.814 -1.1406  0.4556  0.8532
  407MPD2    H2 6081   4.007   4.359   9.463 -1.0336  2.1507 -1.1698
  407MPD2    H3 6082   4.182   4.338   9.644  0.4653  0.4294  1.1281
  407MPD2     N 6083   4.050   4.709   9.850 -0.4675 -0.7020 -0.5936
  407MPD2    H5 6084   4.116   4.673   9.919  0.4977 -0.3860 -1.3588
  407MPD2    N1 6085   3.846   4.577   9.435  0.3395 -0.0453  0.5875
  407MPD2    H7 6086   3.800   4.666   9.447  1.5257  0.6671 -0.2223
  408TMC3    C1 6087   3.740   4.573   9.222 -0.4291 -0.2598  0.1393
  408TMC3    C2 6088   3.771   4.560   9.092  0.6141  0.1494  0.2915
  408TMC3    C3 6089   3.695   4.632   9.003  0.6122  0.1857  0.4984
  408TMC3    C4 6090   3.648   4.662   9.268  0.0152 -0.8333  0.1363
  408TMC3    C5 6091   3.563   4.720   9.175 -0.1936  0.2472  0.2441
  408TMC3    C6 6092   3.589   4.709   9.041 -0.1844 -0.2074 -0.4983
  408TMC3     C 6093   3.830   4.501   9.311 -0.6400 -0.0340 -0.4179
  408TMC3     O 6094   3.886   4.407   9.260 -0.1989 -0.8352 -0.0741
  408TMC3     H 6095   3.872   4.537   9.059  0.5077  0.3226 -0.1645
  408TMC3    H1 6096   3.647   4.705   9.367  0.1009 -2.0124  0.6547
  408TMC3    H2 6097   3.533   0.049   8.973  2.8664  2.3233 -0.6181
  408TMC3    C7 6098   3.491   0.114   9.216  0.2944 -0.4856  0.0416
  408TMC3    C8 6099   3.782   4.683   8.905  0.3834  0.4929  0.2390
  408TMC3    O1 6100   3.549   0.186   9.295 -0.3501 -0.2885  0.2534
  408TMC3    O2 6101   3.871   4.609   8.859 -0.3449 -0.4229  0.3260
  409MPD2     C 6102   3.431   0.638  16.712  0.4680  0.4203 -0.9706
  409MPD2    C1 6103   3.525   0.625  16.810 -0.0798 -0.5079 -0.5591
  409MPD2    C2 6104   3.636   0.710  16.807  0.0875 -0.1606  0.6574
  409MPD2    C3 6105   3.649   0.814  16.713  0.1844 -0.2637 -0.4545
  409MPD2    C4 6106   3.551   0.821  16.617  0.5217  0.1794  0.1639
  409MPD2    C5 6107   3.446   0.735  16.614 -0.1006 -0.6106 -0.5026
  409MPD2     H 6108   3.707   0.687  16.886  1.4351 -0.7240 -0.7128
  409MPD2    H1 6109   3.557   0.903  16.546 -1.2191  2.8677  3.0847
  409MPD2    H2 6110   3.345   0.574  16.699  1.1375 -1.3735  3.1493
  409MPD2    H3 6111   3.369   0.745  16.539 -0.9977 -0.4851  0.4431
  409MPD2     N 6112   3.762   0.907  16.705  0.1271  0.5921  0.0376
  409MPD2    H5 6113   3.763   0.972  16.626  1.5589 -1.5922 -1.7509
  409MPD2    N1 6114   3.499   0.538  16.924 -0.3663  0.1212  0.5808
  409MPD2    H7 6115   3.570   0.521  16.995  2.0789  3.4369 -1.0428
  410TMC3    C1 6116   3.965   1.016  16.758  0.1727  0.2717 -0.4503
  410TMC3    C2 6117   4.038   1.070  16.858  0.2717 -0.5718 -0.1414
  410TMC3    C3 6118   4.110   1.181  16.840  0.0784  0.1786 -0.3846
  410TMC3    C4 6119   3.953   1.082  16.635 -0.4871 -0.6495 -0.2644
  410TMC3    C5 6120   4.021   1.203  16.623  0.2036  0.1427 -0.1583
  410TMC3    C6 6121   4.093   1.258  16.727 -0.0297 -0.5343 -0.0851
  410TMC3     C 6122   3.861   0.917  16.800  0.5579 -0.3909  0.3244
  410TMC3     O 6123   3.858   0.867  16.909  0.0860 -0.3027  0.1377
  410TMC3     H 6124   4.043   1.016  16.952  0.5910 -2.3813 -1.1990
  410TMC3    H1 6125   3.912   1.038  16.544  0.7965 -1.3246 -0.5116
  410TMC3    H2 6126   4.147   1.351  16.711  1.2256 -1.2149  0.1998
  410TMC3    C7 6127   4.016   1.260  16.487  0.9433  0.7858 -0.2487
  410TMC3    C8 6128   4.216   1.227  16.926 -0.5973  0.0383  0.4600
  410TMC3    O1 6129   3.969   1.193  16.394 -0.2423 -0.1960  0.0750
  410TMC3    O2 6130   4.247   1.342  16.930 -0.0916 -0.6333 -0.1671
  411MPD2     C 6131   3.801   1.057  14.383 -0.0819 -0.0280  0.2617
  411MPD2    C1 6132   3.686   1.114  14.335  0.2856  0.1914  0.2123
  411MPD2    C2 6133   3.577   1.033  14.316  0.3584 -0.1289 -0.4992
  411MPD2    C3 6134   3.595   0.899  14.321 -0.5567 -0.3732 -0.3153
  411MPD2    C4 6135   3.713   0.842  14.372 -0.5685  0.3005  0.2481
  411MPD2    C5 6136   3.818   0.928  14.401 -0.3975  0.2147  0.0331
  411MPD2     H 6137   3.479   1.078  14.320  0.7384  0.6327  0.3934
  411MPD2    H1 6138   3.717   0.734  14.377  1.5938  0.4676  2.1768
  411MPD2    H2 6139   3.884   1.123  14.402 -0.8640  1.2224 -0.6326
  411MPD2    H3 6140   3.903   0.871  14.437  1.0993  1.4363 -1.5601
  411MPD2     N 6141   3.486   0.810  14.287 -0.1232 -0.7651  0.6303
  411MPD2    H5 6142   3.501   0.709  14.284  0.5719 -0.6085 -0.8002
  411MPD2    N1 6143   3.686   1.250  14.318  0.4883  0.3080 -0.3212
  411MPD2    H7 6144   3.764   1.303  14.355  0.2267 -0.6409  1.5641
  412TMC3    C1 6145   3.271   0.745  14.182  0.4552 -0.2268  0.0615
  412TMC3    C2 6146   3.143   0.786  14.147 -0.7650  0.4835  0.6813
  412TMC3    C3 6147   3.090   0.747  14.022 -0.2817  0.2937  0.1588
  412TMC3    C4 6148   3.342   0.666  14.092  0.1291  1.1139  0.1931
  412TMC3    C5 6149   3.287   0.626  13.970  0.8615 -0.5865 -0.5315
  412TMC3    C6 6150   3.154   0.667  13.940  0.2899  0.1811  0.3454
  412TMC3     C 6151   3.353   0.842  14.265 -0.9587  0.3153 -0.1773
  412TMC3     O 6152   3.291   0.939  14.305 -0.2468  0.2371  0.2172
  412TMC3     H 6153   3.090   0.859  14.207  0.2125  0.5891  1.4197
  412TMC3    H1 6154   3.444   0.643  14.117 -0.5316 -0.7032  1.1785
  412TMC3    H2 6155   3.110   0.648  13.843  0.9995 -1.2335  0.3056
  412TMC3    C7 6156   3.378   0.607  13.862 -0.1203 -0.7162 -0.9552
  412TMC3    C8 6157   3.035   0.866  13.948  0.1595 -0.1897  0.0279
  412TMC3    O1 6158   3.330   0.654  13.760 -0.0896  0.0000  0.0149
  412TMC3    O2 6159   2.955   0.940  13.996  0.0440  0.1583 -0.3019
  413MPD2     C 6160   0.467   4.588  15.004 -0.5042  0.4227  0.6549
  413MPD2    C1 6161   0.405   4.487  14.935 -0.3882  0.5419  0.0588
  413MPD2    C2 6162   0.459   4.362  14.926 -0.2335  0.4250 -0.3736
  413MPD2    C3 6163   0.585   4.341  14.985 -0.7686  0.6688  0.7223
  413MPD2    C4 6164   0.644   4.441  15.049 -0.5186 -0.0271  0.4242
  413MPD2    C5 6165   0.589   4.562  15.065  0.0951  0.3434 -0.2975
  413MPD2     H 6166   0.407   4.280  14.877  1.4177 -0.7796 -0.1157
  413MPD2    H1 6167   0.738   4.423  15.100 -1.5277 -1.4288  1.7855
  413MPD2    H2 6168   0.417   4.683  15.020  0.3464  1.1098 -0.8067
  413MPD2    H3 6169   0.640   4.638  15.124 -1.0798  0.0834  1.0563
  413MPD2     N 6170   0.644   4.215  14.964 -0.8422  0.3942  0.0081
  413MPD2    H5 6171   0.589   4.148  14.911  1.7119  0.4643 -2.7393
  413MPD2    N1 6172   0.267   4.502  14.892 -0.2149 -0.2647 -0.2001
  413MPD2    H7 6173   0.222   4.586  14.926  2.1508  0.2211  1.7662
  414TMC3    C1 6174   0.779   4.035  14.978 -0.0836 -0.2254  0.0402
  414TMC3    C2 6175   0.856   3.958  15.060 -0.4695  0.5479 -0.9490
  414TMC3    C3 6176   0.876   3.827  15.022  0.1385 -0.3955 -0.0606
  414TMC3    C4 6177   0.720   3.985  14.864 -0.4352  0.2948 -0.1029
  414TMC3    C5 6178   0.761   3.863  14.821 -0.0773  0.0701  0.4614
  414TMC3    C6 6179   0.828   3.778  14.905  0.3988 -0.1042  0.5966
  414TMC3     C 6180   0.762   4.172  15.010 -0.1465 -0.1211 -0.6640
  414TMC3     O 6181   0.850   4.221  15.079 -0.9137  0.2346  0.3319
  414TMC3     H 6182   0.902   4.016  15.139 -0.0444 -2.4905  1.0468
  414TMC3    H1 6183   0.672   4.052  14.793  0.0170  1.3896  0.6108
  414TMC3    H2 6184   0.844   3.675  14.875 -2.2804 -0.8805  1.8862
  414TMC3    C7 6185   0.711   3.832  14.690 -0.5967  0.0824 -0.4290
  414TMC3    C8 6186   0.974   3.742  15.087  0.2130 -0.0328 -0.2976
  414TMC3    O1 6187   0.608   3.895  14.662  0.7835  0.1097 -0.2893
  414TMC3    O2 6188   1.001   3.627  15.041 -0.1852 -0.0534  0.1813
  415TMC3    C1 6189   0.559   2.253  10.022 -0.4374 -0.1157  0.0640
  415TMC3    C2 6190   0.547   2.320   9.903 -0.2562 -0.3082 -0.2374
  415TMC3    C3 6191   0.475   2.258   9.801  0.2083 -0.2453 -0.3404
  415TMC3    C4 6192   0.486   2.136  10.041  0.1019 -0.0158  0.1717
  415TMC3    C5 6193   0.424   2.079   9.935 -0.2428 -0.5868 -0.1455
  415TMC3    C6 6194   0.420   2.133   9.810 -0.8758 -0.2948 -0.5485
  415TMC3     C 6195   0.667   2.282  10.113  0.2440 -0.1502  0.3012
  415TMC3     O 6196   0.671   2.231  10.225  0.0226 -0.4059  0.0860
  415TMC3     H 6197   0.565   2.426   9.894  0.0686 -0.3007  0.5395
  415TMC3    H1 6198   0.477   2.093  10.140  1.3867  2.4115  1.3523
  415TMC3    H2 6199   0.377   2.083   9.724  0.8453 -0.3762 -1.3505
  415TMC3    C7 6200   0.349   1.958   9.950  0.1384  0.3595 -0.1641
  415TMC3    C8 6201   0.460   2.320   9.669  0.3351  0.1224  0.2673
  415TMC3    O1 6202   0.271   1.917   9.865 -0.9269  0.4243  0.0804
  415TMC3    O2 6203   0.381   2.262   9.592 -0.3733  0.6422  0.0985
  416MPD2     C 6204   3.173   0.974  11.834  0.0891 -1.0161  0.5355
  416MPD2    C1 6205   3.112   1.002  11.706 -0.1533 -0.5485  0.2580
  416MPD2    C2 6206   3.165   0.927  11.600 -0.6036 -0.6391  0.6247
  416MPD2    C3 6207   3.241   0.819  11.621 -0.7472 -0.1840 -0.1291
  416MPD2    C4 6208   3.299   0.798  11.745 -0.2752  0.2436 -0.1043
  416MPD2    C5 6209   3.277   0.888  11.845 -0.1720  0.2471  0.1730
  416MPD2     H 6210   3.132   0.933  11.497  0.2097 -0.3665  0.3811
  416MPD2    H1 6211   3.386   0.736  11.765 -2.0705 -2.3720 -0.4692
  416MPD2    H2 6212   3.149   1.036  11.919  2.4994 -1.3578  1.4503
  416MPD2    H3 6213   3.321   0.886  11.943  1.8473 -0.5315 -0.7469
  416MPD2     N 6214   3.265   0.722  11.522  0.3339 -0.2416  0.4682
  416MPD2    H5 6215   3.294   0.627  11.542 -1.4765 -1.2673 -1.6708
  416MPD2    N1 6216   3.018   1.108  11.705 -0.2555 -0.0754 -0.3510
  416MPD2    H7 6217   2.991   1.151  11.793 -0.3635 -0.0282 -0.4066
  417TMC3    C1 6218   2.838   1.243  11.611  0.2600  0.5752  0.3118
  417TMC3    C2 6219   2.835   1.311  11.728 -0.1761  0.5451 -0.0219
  417TMC3    C3 6220   2.723   1.392  11.738 -0.5422 -0.1350  0.6570
  417TMC3    C4 6221   2.747   1.261  11.508  0.0219  0.3374 -0.0019
  417TMC3    C5 6222   2.638   1.335  11.534 -0.2473  0.0472 -0.1042
  417TMC3    C6 6223   2.629   1.414  11.641 -0.0541 -0.2385 -0.4969
  417TMC3     C 6224   2.942   1.137  11.593  0.4193 -0.5933  0.2790
  417TMC3     O 6225   2.954   1.091  11.478  0.1048 -0.4037 -0.2622
  417TMC3     H 6226   2.906   1.309  11.810 -0.5642  0.6040  0.3143
  417TMC3    H1 6227   2.739   1.187  11.429 -2.7532  0.2800  0.3577
  417TMC3    H2 6228   2.540   1.470  11.667  1.1177  0.8070  1.2782
  417TMC3    C7 6229   2.533   1.342  11.429 -0.7343  0.4173 -0.2856
  417TMC3    C8 6230   2.697   1.471  11.852 -0.3500 -0.3661  0.1787
  417TMC3    O1 6231   2.564   1.310  11.316  0.4978  0.1667 -0.0275
  417TMC3    O2 6232   2.660   1.589  11.837 -0.2514 -0.4075  0.7927
  418TMC3    C1 6233   2.020   2.371   0.417 -0.6286 -0.1340  0.3019
  418TMC3    C2 6234   1.942   2.451   0.343  0.1338 -0.4403 -0.2364
  418TMC3    C3 6235   1.867   2.544   0.413  0.2672  0.2201  0.6880
  418TMC3    C4 6236   2.039   2.381   0.549 -0.5032 -0.1755 -0.3447
  418TMC3    C5 6237   1.972   2.484   0.610  0.5023  0.1994  0.8386
  418TMC3    C6 6238   1.887   2.567   0.549 -0.5600 -0.1260 -0.2991
  418TMC3     C 6239   2.059   2.250   0.347 -0.4742 -0.6725 -0.6069
  418TMC3     O 6240   2.091   2.252   0.226 -0.0454 -0.1001  0.5216
  418TMC3     H 6241   1.915   2.425   0.241  0.7101 -0.1887 -0.4518
  418TMC3    H1 6242   2.105   2.315   0.605  0.0318  0.0189 -0.7434
  418TMC3    H2 6243   1.820   2.636   0.598  0.4438  0.7615 -0.1909
  418TMC3    C7 6244   1.957   2.474   0.752  0.1039 -0.0874  0.1180
  418TMC3    C8 6245   1.741   2.589   0.354 -0.4372  0.8767 -0.3789
  418TMC3    O1 6246   1.852   2.515   0.808  0.1039 -0.1264 -0.2661
  418TMC3    O2 6247   1.699   2.697   0.390 -0.1562  0.1040  0.0948
  419MPD2     C 6248   4.693   1.174  11.902 -0.6128 -0.5432 -0.1872
  419MPD2    C1 6249   4.672   1.309  11.892 -0.5181 -0.7394  0.6371
  419MPD2    C2 6250   4.669   1.392  12.002  0.1464 -0.0282 -0.5313
  419MPD2    C3 6251   4.703   1.336  12.125  0.8978 -0.3304 -0.9968
  419MPD2    C4 6252   0.003   1.196  12.135  0.0454 -0.4286  0.6878
  419MPD2    C5 6253   4.718   1.115  12.028 -0.7072  0.9210  0.3912
  419MPD2     H 6254   4.645   1.497  11.999  1.1195  0.2582  1.7067
  419MPD2    H1 6255   0.012   1.147  12.231  1.2760  0.5676  1.0853
  419MPD2    H2 6256   4.704   1.111  11.815 -0.7060  1.1153 -1.3900
  419MPD2    H3 6257   4.723   1.008  12.038 -1.8717  0.7123 -1.2633
  419MPD2     N 6258   4.683   1.424  12.242 -0.1740  0.3968  0.3907
  419MPD2    H5 6259   4.635   1.511  12.227 -0.6443  0.1821  0.6731
  419MPD2    N1 6260   4.653   1.383  11.776  0.0970  0.3702  0.1572
  419MPD2    H7 6261   4.639   1.481  11.798  3.0562  0.4307  1.8184
  420TMC3    C1 6262   4.708   1.508  12.456  0.5859 -0.1992  0.5929
  420TMC3    C2 6263   4.593   1.581  12.436  0.0029  0.1351 -0.5587
  420TMC3    C3 6264   4.547   1.662  12.537 -0.2467 -0.1213 -0.5190
  420TMC3    C4 6265   0.034   1.491  12.583  0.6615  0.6505  0.1322
  420TMC3    C5 6266   4.700   1.566  12.688  0.0082 -0.2079 -0.6690
  420TMC3    C6 6267   4.600   1.660  12.662 -0.5436  0.0483  0.4149
  420TMC3     C 6268   0.019   1.405  12.363 -0.6549  0.5938 -0.4429
  420TMC3     O 6269   0.108   1.329  12.391  0.0954  0.2752  0.1668
  420TMC3     H 6270   4.533   1.576  12.346 -2.0486  1.0450  0.7608
  420TMC3    H1 6271   0.125   1.436  12.601 -0.0327 -0.3125  0.7035
  420TMC3    H2 6272   4.555   1.717  12.742 -0.5577  1.1727 -0.4059
  420TMC3    C7 6273   0.012   1.554  12.831  0.3269  0.1189 -0.4412
  420TMC3    C8 6274   4.443   1.754  12.503  0.2166 -0.6516  0.2598
  420TMC3    O1 6275   4.666   1.603  12.921 -0.4504  0.0130 -0.4773
  420TMC3    O2 6276   4.410   1.760  12.383 -0.2217  0.0303  0.3781
  421TMC3    C1 6277   1.484   3.128  13.731 -0.1165  0.3045  0.0433
  421TMC3    C2 6278   1.486   3.199  13.844 -0.0262 -0.1047 -0.2237
  421TMC3    C3 6279   1.570   3.155  13.942  0.2854 -0.1327  0.2108
  421TMC3    C4 6280   1.543   3.004  13.714 -0.5145  0.4727  0.0355
  421TMC3    C5 6281   1.616   2.962  13.826 -0.7975 -0.0765 -0.3894
  421TMC3    C6 6282   1.633   3.039  13.936 -0.0808  0.2864  0.1246
  421TMC3     C 6283   1.422   3.192  13.614 -0.5906  0.2015  0.1801
  421TMC3     O 6284   1.424   3.310  13.608 -0.1683 -0.1874  0.2485
  421TMC3     H 6285   1.441   3.294  13.872  0.1592  0.4287 -1.7935
  421TMC3    H1 6286   1.533   2.955  13.617  0.5546 -1.0230  0.6815
  421TMC3    H2 6287   1.683   3.007  14.027  0.1817 -1.5156 -0.6322
  421TMC3    C7 6288   1.728   2.867  13.810 -1.1465 -0.1702 -0.1758
  421TMC3    C8 6289   1.619   3.252  14.040  0.5130  0.1184  0.1234
  421TMC3    O1 6290   1.821   2.893  13.887 -0.5463 -0.1322  0.4336
  421TMC3    O2 6291   1.537   3.326  14.097 -0.0410  0.1619 -0.0321
  422TMC3    C1 6292   3.936   3.972  12.454 -0.8629 -0.7470 -0.0586
  422TMC3    C2 6293   3.928   4.100  12.500 -0.0396  0.1407  0.3650
  422TMC3    C3 6294   3.849   4.131  12.604  0.3051  0.3166  0.0746
  422TMC3    C4 6295   3.875   3.867  12.521  0.1837 -0.1347 -1.1130
  422TMC3    C5 6296   3.798   3.902  12.634 -0.9749  0.7892  0.4687
  422TMC3    C6 6297   3.789   4.031  12.678 -0.0242  0.3827 -0.4287
  422TMC3     C 6298   3.992   3.941  12.322 -0.4811 -0.4068  0.6904
  422TMC3     O 6299   3.998   4.032  12.240 -0.6095  0.1735 -0.5576
  422TMC3     H 6300   3.964   4.182  12.439 -2.7844  2.5230  1.9470
  422TMC3    H1 6301   3.861   3.775  12.465 -0.6370 -0.8286  0.2270
  422TMC3    H2 6302   3.746   4.057  12.775 -0.8982 -1.5087 -0.3020
  422TMC3    C7 6303   3.731   3.791  12.695 -0.0066  0.0856 -0.2220
  422TMC3    C8 6304   3.857   4.269  12.648 -0.2219 -0.5977 -0.3861
  422TMC3    O1 6305   3.785   3.683  12.673  0.0502 -0.3006  0.0898
  422TMC3    O2 6306   3.944   4.342  12.610  0.3517 -0.2189 -0.6488
  423MPD2     C 6307   0.510   0.745   0.450 -0.4760 -0.8638  0.1456
  423MPD2    C1 6308   0.515   0.617   0.506 -0.1409  0.2635 -0.3727
  423MPD2    C2 6309   0.597   0.520   0.443  0.3214 -1.2519  0.0769
  423MPD2    C3 6310   0.667   0.544   0.329 -0.3009 -0.3895 -0.6439
  423MPD2    C4 6311   0.656   0.671   0.270  0.2915 -0.0953  0.3677
  423MPD2    C5 6312   0.587   0.761   0.338 -0.4774 -0.2150 -0.6497
  423MPD2     H 6313   0.604   0.425   0.495  1.4417 -1.0405  0.2984
  423MPD2    H1 6314   0.720   0.705   0.190  0.2712  1.8089  1.1633
  423MPD2    H2 6315   0.456   0.828   0.493 -1.2813 -0.1862 -2.1532
  423MPD2    H3 6316   0.589   0.862   0.299  2.3298  0.0683  0.2303
  423MPD2     N 6317   0.764   0.455   0.277 -0.1926 -0.1199 -0.2726
  423MPD2    H5 6318   0.799   0.486   0.187  0.6931 -0.0587  0.0956
  423MPD2    N1 6319   0.429   0.592   0.617 -0.8365  0.4933 -0.0871
  423MPD2    H7 6320   0.386   0.674   0.658  0.9143  0.4224  1.9310
  424TMC3    C1 6321   0.344   0.459   0.801  0.2821  0.0067  0.4342
  424TMC3    C2 6322   0.344   0.343   0.869 -0.8200  0.3749 -0.7349
  424TMC3    C3 6323   0.245   0.326   0.963 -0.4971 -0.0033 -0.1728
  424TMC3    C4 6324   0.252   0.555   0.824  0.7465 -0.6452  0.1339
  424TMC3    C5 6325   0.157   0.542   0.922  0.5138  0.8913  0.0812
  424TMC3    C6 6326   0.151   0.425   0.990  0.5366  0.1846 -0.6134
  424TMC3     C 6327   0.405   0.466   0.667 -1.0875 -0.4034 -0.2713
  424TMC3     O 6328   0.448   0.358   0.631 -0.1228  0.1314 -0.0654
  424TMC3     H 6329   0.432   0.280   0.859 -2.6743 -2.2715 -0.2297
  424TMC3    H1 6330   0.256   0.640   0.757 -0.2339 -0.4367  0.3313
  424TMC3    H2 6331   0.072   0.403   1.061 -1.2929  1.7953 -2.1220
  424TMC3    C7 6332   0.058   0.652   0.935 -0.0598  0.6113  0.0221
  424TMC3    C8 6333   0.247   0.223   1.065  0.2721 -0.5173  0.1352
  424TMC3    O1 6334   0.069   0.752   0.865  0.1526 -0.6849 -0.0198
  424TMC3    O2 6335   0.146   0.204   1.125  0.1319  0.1909 -0.2326
  425MPD2     C 6336   3.998   4.335  17.308 -0.1153  0.2796 -0.3361
  425MPD2    C1 6337   3.981   4.287  17.181  0.0332 -0.1033 -0.2707
  425MPD2    C2 6338   3.857   4.300  17.114 -0.4060 -0.3401  0.7929
  425MPD2    C3 6339   3.758   4.380  17.174 -0.1181 -0.1105  0.1945
  425MPD2    C4 6340   3.777   4.422  17.302  0.2185  0.1619  0.2257
  425MPD2    C5 6341   3.897   4.412  17.367 -0.6385  0.4427 -0.1264
  425MPD2     H 6342   3.831   4.245  17.025  2.0663 -1.4619  0.7701
  425MPD2    H1 6343   3.707   4.483  17.358 -0.7505 -0.5401 -0.2295
  425MPD2    H2 6344   4.088   4.321  17.368 -0.0120  0.8174 -0.3726
  425MPD2    H3 6345   3.911   4.465  17.460  1.7513  1.8060 -1.2689
  425MPD2     N 6346   3.632   4.390  17.115 -0.2792  0.7890 -0.2729
  425MPD2    H5 6347   3.612   4.330  17.035  1.9118 -2.4107  1.5464
  425MPD2    N1 6348   4.077   4.201  17.133 -1.1182  0.5791 -0.2692
  425MPD2    H7 6349   4.146   4.171  17.201 -2.4226 -1.4567  0.1477
  426TMC3    C1 6350   4.160   4.038  16.984 -0.6645 -0.0947 -0.0459
  426TMC3    C2 6351   4.178   3.981  16.855  0.0011  0.7487 -0.5474
  426TMC3    C3 6352   4.231   3.862  16.852 -0.4169 -0.5279  1.0700
  426TMC3    C4 6353   4.187   3.965  17.094 -0.1287 -0.0317 -0.2143
  426TMC3    C5 6354   4.244   3.844  17.083  0.4294 -0.0661 -0.2447
  426TMC3    C6 6355   4.269   3.789  16.965  0.2303 -0.7001 -0.5667
  426TMC3     C 6356   4.093   4.173  16.997  0.1907  0.3077 -1.2596
  426TMC3     O 6357   4.037   4.212  16.897  0.3036 -0.3975  0.5339
  426TMC3     H 6358   4.164   4.043  16.767  2.5254  2.3678  0.1970
  426TMC3    H1 6359   4.163   3.998  17.194  1.6644 -0.4314  0.3440
  426TMC3    H2 6360   4.309   3.689  16.957 -0.0962 -0.9789  1.3798
  426TMC3    C7 6361   4.279   3.760  17.194  0.1703 -0.0277  0.4344
  426TMC3    C8 6362   4.260   3.805  16.720  0.4306 -0.4359 -0.1322
  426TMC3    O1 6363   4.339   3.655  17.173 -0.3905  0.4832 -0.1172
  426TMC3    O2 6364   4.283   3.686  16.722 -0.0591  0.0268 -0.2179
  427MPD2     C 6365   2.348   1.056  14.626 -0.4181 -0.2115  0.5439
  427MPD2    C1 6366   2.386   1.103  14.754  0.0676 -0.0288  0.1886
  427MPD2    C2 6367   2.316   1.210  14.809  0.5714 -0.5647 -0.2134
  427MPD2    C3 6368   2.207   1.266  14.741 -0.1258 -0.1425 -0.0152
  427MPD2    C4 6369   2.175   1.219  14.613 -0.0513  0.4194 -0.5818
  427MPD2    C5 6370   2.244   1.115  14.560  0.5709  0.8451 -0.0897
  427MPD2     H 6371   2.330   1.237  14.913 -2.0930  1.6024 -0.3989
  427MPD2    H1 6372   2.093   1.258  14.553 -0.3596 -0.7708 -0.9539
  427MPD2    H2 6373   2.405   0.984  14.569 -1.6060  0.2539 -1.2423
  427MPD2    H3 6374   2.215   1.085  14.460  0.6583 -1.5018  0.5815
  427MPD2     N 6375   2.115   1.358  14.803  0.3458 -0.4587  0.0951
  427MPD2    H5 6376   2.057   1.398  14.730  0.4842 -2.7153 -1.2315
  427MPD2    N1 6377   2.494   1.051  14.824 -0.0234  0.5691  0.4725
  427MPD2    H7 6378   2.529   1.103  14.903 -0.2774  0.7439  0.4678
  428TMC3    C1 6379   2.660   0.902  14.896 -0.1831  0.3591 -0.5247
  428TMC3    C2 6380   2.677   0.779  14.949  0.3125 -0.5623 -0.5056
  428TMC3    C3 6381   2.778   0.753  15.037 -0.9987 -0.4260 -0.0949
  428TMC3    C4 6382   2.737   1.012  14.941 -0.7979  1.0397  0.3741
  428TMC3    C5 6383   2.847   0.974  15.019  0.0089  0.5195 -0.0458
  428TMC3    C6 6384   2.871   0.846  15.070 -0.1984  0.0274 -0.1779
  428TMC3     C 6385   2.553   0.931  14.800 -0.5542  0.1219 -1.2811
  428TMC3     O 6386   2.518   0.833  14.733 -0.0101 -0.2963  0.3640
  428TMC3     H 6387   2.616   0.699  14.908  2.5119 -1.3097 -2.2871
  428TMC3    H1 6388   2.717   1.114  14.909  0.4077  1.2222  0.2063
  428TMC3    H2 6389   2.959   0.822  15.128 -0.4859 -0.4836  0.0503
  428TMC3    C7 6390   2.945   1.069  15.058 -0.1584 -0.8763 -0.9632
  428TMC3    C8 6391   2.805   0.613  15.072  0.1078  0.1513 -0.4966
  428TMC3    O1 6392   3.027   1.040  15.144 -0.5317  0.3832  0.3825
  428TMC3    O2 6393   2.921   0.573  15.069  0.7506 -0.7961 -0.4940
  429MPD2     C 6394   4.046   1.565  17.486 -0.1130  0.2334  0.7256
  429MPD2    C1 6395   4.000   1.630  17.372  0.6916  0.3281 -0.7132
  429MPD2    C2 6396   4.087   1.717  17.310 -0.6080  0.4109 -0.2348
  429MPD2    C3 6397   4.212   1.745  17.359 -0.1199 -0.2094  0.2564
  429MPD2    C4 6398   4.254   1.685  17.482  0.3871 -0.1636 -0.5966
  429MPD2    C5 6399   4.169   1.600  17.544  0.2828 -0.4062  0.0982
  429MPD2     H 6400   4.043   1.779  17.234  1.9079  2.1490 -0.2698
  429MPD2    H1 6401   4.350   1.709  17.528  0.6183  1.0024 -1.6948
  429MPD2    H2 6402   3.995   1.492  17.547 -2.0018 -1.0128 -2.3538
  429MPD2    H3 6403   4.184   1.562  17.645  1.1825  1.3572  0.6424
  429MPD2     N 6404   4.277   1.855  17.298 -0.1950 -1.3188 -0.0882
  429MPD2    H5 6405   4.227   1.898  17.222 -2.3633 -3.2144  0.2694
  429MPD2    N1 6406   3.865   1.611  17.316 -0.7476  0.4778 -0.8799
  429MPD2    H7 6407   3.839   1.663  17.233  0.5127  0.7353 -1.1132
  430TMC3    C1 6408   4.440   2.004  17.247 -0.2687  0.2899 -0.7334
  430TMC3    C2 6409   4.354   2.089  17.176  0.2325 -0.0459  0.3858
  430TMC3    C3 6410   4.409   2.169  17.077  0.0327  0.0912  0.7114
  430TMC3    C4 6411   4.572   1.991  17.202  0.0726  0.8190  0.0365
  430TMC3    C5 6412   4.626   2.075  17.105  0.2910  0.0306  0.2426
  430TMC3    C6 6413   4.537   2.158  17.039  0.1849 -0.0950  0.4754
  430TMC3     C 6414   4.391   1.913  17.343 -0.0714 -0.4772 -0.0545
  430TMC3     O 6415   4.466   1.887  17.433  0.1912 -0.2257 -0.3319
  430TMC3     H 6416   4.251   2.083  17.208 -0.0384 -0.0083 -0.4896
  430TMC3    H1 6417   4.640   1.921  17.249  1.0354  2.3149  0.8859
  430TMC3    H2 6418   4.575   2.217  16.956 -1.2394 -1.3732 -1.0858
  430TMC3    C7 6419   4.719   2.016  17.015  0.1252  0.0527  0.4582
  430TMC3    C8 6420   4.319   2.219  16.972 -0.7175  0.5110  0.3222
  430TMC3    O1 6421   0.093   2.084  16.981 -0.0760  0.1795 -0.3719
  430TMC3    O2 6422   4.365   2.236  16.857 -0.3405 -0.1850 -0.3709
  431MPD2     C 6423   0.112   2.022  12.082 -0.1943 -0.7711 -0.0358
  431MPD2    C1 6424   0.198   2.016  11.976 -0.1683 -0.0510 -0.4583
  431MPD2    C2 6425   0.168   1.940  11.866  0.2131 -0.0548  0.3068
  431MPD2    C3 6426   0.041   1.885  11.860 -0.3758  0.4246  0.5572
  431MPD2    C4 6427   4.681   1.893  11.971 -0.3696 -0.2254 -0.3435
  431MPD2    C5 6428   4.721   1.955  12.082  0.3838 -0.1610  0.3794
  431MPD2     H 6429   0.252   1.925  11.798  0.3102 -1.0031  0.6291
  431MPD2    H1 6430   4.582   1.850  11.965 -0.1473 -0.5876 -1.4741
  431MPD2    H2 6431   0.128   2.088  12.166 -0.6766 -0.8010  0.0785
  431MPD2    H3 6432   4.653   1.965  12.165 -0.0202 -0.8859  0.1391
  431MPD2     N 6433   4.714   1.811  11.749 -0.0008  0.6231 -0.3313
  431MPD2    H5 6434   4.628   1.757  11.760 -0.1400  1.4935  2.7596
  431MPD2    N1 6435   0.323   2.078  11.981 -0.1668 -0.1849 -0.3898
  431MPD2    H7 6436   0.387   2.059  11.904 -2.0276  0.3637 -2.0647
  432TMC3    C1 6437   0.022   1.669  11.544  0.3853 -0.4614  0.5925
  432TMC3    C2 6438   0.101   1.635  11.435  0.7356  0.1320  0.0505
  432TMC3    C3 6439   0.097   1.506  11.386  0.4904 -0.3475 -0.7123
  432TMC3    C4 6440   4.665   1.572  11.610 -0.0809  0.7527  0.1227
  432TMC3    C5 6441   4.664   1.446  11.558  0.5801  0.9402  0.3297
  432TMC3    C6 6442   0.012   1.418  11.446  0.5726  0.4310 -0.2705
  432TMC3     C 6443   0.062   1.790  11.626  0.6770 -0.6121 -0.2487
  432TMC3     O 6444   0.151   1.863  11.587 -0.2327 -0.2592 -0.5515
  432TMC3     H 6445   0.162   1.713  11.391 -1.4722  1.8059 -0.0552
  432TMC3    H1 6446   4.593   1.594  11.689 -0.1193 -0.7091  0.4976
  432TMC3    H2 6447   0.016   1.316  11.409  0.8618 -0.4985  2.3256
  432TMC3    C7 6448   4.661   1.337  11.650  0.8826 -0.2780 -0.2958
  432TMC3    C8 6449   0.215   1.448  11.319  0.2327  0.0880  0.2925
  432TMC3    O1 6450   4.658   1.224  11.606 -0.3689  0.3844  0.1751
  432TMC3    O2 6451   0.194   1.346  11.256  0.8497  0.7556 -0.0322
  433MPD2     C 6452   4.209   0.533  10.930 -0.0579  0.4599 -0.3022
  433MPD2    C1 6453   4.085   0.508  10.991  0.0779  0.7534  0.1605
  433MPD2    C2 6454   4.069   0.527  11.123 -0.1842 -0.5250 -0.4962
  433MPD2    C3 6455   4.181   0.553  11.206 -0.2056  0.0159  0.4462
  433MPD2    C4 6456   4.296   0.578  11.139 -0.1528 -0.0297 -0.2904
  433MPD2    C5 6457   4.309   0.580  11.008 -0.2007 -0.0068 -0.4086
  433MPD2     H 6458   3.978   0.502  11.175 -0.8752  1.9056 -0.5436
  433MPD2    H1 6459   4.392   0.599  11.185  1.2338 -1.5877 -2.4775
  433MPD2    H2 6460   4.215   0.522  10.823 -1.6867 -2.0561 -0.1482
  433MPD2    H3 6461   4.409   0.612  10.978  0.4529 -1.3836  0.3016
  433MPD2     N 6462   4.172   0.537  11.343 -0.3838  0.8944  0.3775
  433MPD2    H5 6463   4.091   0.499  11.390 -1.1193 -0.7202 -2.1508
  433MPD2    N1 6464   3.988   0.449  10.905  0.0544 -1.0641 -0.0518
  433MPD2    H7 6465   4.027   0.439  10.811  1.5102 -0.7042  0.5085
  434TMC3    C1 6466   3.848   0.280  10.843 -0.0099 -1.0817 -0.2155
  434TMC3    C2 6467   3.836   0.157  10.893 -0.2755 -0.7020  1.2798
  434TMC3    C3 6468   3.840   0.053  10.804 -0.2624  0.0880 -0.1058
  434TMC3    C4 6469   3.864   0.303  10.710 -0.0450  0.4833 -0.2731
  434TMC3    C5 6470   3.860   0.198  10.626 -0.1459  0.3107  0.5900
  434TMC3    C6 6471   3.849   0.067  10.671 -0.4202  0.5934  0.1366
  434TMC3     C 6472   3.871   0.389  10.936 -0.4447 -0.1090  0.0749
  434TMC3     O 6473   3.809   0.398  11.040 -0.2075 -0.1608  0.0017
  434TMC3     H 6474   3.828   0.132  10.998  2.1048 -0.3303  1.5406
  434TMC3    H1 6475   3.857   0.405  10.673  1.6159  1.4292  2.0690
  434TMC3    H2 6476   3.852   4.706  10.603 -0.1108  0.1493  0.7129
  434TMC3    C7 6477   3.831   0.233  10.488 -0.2907  0.1060  0.1952
  434TMC3    C8 6478   3.880   4.658  10.869 -0.1895  0.2455 -0.0022
  434TMC3    O1 6479   3.844   0.348  10.451  0.1411 -0.1717 -0.0500
  434TMC3    O2 6480   3.949   4.677  10.972 -0.2885 -0.0929  0.1208
  435MPD2     C 6481   1.170   0.080  15.191 -0.2266  0.4654  0.0435
  435MPD2    C1 6482   1.127   0.086  15.325  0.1522  0.0116  0.3562
  435MPD2    C2 6483   1.223   0.067  15.422 -0.4543 -0.2358 -0.0256
  435MPD2    C3 6484   1.357   0.035  15.390  0.4470  0.7285 -0.0037
  435MPD2    C4 6485   1.398   0.029  15.264 -0.3083 -0.2309 -0.8322
  435MPD2    C5 6486   1.302   0.050  15.169  0.1041  0.0303 -0.3553
  435MPD2     H 6487   1.184   0.062  15.523  1.2110  2.7352  0.7561
  435MPD2    H1 6488   1.495   4.717  15.230  0.6399  3.0634 -1.6925
  435MPD2    H2 6489   1.104   0.096  15.106  1.2713  0.4959 -1.1098
  435MPD2    H3 6490   1.328   0.049  15.063  1.9019 -0.8101  0.0937
  435MPD2     N 6491   1.446   0.014  15.496  0.2671  0.0084  0.1556
  435MPD2    H5 6492   1.400   0.002  15.585 -2.0431 -0.1496 -1.0606
  435MPD2    N1 6493   0.997   0.114  15.356  0.3996  0.1725 -0.2318
  435MPD2    H7 6494   0.975   0.137  15.452  0.1553  0.8313 -0.4514
  436TMC3    C1 6495   0.726   0.362  15.476  0.1206 -0.0894  0.1642
  436TMC3    C2 6496   0.813   0.315  15.385  0.4674 -0.2373  0.0231
  436TMC3    C3 6497   0.785   0.197  15.326  0.0740  0.3146  0.1247
  436TMC3    C4 6498   0.607   0.301  15.508  0.5322  0.1792 -0.0996
  436TMC3    C5 6499   0.582   0.183  15.443 -0.4352  0.2239  0.3103
  436TMC3    C6 6500   0.671   0.126  15.358 -0.2153 -0.2944  0.0224
  436TMC3     C 6501   0.754   0.500  15.513  0.2025 -0.1059  1.0166
  436TMC3     O 6502   0.799   0.574  15.426  0.3422 -0.1427 -0.4088
  436TMC3     H 6503   0.901   0.374  15.360  1.4591 -1.6909  0.0698
  436TMC3    H1 6504   0.541   0.345  15.582 -0.1590 -1.8726  0.4852
  436TMC3    H2 6505   0.652   0.028  15.316  0.0099  0.9411 -2.9005
  436TMC3    C7 6506   0.465   0.106  15.478  0.1973  0.7574 -0.1199
  436TMC3    C8 6507   0.889   0.122  15.269 -0.4491 -0.4600  0.0487
  436TMC3    O1 6508   0.454   4.721  15.427 -0.2311 -0.0069 -0.6135
  436TMC3    O2 6509   0.873   0.055  15.168 -0.1888  0.1257 -0.0781
  437TMC3    C1 6510   4.549   2.277  11.807  0.9122 -0.4588  0.5282
  437TMC3    C2 6511   4.460   2.302  11.707  0.7438  0.5398 -0.4306
  437TMC3    C3 6512   4.507   2.316  11.581  0.1922 -0.3060  0.1979
  437TMC3    C4 6513   4.678   2.254  11.780  0.1887 -0.2120 -1.3028
  437TMC3    C5 6514   4.724   2.282  11.660  0.3110 -0.8616 -0.2227
  437TMC3    C6 6515   4.642   2.315  11.552  0.6922  0.5038 -0.3520
  437TMC3     C 6516   4.498   2.243  11.935 -0.2309  0.0304  0.4544
  437TMC3     O 6517   4.391   2.187  11.930 -0.3175  0.4425 -0.2035
  437TMC3     H 6518   4.361   2.336  11.734  1.2766  2.2917 -0.6620
  437TMC3    H1 6519   0.024   2.213  11.851 -1.8925  1.8485  1.9047
  437TMC3    H2 6520   4.686   2.311  11.453 -0.0115 -0.2877 -0.6300
  437TMC3    C7 6521   0.140   2.293  11.635  0.1434  0.4046  0.2932
  437TMC3    C8 6522   4.407   2.363  11.483 -0.5555  0.0422  0.2877
  437TMC3    O1 6523   0.177   2.263  11.523 -0.0676  0.0468  0.0525
  437TMC3    O2 6524   4.297   2.308  11.506 -0.6397 -0.3375 -0.6685
  438MPD2     C 6525   1.945   3.011  16.402 -0.5159 -0.0523 -0.3530
  438MPD2    C1 6526   2.027   2.910  16.450  0.2274 -0.1936  0.1768
  438MPD2    C2 6527   2.003   2.852  16.572  0.0568 -0.5578 -0.9952
  438MPD2    C3 6528   1.918   2.910  16.666 -0.6412  0.3527 -0.4104
  438MPD2    C4 6529   1.846   3.023  16.616 -0.2487 -0.7003  0.4646
  438MPD2    C5 6530   1.850   3.068  16.479 -0.0466 -0.6614 -0.7486
  438MPD2     H 6531   2.057   2.759  16.589 -0.9116 -1.0665 -0.7034
  438MPD2    H1 6532   1.778   3.075  16.682  0.1191  1.6107 -0.9892
  438MPD2    H2 6533   1.977   3.064  16.312  1.7574  1.3461  1.2881
  438MPD2    H3 6534   1.791   3.153  16.445  0.2705  0.4103  1.3883
  438MPD2     N 6535   1.888   2.863  16.798 -0.0437 -0.0531  0.2929
  438MPD2    H5 6536   1.826   2.918  16.856  0.8625  0.4700  0.7651
  438MPD2    N1 6537   2.132   2.848  16.377 -0.2264  0.6406  0.2155
  438MPD2    H7 6538   2.169   2.762  16.417  0.1733  1.4483  1.5951
  439TMC3    C1 6539   2.299   2.810  16.212  0.5227 -0.7493  0.3093
  439TMC3    C2 6540   2.311   2.776  16.081  0.3831 -0.3017  0.0110
  439TMC3    C3 6541   2.393   2.676  16.048  0.3648  0.4083  0.5028
  439TMC3    C4 6542   2.372   2.745  16.310  0.0952  0.4030 -0.1340
  439TMC3    C5 6543   2.450   2.642  16.275  0.7868 -0.2577  0.0718
  439TMC3    C6 6544   2.462   2.605  16.148  0.2227  0.4959 -0.2211
  439TMC3     C 6545   2.179   2.875  16.252  0.2696 -0.0535 -0.4558
  439TMC3     O 6546   2.139   2.964  16.178 -0.0035 -0.1489 -0.2357
  439TMC3     H 6547   2.242   2.821  16.011  0.6131 -0.2106 -0.1566
  439TMC3    H1 6548   2.373   2.779  16.413  2.4045  1.1870 -0.4103
  439TMC3    H2 6549   2.541   2.532  16.138  0.2619  0.5232 -0.1131
  439TMC3    C7 6550   2.463   2.538  16.371 -0.3274  0.4714 -0.3055
  439TMC3    C8 6551   2.452   2.670  15.911  0.0249 -0.6170 -0.3582
  439TMC3    O1 6552   2.436   2.430  16.333  0.2410 -0.0181  0.1397
  439TMC3    O2 6553   2.535   2.585  15.898  0.2179  0.6547 -0.2406
  440MPD2     C 6554   0.898   3.166  14.749 -0.6204  0.7760 -0.4210
  440MPD2    C1 6555   0.941   3.280  14.807 -0.3628  0.6751  0.7900
  440MPD2    C2 6556   1.073   3.303  14.834 -0.1222  0.1676 -0.3966
  440MPD2    C3 6557   1.174   3.234  14.772 -0.3571  0.1690 -0.6457
  440MPD2    C4 6558   1.130   3.127  14.704  0.3383  0.1684  0.4286
  440MPD2    C5 6559   0.997   3.093  14.695  0.4978  0.1589  0.4306
  440MPD2     H 6560   1.098   3.397  14.882  1.2391  0.4673 -1.7055
  440MPD2    H1 6561   1.201   3.064  14.652  0.9445  0.9993  0.2671
  440MPD2    H2 6562   0.799   3.124  14.736  1.1530 -2.8385 -2.4817
  440MPD2    H3 6563   0.957   3.011  14.637 -3.0380  0.7401  2.0529
  440MPD2     N 6564   1.309   3.263  14.793  0.3955  0.7221  0.2987
  440MPD2    H5 6565   1.376   3.194  14.761 -0.9902 -0.0701 -0.8799
  440MPD2    N1 6566   0.849   3.373  14.855 -0.4769  0.3163 -0.2239
  440MPD2    H7 6567   0.886   3.447  14.914  1.4695  0.3024 -1.3967
  441TMC3    C1 6568   1.485   3.337  14.922  0.4825 -0.1815 -0.4030
  441TMC3    C2 6569   1.568   3.443  14.951  0.1738 -0.6382  0.6199
  441TMC3    C3 6570   1.637   3.443  15.067  0.4351  0.4473 -0.1494
  441TMC3    C4 6571   1.487   3.219  15.001  0.5383 -0.4014  0.2105
  441TMC3    C5 6572   1.572   3.221  15.109  0.1717 -0.4939 -0.1197
  441TMC3    C6 6573   1.655   3.323  15.140 -0.1093  0.3559 -0.3056
  441TMC3     C 6574   1.355   3.368  14.862 -0.0558 -0.3351  0.8905
  441TMC3     O 6575   1.301   3.464  14.914 -0.6116 -0.2743 -0.0129
  441TMC3     H 6576   1.561   3.534  14.891 -0.1421  0.4118  2.2514
  441TMC3    H1 6577   1.422   3.134  14.985  0.2191 -0.1057 -0.0344
  441TMC3    H2 6578   1.688   3.336  15.242  0.1384 -0.9243 -0.2229
  441TMC3    C7 6579   1.589   3.105  15.197 -0.2356 -0.7916 -0.5087
  441TMC3    C8 6580   1.601   3.547  15.157 -0.1339 -0.5533 -0.0017
  441TMC3    O1 6581   1.699   3.063  15.223  0.0626  0.4807  0.4222
  441TMC3    O2 6582   1.693   3.609  15.211  0.1104 -0.1800 -0.2209
  442MPD2     C 6583   3.777   3.974  16.887  0.1838  0.0935  0.0377
  442MPD2    C1 6584   3.793   4.002  16.751  0.0341 -0.1088  0.4727
  442MPD2    C2 6585   3.854   3.899  16.672  0.2805 -0.0698 -0.1390
  442MPD2    C3 6586   3.903   3.779  16.731 -0.1637 -0.8631 -0.2191
  442MPD2    C4 6587   3.889   3.771  16.864 -0.2390 -0.1162 -0.1412
  442MPD2    C5 6588   3.822   3.859  16.942 -0.6360  0.2057 -0.4989
  442MPD2     H 6589   3.864   3.916  16.566 -1.8976  0.5365 -0.2323
  442MPD2    H1 6590   3.916   3.678  16.913 -1.1345  0.4992  1.5265
  442MPD2    H2 6591   3.730   4.051  16.947 -1.8201 -1.2947  0.2287
  442MPD2    H3 6592   3.804   3.840  17.048 -2.1490  0.7864 -0.6565
  442MPD2     N 6593   3.930   3.662  16.655  0.4786  0.0792  0.3661
  442MPD2    H5 6594   3.950   3.575  16.703  0.5482 -0.0735  0.0630
  442MPD2    N1 6595   3.741   4.114  16.685 -0.4237  0.4335 -0.3158
  442MPD2    H7 6596   3.756   4.114  16.585 -3.1645  2.9638 -0.7387
  443TMC3    C1 6597   3.579   4.287  16.641 -0.6887 -0.4286  0.2870
  443TMC3    C2 6598   3.597   4.261  16.509 -0.0966 -0.4587 -0.5765
  443TMC3    C3 6599   3.500   4.298  16.426 -0.0429  0.4945  0.1125
  443TMC3    C4 6600   3.473   4.363  16.688  0.0013  0.2020 -0.3141
  443TMC3    C5 6601   3.369   4.385  16.608 -0.6751 -0.6152 -0.3590
  443TMC3    C6 6602   3.382   4.356  16.474  0.0027  0.1009  0.3729
  443TMC3     C 6603   3.661   4.217  16.738  0.6743  0.0967 -0.3122
  443TMC3     O 6604   3.642   4.239  16.855 -0.3416  0.7503 -0.2841
  443TMC3     H 6605   3.686   4.212  16.470  0.1092 -1.1745  0.7907
  443TMC3    H1 6606   3.465   4.369  16.796 -0.7280 -0.0421 -0.3579
  443TMC3    H2 6607   3.306   4.388  16.403  1.7786  1.7067 -0.7976
  443TMC3    C7 6608   3.254   4.316  16.672 -0.3212 -0.8179 -0.6577
  443TMC3    C8 6609   3.507   4.241  16.293  0.0422 -0.2135 -0.2052
  443TMC3    O1 6610   3.286   4.261  16.780  0.2258  0.1236 -0.6387
  443TMC3    O2 6611   3.583   4.145  16.273 -0.2931  0.4319  0.0848
  444MPD2     C 6612   4.297   3.318  16.999  0.7876  0.3796 -0.2287
  444MPD2    C1 6613   4.218   3.212  16.958  0.3319  0.4788  0.1254
  444MPD2    C2 6614   4.275   3.112  16.884 -0.6973  0.7230  0.8445
  444MPD2    C3 6615   4.408   3.112  16.856  0.6116 -1.1368  0.1235
  444MPD2    C4 6616   4.488   3.212  16.907  0.7970  0.1438 -0.6828
  444MPD2    C5 6617   4.433   3.314  16.980 -0.2028 -0.2961  0.4064
  444MPD2     H 6618   4.215   3.023  16.874 -0.6890  0.7964  0.1042
  444MPD2    H1 6619   4.596   3.211  16.905  0.8160  0.2971  0.2299
  444MPD2    H2 6620   4.258   3.404  17.053  1.1473  0.5185 -0.1900
  444MPD2    H3 6621   4.503   3.393  17.005 -1.3823  1.0183 -0.4746
  444MPD2     N 6622   4.463   3.003  16.783 -0.0120 -0.5803  0.7363
  444MPD2    H5 6623   4.388   2.942  16.751 -1.3523  0.5758  1.6365
  444MPD2    N1 6624   4.077   3.205  16.977 -0.1195 -0.1706  0.4387
  444MPD2    H7 6625   4.031   3.117  16.957 -0.2851 -0.3908  1.8248
  445TMC3    C1 6626   4.602   2.863  16.659  0.5803 -0.7325 -0.5851
  445TMC3    C2 6627   4.499   2.817  16.591  0.0368  0.1237  0.5163
  445TMC3    C3 6628   4.514   2.706  16.511 -0.0135  1.2745 -0.2256
  445TMC3    C4 6629   0.004   2.808  16.643 -0.3661 -0.4796 -0.8048
  445TMC3    C5 6630   0.013   2.688  16.575  0.1642  0.3639  0.8630
  445TMC3    C6 6631   4.631   2.631  16.512 -0.0421 -0.1471 -0.0736
  445TMC3     C 6632   4.593   2.978  16.749  0.1964  0.4201  0.5474
  445TMC3     O 6633   4.695   3.035  16.789 -0.6200  0.4027  0.1446
  445TMC3     H 6634   4.416   2.885  16.573  0.0128 -0.4234 -1.4464
  445TMC3    H1 6635   0.079   2.847  16.711 -1.2768 -0.8484  0.4030
  445TMC3    H2 6636   4.644   2.537  16.458 -3.4772  1.4146 -3.6122
  445TMC3    C7 6637   0.141   2.632  16.538 -0.4811  0.1693  0.1243
  445TMC3    C8 6638   4.398   2.641  16.438 -0.8766  0.2528 -0.0220
  445TMC3    O1 6639   0.149   2.537  16.461  0.1798 -0.4266  0.2466
  445TMC3    O2 6640   4.418   2.530  16.385  0.5826  0.4815  0.8391
  446MPD2     C 6641   3.732   4.364  11.376  0.1229  0.4421  0.2779
  446MPD2    C1 6642   3.739   4.412  11.247 -0.2822  0.2597 -0.2316
  446MPD2    C2 6643   3.829   4.514  11.212  0.2941  0.1416 -0.0960
  446MPD2    C3 6644   3.913   4.574  11.303 -0.7987 -0.1005 -0.0107
  446MPD2    C4 6645   3.912   4.525  11.436 -0.1618  0.2034  0.3341
  446MPD2    C5 6646   3.820   4.422  11.462 -0.9180 -0.7575 -0.4603
  446MPD2     H 6647   3.829   4.549  11.109  1.3773 -2.7548 -1.0564
  446MPD2    H1 6648   3.960   4.571  11.521  0.2865  2.3576 -1.0766
  446MPD2    H2 6649   3.665   4.290  11.416 -4.2885  2.2770 -3.6066
  446MPD2    H3 6650   3.817   4.393  11.566 -2.0324  0.8014 -0.0624
  446MPD2     N 6651   3.985   4.685  11.251 -0.0125 -0.3092  0.5501
  446MPD2    H5 6652   3.971   4.681  11.151 -2.0006  0.0520  0.8172
  446MPD2    N1 6653   3.644   4.375  11.148 -0.9184 -0.6755  0.1395
  446MPD2    H7 6654   3.636   4.426  11.060 -0.4971 -0.6439  0.1190
  447TMC3    C1 6655   4.171   0.112  11.257 -0.3100 -0.7012 -0.2387
  447TMC3    C2 6656   4.149   0.154  11.135  0.5725  0.8368 -0.4708
  447TMC3    C3 6657   4.255   0.217  11.072 -0.3439 -0.1018 -0.5135
  447TMC3    C4 6658   4.289   0.138  11.328 -0.4810  0.3194  0.5605
  447TMC3    C5 6659   4.391   0.200  11.263 -0.2240  0.8413  0.6093
  447TMC3    C6 6660   4.377   0.242  11.133  0.3477 -0.5257  0.3273
  447TMC3     C 6661   4.073   0.031  11.330 -0.6484 -0.0635  0.3508
  447TMC3     O 6662   4.084   0.032  11.455 -0.2833 -0.1294  0.2435
  447TMC3     H 6663   4.053   0.159  11.083  1.1207  1.7222 -1.3995
  447TMC3    H1 6664   4.297   0.111  11.433 -0.0050 -0.8220  0.2261
  447TMC3    H2 6665   4.450   0.311  11.093 -0.6902  0.4315  0.0832
  447TMC3    C7 6666   4.528   0.186  11.311  0.1281  0.4573  0.3452
  447TMC3    C8 6667   4.253   0.211  10.927 -0.6100  0.2029 -0.4737
  447TMC3    O1 6668   4.616   0.198  11.226 -0.1721 -0.1715  0.0508
  447TMC3    O2 6669   4.147   0.188  10.870 -0.1574 -0.4191  0.1301
  448TMC3    C1 6670   2.347   4.493  16.808 -0.3200  0.2672  0.2113
  448TMC3    C2 6671   2.277   4.372  16.793  0.2156 -0.1604 -0.1908
  448TMC3    C3 6672   2.269   4.291  16.906 -0.3106 -0.7491  0.5317
  448TMC3    C4 6673   2.400   4.529  16.925  0.7656  0.0184 -0.4155
  448TMC3    C5 6674   2.398   4.441  17.030 -0.6153 -0.0826 -0.4127
  448TMC3    C6 6675   2.323   4.328  17.026 -0.1961 -0.3992 -0.2590
  448TMC3     C 6676   2.404   4.566  16.696  0.6012  0.5856  0.4115
  448TMC3     O 6677   2.508   4.625  16.722 -0.2218  0.0414  0.2439
  448TMC3     H 6678   2.251   4.333  16.695  0.9796 -1.9364  0.3153
  448TMC3    H1 6679   2.458   4.620  16.935 -1.7243  1.8618 -2.7916
  448TMC3    H2 6680   2.327   4.254  17.106 -1.3724 -1.0340 -0.7764
  448TMC3    C7 6681   2.479   4.482  17.147 -0.1186  0.1679 -0.2729
  448TMC3    C8 6682   2.230   4.156  16.895 -0.1069  0.3460  0.0368
  448TMC3    O1 6683   2.580   4.547  17.124  0.0496  0.1087  0.3097
  448TMC3    O2 6684   2.267   4.079  16.985  0.0308  0.1908 -0.0443
  449MPD2     C 6685   3.824   2.782  13.502  0.2486 -0.5509  0.6421
  449MPD2    C1 6686   3.686   2.769  13.508 -0.4884 -0.7966  0.3389
  449MPD2    C2 6687   3.626   2.696  13.609  0.1167 -0.1869  0.3241
  449MPD2    C3 6688   3.707   2.632  13.702 -0.4375 -0.3947  0.6461
  449MPD2    C4 6689   3.844   2.634  13.687 -0.0990 -0.6993 -1.1017
  449MPD2    C5 6690   3.908   2.713  13.591 -0.2330  0.4898 -0.1681
  449MPD2     H 6691   3.519   2.682  13.611  0.3684 -2.2087 -0.5442
  449MPD2    H1 6692   3.903   2.591  13.767 -0.8420 -1.4158 -0.9404
  449MPD2    H2 6693   3.869   2.827  13.415 -0.5170 -0.4293  0.3097
  449MPD2    H3 6694   4.016   2.725  13.588 -0.1807  0.4061  1.0611
  449MPD2     N 6695   3.641   2.574  13.808  0.0573 -0.4368  0.6435
  449MPD2    H5 6696   3.540   2.585  13.815 -0.1489 -0.1459 -3.1891
  449MPD2    N1 6697   3.601   2.833  13.418 -0.2006  0.2421  0.3291
  449MPD2    H7 6698   3.502   2.824  13.440  0.1721 -0.9957  1.5313
  450TMC3    C1 6699   3.512   2.907  13.232 -0.7489  0.1537  0.1816
  450TMC3    C2 6700   3.512   2.820  13.126 -0.6222 -0.9890  0.2109
  450TMC3    C3 6701   3.398   2.740  13.117 -0.4129 -0.4471 -0.2539
  450TMC3    C4 6702   3.391   2.928  13.303 -0.1143  1.1050 -0.2607
  450TMC3    C5 6703   3.284   2.848  13.293  0.7486 -0.0418  0.2179
  450TMC3    C6 6704   3.284   2.747  13.196  0.0894 -0.0129  0.6721
  450TMC3     C 6705   3.633   2.900  13.305  0.0716  0.5251 -0.6209
  450TMC3     O 6706   3.740   2.899  13.243  0.1902  0.6138 -0.4957
  450TMC3     H 6707   3.598   2.811  13.060  0.5667  0.6496  1.5011
  450TMC3    H1 6708   3.394   3.001  13.383 -0.0246 -0.0458  0.7899
  450TMC3    H2 6709   3.207   2.671  13.186  1.2962 -1.3117  1.2361
  450TMC3    C7 6710   3.253   2.792  13.416  0.2205  0.3418  0.3431
  450TMC3    C8 6711   3.381   2.656  13.009 -0.0850  0.2168  0.4260
  450TMC3    O1 6712   3.338   2.812  13.503 -0.0700  0.4082  0.3846
  450TMC3    O2 6713   3.265   2.647  12.967  0.0133 -0.2675  0.0654
  451MPD2     C 6714   4.462   1.607   1.592  0.0329  0.6574  0.2442
  451MPD2    C1 6715   4.536   1.647   1.487 -0.1085 -0.2233  0.1093
  451MPD2    C2 6716   4.563   1.562   1.384  0.4293 -0.3505 -0.2311
  451MPD2    C3 6717   4.522   1.427   1.394  0.0977  1.1348 -0.9165
  451MPD2    C4 6718   4.446   1.390   1.504 -0.4213  0.0593 -0.5830
  451MPD2    C5 6719   4.419   1.478   1.604 -0.0550 -0.0914  0.4048
  451MPD2     H 6720   4.605   1.606   1.294  0.7107  1.5553  0.8384
  451MPD2    H1 6721   4.420   1.286   1.517  0.5673 -0.2874 -1.4127
  451MPD2    H2 6722   4.441   1.680   1.670 -1.3257 -0.4071  0.8794
  451MPD2    H3 6723   4.366   1.457   1.696  0.1837  1.3872  0.8746
  451MPD2     N 6724   4.563   1.331   1.301 -0.1079 -0.1923  0.1147
  451MPD2    H5 6725   4.564   1.236   1.336  0.2691 -0.3264 -0.2487
  451MPD2    N1 6726   4.556   1.785   1.489 -0.4876 -0.0267  0.2425
  451MPD2    H7 6727   4.511   1.841   1.560 -2.5035 -0.7570 -0.4470
  452TMC3    C1 6728   4.675   1.243   1.117  0.0409  0.2360 -0.1169
  452TMC3    C2 6729   4.708   1.134   1.191  0.2862 -0.0191  0.7202
  452TMC3    C3 6730   0.047   1.033   1.125  0.0026 -0.1854 -0.2008
  452TMC3    C4 6731   4.670   1.234   0.979  0.0329  0.1736  0.9977
  452TMC3    C5 6732   0.001   1.124   0.921  0.1773  0.5538 -0.2949
  452TMC3    C6 6733   0.055   1.023   0.994  0.5947 -0.0128  0.3278
  452TMC3     C 6734   4.627   1.359   1.182 -0.0078 -0.0825 -0.0948
  452TMC3     O 6735   4.638   1.460   1.117  0.3277  0.0024 -0.4437
  452TMC3     H 6736   4.707   1.133   1.299 -0.9939  2.1511  0.7345
  452TMC3    H1 6737   4.642   1.325   0.926  0.1908 -0.2979  0.1037
  452TMC3    H2 6738   0.130   0.949   0.968  0.1192 -1.3824  2.8414
  452TMC3    C7 6739   0.007   1.115   0.779 -0.3443  0.3542  0.1150
  452TMC3    C8 6740   0.113   0.931   1.200 -0.0240 -0.2443  0.1612
  452TMC3    O1 6741   4.693   1.210   0.719 -0.7402 -0.4064  0.0907
  452TMC3    O2 6742   0.047   0.884   1.293 -0.6459 -0.1261 -0.0614
  453TMC3    C1 6743   1.821   3.697  11.633 -0.4841 -0.3382 -0.4899
  453TMC3    C2 6744   1.734   3.633  11.714  0.0535  0.2037  0.3538
  453TMC3    C3 6745   1.665   3.529  11.661  0.4475 -0.1091 -0.0959
  453TMC3    C4 6746   1.845   3.661  11.507  0.4702 -0.1860  0.3187
  453TMC3    C5 6747   1.770   3.560  11.456  0.0838  0.2654  0.1194
  453TMC3    C6 6748   1.679   3.494  11.532 -0.6742  0.4320  0.0005
  453TMC3     C 6749   1.883   3.825  11.682 -0.5614 -0.1170 -1.1645
  453TMC3     O 6750   1.940   3.889  11.595  0.4197  0.2760 -0.7488
  453TMC3     H 6751   1.703   3.686  11.803  0.4866  1.3388 -0.1703
  453TMC3    H1 6752   1.931   3.706  11.459 -1.0660 -0.3065 -2.5722
  453TMC3    H2 6753   1.621   3.416  11.484 -1.0628  0.5057  0.3524
  453TMC3    C7 6754   1.791   3.520  11.315  0.6064 -0.6966  0.2268
  453TMC3    C8 6755   1.547   3.469  11.727  0.1837  0.3598  0.3978
  453TMC3    O1 6756   1.701   3.464  11.256 -0.8824  0.0058  0.5148
  453TMC3    O2 6757   1.504   3.547  11.816  0.2020 -0.5948 -0.4698
  454MPD2     C 6758   0.379   2.998  16.234 -1.0364  0.3723  0.1008
  454MPD2    C1 6759   0.280   3.089  16.199  0.3667  0.0809  0.6421
  454MPD2    C2 6760   0.249   3.186  16.294 -0.5886 -0.6362  0.1676
  454MPD2    C3 6761   0.283   3.177  16.429  0.1434  0.3890  0.6235
  454MPD2    C4 6762   0.385   3.086  16.458 -1.1016 -0.2207 -0.1274
  454MPD2    C5 6763   0.430   2.996  16.359  0.6534  0.3803  0.1318
  454MPD2     H 6764   0.182   3.261  16.254 -1.7252 -1.7791 -0.0538
  454MPD2    H1 6765   0.434   3.094  16.554 -0.9162 -0.4666 -0.2019
  454MPD2    H2 6766   0.415   2.925  16.162 -0.1012  1.8593 -0.9476
  454MPD2    H3 6767   0.510   2.924  16.374 -0.3112 -0.4110  1.4644
  454MPD2     N 6768   0.245   3.271  16.530 -0.4932 -0.2512  0.5638
  454MPD2    H5 6769   0.315   3.272  16.603  1.0190  0.7150 -0.9098
  454MPD2    N1 6770   0.219   3.109  16.073  0.3740  0.1484  0.5112
  454MPD2    H7 6771   0.189   3.202  16.047  0.9865 -0.1438 -1.2691
  455TMC3    C1 6772   0.032   3.324  16.436 -0.1979 -0.2647 -0.2756
  455TMC3    C2 6773   4.675   3.422  16.388  0.4725  0.2838 -0.0430
  455TMC3    C3 6774   4.562   3.382  16.315 -0.2441 -0.0402 -0.3414
  455TMC3    C4 6775   4.714   3.192  16.433 -0.5674  0.2610 -0.2904
  455TMC3    C5 6776   4.598   3.157  16.373 -0.1015  0.6380 -0.3028
  455TMC3    C6 6777   4.516   3.254  16.315 -0.1609 -0.7962 -0.1081
  455TMC3     C 6778   0.148   3.367  16.510 -0.1303  0.0516 -0.3239
  455TMC3     O 6779   0.128   3.467  16.573 -0.5012 -0.1943 -0.2874
  455TMC3     H 6780   4.696   3.526  16.414 -0.3386  0.8593 -1.6823
  455TMC3    H1 6781   0.053   3.122  16.486  1.6408  1.1270 -1.7945
  455TMC3    H2 6782   4.426   3.230  16.259  0.9063 -1.7564 -1.4028
  455TMC3    C7 6783   4.579   3.031  16.312  0.4920  1.1023  0.2395
  455TMC3    C8 6784   4.459   3.479  16.348  0.3556 -0.1992 -0.1985
  455TMC3    O1 6785   4.466   3.009  16.272 -0.0726 -0.7055  0.1278
  455TMC3    O2 6786   4.360   3.440  16.408 -0.6122 -0.2241 -0.1975
  456MPD2     C 6787   2.608   2.943  16.046 -0.1349 -0.5286 -0.2883
  456MPD2    C1 6788   2.694   2.931  16.156 -0.1903 -0.1237  0.4845
  456MPD2    C2 6789   2.656   3.012  16.266 -0.8274  0.0201  0.7140
  456MPD2    C3 6790   2.551   3.098  16.269  0.0508  0.5741 -0.1742
  456MPD2    C4 6791   2.482   3.115  16.147  0.1313 -0.3425  0.2600
  456MPD2    C5 6792   2.506   3.031  16.040 -0.1725  1.0623  1.0058
  456MPD2     H 6793   2.723   3.019  16.351 -0.9662 -2.1676  1.0062
  456MPD2    H1 6794   2.403   3.189  16.144  1.8569  1.5473  1.1512
  456MPD2    H2 6795   2.625   2.872  15.966  0.8024  1.6317 -2.0051
  456MPD2    H3 6796   2.447   3.047  15.950  0.6443  1.4294  0.5357
  456MPD2     N 6797   2.530   3.178  16.393 -0.5532  0.8032 -0.0271
  456MPD2    H5 6798   2.601   3.168  16.465  0.9613 -0.9072 -1.7554
  456MPD2    N1 6799   2.806   2.854  16.138 -0.2290 -0.7290 -0.0824
  456MPD2    H7 6800   2.814   2.816  16.044 -1.5007  0.9662 -0.8820
  457TMC3    C1 6801   2.458   3.355  16.526 -0.0351 -0.6551 -0.3469
  457TMC3    C2 6802   2.397   3.488  16.544 -0.1930  0.0216  0.5221
  457TMC3    C3 6803   2.398   3.537  16.672 -0.2085  0.3622  0.0676
  457TMC3    C4 6804   2.517   3.288  16.626 -0.0699 -0.3345  0.1183
  457TMC3    C5 6805   2.507   3.348  16.755 -0.0083  0.0180 -0.1400
  457TMC3    C6 6806   2.453   3.473  16.773  0.6346 -0.1488 -0.3819
  457TMC3     C 6807   2.436   3.282  16.402 -0.1239 -0.8122 -0.4529
  457TMC3     O 6808   2.369   3.338  16.317 -0.2092  0.3749 -0.1488
  457TMC3     H 6809   2.353   3.536  16.457 -1.1138 -1.3772  0.2111
  457TMC3    H1 6810   2.539   3.182  16.632  0.9278 -0.0422  1.4354
  457TMC3    H2 6811   2.440   3.505  16.876  0.8246  0.2187 -0.4715
  457TMC3    C7 6812   2.602   3.303  16.857  1.2421 -0.2595 -0.4017
  457TMC3    C8 6813   2.347   3.673  16.706 -0.2286  0.1895 -0.2779
  457TMC3    O1 6814   2.631   3.185  16.855 -0.4557  0.7563 -0.7011
  457TMC3    O2 6815   2.404   3.733  16.795  0.1458  0.5431  0.6079
  458MPD2     C 6816   0.584   2.509  11.757 -0.2651 -0.0636 -0.2229
  458MPD2    C1 6817   0.501   2.514  11.871  0.3971 -0.1188  0.2804
  458MPD2    C2 6818   0.380   2.444  11.859  1.0552  0.4388 -0.6377
  458MPD2    C3 6819   0.338   2.392  11.739 -0.2304  0.4911 -0.1970
  458MPD2    C4 6820   0.423   2.378  11.629  0.3992 -0.3674  0.1814
  458MPD2    C5 6821   0.549   2.441  11.645 -0.2784 -0.1762 -0.3470
  458MPD2     H 6822   0.312   2.435  11.943  2.5474  1.3442  0.6658
  458MPD2    H1 6823   0.406   2.326  11.536 -0.4568  0.4172 -0.1079
  458MPD2    H2 6824   0.689   2.536  11.759 -0.3026 -0.0047  0.8915
  458MPD2    H3 6825   0.611   2.437  11.556  0.1790  1.6278 -0.1028
  458MPD2     N 6826   0.207   2.349  11.739 -0.2460  0.9429 -0.7043
  458MPD2    H5 6827   0.164   2.373  11.828 -0.6712  0.6146 -0.8221
  458MPD2    N1 6828   0.553   2.585  11.985  0.3987 -0.1291 -0.5159
  458MPD2    H7 6829   0.633   2.646  11.975  0.0654  0.6530  1.4302
  459TMC3    C1 6830   0.551   2.660  12.224 -0.3960 -0.4722  0.2829
  459TMC3    C2 6831   0.649   2.742  12.187 -0.0093 -0.5604  0.4191
  459TMC3    C3 6832   0.714   2.808  12.293 -0.1046  0.5198 -0.3694
  459TMC3    C4 6833   0.503   2.648  12.356  0.2859 -0.1192  0.7528
  459TMC3    C5 6834   0.567   2.711  12.455 -0.4971  0.6901 -0.3304
  459TMC3    C6 6835   0.683   2.788  12.427 -0.5389 -0.2973 -1.1577
  459TMC3     C 6836   0.490   2.581  12.113 -0.2537  0.0140  0.4737
  459TMC3     O 6837   0.394   2.513  12.139 -0.0635  0.2573 -0.3409
  459TMC3     H 6838   0.682   2.754  12.085 -0.8311 -0.0034  0.2157
  459TMC3    H1 6839   0.420   2.579  12.371 -0.3381  0.9552  2.2174
  459TMC3    H2 6840   0.724   2.850  12.505 -1.6185  0.4414 -1.1710
  459TMC3    C7 6841   0.539   2.665  12.589  0.3442  0.3649  0.3482
  459TMC3    C8 6842   0.835   2.881  12.268 -0.4180  0.7495  0.8990
  459TMC3    O1 6843   0.486   2.561  12.601  0.0469  0.0561 -0.1317
  459TMC3    O2 6844   0.888   2.850  12.162  0.5095  0.1021  0.3631
  460MPD2     C 6845   4.529   0.135  10.707 -0.6603  0.5628 -0.2735
  460MPD2    C1 6846   4.406   0.183  10.745  0.0957 -0.5707  0.0019
  460MPD2    C2 6847   4.314   0.209  10.634  0.2375 -0.6119 -0.0110
  460MPD2    C3 6848   4.340   0.172  10.504 -0.2544  0.6608  0.3199
  460MPD2    C4 6849   4.458   0.113  10.472  0.2719  0.9503 -0.1447
  460MPD2    C5 6850   4.553   0.104  10.570 -0.0336 -0.2115  0.3235
  460MPD2     H 6851   4.218   0.250  10.662 -0.5164 -1.4052 -1.4315
  460MPD2    H1 6852   4.486   0.089  10.370  0.3536 -1.0268  0.3256
  460MPD2    H2 6853   4.614   0.121  10.772 -1.7575 -0.2208  0.9777
  460MPD2    H3 6854   4.651   0.070  10.541 -0.4762 -0.9491 -0.3213
  460MPD2     N 6855   4.232   0.196  10.419  0.2193 -0.1666 -0.5138
  460MPD2    H5 6856   4.159   0.263  10.444  0.4677 -0.4964  1.0745
  460MPD2    N1 6857   4.376   0.198  10.879 -0.3670 -0.4503 -0.6838
  460MPD2    H7 6858   4.451   0.193  10.947 -0.3149 -1.6734 -0.8294
  461TMC3    C1 6859   4.119   0.200  10.200 -0.2140  0.4722 -0.3676
  461TMC3    C2 6860   4.097   0.123  10.085  0.7501 -0.1676 -0.3667
  461TMC3    C3 6861   4.000   0.165   9.992  0.1665 -0.1371 -0.1535
  461TMC3    C4 6862   4.052   0.321  10.221  0.9034  0.2163 -0.5878
  461TMC3    C5 6863   3.966   0.361  10.117  0.4424  0.2446  0.6959
  461TMC3    C6 6864   3.947   0.288  10.006 -0.3927 -0.5585  0.4357
  461TMC3     C 6865   4.220   0.141  10.293 -0.3771 -0.7224 -0.3218
  461TMC3     O 6866   4.295   0.054  10.248  0.2136  0.1606 -0.0169
  461TMC3     H 6867   4.160   0.038  10.065  0.8232 -0.1147 -0.3624
  461TMC3    H1 6868   4.075   0.380  10.309 -0.1219 -0.8884  0.4396
  461TMC3    H2 6869   3.887   0.333   9.928  0.9667 -0.9092 -0.8166
  461TMC3    C7 6870   3.895   0.486  10.116  0.0641  0.0298  0.0315
  461TMC3    C8 6871   3.985   0.105   9.858 -0.0501 -0.1570  0.4218
  461TMC3    O1 6872   3.810   0.509  10.031 -0.4013 -0.4771  0.4112
  461TMC3    O2 6873   3.930   0.170   9.771  0.3561 -0.5442 -0.4333
  462TMC3    C1 6874   3.663   0.876  17.295 -0.7775  0.5732  0.9417
  462TMC3    C2 6875   3.717   0.781  17.215  0.2973 -0.1515 -0.0981
  462TMC3    C3 6876   3.767   0.671  17.278  1.3481 -0.1322 -0.3236
  462TMC3    C4 6877   3.654   0.862  17.431 -0.2293 -0.7826  0.6395
  462TMC3    C5 6878   3.684   0.735  17.477 -0.4422  0.0199 -0.5016
  462TMC3    C6 6879   3.760   0.646  17.408 -0.1723 -0.7470  0.3795
  462TMC3     C 6880   3.653   1.015  17.247  0.3181  0.2456 -0.1262
  462TMC3     O 6881   3.684   1.101  17.329  0.3197  0.0700  0.7288
  462TMC3     H 6882   3.721   0.797  17.108 -1.0554  0.9327  0.0086
  462TMC3    H1 6883   3.615   0.941  17.495  0.2116  0.6211 -0.8403
  462TMC3    H2 6884   3.754   0.546  17.450 -1.1310 -0.0399  1.9235
  462TMC3    C7 6885   3.611   0.676  17.584  0.5496 -0.3631  0.4103
  462TMC3    C8 6886   3.778   0.547  17.199 -0.4166  0.8687  0.2394
  462TMC3    O1 6887   3.584   0.555  17.585 -0.0241  0.2654 -0.1622
  462TMC3    O2 6888   3.707   0.534  17.097 -0.5813 -0.3939  0.0172
  463MPD2     C 6889   0.501   0.231   1.628 -0.3260  0.5741  0.1410
  463MPD2    C1 6890   0.402   0.237   1.532 -0.3362  0.2797  0.2099
  463MPD2    C2 6891   0.431   0.322   1.423  0.3998 -0.2612 -0.2634
  463MPD2    C3 6892   0.552   0.384   1.405  0.5143 -0.2580  0.2921
  463MPD2    C4 6893   0.656   0.367   1.497 -0.0045  0.3549  0.2352
  463MPD2    C5 6894   0.628   0.293   1.611  0.0044  0.2575 -0.3324
  463MPD2     H 6895   0.359   0.323   1.342  0.9239  0.1322 -0.7237
  463MPD2    H1 6896   0.754   0.414   1.488  0.4165 -1.0609 -2.4850
  463MPD2    H2 6897   0.495   0.182   1.725 -2.3256  1.4967  0.4928
  463MPD2    H3 6898   0.701   0.287   1.691 -1.2137  1.6096  0.8606
  463MPD2     N 6899   0.583   0.463   1.288  0.1295 -0.2812 -0.2349
  463MPD2    H5 6900   0.677   0.498   1.274  0.3780 -0.1941  1.6419
  463MPD2    N1 6901   0.279   0.164   1.534  0.2237 -0.3293 -0.4927
  463MPD2    H7 6902   0.210   0.176   1.461  1.3407  1.4355 -1.2573
  464TMC3    C1 6903   0.124   0.018   1.616  0.5548  0.0451  0.0252
  464TMC3    C2 6904   0.030   0.080   1.537 -0.4822 -0.5177  0.3776
  464TMC3    C3 6905   4.633   0.017   1.532 -0.8033  0.0713  0.6111
  464TMC3    C4 6906   0.109   4.627   1.683  0.1466  0.0396  0.1894
  464TMC3    C5 6907   4.713   4.569   1.670 -0.1293  0.1326 -0.2213
  464TMC3    C6 6908   4.603   4.624   1.597 -0.6341  0.7280  0.0743
  464TMC3     C 6909   0.252   0.076   1.635 -0.1828  0.3226  0.5090
  464TMC3     O 6910   0.314   0.044   1.733 -0.3819 -0.0443  0.8972
  464TMC3     H 6911   0.041   0.184   1.507  0.9099 -0.2499  1.8217
  464TMC3    H1 6912   0.190   4.581   1.738 -0.4614 -0.5865  0.5608
  464TMC3    H2 6913   4.507   4.573   1.603 -1.3845  2.0705 -0.6490
  464TMC3    C7 6914   4.709   4.429   1.710  0.0873 -0.3433 -0.5937
  464TMC3    C8 6915   4.540   0.078   1.435  0.4625  0.7409 -1.1038
  464TMC3    O1 6916   0.085   4.393   1.770  0.2836  0.4019  0.2170
  464TMC3    O2 6917   4.577   0.170   1.362 -0.3402 -0.5551  0.1550
  465MPD2     C 6918   1.923   3.474  16.336  0.0722  0.1973  0.1750
  465MPD2    C1 6919   1.830   3.435  16.426 -0.1446  0.0126 -0.7943
  465MPD2    C2 6920   1.698   3.421  16.386 -0.1478  0.1255  0.8226
  465MPD2    C3 6921   1.656   3.465  16.261 -0.4173 -0.8003 -0.6712
  465MPD2    C4 6922   1.752   3.526  16.177  0.1208  0.2481 -0.0115
  465MPD2    C5 6923   1.880   3.531  16.216  0.0782  0.2874 -0.7160
  465MPD2     H 6924   1.618   3.390  16.453 -0.3201  0.2960  0.6994
  465MPD2    H1 6925   1.740   3.563  16.075 -4.3740 -1.2668 -0.0290
  465MPD2    H2 6926   2.030   3.458  16.345 -0.2378 -0.7150  2.0844
  465MPD2    H3 6927   1.955   3.572  16.149  1.7223  0.3606  1.1362
  465MPD2     N 6928   1.517   3.452  16.222  0.3103 -0.0616 -0.0880
  465MPD2    H5 6929   1.456   3.391  16.276 -0.0271 -0.5114 -0.9809
  465MPD2    N1 6930   1.855   3.402  16.560  0.0031 -0.9062 -0.5528
  465MPD2    H7 6931   1.773   3.369  16.610 -0.8335  0.3588 -1.1004
  466TMC3    C1 6932   1.113   3.371  16.136 -0.8254  0.2114 -0.6530
  466TMC3    C2 6933   1.046   3.465  16.065 -0.3419  0.3754  0.1317
  466TMC3    C3 6934   1.113   3.562  15.997 -0.1094  0.6389  0.1160
  466TMC3    C4 6935   1.249   3.385  16.164  0.2560  0.2579 -0.5003
  466TMC3    C5 6936   1.315   3.494  16.100  0.7575 -0.1997  0.2982
  466TMC3    C6 6937   1.248   3.578  16.011 -0.0199 -0.8746 -0.6434
  466TMC3     C 6938   1.035   3.264  16.199 -0.7754  0.0310  0.1554
  466TMC3     O 6939   0.925   3.246  16.156  0.2373 -0.8175 -0.7514
  466TMC3     H 6940   0.944   3.438  16.042  0.3232 -2.7052  0.8007
  466TMC3    H1 6941   1.309   3.305  16.205 -1.3195 -1.5663 -1.7819
  466TMC3    H2 6942   1.297   3.665  15.967 -1.5261 -0.3082 -1.1866
  466TMC3    C7 6943   1.458   3.520  16.117  0.2330  0.1034  0.4718
  466TMC3    C8 6944   1.042   3.683  15.987 -0.6746 -0.6529  0.1043
  466TMC3    O1 6945   1.502   3.612  16.055 -0.2738  0.5073  0.5016
  466TMC3    O2 6946   1.058   3.744  15.883  0.3027 -0.1000 -0.7089
  467TMC3    C1 6947   2.279   2.012  13.435 -0.1756 -0.0285 -0.2653
  467TMC3    C2 6948   2.307   2.111  13.350 -0.0024 -0.7346 -0.2688
  467TMC3    C3 6949   2.216   2.192  13.299  0.5585 -0.0552  0.5847
  467TMC3    C4 6950   2.153   1.972  13.463 -0.4635 -0.4017 -0.5353
  467TMC3    C5 6951   2.057   2.059  13.410  0.2736 -0.2544  0.0296
  467TMC3    C6 6952   2.087   2.169  13.334  0.3424  0.0776 -0.3314
  467TMC3     C 6953   2.379   1.960  13.517 -0.5227  0.1313  0.1324
  467TMC3     O 6954   2.482   2.024  13.500  0.2673 -0.4348  0.3695
  467TMC3     H 6955   2.409   2.146  13.337 -0.6721  0.5635 -2.1230
  467TMC3    H1 6956   2.133   1.906  13.547  2.1521  2.3660  2.2633
  467TMC3    H2 6957   2.009   2.237  13.302 -0.4806 -1.1744 -0.9613
  467TMC3    C7 6958   1.922   2.041  13.470  0.3985 -0.2487 -0.0569
  467TMC3    C8 6959   2.250   2.299  13.209  0.0652 -0.0286 -0.2809
  467TMC3    O1 6960   1.914   1.950  13.548 -1.0070  0.0823  0.5157
  467TMC3    O2 6961   2.166   2.388  13.187  0.1883 -0.0177  0.3208
  468MPD2     C 6962   1.668   0.175  11.377 -0.5411 -0.2904  0.1181
  468MPD2    C1 6963   1.624   0.164  11.244  0.5015  0.6219 -0.2187
  468MPD2    C2 6964   1.590   0.037  11.196  0.0789  0.5298  0.1117
  468MPD2    C3 6965   1.614   4.651  11.275 -0.4093 -0.3332  0.1996
  468MPD2    C4 6966   1.659   4.655  11.399 -0.1507  0.0034  0.0921
  468MPD2    C5 6967   1.679   0.057  11.451 -0.1063 -0.0367 -0.3755
  468MPD2     H 6968   1.547   0.025  11.097 -0.1167 -0.8358  0.3638
  468MPD2    H1 6969   1.665   4.568  11.463 -1.7602 -0.7576 -0.8049
  468MPD2    H2 6970   1.694   0.273  11.414  1.2030 -1.6477  2.4761
  468MPD2    H3 6971   1.712   0.064  11.555 -1.8988 -1.3907  0.2680
  468MPD2     N 6972   1.603   4.520  11.225 -1.1817  0.1924  0.4222
  468MPD2    H5 6973   1.639   4.442  11.279  0.1270 -0.1898 -0.9802
  468MPD2    N1 6974   1.600   0.276  11.162  0.0096 -0.3741  0.5049
  468MPD2    H7 6975   1.527   0.266  11.092 -0.6943 -2.9975  1.5897
  469TMC3    C1 6976   1.575   0.505  11.102 -0.0331 -0.2563 -0.3587
  469TMC3    C2 6977   1.457   0.468  11.040 -0.4747 -0.3827  0.5059
  469TMC3    C3 6978   1.368   0.551  10.999  0.5051 -0.2449 -0.5801
  469TMC3    C4 6979   1.608   0.637  11.116 -0.1722 -0.1617 -0.1854
  469TMC3    C5 6980   1.513   0.728  11.080  0.5910  0.2329  0.0741
  469TMC3    C6 6981   1.404   0.686  11.001  0.0188  0.5445  0.6382
  469TMC3     C 6982   1.647   0.404  11.179  0.3954 -0.2810  0.0559
  469TMC3     O 6983   1.749   0.440  11.235 -0.6201 -0.0378  0.0812
  469TMC3     H 6984   1.419   0.367  11.042  2.1698 -1.3649  1.5782
  469TMC3    H1 6985   1.702   0.660  11.166 -1.2394  1.2229  1.2001
  469TMC3    H2 6986   1.330   0.754  10.960  1.6789  2.2769  0.5291
  469TMC3    C7 6987   1.492   0.818  11.189  0.5887  0.1921 -0.2228
  469TMC3    C8 6988   1.238   0.533  11.054  0.5638 -0.3122 -0.7945
  469TMC3    O1 6989   1.580   0.831  11.269  0.3712  0.2711 -0.2782
  469TMC3    O2 6990   1.235   0.488  11.168 -0.0889  0.1538  0.6521
  470TMC3    C1 6991   3.867   0.882   0.295 -0.0202 -0.0585 -0.4050
  470TMC3    C2 6992   3.890   0.995   0.373  0.1506  0.0123  0.1480
  470TMC3    C3 6993   3.828   1.018   0.488 -0.4565  0.1264  0.1583
  470TMC3    C4 6994   3.779   0.788   0.335  0.6141  0.4928  0.1626
  470TMC3    C5 6995   3.743   0.805   0.466  0.5468 -0.4984 -0.4016
  470TMC3    C6 6996   3.752   0.922   0.542  0.1467  0.2409  0.1235
  470TMC3     C 6997   3.947   0.869   0.177  0.0779 -0.0147  0.0032
  470TMC3     O 6998   4.025   0.961   0.150 -0.2606 -0.1515 -0.2979
  470TMC3     H 6999   3.936   1.083   0.330 -1.3109  2.1820  3.0701
  470TMC3    H1 7000   3.765   0.694   0.285  1.1176  1.1695 -1.2464
  470TMC3    H2 7001   3.706   0.930   0.640 -0.2068  0.3068 -0.0466
  470TMC3    C7 7002   3.645   0.709   0.514 -0.4178  0.9769 -0.1878
  470TMC3    C8 7003   3.838   1.146   0.566  0.2793  0.0139 -0.3866
  470TMC3    O1 7004   3.598   0.629   0.433 -0.3255  0.0076  0.2476
  470TMC3    O2 7005   3.751   1.165   0.652  0.0666  0.8972 -0.3067
  471MPD2     C 7006   3.855   2.258  16.754 -0.4811  0.3379  0.1491
  471MPD2    C1 7007   3.984   2.271  16.711 -0.5290 -0.7153 -0.5168
  471MPD2    C2 7008   4.087   2.285  16.799 -0.1386 -0.0221  0.0395
  471MPD2    C3 7009   4.077   2.247  16.931 -0.0434 -0.8028  0.1906
  471MPD2    C4 7010   3.952   2.226  16.978 -0.0249 -0.4458 -0.1345
  471MPD2    C5 7011   3.845   2.237  16.891  0.5179 -0.0663 -0.2512
  471MPD2     H 7012   4.184   2.313  16.760 -0.0841 -0.5583 -0.2089
  471MPD2    H1 7013   3.936   2.192  17.079 -1.6381 -1.0528 -0.5966
  471MPD2    H2 7014   3.770   2.257  16.688 -0.1907 -0.5040 -0.2089
  471MPD2    H3 7015   3.748   2.209  16.929  0.9228 -2.1363 -0.7057
  471MPD2     N 7016   4.190   2.227  17.017  0.4578  0.5974 -0.5717
  471MPD2    H5 7017   4.174   2.199  17.113  1.3910  0.3132 -0.4960
  471MPD2    N1 7018   4.013   2.264  16.571  0.3931  0.1075  0.5257
  471MPD2    H7 7019   4.109   2.289  16.550  1.1193 -0.2343  3.4390
  472TMC3    C1 7020   3.996   2.180  16.354 -0.3864 -0.1540  0.2690
  472TMC3    C2 7021   3.927   2.173  16.235  0.1404  0.6815 -0.4634
  472TMC3    C3 7022   3.987   2.102  16.133 -0.0909 -0.2359 -0.3717
  472TMC3    C4 7023   4.113   2.111  16.374  0.5202 -0.1222  0.4614
  472TMC3    C5 7024   4.160   2.024  16.280  0.7821  0.2620  0.3050
  472TMC3    C6 7025   4.095   2.021  16.155 -0.0349 -0.5983  0.0218
  472TMC3     C 7026   3.921   2.223  16.473  0.2732  0.2716  0.1728
  472TMC3     O 7027   3.801   2.191  16.474  0.5294  0.1283  0.3589
  472TMC3     H 7028   3.846   2.241  16.213  0.4995  0.4608 -2.4821
  472TMC3    H1 7029   4.170   2.114  16.466 -3.7593  1.9880  3.0143
  472TMC3    H2 7030   4.137   1.959  16.077 -0.9935 -1.0414 -0.1483
  472TMC3    C7 7031   4.185   1.891  16.337  0.3906 -0.4606 -0.2341
  472TMC3    C8 7032   3.902   2.032  16.037 -0.7223  0.2839 -0.1467
  472TMC3    O1 7033   4.184   1.877  16.460  0.3708  0.0569  0.4148
  472TMC3    O2 7034   3.946   1.941  15.966  0.6505 -0.1138 -0.4006
  473MPD2     C 7035   3.976   4.077  13.488 -0.3569  0.6764  0.0342
  473MPD2    C1 7036   4.058   4.186  13.473  0.2456  0.9418 -0.1568
  473MPD2    C2 7037   4.116   4.243  13.581 -0.3459  0.1432 -0.6195
  473MPD2    C3 7038   4.078   4.214  13.712  0.0577  0.1360  0.0194
  473MPD2    C4 7039   3.985   4.114  13.728  0.5727  0.1758 -0.5359
  473MPD2    C5 7040   3.937   4.040  13.615 -0.0140  0.0276  0.2668
  473MPD2     H 7041   4.180   4.330  13.572 -1.0998  1.0723  2.8629
  473MPD2    H1 7042   3.947   4.088  13.826  1.1031 -1.0940 -0.6711
  473MPD2    H2 7043   3.932   4.028  13.402  2.8913 -2.0976 -0.0499
  473MPD2    H3 7044   3.871   3.954  13.611  1.2541 -0.9611  0.3492
  473MPD2     N 7045   4.124   4.281  13.826 -0.2253 -0.1500  0.2221
  473MPD2    H5 7046   4.071   4.261  13.910 -0.7693 -4.5482 -1.1370
  473MPD2    N1 7047   4.095   4.235  13.344  0.6097 -0.0358  0.3498
  473MPD2    H7 7048   4.152   4.319  13.338 -0.3484  0.4804 -1.4187
  474TMC3    C1 7049   4.243   4.428  13.959  0.8853 -0.6144 -0.6145
  474TMC3    C2 7050   4.131   4.500  13.981  0.2300 -0.0696 -0.2264
  474TMC3    C3 7051   4.149   4.619  14.052  0.4186 -0.1084  0.7769
  474TMC3    C4 7052   4.365   4.455  14.019  0.1564 -0.2152  0.4242
  474TMC3    C5 7053   4.370   4.571  14.091  0.2174 -0.3145  0.3722
  474TMC3    C6 7054   4.265   4.651  14.112 -0.0373 -0.0486  0.7545
  474TMC3     C 7055   4.240   4.353  13.836 -0.3726  0.3860 -0.3708
  474TMC3     O 7056   4.325   4.380  13.749  0.0269  0.0726 -0.4496
  474TMC3     H 7057   4.040   4.488  13.923 -0.6698 -2.5693  1.6824
  474TMC3    H1 7058   4.456   4.404  13.992  1.4509  2.3312  0.0033
  474TMC3    H2 7059   4.268   0.014  14.177 -2.3489 -0.6274  1.6473
  474TMC3    C7 7060   4.492   4.582  14.181  0.0502  0.1914 -0.7514
  474TMC3    C8 7061   4.029   4.682  14.099  0.0507 -0.4701 -0.5352
  474TMC3    O1 7062   4.585   4.511  14.159 -0.3368 -1.1343 -0.1612
  474TMC3    O2 7063   3.927   4.618  14.117  0.1828 -0.2025  0.1529
  475MPD2     C 7064   2.651   2.129  10.293 -0.7711  0.4084 -1.1123
  475MPD2    C1 7065   2.610   2.244  10.350 -0.2649  0.2978  0.1081
  475MPD2    C2 7066   2.483   2.248  10.407  0.0834  0.1306  0.2737
  475MPD2    C3 7067   2.400   2.139  10.400 -0.3038  0.0583  0.4987
  475MPD2    C4 7068   2.440   2.028  10.332 -0.1305 -0.7626 -0.1765
  475MPD2    C5 7069   2.568   2.026  10.290  0.0088  0.3014 -0.8094
  475MPD2     H 7070   2.440   2.327  10.467 -2.6292 -0.3376 -1.0963
  475MPD2    H1 7071   2.387   1.935  10.315 -0.3482 -0.5067 -0.9109
  475MPD2    H2 7072   2.747   2.109  10.247  0.5831  0.5085  1.6747
  475MPD2    H3 7073   2.601   1.931  10.249  1.4826  0.5774 -0.2630
  475MPD2     N 7074   2.266   2.150  10.448  0.1168 -0.2361 -0.2800
  475MPD2    H5 7075   2.243   2.239  10.490  1.0368 -0.2935  0.3595
  475MPD2    N1 7076   2.700   2.356  10.338 -0.0947 -0.5603  0.3720
  475MPD2    H7 7077   2.790   2.325  10.303  0.0025 -1.5041  1.4699
  476TMC3    C1 7078   2.549   2.545  10.397  0.0217 -0.0318 -0.1818
  476TMC3    C2 7079   2.459   2.546  10.289  0.1519 -1.3488 -0.7543
  476TMC3    C3 7080   2.350   2.630  10.293 -0.0979 -0.0161 -0.3801
  476TMC3    C4 7081   2.538   2.644  10.491  0.4744  0.2476 -0.8655
  476TMC3    C5 7082   2.437   2.737  10.478  0.3660  0.3402  0.3727
  476TMC3    C6 7083   2.334   2.727  10.387 -0.3543 -0.1156 -0.1480
  476TMC3     C 7084   2.682   2.488  10.373  0.2183 -0.0319  0.3616
  476TMC3     O 7085   2.774   2.565  10.387  0.0027 -0.6737 -0.6467
  476TMC3     H 7086   2.478   2.468  10.216 -0.2426 -1.6232 -0.5611
  476TMC3    H1 7087   2.599   2.637  10.581  0.2751  0.9034 -0.6794
  476TMC3    H2 7088   2.246   2.789  10.397 -0.0362  0.3337 -0.1572
  476TMC3    C7 7089   2.380   2.782  10.604 -0.5502  0.7536  0.2871
  476TMC3    C8 7090   2.226   2.590  10.222 -0.2771 -0.0087  0.2938
  476TMC3    O1 7091   2.341   2.700  10.682  0.1047  0.0644 -0.8797
  476TMC3    O2 7092   2.142   2.679  10.213 -0.3458 -0.0187  0.3581
  477MPD2     C 7093   4.613   3.708  11.322  0.4933 -0.5465 -0.4914
  477MPD2    C1 7094   4.539   3.745  11.432 -0.3181 -0.3638 -0.7949
  477MPD2    C2 7095   4.560   3.684  11.555  0.4183 -0.2842 -0.4744
  477MPD2    C3 7096   4.662   3.596  11.575  0.0524 -0.3419 -0.2266
  477MPD2    C4 7097   0.016   3.564  11.460 -0.1179  0.1635  0.7012
  477MPD2    C5 7098   4.716   3.618  11.341  0.3282 -0.4947  0.0391
  477MPD2     H 7099   4.503   3.715  11.643 -2.2070 -0.9342 -1.9476
  477MPD2    H1 7100   0.096   3.492  11.472 -0.8190 -0.9170 -1.1064
  477MPD2    H2 7101   4.606   3.758  11.226  1.9591 -0.1348 -0.3931
  477MPD2    H3 7102   0.048   3.578  11.257  0.1320 -1.0557  0.1762
  477MPD2     N 7103   4.677   3.547  11.704 -0.2983 -0.0830  0.0603
  477MPD2    H5 7104   4.610   3.589  11.767  0.5516  0.2250  0.7544
  477MPD2    N1 7105   4.449   3.858  11.417  0.1035 -0.8396 -0.8164
  477MPD2    H7 7106   4.456   3.908  11.329 -2.0378 -1.4352 -1.3258
  478TMC3    C1 7107   4.298   4.034  11.471  0.3208 -0.0751  0.0803
  478TMC3    C2 7108   4.274   4.131  11.563  0.0342 -0.1336 -0.7879
  478TMC3    C3 7109   4.219   4.250  11.522 -0.3358 -0.3032  0.2814
  478TMC3    C4 7110   4.245   4.038  11.349 -0.8430  0.0757  0.1103
  478TMC3    C5 7111   4.176   4.153  11.310  1.0082  0.0431  0.2012
  478TMC3    C6 7112   4.163   4.257  11.396 -0.0081  0.3100 -0.3573
  478TMC3     C 7113   4.372   3.914  11.516  0.0850 -0.0548  0.1761
  478TMC3     O 7114   4.340   3.873  11.625  0.0616  0.2119  0.2164
  478TMC3     H 7115   4.322   4.114  11.659  1.0093  1.9076 -0.9096
  478TMC3    H1 7116   4.257   3.958  11.278 -0.4531 -1.2346  1.6687
  478TMC3    H2 7117   4.101   4.338  11.361 -0.8033 -0.3221 -0.4146
  478TMC3    C7 7118   4.093   4.136  11.193 -0.2030 -0.7804  0.2957
  478TMC3    C8 7119   4.142   4.305  11.629 -0.6151  0.0194  0.2228
  478TMC3    O1 7120   4.065   4.021  11.166 -0.6944  0.4162  0.3393
  478TMC3    O2 7121   4.100   4.224  11.713  0.4760 -0.1360 -0.2046
  479MPD2     C 7122   2.982   1.409  14.921 -0.1515  0.0592 -0.7102
  479MPD2    C1 7123   3.009   1.312  15.013 -0.2265 -0.0501 -0.1191
  479MPD2    C2 7124   3.114   1.323  15.102 -0.2812 -0.1595 -0.4840
  479MPD2    C3 7125   3.195   1.430  15.095  0.8103  0.5172  0.4084
  479MPD2    C4 7126   3.174   1.529  15.003  0.5880 -0.3180  0.3760
  479MPD2    C5 7127   3.068   1.521  14.914  0.8361 -0.3461 -0.8437
  479MPD2     H 7128   3.135   1.240  15.168  1.9839  0.6144 -0.2379
  479MPD2    H1 7129   3.239   1.616  14.998 -1.7784  1.3439 -1.7313
  479MPD2    H2 7130   2.906   1.395  14.845 -0.0039  2.4927 -1.3086
  479MPD2    H3 7131   3.049   1.600  14.842  0.0830  0.3297  0.0862
  479MPD2     N 7132   3.313   1.444  15.163  0.0962  0.6394 -0.2239
  479MPD2    H5 7133   3.364   1.524  15.127 -1.4169  1.3236 -0.8455
  479MPD2    N1 7134   2.935   1.192  14.994 -0.4432 -0.0514 -0.1220
  479MPD2    H7 7135   2.866   1.202  14.920  0.7439 -0.7833 -1.3086
  480TMC3    C1 7136   3.653   1.359  15.459  0.4590 -0.0822  0.6126
  480TMC3    C2 7137   3.735   1.458  15.414  0.4247 -0.6102 -0.2347
  480TMC3    C3 7138   3.688   1.520  15.301  0.0865  0.0375 -0.5346
  480TMC3    C4 7139   3.533   1.323  15.414  0.1649 -0.3211 -0.0123
  480TMC3    C5 7140   3.492   1.383  15.298  0.2284 -0.3720 -0.8474
  480TMC3    C6 7141   3.574   1.478  15.238 -0.8189  0.7392 -0.0972
  480TMC3     C 7142   3.694   1.273  15.559 -0.3787  0.4056 -0.5557
  480TMC3     O 7143   3.692   1.153  15.534  0.1740  0.2199 -0.1553
  480TMC3     H 7144   3.832   1.483  15.456 -0.4884 -1.1493  2.1808
  480TMC3    H1 7145   3.485   1.233  15.452  1.0645 -0.9352 -0.3172
  480TMC3    H2 7146   3.542   1.525  15.145  1.0879 -0.7593 -1.5037
  480TMC3    C7 7147   3.359   1.359  15.260 -0.4336 -0.0609 -0.0071
  480TMC3    C8 7148   3.771   1.617  15.235 -0.4768  0.1132 -0.0743
  480TMC3    O1 7149   3.305   1.265  15.312  0.3497 -0.0211 -0.3979
  480TMC3    O2 7150   3.867   1.669  15.290  0.7099  0.5047 -0.0772
  481MPD2     C 7151   0.461   1.510  14.044 -0.2832 -0.3087 -0.6219
  481MPD2    C1 7152   0.332   1.459  14.041 -1.1374 -0.0192 -0.1670
  481MPD2    C2 7153   0.288   1.388  14.153  0.3158  0.4302 -0.5851
  481MPD2    C3 7154   0.364   1.363  14.267  0.7438  0.0679 -0.3057
  481MPD2    C4 7155   0.491   1.414  14.264  0.0991  0.2087  0.9669
  481MPD2    C5 7156   0.542   1.485  14.153  0.1075 -0.2321 -0.4859
  481MPD2     H 7157   0.197   1.330  14.149  0.5170  0.0870 -0.2178
  481MPD2    H1 7158   0.563   1.385  14.339  0.4895 -0.1781  0.4412
  481MPD2    H2 7159   0.505   1.563  13.961 -0.7858  0.6572 -0.2716
  481MPD2    H3 7160   0.642   1.525  14.165 -0.8193  1.7539  0.6505
  481MPD2     N 7161   0.318   1.309  14.386  1.1139 -0.3627  0.1227
  481MPD2    H5 7162   0.383   1.315  14.463  1.0684  0.0168  0.1313
  481MPD2    N1 7163   0.249   1.482  13.922 -0.1521  0.2928  0.0475
  481MPD2    H7 7164   0.287   1.553  13.860  0.5573  0.4272  0.6400
  482TMC3    C1 7165   0.073   1.459  13.762 -0.2585  0.5238 -0.7212
  482TMC3    C2 7166   4.677   1.405  13.731 -0.3748 -0.3154 -0.0913
  482TMC3    C3 7167   4.639   1.391  13.601  0.1199 -0.2375 -0.4513
  482TMC3    C4 7168   0.159   1.499  13.664  0.6965  0.7135  0.2909
  482TMC3    C5 7169   0.119   1.475  13.538 -0.0138  0.2351 -0.5100
  482TMC3    C6 7170   4.718   1.428  13.495  0.0673 -0.5054 -0.3943
  482TMC3     C 7171   0.127   1.430  13.891  0.3923 -0.3804 -0.6053
  482TMC3     O 7172   0.055   1.371  13.972  0.0033 -0.2315  0.2686
  482TMC3     H 7173   4.613   1.378  13.814 -1.1050  2.7841  0.3296
  482TMC3    H1 7174   0.257   1.533  13.697  1.5099 -0.1742 -1.1891
  482TMC3    H2 7175   4.686   1.414  13.392  1.1825 -1.5701 -0.5895
  482TMC3    C7 7176   0.228   1.464  13.446  0.0829 -0.0260 -0.3227
  482TMC3    C8 7177   4.580   1.266  13.586  0.6524 -0.2007 -0.1162
  482TMC3    O1 7178   0.338   1.443  13.490 -0.9018 -0.5484 -0.4334
  482TMC3    O2 7179   4.601   1.185  13.675  0.2706 -0.0294  0.3416
  483TMC3    C1 7180   2.651   4.620   1.183 -0.3879 -0.1540  0.1144
  483TMC3    C2 7181   2.629   0.004   1.104  0.1836  0.1260 -0.0651
  483TMC3    C3 7182   2.733   0.074   1.047  0.2812  0.0066  0.2955
  483TMC3    C4 7183   2.780   4.579   1.202  0.3930 -0.5138  0.0121
  483TMC3    C5 7184   2.882   4.663   1.152 -0.3121 -0.2828 -0.1057
  483TMC3    C6 7185   2.864   0.044   1.068 -0.0310  0.3188 -0.0339
  483TMC3     C 7186   2.546   4.524   1.196 -0.2530  0.7992 -0.1602
  483TMC3     O 7187   2.431   4.565   1.234 -0.1168  0.0391  0.4591
  483TMC3     H 7188   2.523   0.023   1.089  0.0639  0.3460  1.0528
  483TMC3    H1 7189   2.806   4.483   1.244 -1.5079 -0.7488  0.6493
  483TMC3    H2 7190   2.943   0.108   1.029  0.5924 -0.3664  0.1007
  483TMC3    C7 7191   3.007   4.664   1.225  0.6112 -0.4287 -0.2517
  483TMC3    C8 7192   2.709   0.169   0.944  0.7695  0.0034  0.1260
  483TMC3    O1 7193   3.111   4.710   1.175 -0.5962 -0.2082 -0.5162
  483TMC3    O2 7194   2.802   0.243   0.911  1.0704 -0.6750 -0.5523
  484MPD2     C 7195   0.971   3.156  12.458  0.5347  0.1203 -0.2816
  484MPD2    C1 7196   0.970   3.052  12.364 -0.0932 -0.2687 -0.3288
  484MPD2    C2 7197   1.088   3.024  12.297 -0.0018  0.8021 -0.8012
  484MPD2    C3 7198   1.205   3.094  12.330  0.3447 -0.4495  0.4560
  484MPD2    C4 7199   1.206   3.191  12.430  0.5119 -0.3158 -0.0134
  484MPD2    C5 7200   1.085   3.223  12.487  0.0607  0.8450  0.0113
  484MPD2     H 7201   1.093   2.943  12.226  2.9628  1.2655 -1.1298
  484MPD2    H1 7202   1.297   3.239  12.464  0.7295 -1.1342  0.5544
  484MPD2    H2 7203   0.885   3.196  12.509 -1.3311 -0.9836 -2.5934
  484MPD2    H3 7204   1.093   3.303  12.560  1.1760  1.5022 -0.8195
  484MPD2     N 7205   1.330   3.060  12.278 -0.0400  0.6186 -0.2022
  484MPD2    H5 7206   1.398   3.135  12.291 -0.1943  0.8955 -0.9760
  484MPD2    N1 7207   0.853   2.976  12.364 -0.3063 -0.7689  0.3035
  484MPD2    H7 7208   0.775   3.007  12.421 -0.7406 -3.1405  0.9954
  485TMC3    C1 7209   1.500   2.933  12.176  0.1528  0.7112  0.1570
  485TMC3    C2 7210   1.579   2.934  12.288 -0.0699 -0.5945  0.3292
  485TMC3    C3 7211   1.697   2.866  12.278  0.0630  0.6064 -0.1900
  485TMC3    C4 7212   1.539   2.903  12.051  0.4741 -0.2109  0.0074
  485TMC3    C5 7213   1.666   2.860  12.037  0.6534  0.1955  0.2947
  485TMC3    C6 7214   1.742   2.837  12.152 -0.2261  0.3810  0.4320
  485TMC3     C 7215   1.357   2.957  12.195  0.2706  0.1134  0.7100
  485TMC3     O 7216   1.290   2.880  12.130  0.2968 -0.2390 -0.5191
  485TMC3     H 7217   1.545   2.949  12.390 -1.4177 -0.0929 -0.1957
  485TMC3    H1 7218   1.474   2.885  11.966  1.0736 -0.3416 -0.4223
  485TMC3    H2 7219   1.836   2.783  12.138 -1.6095 -1.6869 -0.8967
  485TMC3    C7 7220   1.670   2.739  11.962  0.1246  0.4569  0.1481
  485TMC3    C8 7221   1.709   2.759  12.368 -0.7256  0.0915 -0.2199
  485TMC3    O1 7222   1.650   2.638  12.034 -0.3729 -0.4262  0.5392
  485TMC3    O2 7223   1.727   2.792  12.486 -0.4496 -0.0624 -0.0873
  486MPD2     C 7224   3.301   2.147  12.901 -0.1449 -0.2189 -0.2046
  486MPD2    C1 7225   3.240   2.091  12.792  0.2187  0.0284  0.5547
  486MPD2    C2 7226   3.138   2.164  12.733 -0.0482 -0.3986 -0.5155
  486MPD2    C3 7227   3.094   2.289  12.776 -0.0627  1.0033  0.1220
  486MPD2    C4 7228   3.153   2.335  12.889 -0.3628 -0.0146  0.5222
  486MPD2    C5 7229   3.253   2.266  12.952  0.3385 -0.0390  0.5710
  486MPD2     H 7230   3.103   2.135  12.635 -1.3178  1.3348 -0.5690
  486MPD2    H1 7231   3.135   2.437  12.923 -2.1568 -0.0358 -0.3612
  486MPD2    H2 7232   3.384   2.106  12.956 -0.3558  0.0437  0.3131
  486MPD2    H3 7233   3.300   2.321  13.032 -1.2191  1.3887  0.4995
  486MPD2     N 7234   3.002   2.362  12.696 -0.0710  0.3816 -0.3621
  486MPD2    H5 7235   2.962   2.316  12.615 -1.3625  1.5443 -0.3840
  486MPD2    N1 7236   3.282   1.968  12.731  0.2232 -0.2402 -0.3837
  486MPD2    H7 7237   3.369   1.926  12.760 -0.2422 -0.5488  0.5594
  487TMC3    C1 7238   3.279   1.776  12.583 -0.0893  0.8635  0.5197
  487TMC3    C2 7239   3.191   1.693  12.527  0.0784  1.0002  0.1649
  487TMC3    C3 7240   3.238   1.568  12.494  0.2130  0.3016  0.9358
  487TMC3    C4 7241   3.412   1.752  12.607 -0.7220 -0.2690 -0.6077
  487TMC3    C5 7242   3.456   1.628  12.570  0.6506  0.8793 -0.5007
  487TMC3    C6 7243   3.369   1.535  12.506 -0.3629 -0.0946  0.4759
  487TMC3     C 7244   3.210   1.895  12.632  0.0113  0.1409  0.5852
  487TMC3     O 7245   3.094   1.917  12.596 -0.3215  0.5685  0.1857
  487TMC3     H 7246   3.088   1.722  12.510 -0.8363 -1.9313  0.5917
  487TMC3    H1 7247   3.478   1.825  12.653 -2.6564  1.6274 -0.8268
  487TMC3    H2 7248   3.396   1.430  12.501  0.8911  0.2861 -0.6340
  487TMC3    C7 7249   3.559   1.569  12.649 -0.2670  0.2787 -0.1142
  487TMC3    C8 7250   3.165   1.451  12.522 -0.0309  0.7747 -1.1178
  487TMC3    O1 7251   3.567   1.625  12.760  0.1591 -0.2673  0.5185
  487TMC3    O2 7252   3.202   1.346  12.466 -0.1258 -0.3133  0.4706
  488MPD2     C 7253   3.367   3.222  16.358 -0.3827  0.1484  0.0414
  488MPD2    C1 7254   3.338   3.357  16.333  0.0046  0.4220  0.2427
  488MPD2    C2 7255   3.310   3.436  16.446 -0.3977 -0.0420  0.2672
  488MPD2    C3 7256   3.285   3.373  16.571  0.3718  0.6895  0.6417
  488MPD2    C4 7257   3.305   3.236  16.587  0.0205  0.4796  1.1549
  488MPD2    C5 7258   3.347   3.168  16.483  0.0672 -0.7660  0.2214
  488MPD2     H 7259   3.301   3.543  16.435 -0.0365 -0.1113 -0.6961
  488MPD2    H1 7260   3.286   3.177  16.676 -0.7442 -0.3077  0.4715
  488MPD2    H2 7261   3.389   3.151  16.280 -2.8632 -1.8252  1.1405
  488MPD2    H3 7262   3.361   3.061  16.489  1.8681 -0.5702 -0.4655
  488MPD2     N 7263   3.256   3.452  16.684 -0.3686 -0.5544 -0.0709
  488MPD2    H5 7264   3.247   3.550  16.659 -3.2441 -1.1110 -1.1945
  488MPD2    N1 7265   3.356   3.421  16.208  0.8081  0.2002  0.4477
  488MPD2    H7 7266   3.348   3.522  16.209  0.4906  0.1766  0.2356
  489TMC3    C1 7267   3.185   3.508  16.892 -0.5360 -0.4205 -0.0932
  489TMC3    C2 7268   3.130   3.622  16.831  0.6533  0.0996  0.3666
  489TMC3    C3 7269   3.107   3.723  16.924 -0.0956 -0.4434 -0.0605
  489TMC3    C4 7270   3.230   3.498  17.024  0.3306 -0.3102 -0.8956
  489TMC3    C5 7271   3.222   3.614  17.100 -0.3143  0.3274  0.3561
  489TMC3    C6 7272   3.145   3.713  17.061  0.1431  0.5045 -0.4413
  489TMC3     C 7273   3.232   3.403  16.810  0.3038 -0.3035 -0.0629
  489TMC3     O 7274   3.258   3.298  16.862  0.0562 -0.5142  0.7482
  489TMC3     H 7275   3.094   3.624  16.729  0.9692 -0.5724  0.2447
  489TMC3    H1 7276   3.276   3.404  17.051  0.9939  0.1181 -0.5465
  489TMC3    H2 7277   3.118   3.788  17.135  0.7002 -0.4010  0.6831
  489TMC3    C7 7278   3.239   3.592  17.242  0.5605  0.7895  0.3397
  489TMC3    C8 7279   3.062   3.860  16.886 -0.8194  0.1915  0.5456
  489TMC3    O1 7280   3.238   3.470  17.273 -0.1795 -0.5835  0.5313
  489TMC3    O2 7281   3.070   3.942  16.976  0.2288 -0.5474  0.1906
  490MPD2     C 7282   4.158   2.639  16.815 -0.8394  0.2177  0.2404
  490MPD2    C1 7283   4.108   2.698  16.928  0.0433  0.0806 -0.2666
  490MPD2    C2 7284   4.196   2.756  17.015 -0.4191 -0.5768  0.2322
  490MPD2    C3 7285   4.328   2.759  16.992 -0.1681 -0.0096 -0.4894
  490MPD2    C4 7286   4.378   2.695  16.882 -0.3904 -0.5297 -0.4812
  490MPD2    C5 7287   4.293   2.639  16.795  0.2920  0.5591 -0.4454
  490MPD2     H 7288   4.161   2.793  17.111 -1.6223  1.4993 -1.0214
  490MPD2    H1 7289   4.484   2.689  16.859  0.4290  0.7518  2.9370
  490MPD2    H2 7290   4.097   2.583  16.745 -1.3291 -0.7705  1.4819
  490MPD2    H3 7291   4.323   2.590  16.703  0.4436  3.4910 -1.9600
  490MPD2     N 7292   4.422   2.824  17.072  0.1112  0.2691 -0.5738
  490MPD2    H5 7293   4.519   2.813  17.045  0.2761 -0.6044  0.3647
  490MPD2    N1 7294   3.976   2.680  16.971 -0.6738 -0.0350 -0.1317
  490MPD2    H7 7295   3.946   2.707  17.064 -0.0383  0.1881  0.0033
  491TMC3    C1 7296   3.754   2.587  16.958 -0.7516 -0.2415  0.2361
  491TMC3    C2 7297   3.766   2.542  17.083 -0.1123 -0.4453  0.0862
  491TMC3    C3 7298   3.654   2.505  17.150 -0.0247  0.8180  0.6161
  491TMC3    C4 7299   3.631   2.587  16.893 -0.6425 -0.4884  0.5549
  491TMC3    C5 7300   3.523   2.534  16.961  0.6414 -0.4119 -1.1341
  491TMC3    C6 7301   3.531   2.493  17.090  0.3069  1.0798  0.3020
  491TMC3     C 7302   3.874   2.630  16.889  0.3269  0.1755  1.1963
  491TMC3     O 7303   3.866   2.617  16.768  0.0652  0.2274  0.9318
  491TMC3     H 7304   3.865   2.526  17.124 -0.5061  1.9125  1.9513
  491TMC3    H1 7305   3.619   2.631  16.795  0.2333 -0.9218  0.2546
  491TMC3    H2 7306   3.440   2.476  17.146  0.5722  0.9335  0.6879
  491TMC3    C7 7307   3.396   2.557  16.909  0.1194 -0.1499  1.1975
  491TMC3    C8 7308   3.664   2.432  17.274  0.3055  0.1578 -0.5761
  491TMC3    O1 7309   3.323   2.461  16.924  0.6036  0.5288 -0.5586
  491TMC3    O2 7310   3.578   2.345  17.296 -0.5097 -0.1747 -0.3256
  492MPD2     C 7311   3.967   3.160  11.231  0.0105  0.0395 -0.2082
  492MPD2    C1 7312   3.916   3.114  11.109 -0.1982  0.4781 -0.1030
  492MPD2    C2 7313   3.859   2.992  11.102  0.5956  0.2293 -1.2058
  492MPD2    C3 7314   3.848   2.927  11.222  0.1790  0.0571 -0.8561
  492MPD2    C4 7315   3.909   2.964  11.347 -0.3166 -0.0787  0.2458
  492MPD2    C5 7316   3.969   3.085  11.344  0.5884 -0.0528 -0.5942
  492MPD2     H 7317   3.831   2.944  11.009  0.3535 -1.7785 -0.0950
  492MPD2    H1 7318   3.898   2.914  11.442 -0.8549 -0.7896 -0.1897
  492MPD2    H2 7319   4.013   3.258  11.234 -1.2353  0.6391 -0.7177
  492MPD2    H3 7320   4.030   3.122  11.426 -1.8002  2.4107  0.0976
  492MPD2     N 7321   3.790   2.799  11.238  0.0676 -0.1757 -0.1985
  492MPD2    H5 7322   3.814   2.761  11.329 -0.1748  0.0622 -0.0366
  492MPD2    N1 7323   3.931   3.196  10.997 -0.6258 -0.4693  0.4476
  492MPD2    H7 7324   3.981   3.283  11.011  0.7345 -1.2051  0.1391
  493TMC3    C1 7325   3.906   3.249  10.759  0.1788  0.5883 -0.2904
  493TMC3    C2 7326   4.030   3.293  10.741 -1.2008 -0.5963  0.2440
  493TMC3    C3 7327   4.103   3.253  10.628 -0.2783 -0.4788 -0.0600
  493TMC3    C4 7328   3.847   3.183  10.655  0.2427  0.0110  0.3186
  493TMC3    C5 7329   3.912   3.152  10.545 -0.3672 -0.2380  0.7438
  493TMC3    C6 7330   4.042   3.187  10.528  0.0184 -0.0996  0.0238
  493TMC3     C 7331   3.872   3.169  10.874 -0.0955 -0.0537  0.4407
  493TMC3     O 7332   3.786   3.086  10.851  0.0387  0.0338  0.5712
  493TMC3     H 7333   4.077   3.337  10.828 -1.1838 -2.6868  1.2960
  493TMC3    H1 7334   3.739   3.183  10.662  0.2416  0.6114  0.2626
  493TMC3    H2 7335   4.096   3.157  10.439  1.0483 -0.2500  0.7074
  493TMC3    C7 7336   3.872   3.014  10.504 -0.1537 -0.4689  0.1970
  493TMC3    C8 7337   4.231   3.317  10.617  0.7035 -0.1500  0.0807
  493TMC3    O1 7338   3.907   2.969  10.396  0.1881  0.1928  0.8689
  493TMC3    O2 7339   4.256   3.395  10.709 -0.4764  0.1223  0.2152
  494TMC3    C1 7340   0.221   0.352   0.397 -0.3879 -0.0892  0.5592
  494TMC3    C2 7341   0.225   0.235   0.463 -0.0966 -0.2621 -0.1039
  494TMC3    C3 7342   0.335   0.156   0.428 -0.2600  0.0905  0.0528
  494TMC3    C4 7343   0.289   0.387   0.287 -0.0921  0.0592  0.8305
  494TMC3    C5 7344   0.393   0.305   0.261 -0.7219 -0.2475 -0.1661
  494TMC3    C6 7345   0.419   0.192   0.328 -0.9087  0.3590 -0.2395
  494TMC3     C 7346   0.113   0.436   0.445  0.0472 -1.2328  0.5949
  494TMC3     O 7347   0.092   0.419   0.566 -0.0033 -0.0397 -0.4622
  494TMC3     H 7348   0.170   0.217   0.555 -1.1065  1.1303 -0.4323
  494TMC3    H1 7349   0.277   0.484   0.240  3.6338 -0.3327 -0.9767
  494TMC3    H2 7350   0.499   0.122   0.307 -0.3919  1.2931 -1.3784
  494TMC3    C7 7351   0.465   0.332   0.138  0.3808 -0.1893  0.0047
  494TMC3    C8 7352   0.304   0.018   0.438  0.3501  0.4837 -0.8935
  494TMC3    O1 7353   0.535   0.240   0.103 -0.1911  0.4410  0.2819
  494TMC3    O2 7354   0.388   4.651   0.428  0.5693 -0.2012 -0.5440
  495TMC3    C1 7355   3.595   1.468  14.311 -0.6657 -0.2460  0.2617
  495TMC3    C2 7356   3.491   1.543  14.265 -0.3265 -0.1656 -0.1814
  495TMC3    C3 7357   3.485   1.670  14.316  0.1922  0.2316  0.5378
  495TMC3    C4 7358   3.685   1.502  14.410  0.6415 -0.0447  0.2581
  495TMC3    C5 7359   3.656   1.622  14.468  0.0049  0.0834  0.8835
  495TMC3    C6 7360   3.564   1.715  14.418  0.6679  0.6240 -0.6000
  495TMC3     C 7361   3.577   1.327  14.293  0.0137  0.2791 -0.0221
  495TMC3     O 7362   3.467   1.288  14.256 -0.6270  0.2511  0.2417
  495TMC3     H 7363   3.429   1.507  14.183  0.5066 -2.9405  0.4055
  495TMC3    H1 7364   3.763   1.437  14.448 -0.7674 -2.7053 -1.3958
  495TMC3    H2 7365   3.546   1.807  14.472 -0.7888  0.8844 -1.5419
  495TMC3    C7 7366   3.689   1.636  14.602 -0.4036 -0.2415 -0.6363
  495TMC3    C8 7367   3.354   1.727  14.300 -0.3157 -0.0646 -0.1494
  495TMC3    O1 7368   3.720   1.535  14.661 -0.3624 -0.3520 -0.3384
  495TMC3    O2 7369   3.263   1.645  14.289 -0.5793  0.1709 -0.1775
  496MPD2     C 7370   0.936   2.030  15.398  0.9040 -0.0055 -0.2646
  496MPD2    C1 7371   0.953   1.901  15.433 -0.3006 -0.1178  0.0266
  496MPD2    C2 7372   0.911   1.850  15.552 -0.3651  0.0322 -0.4813
  496MPD2    C3 7373   0.853   1.933  15.642  0.2116 -0.3997  0.2094
  496MPD2    C4 7374   0.833   2.066  15.607  0.1556 -0.2276  0.1041
  496MPD2    C5 7375   0.872   2.117  15.486 -0.2023  0.2087 -0.1492
  496MPD2     H 7376   0.917   1.744  15.573 -3.7473 -0.5056 -2.2281
  496MPD2    H1 7377   0.781   2.135  15.673 -1.1327 -0.6333 -0.4844
  496MPD2    H2 7378   0.973   2.073  15.305 -0.3299  1.1529 -0.2252
  496MPD2    H3 7379   0.864   2.222  15.462  0.5988  0.4752  0.7405
  496MPD2     N 7380   0.796   1.884  15.760 -0.3052 -0.1939 -0.1319
  496MPD2    H5 7381   0.769   1.949  15.834 -0.2439  0.5794 -0.7922
  496MPD2    N1 7382   0.999   1.802  15.332  0.2961  0.2417 -0.0690
  496MPD2    H7 7383   1.007   1.706  15.364 -0.0044  0.9306  2.1312
  497TMC3    C1 7384   0.661   1.728  15.881  0.1080  0.0642  0.8464
  497TMC3    C2 7385   0.563   1.639  15.855  1.3722  0.2228  0.4010
  497TMC3    C3 7386   0.457   1.626  15.939 -0.5422 -0.3138 -0.3935
  497TMC3    C4 7387   0.660   1.800  15.993  0.4651  1.0565  0.6936
  497TMC3    C5 7388   0.562   1.780  16.083 -0.2522  0.0584  0.0739
  497TMC3    C6 7389   0.454   1.696  16.052  0.0042 -0.8250  0.4599
  497TMC3     C 7390   0.751   1.753  15.767  0.2093 -0.8480  0.2253
  497TMC3     O 7391   0.767   1.658  15.690 -0.2428 -0.3351 -0.2665
  497TMC3     H 7392   0.571   1.572  15.771  1.1231 -0.0703  0.6142
  497TMC3    H1 7393   0.733   1.879  16.007  1.7948  0.1242 -1.0692
  497TMC3    H2 7394   0.371   1.686  16.120 -0.3905 -0.8928 -0.0345
  497TMC3    C7 7395   0.587   1.811  16.220 -0.3029 -0.1638  0.1400
  497TMC3    C8 7396   0.329   1.553  15.916  0.2301 -0.1203  1.2209
  497TMC3    O1 7397   0.521   1.737  16.291  0.0537 -0.0951 -0.3410
  497TMC3    O2 7398   0.251   1.532  16.006 -0.1649 -0.2956  0.8657
  498MPD2     C 7399   0.628   2.613   9.282 -0.1579 -0.1468  0.6561
  498MPD2    C1 7400   0.727   2.606   9.377 -0.0650 -0.6629  0.0114
  498MPD2    C2 7401   0.708   2.538   9.494 -0.1915 -0.7409 -0.2843
  498MPD2    C3 7402   0.584   2.467   9.511 -0.2221 -1.0856  0.2485
  498MPD2    C4 7403   0.482   2.471   9.413 -0.7934 -0.5778 -0.3270
  498MPD2    C5 7404   0.504   2.548   9.301  0.3751  0.0693  0.4285
  498MPD2     H 7405   0.785   2.537   9.570  1.3376  0.3037 -1.8456
  498MPD2    H1 7406   0.388   2.418   9.426 -1.4280  0.1516 -1.9088
  498MPD2    H2 7407   0.642   2.668   9.190  2.5645  1.7801  2.2321
  498MPD2    H3 7408   0.425   2.556   9.227 -0.1966 -1.0094  0.9211
  498MPD2     N 7409   0.563   2.404   9.636 -0.2307 -0.7248  0.5963
  498MPD2    H5 7410   0.636   2.418   9.705 -0.1646  1.6687  0.0193
  498MPD2    N1 7411   0.845   2.677   9.341 -0.3390  0.0850  0.4316
  498MPD2    H7 7412   0.854   2.711   9.246  0.5686 -3.5715 -0.7971
  499TMC3    C1 7413   1.043   2.778   9.347 -0.4992  0.5065  0.9773
  499TMC3    C2 7414   1.006   2.872   9.254  0.4497  0.9820  0.1245
  499TMC3    C3 7415   1.108   2.933   9.189 -0.6454 -0.5809  0.7548
  499TMC3    C4 7416   1.176   2.752   9.374 -0.3895 -0.3804  0.3361
  499TMC3    C5 7417   1.269   2.813   9.301 -1.1706 -0.2497  0.3816
  499TMC3    C6 7418   1.239   2.913   9.218  0.0951  0.0925  0.5088
  499TMC3     C 7419   0.949   2.702   9.417 -0.3435 -0.4206  0.1618
  499TMC3     O 7420   0.976   2.668   9.531 -0.4264  0.1363 -0.0756
  499TMC3     H 7421   0.910   2.922   9.264 -0.6065 -0.9503 -0.3533
  499TMC3    H1 7422   1.202   2.665   9.433 -0.4646 -0.2198  0.6041
  499TMC3    H2 7423   1.318   2.955   9.158  1.0755  0.5493  2.1075
  499TMC3    C7 7424   1.413   2.781   9.313 -0.4494  0.3599  0.3702
  499TMC3    C8 7425   1.083   3.018   9.081 -0.3911 -0.1263 -0.2937
  499TMC3    O1 7426   1.496   2.864   9.286 -0.1222  0.0664 -0.2170
  499TMC3    O2 7427   1.180   3.087   9.037 -0.0856 -0.0478 -0.1617
  500MPD2     C 7428   3.478   3.953   9.578  0.0059  0.1199  0.6373
  500MPD2    C1 7429   3.464   3.955   9.716  0.0848  0.3175  0.4604
  500MPD2    C2 7430   3.386   3.858   9.776  0.2632  0.1276  0.3978
  500MPD2    C3 7431   3.323   3.763   9.703  0.2399  0.0476 -0.0343
  500MPD2    C4 7432   3.325   3.774   9.568 -0.3114  0.0343 -0.0492
  500MPD2    C5 7433   3.401   3.873   9.510  0.8758 -0.5055  0.0941
  500MPD2     H 7434   3.387   3.860   9.885  1.7877 -0.6863  0.3947
  500MPD2    H1 7435   3.270   3.703   9.508 -0.4099 -0.8873  1.1250
  500MPD2    H2 7436   3.546   4.019   9.525 -2.9252  1.5110 -1.3483
  500MPD2    H3 7437   3.388   3.882   9.403  1.4583  2.6594  0.3160
  500MPD2     N 7438   3.237   3.666   9.765 -0.3042  0.6005  0.7078
  500MPD2    H5 7439   3.198   3.599   9.700  1.7307  0.4177 -0.3377
  500MPD2    N1 7440   3.541   4.039   9.794  0.3014  0.0024 -0.7166
  500MPD2    H7 7441   3.553   4.014   9.892  2.5306  3.0061 -0.2162
  501TMC3    C1 7442   3.696   4.214   9.861  0.2348 -0.0187  0.5966
  501TMC3    C2 7443   3.718   4.347   9.859 -0.6070 -0.1309 -0.5311
  501TMC3    C3 7444   3.836   4.390   9.917  0.0386  0.0465 -0.4513
  501TMC3    C4 7445   3.788   4.127   9.925 -0.4465  0.8624  0.2157
  501TMC3    C5 7446   3.918   4.177   9.957 -0.3102 -0.5380 -0.0976
  501TMC3    C6 7447   3.943   4.309   9.939 -0.1486 -0.1999 -0.6387
  501TMC3     C 7448   3.610   4.152   9.758  1.0365 -0.8050 -0.2506
  501TMC3     O 7449   3.618   4.203   9.645  0.1930  0.4564  0.4416
  501TMC3     H 7450   3.640   4.416   9.827 -0.8344 -0.2073 -0.1458
  501TMC3    H1 7451   3.764   4.023   9.943  4.6037  0.3729  4.1131
  501TMC3    H2 7452   4.033   4.358   9.976  1.2558 -1.3684 -2.5232
  501TMC3    C7 7453   3.982   4.115  10.068 -0.1525 -0.1937  0.0074
  501TMC3    C8 7454   3.823   4.501  10.011  0.1539 -0.0060 -0.5333
  501TMC3    O1 7455   3.904   4.069  10.151  0.4265 -0.0289  0.3680
  501TMC3    O2 7456   3.899   4.501  10.110  0.2486  0.0989 -0.6946
  502TMC3    C1 7457   2.502   1.695  14.962 -0.9712  0.1021 -0.2918
  502TMC3    C2 7458   2.553   1.783  14.872 -0.6831  0.1137 -0.2969
  502TMC3    C3 7459   2.483   1.897  14.854 -0.0908  0.8866  0.0055
  502TMC3    C4 7460   2.391   1.716  15.041  0.8588  0.0131  0.8468
  502TMC3    C5 7461   2.315   1.824  15.006 -0.7361  0.5268 -0.0128
  502TMC3    C6 7462   2.360   1.922  14.918 -0.4505 -0.3194  0.1642
  502TMC3     C 7463   2.617   1.652  15.043 -0.0956 -0.1733 -0.0305
  502TMC3     O 7464   2.678   1.554  15.003  0.2438  0.3113  0.7295
  502TMC3     H 7465   2.645   1.761  14.819  0.4156  2.1589  0.7476
  502TMC3    H1 7466   2.356   1.643  15.113  0.5370 -1.8171 -1.1579
  502TMC3    H2 7467   2.315   2.020  14.908 -0.6385 -0.2790  1.4103
  502TMC3    C7 7468   2.196   1.839  15.094  0.3048  0.2893  0.2081
  502TMC3    C8 7469   2.568   2.014  14.861  0.9519 -0.0968 -0.6008
  502TMC3    O1 7470   2.206   1.779  15.203 -0.6487 -0.6462  0.9063
  502TMC3    O2 7471   2.514   2.116  14.889 -0.3386  0.2973 -0.0718
  503MPD2     C 7472   0.680   3.599  16.990  0.5272 -0.5152 -0.1129
  503MPD2    C1 7473   0.687   3.576  17.125  0.2593  0.4901  0.6832
  503MPD2    C2 7474   0.723   3.451  17.164  0.7913  0.1205 -0.2625
  503MPD2    C3 7475   0.749   3.345  17.083 -0.6687  0.1486  0.0402
  503MPD2    C4 7476   0.744   3.373  16.950 -0.3207  0.3389 -0.0704
  503MPD2    C5 7477   0.707   3.499  16.904 -0.0039 -0.3244  0.0329
  503MPD2     H 7478   0.716   3.423  17.269 -0.7775 -3.0585 -1.2199
  503MPD2    H1 7479   0.753   3.293  16.877 -0.0831  1.0695 -0.8466
  503MPD2    H2 7480   0.660   3.697  16.950 -1.2509 -1.1911 -0.8684
  503MPD2    H3 7481   0.693   3.516  16.798 -0.4923 -0.6002  0.0517
  503MPD2     N 7482   0.773   3.214  17.132 -0.2838  0.1199 -0.0438
  503MPD2    H5 7483   0.779   3.215  17.233  1.2779  1.1947 -0.1480
  503MPD2    N1 7484   0.650   3.674  17.219  0.0155  0.2589 -0.1604
  503MPD2    H7 7485   0.664   3.655  17.318 -0.0157 -2.3042 -0.6627
  504TMC3    C1 7486   0.865   2.998  17.154  0.0505 -0.2131 -0.9137
  504TMC3    C2 7487   0.808   2.982  17.280  0.1682 -0.3071 -0.0874
  504TMC3    C3 7488   0.857   2.879  17.359  0.8260  0.6073  0.4835
  504TMC3    C4 7489   0.974   2.924  17.105  0.2356 -0.7398 -0.0095
  504TMC3    C5 7490   1.015   2.824  17.194 -0.3405 -0.3140  0.8188
  504TMC3    C6 7491   0.959   2.794  17.318  0.3030  0.9488 -0.3557
  504TMC3     C 7492   0.828   3.107  17.062 -0.7998 -0.0275  0.9928
  504TMC3     O 7493   0.855   3.095  16.943  0.0666 -0.5657  0.6346
  504TMC3     H 7494   0.711   3.028  17.300  0.5799  0.1756  0.7784
  504TMC3    H1 7495   1.026   2.948  17.013 -1.1605  0.0222 -0.5995
  504TMC3    H2 7496   0.984   2.707  17.378 -2.7531  0.9734  0.9243
  504TMC3    C7 7497   1.143   2.761  17.180 -0.2878  0.1556  1.1760
  504TMC3    C8 7498   0.791   2.858  17.482  0.2294  0.1234  0.0152
  504TMC3    O1 7499   1.181   2.690  17.267  0.3140  0.2184 -0.2324
  504TMC3    O2 7500   0.682   2.908  17.504  0.1128  0.6677 -0.3327
  505MPD2     C 7501   0.706   1.807  10.931  0.7101  0.1492  0.1282
  505MPD2    C1 7502   0.768   1.714  10.846 -0.9310  0.2243  0.0099
  505MPD2    C2 7503   0.894   1.741  10.810  0.7426 -0.3898  0.5828
  505MPD2    C3 7504   0.967   1.847  10.864 -0.5150  0.1532 -0.1561
  505MPD2    C4 7505   0.907   1.924  10.960  0.0565  0.6023 -0.0918
  505MPD2    C5 7506   0.777   1.906  10.989 -0.3269  0.6574 -0.0771
  505MPD2     H 7507   0.940   1.689  10.727  1.8881  0.8284  0.4340
  505MPD2    H1 7508   0.951   2.009  11.011  1.6255 -0.2583 -0.0367
  505MPD2    H2 7509   0.607   1.777  10.961 -0.1438  0.9214 -1.9568
  505MPD2    H3 7510   0.721   1.974  11.052 -0.9072  1.4296 -1.4418
  505MPD2     N 7511   1.086   1.882  10.799  0.1298 -0.4174 -0.0907
  505MPD2    H5 7512   1.126   1.809  10.742 -0.8047 -0.6385 -0.4667
  505MPD2    N1 7513   0.695   1.613  10.786 -0.7331  0.2975  0.2946
  505MPD2    H7 7514   0.597   1.599  10.807 -0.5226 -0.6743  0.6573
  506TMC3    C1 7515   0.669   1.406  10.665 -0.3459 -0.2343 -0.5725
  506TMC3    C2 7516   0.563   1.441  10.585 -0.0480 -0.8694  0.1801
  506TMC3    C3 7517   0.525   1.349  10.495  0.0345 -0.6147 -0.1166
  506TMC3    C4 7518   0.738   1.291  10.629  0.1144  0.6246  0.5445
  506TMC3    C5 7519   0.703   1.208  10.524  0.1387 -0.6771  0.4612
  506TMC3    C6 7520   0.589   1.237  10.462  0.4269 -0.5159  0.4859
  506TMC3     C 7521   0.758   1.514  10.717 -0.6963 -0.3782 -0.2497
  506TMC3     O 7522   0.875   1.484  10.711 -0.4396  0.5154 -0.4826
  506TMC3     H 7523   0.508   1.532  10.604  0.9914 -0.2218  0.1262
  506TMC3    H1 7524   0.827   1.276  10.689  0.0018  0.4808  0.6741
  506TMC3    H2 7525   0.553   1.179  10.378 -1.9063 -0.7832  1.6853
  506TMC3    C7 7526   0.817   1.199  10.431 -0.1854  0.5278 -0.3752
  506TMC3    C8 7527   0.409   1.376  10.411  0.4920 -0.4829  0.4629
  506TMC3    O1 7528   0.813   1.123  10.334 -0.0585  0.4602  0.1535
  506TMC3    O2 7529   0.322   1.289  10.396  0.2020  0.1908 -0.2918
  507TMC3    C1 7530   1.330   2.750  14.542 -0.0912 -0.1626  0.4305
  507TMC3    C2 7531   1.378   2.722  14.421  0.0784 -0.3147  1.0230
  507TMC3    C3 7532   1.485   2.783  14.371  0.2657 -0.8702 -0.2304
  507TMC3    C4 7533   1.404   2.823  14.632  0.0292  0.0814  0.2540
  507TMC3    C5 7534   1.518   2.885  14.589  0.2531 -1.1053  0.2638
  507TMC3    C6 7535   1.560   2.859  14.456 -0.0533 -0.4865  0.7218
  507TMC3     C 7536   1.182   2.739  14.557 -0.1541 -0.0075 -0.5489
  507TMC3     O 7537   1.120   2.690  14.463  0.0703  0.6196  0.2594
  507TMC3     H 7538   1.314   2.660  14.360  2.2663 -1.9177  0.3346
  507TMC3    H1 7539   1.363   2.850  14.729 -0.6408  2.9405 -0.8034
  507TMC3    H2 7540   1.656   2.900  14.426 -1.3020  1.0571 -1.2113
  507TMC3    C7 7541   1.551   3.017  14.636 -0.2295 -0.9117  0.3284
  507TMC3    C8 7542   1.464   2.863  14.255 -1.3099  0.7622  0.0316
  507TMC3    O1 7543   1.511   3.054  14.744 -0.7565 -0.1112  0.5768
  507TMC3    O2 7544   1.523   2.971  14.248 -0.0737  0.2411  0.5665
  508MPD2     C 7545   2.349   0.183  15.836 -0.9500  0.5776 -0.4491
  508MPD2    C1 7546   2.340   0.319  15.861 -0.5734  0.4201 -0.2823
  508MPD2    C2 7547   2.271   0.409  15.783 -1.1594  0.5704  0.1869
  508MPD2    C3 7548   2.235   0.360  15.662  0.5511 -0.5161  0.8846
  508MPD2    C4 7549   2.257   0.233  15.621  0.1495 -0.2354  0.3727
  508MPD2    C5 7550   2.298   0.144  15.714 -0.8340  0.7856 -0.1495
  508MPD2     H 7551   2.279   0.515  15.806 -0.8810  0.7961 -0.9797
  508MPD2    H1 7552   2.212   0.204  15.526  0.0114  0.3512  0.2603
  508MPD2    H2 7553   2.385   0.107  15.904  4.5727  1.1682 -2.6844
  508MPD2    H3 7554   2.300   0.040  15.684  0.8174  0.0987  2.3197
  508MPD2     N 7555   2.184   0.451  15.563  0.2889  0.5452 -0.0505
  508MPD2    H5 7556   2.156   0.544  15.592 -0.9178 -0.3719  1.7275
  508MPD2    N1 7557   2.384   0.362  15.996 -0.2661  0.1323  0.8610
  508MPD2    H7 7558   2.437   0.290  16.045  2.2609  1.2399 -0.2078
  509TMC3    C1 7559   2.076   0.774  15.411 -0.0317  0.3232  0.6341
  509TMC3    C2 7560   2.165   0.821  15.317  0.5009  0.4962 -0.2221
  509TMC3    C3 7561   2.232   0.728  15.237 -0.6471  0.4593 -0.9607
  509TMC3    C4 7562   2.056   0.641  15.436  0.0361 -0.0605 -0.0122
  509TMC3    C5 7563   2.134   0.555  15.363 -0.2171 -0.0213 -0.8516
  509TMC3    C6 7564   2.210   0.597  15.261  0.0922  0.3916  0.9596
  509TMC3     C 7565   1.995   0.877  15.481  0.2335  0.2295 -0.4310
  509TMC3     O 7566   1.955   0.851  15.594 -0.2552  0.0464  0.5916
  509TMC3     H 7567   2.193   0.925  15.315  0.7586  0.3752 -3.0386
  509TMC3    H1 7568   1.984   0.603  15.507 -0.5054  2.0322  0.5475
  509TMC3    H2 7569   2.262   0.518  15.207 -0.4950  0.4256  0.3450
  509TMC3    C7 7570   2.169   0.435  15.424 -0.1562 -0.1373 -0.9569
  509TMC3    C8 7571   2.363   0.759  15.190  0.5650  0.8395  0.0349
  509TMC3    O1 7572   2.222   0.352  15.355  0.2721  0.5324 -0.2962
  509TMC3    O2 7573   2.446   0.666  15.185  0.4720  0.2706 -0.1673
  510MPD2     C 7574   0.088   2.246  14.093 -0.2508 -0.7347  0.9028
  510MPD2    C1 7575   0.156   2.227  14.214  0.2089 -0.6815 -0.4722
  510MPD2    C2 7576   0.294   2.227  14.220 -0.1327 -0.6489  0.0616
  510MPD2    C3 7577   0.366   2.252  14.103 -1.1230 -0.1153  0.6570
  510MPD2    C4 7578   0.294   2.269  13.991 -0.7292  0.0431  0.0752
  510MPD2    C5 7579   0.155   2.282  13.981 -0.6492  0.2261  0.5371
  510MPD2     H 7580   0.347   2.208  14.313  1.2180  0.1084 -0.5540
  510MPD2    H1 7581   0.350   2.288  13.900  1.4127 -2.6230  0.8653
  510MPD2    H2 7582   4.706   2.264  14.098 -0.4284 -1.1379 -1.7337
  510MPD2    H3 7583   0.099   2.304  13.890  1.8535  1.4836 -0.7086
  510MPD2     N 7584   0.502   2.237  14.107 -0.2750  0.2545  1.2156
  510MPD2    H5 7585   0.534   2.201  14.196  0.3115 -0.0868  0.8701
  510MPD2    N1 7586   0.069   2.205  14.322 -0.0450 -0.3703  0.4976
  510MPD2    H7 7587   4.697   2.178  14.302 -0.8687  1.4195  1.9878
  511TMC3    C1 7588   0.016   2.127  14.533  0.5318  0.3516  0.4554
  511TMC3    C2 7589   4.724   2.162  14.664 -0.1445 -0.1201  0.3782
  511TMC3    C3 7590   4.632   2.101  14.743 -0.4720  0.2306  0.1799
  511TMC3    C4 7591   4.666   2.021  14.482  0.1579 -0.3379 -0.6619
  511TMC3    C5 7592   4.570   1.967  14.560 -0.5445  0.1155 -0.0364
  511TMC3    C6 7593   4.552   2.003  14.689  0.1660  0.0634 -0.5690
  511TMC3     C 7594   0.112   2.195  14.448  0.5856 -0.2938  0.0248
  511TMC3     O 7595   0.216   2.238  14.498 -0.6174 -0.5086 -0.1440
  511TMC3     H 7596   0.043   2.254  14.702  2.5040 -1.2318  0.0227
  511TMC3    H1 7597   4.689   1.982  14.384  0.2369 -0.0067 -0.7739
  511TMC3    H2 7598   4.468   1.955  14.738  0.4810  1.8883  1.7558
  511TMC3    C7 7599   4.470   1.888  14.489  0.2622 -0.4074 -0.3620
  511TMC3    C8 7600   4.625   2.128  14.888  0.5665 -0.5636 -0.2799
  511TMC3    O1 7601   4.449   1.916  14.368 -0.3225 -0.7031 -0.2249
  511TMC3    O2 7602   4.684   2.228  14.927  0.0690  0.1492 -0.1293
  512TMC3    C1 7603   3.959   1.520  12.552 -0.5767  0.0339  0.6834
  512TMC3    C2 7604   3.965   1.487  12.682  0.4098 -0.2081 -0.3735
  512TMC3    C3 7605   4.036   1.372  12.714  0.1249  0.0187  0.1981
  512TMC3    C4 7606   3.987   1.429  12.453  0.3583  0.4146  0.1314
  512TMC3    C5 7607   4.050   1.314  12.489  0.2755 -0.2263 -0.1380
  512TMC3    C6 7608   4.076   1.281  12.618 -0.2581 -0.2723 -0.5855
  512TMC3     C 7609   3.890   1.642  12.510 -0.6025 -0.8473 -0.6255
  512TMC3     O 7610   3.841   1.642  12.399  0.0928  0.6861 -0.5648
  512TMC3     H 7611   3.907   1.543  12.755 -0.6236  1.0624 -2.1459
  512TMC3    H1 7612   3.956   1.452  12.351 -3.2480 -0.0928  1.1193
  512TMC3    H2 7613   4.126   1.194  12.657  2.1470  1.4592  0.1454
  512TMC3    C7 7614   4.079   1.212  12.379  0.2490  0.7460 -0.2723
  512TMC3    C8 7615   4.031   1.333  12.857 -0.5916 -0.5901  0.5251
  512TMC3    O1 7616   4.069   1.258  12.269  0.2183 -0.2372  0.1322
  512TMC3    O2 7617   4.029   1.212  12.872  0.4332 -0.3651 -0.4119
  513MPD2     C 7618   0.678   1.415  13.345  0.5017  0.2124 -0.0147
  513MPD2    C1 7619   0.747   1.390  13.226  0.4795  0.2951  0.3620
  513MPD2    C2 7620   0.856   1.471  13.200 -0.3005  0.1045  0.2941
  513MPD2    C3 7621   0.891   1.580  13.280  0.5847 -0.3940  0.1394
  513MPD2    C4 7622   0.816   1.606  13.395 -0.4887 -0.2428  0.2381
  513MPD2    C5 7623   0.714   1.516  13.424 -0.2098  0.0601  0.6641
  513MPD2     H 7624   0.929   1.449  13.122 -1.4961  0.4940 -0.9333
  513MPD2    H1 7625   0.811   1.699  13.450  0.8992 -0.0242 -0.0203
  513MPD2    H2 7626   0.606   1.348  13.391 -0.6049  1.8400  0.6273
  513MPD2    H3 7627   0.657   1.535  13.514  0.4070  1.5080  0.7627
  513MPD2     N 7628   0.997   1.662  13.234  0.2253 -0.1852  0.3243
  513MPD2    H5 7629   1.048   1.630  13.152  0.2612  0.3856  0.1221
  513MPD2    N1 7630   0.721   1.265  13.166  0.7170 -0.2015  0.1160
  513MPD2    H7 7631   0.636   1.223  13.203  0.8415 -2.2484 -1.9625
  514TMC3    C1 7632   0.747   1.083  13.026  0.0004 -0.2202 -0.1712
  514TMC3    C2 7633   0.650   1.114  12.938  0.6096  0.4560 -0.6280
  514TMC3    C3 7634   0.675   1.104  12.807 -0.5175  0.3221 -0.2425
  514TMC3    C4 7635   0.865   1.026  12.984 -0.1684  0.0638  0.7279
  514TMC3    C5 7636   0.873   0.996  12.848 -0.3972  0.1114 -0.1770
  514TMC3    C6 7637   0.780   1.047  12.758  0.9243  0.4767 -0.4051
  514TMC3     C 7638   0.802   1.201  13.088  0.4088 -0.0945  0.6680
  514TMC3     O 7639   0.914   1.229  13.051 -0.4640 -0.2654  0.0550
  514TMC3     H 7640   0.575   1.186  12.970  0.9024 -0.1746  1.4941
  514TMC3    H1 7641   0.941   0.996  13.055  1.6542 -0.1146 -1.3114
  514TMC3    H2 7642   0.794   1.022  12.654  3.1424 -0.2223  0.0656
  514TMC3    C7 7643   1.015   1.010  12.800  0.4439 -0.8332 -0.1515
  514TMC3    C8 7644   0.595   1.188  12.719 -0.4323 -0.3119  0.7329
  514TMC3    O1 7645   1.044   0.973  12.686 -0.3519 -0.4197 -0.3632
  514TMC3    O2 7646   0.502   1.251  12.766 -0.1435 -0.2963 -0.1418
  515MPD2     C 7647   3.533   2.985  15.169  0.5700  0.0918 -0.0046
  515MPD2    C1 7648   3.542   3.002  15.038  0.5438 -0.8971 -0.1899
  515MPD2    C2 7649   3.617   3.106  14.986 -0.1939  0.1537  0.0813
  515MPD2    C3 7650   3.675   3.195  15.069 -0.4147 -0.2138 -0.2538
  515MPD2    C4 7651   3.664   3.189  15.204  0.3699  0.5516 -0.1769
  515MPD2    C5 7652   3.596   3.079  15.245  0.9247 -0.3948 -0.4756
  515MPD2     H 7653   3.620   3.118  14.878  0.4799 -0.8886 -0.0178
  515MPD2    H1 7654   3.704   3.268  15.267  0.8524  1.3215 -1.4549
  515MPD2    H2 7655   3.478   2.912  15.227  0.7939 -0.3527 -0.3521
  515MPD2    H3 7656   3.590   3.079  15.353 -1.3234  0.0098 -0.6101
  515MPD2     N 7657   3.762   3.299  15.017  0.1426  0.1001  0.6955
  515MPD2    H5 7658   3.784   3.376  15.080  2.1919 -1.0622  1.4195
  515MPD2    N1 7659   3.463   2.928  14.954  0.2663  0.5905  0.0266
  515MPD2    H7 7660   3.487   2.943  14.857  0.1762 -0.1767 -0.1161
  516TMC3    C1 7661   3.320   2.759  14.876  0.0650  0.0771 -0.6393
  516TMC3    C2 7662   3.375   2.809  14.756 -0.6828  0.5905  1.2251
  516TMC3    C3 7663   3.415   2.720  14.663  0.1099  0.2084  0.2267
  516TMC3    C4 7664   3.323   2.621  14.894 -0.2079 -0.0588 -0.2478
  516TMC3    C5 7665   3.376   2.535  14.798  0.8544  0.3552  0.5606
  516TMC3    C6 7666   3.421   2.580  14.676 -0.2079 -0.0537 -0.5617
  516TMC3     C 7667   3.364   2.837  14.990 -0.0933 -0.2640 -0.5251
  516TMC3     O 7668   3.314   2.813  15.098  0.1525 -0.0344 -0.2641
  516TMC3     H 7669   3.377   2.910  14.719 -0.4809  0.1869  0.1490
  516TMC3    H1 7670   3.288   2.579  14.987  0.2521 -1.8792 -0.9027
  516TMC3    H2 7671   3.448   2.513  14.595  1.1712 -1.5029  1.1045
  516TMC3    C7 7672   3.406   2.402  14.844  1.8831  0.5388 -0.0453
  516TMC3    C8 7673   3.450   2.783  14.540 -0.0493  0.0078  0.8027
  516TMC3    O1 7674   3.425   2.400  14.964  0.0846  0.2760  0.1337
  516TMC3    O2 7675   3.381   2.872  14.494 -0.3079 -0.6051  0.4932
  517MPD2     C 7676   3.095   4.379   0.020 -0.0877  0.8650  0.3400
  517MPD2    C1 7677   3.099   4.471  17.613 -0.2174  0.7138 -0.4797
  517MPD2    C2 7678   3.069   4.604  17.640 -0.3857 -0.2803  0.3614
  517MPD2    C3 7679   3.025   4.650   0.067 -1.4767  0.6239 -0.4137
  517MPD2    C4 7680   3.012   4.552   0.165  0.1904  0.0795  0.2318
  517MPD2    C5 7681   3.059   4.429   0.148 -0.0330  0.1387 -0.0164
  517MPD2     H 7682   3.068   4.664  17.549 -2.5588 -1.1053 -0.1407
  517MPD2    H1 7683   2.982   4.591   0.262 -0.7330  0.4990 -0.2179
  517MPD2    H2 7684   3.133   4.279   0.007  0.0061  0.9295  0.1031
  517MPD2    H3 7685   3.051   4.356   0.227 -0.9958  0.4580  0.1873
  517MPD2     N 7686   2.972   0.056   0.097  0.6809 -0.0904 -0.2031
  517MPD2    H5 7687   2.928   0.076   0.186  2.5372  0.8492  0.5222
  517MPD2    N1 7688   3.140   4.438  17.479  0.1698 -0.0223 -0.1608
  517MPD2    H7 7689   3.130   4.513  17.412  0.5014  1.2392  1.1995
  518TMC3    C1 7690   3.235   4.306  17.295 -0.0893 -0.5477 -0.3588
  518TMC3    C2 7691   3.244   4.184  17.242  0.3316 -0.2105 -0.3809
  518TMC3    C3 7692   3.316   4.170  17.123  0.4619 -0.1301 -0.3419
  518TMC3    C4 7693   3.325   4.405  17.261 -0.3723 -1.0099 -0.3685
  518TMC3    C5 7694   3.404   4.384  17.151 -0.9294 -0.2664  0.5881
  518TMC3    C6 7695   3.398   4.270  17.078  0.4620  0.9695 -0.1527
  518TMC3     C 7696   3.188   4.318  17.433  0.1172  0.3876  0.5579
  518TMC3     O 7697   3.193   4.214  17.492 -0.2578  0.7312  0.4932
  518TMC3     H 7698   3.186   4.097  17.272  0.9020  0.2337  1.9882
  518TMC3    H1 7699   3.330   4.500  17.313 -0.0548 -0.2771 -1.7185
  518TMC3    H2 7700   3.445   4.260  16.981  2.6699 -1.1491  1.1503
  518TMC3    C7 7701   3.522   4.468  17.151  0.4213 -0.0718  0.5640
  518TMC3    C8 7702   3.328   4.034  17.072  0.0917 -0.0059  0.2896
  518TMC3    O1 7703   3.528   4.554  17.235  0.8097  0.1687 -0.6638
  518TMC3    O2 7704   3.318   3.943  17.156  0.0548 -0.4923 -0.1438
  519MPD2     C 7705   0.038   3.130  14.214  0.1817  0.1218  1.0110
  519MPD2    C1 7706   0.089   3.173  14.091  0.0620 -0.4817 -0.5466
  519MPD2    C2 7707   0.176   3.094  14.029  0.2407 -0.1225  0.1236
  519MPD2    C3 7708   0.208   2.965  14.068  0.0208  0.0487  0.1566
  519MPD2    C4 7709   0.172   2.929  14.193  0.4193  0.0475  0.1203
  519MPD2    C5 7710   0.080   3.005  14.258 -0.3279  0.1489 -0.2964
  519MPD2     H 7711   0.231   3.134  13.944 -0.3991 -2.6633 -1.4905
  519MPD2    H1 7712   0.194   2.827  14.222 -0.6005  0.7406  3.3498
  519MPD2    H2 7713   4.689   3.184  14.273 -0.3768 -0.4820  0.8636
  519MPD2    H3 7714   0.037   2.962  14.349  0.0107 -0.4049 -0.3970
  519MPD2     N 7715   0.272   2.875  13.988  0.2486 -0.0614  0.0133
  519MPD2    H5 7716   0.295   2.783  14.023  1.8108  0.3627  0.0978
  519MPD2    N1 7717   0.058   3.307  14.054 -0.3509 -0.1626  0.1925
  519MPD2    H7 7718   0.020   3.363  14.129  0.6972 -1.2118  1.5016
  520TMC3    C1 7719   0.368   2.766  13.813 -0.4494 -0.0845  0.1967
  520TMC3    C2 7720   0.307   2.702  13.714 -0.2302 -0.4462  0.2979
  520TMC3    C3 7721   0.364   2.584  13.673  0.0322  0.3593  0.4732
  520TMC3    C4 7722   0.458   2.709  13.896  0.0389  0.5431  0.1021
  520TMC3    C5 7723   0.511   2.591  13.859  0.9333  0.1148  0.8374
  520TMC3    C6 7724   0.467   2.529  13.745  0.5453  0.9300 -0.3763
  520TMC3     C 7725   0.289   2.887  13.854 -0.6889 -0.0807 -0.3201
  520TMC3     O 7726   0.236   2.953  13.769  0.0077  0.1711 -0.0443
  520TMC3     H 7727   0.224   2.747  13.662 -0.6569  0.8449  2.1141
  520TMC3    H1 7728   0.506   2.758  13.980 -0.1159  0.0247  0.4943
  520TMC3    H2 7729   0.519   2.443  13.705  0.6562  0.6380  0.4022
  520TMC3    C7 7730   0.652   2.574  13.895  0.0280  0.2497 -0.7204
  520TMC3    C8 7731   0.339   2.530  13.537 -0.5529  0.5798 -0.1033
  520TMC3    O1 7732   0.691   2.610  14.002 -0.7354 -0.1478  0.4626
  520TMC3    O2 7733   0.414   2.439  13.504  0.4122 -0.0209 -0.4141
  521MPD2     C 7734   1.307   1.219  17.366  0.7644  0.0943  0.0572
  521MPD2    C1 7735   1.274   1.135  17.261 -0.0758  0.6067  0.5493
  521MPD2    C2 7736   1.366   1.117  17.158 -0.5620 -0.2757 -0.4555
  521MPD2    C3 7737   1.497   1.165  17.171  0.3047  0.5424 -0.2941
  521MPD2    C4 7738   1.521   1.250  17.276  0.3802 -0.2172 -0.2707
  521MPD2    C5 7739   1.436   1.272  17.379  0.1620 -0.9169  0.3049
  521MPD2     H 7740   1.337   1.056  17.073 -1.5052  0.7042 -0.8263
  521MPD2    H1 7741   1.617   1.294  17.299 -0.4337  0.2602  2.1806
  521MPD2    H2 7742   1.239   1.233  17.449  1.0091 -1.9371  0.6103
  521MPD2    H3 7743   1.472   1.321  17.468  1.4663  0.5409 -1.0269
  521MPD2     N 7744   1.600   1.137  17.078  0.2996  0.2734 -0.4957
  521MPD2    H5 7745   1.567   1.072  17.008 -0.5610 -0.6543  0.7560
  521MPD2    N1 7746   1.138   1.091  17.256 -1.0254 -0.5497 -0.7997
  521MPD2    H7 7747   1.075   1.117  17.331 -0.9716  1.7417 -1.5489
  522TMC3    C1 7748   1.807   1.137  16.966  0.1979 -0.9841  0.3657
  522TMC3    C2 7749   1.938   1.115  16.998 -0.2420 -0.0565 -0.9009
  522TMC3    C3 7750   2.021   1.092  16.894  0.2930  0.2941 -0.5879
  522TMC3    C4 7751   1.761   1.161  16.836  0.1643  0.1485  0.3958
  522TMC3    C5 7752   1.843   1.135  16.733  0.5439 -0.3762  0.2046
  522TMC3    C6 7753   1.971   1.092  16.764 -0.2446 -0.1433  0.5000
  522TMC3     C 7754   1.727   1.187  17.077  0.0947 -0.5420  0.1900
  522TMC3     O 7755   1.794   1.245  17.162 -0.0624  0.2255 -0.1756
  522TMC3     H 7756   1.976   1.098  17.098 -0.6666  1.2960 -0.4991
  522TMC3    H1 7757   1.658   1.190  16.820  0.3365  1.1248  1.0392
  522TMC3    H2 7758   2.045   1.079  16.686 -0.1135 -0.8473  0.7437
  522TMC3    C7 7759   1.809   1.158  16.598  0.6842 -0.0269 -0.7402
  522TMC3    C8 7760   2.149   1.035  16.921 -0.4855  0.0425  0.5660
  522TMC3    O1 7761   1.895   1.127  16.516  0.1160 -0.0543 -0.2263
  522TMC3    O2 7762   2.187   1.045  17.037 -0.3054  0.0912  0.0984
  523MPD2     C 7763   3.947   0.773  10.329 -0.3517 -0.0075  0.0129
  523MPD2    C1 7764   3.899   0.708  10.225 -0.0783 -0.1057 -0.0676
  523MPD2    C2 7765   3.817   0.778  10.138 -0.4118  0.2166  0.0697
  523MPD2    C3 7766   3.779   0.907  10.159  0.4005 -0.6131  0.4401
  523MPD2    C4 7767   3.828   0.968  10.270 -0.4636  0.2641  0.0869
  523MPD2    C5 7768   3.912   0.901  10.356  0.4891  0.5130  0.6039
  523MPD2     H 7769   3.793   0.733  10.043 -1.1310  2.8047 -0.9731
  523MPD2    H1 7770   3.801   1.068  10.300  0.3786  0.1516  1.1927
  523MPD2    H2 7771   4.016   0.728  10.400  0.6720  0.8464 -0.4394
  523MPD2    H3 7772   3.951   0.950  10.445  2.3054 -1.9342  1.1345
  523MPD2     N 7773   3.686   0.973  10.072  0.2472 -0.6621  0.9965
  523MPD2    H5 7774   3.673   1.073  10.088 -1.4362 -0.6807 -0.3035
  523MPD2    N1 7775   3.947   0.573  10.204 -0.4608  0.1464 -0.6488
  523MPD2    H7 7776   4.027   0.547  10.261  1.3132  1.7253 -2.3846
  524TMC3    C1 7777   3.503   1.003   9.916  0.0802  0.8317  0.4004
  524TMC3    C2 7778   3.463   0.963   9.796 -0.1074  0.4673  0.6585
  524TMC3    C3 7779   3.350   1.022   9.747 -0.6372  0.2581  0.0667
  524TMC3    C4 7780   3.440   1.110   9.987 -0.1728 -0.6980  0.5078
  524TMC3    C5 7781   3.333   1.176   9.930  0.4929  0.6669  0.0944
  524TMC3    C6 7782   3.291   1.126   9.808  0.2396 -0.2603  0.0039
  524TMC3     C 7783   3.599   0.911   9.982 -0.8421 -0.2172  0.2431
  524TMC3     O 7784   3.582   0.787   9.963 -0.3088 -0.0167 -0.5462
  524TMC3     H 7785   3.495   0.868   9.754 -2.0632  1.0346 -2.1452
  524TMC3    H1 7786   3.464   1.140  10.089  0.9204  0.2561 -0.0260
  524TMC3    H2 7787   3.186   1.139   9.786 -0.1866 -3.3912  0.2271
  524TMC3    C7 7788   3.218   1.202  10.011  0.1154 -0.2278  0.4677
  524TMC3    C8 7789   3.262   0.957   9.647 -0.7771 -0.1841  0.3372
  524TMC3    O1 7790   3.145   1.111  10.053  0.4489  0.9638  0.0295
  524TMC3    O2 7791   3.165   1.020   9.615 -0.3483  0.5994 -0.0974
  525MPD2     C 7792   1.627   2.469  14.254 -0.3425 -0.3602 -0.4855
  525MPD2    C1 7793   1.728   2.494  14.342  0.5163  0.1611 -0.1051
  525MPD2    C2 7794   1.830   2.586  14.301  0.2029  0.0555  0.3281
  525MPD2    C3 7795   1.806   2.656  14.181 -0.6489 -0.7311  0.1764
  525MPD2    C4 7796   1.691   2.634  14.105 -0.9836 -0.6369  0.3335
  525MPD2    C5 7797   1.599   2.538  14.141 -1.0994  0.8388  0.3618
  525MPD2     H 7798   1.920   2.597  14.361  0.0172  0.5937  0.5128
  525MPD2    H1 7799   1.671   2.685  14.011 -0.2288 -1.9135 -0.5284
  525MPD2    H2 7800   1.550   2.397  14.278 -1.4493  0.5763 -1.2293
  525MPD2    H3 7801   1.511   2.524  14.078  1.1029  3.4578 -3.2863
  525MPD2     N 7802   1.887   2.759  14.134 -0.1210  0.9487  0.1488
  525MPD2    H5 7803   1.864   2.823  14.059 -1.8601  0.0206 -0.1192
  525MPD2    N1 7804   1.759   2.411  14.458 -0.1423 -0.5591  0.4286
  525MPD2    H7 7805   1.847   2.420  14.506  0.3420  0.4513 -0.6346
  526TMC3    C1 7806   1.705   2.258  14.623 -0.6132 -0.0054 -0.7015
  526TMC3    C2 7807   1.615   2.214  14.709 -0.3798  1.1379  0.4132
  526TMC3    C3 7808   1.657   2.123  14.805  0.8012 -1.0405 -0.5407
  526TMC3    C4 7809   1.836   2.218  14.620 -0.2142  0.2699 -0.1053
  526TMC3    C5 7810   1.870   2.117  14.712  0.2504 -0.0119  0.5834
  526TMC3    C6 7811   1.781   2.072  14.804 -0.4674  0.3365  0.0612
  526TMC3     C 7812   1.657   2.340  14.513 -0.8834  0.0365 -0.7116
  526TMC3     O 7813   1.535   2.348  14.502  1.0067  0.2207 -0.2529
  526TMC3     H 7814   1.513   2.252  14.711 -0.0068  2.1618 -0.3265
  526TMC3    H1 7815   1.897   2.248  14.536 -1.2116  2.3531 -0.0873
  526TMC3    H2 7816   1.806   2.002  14.883 -0.3250 -2.1129 -2.1684
  526TMC3    C7 7817   2.010   2.099  14.740  0.7542  0.0574  0.2202
  526TMC3    C8 7818   1.577   2.130  14.919  0.5033  0.5246 -0.2628
  526TMC3    O1 7819   2.060   2.001  14.793  0.5746 -0.7877 -0.0763
  526TMC3    O2 7820   1.502   2.225  14.942 -0.0617 -0.1281 -0.4239
  527MPD2     C 7821   4.310   0.791   1.068  0.1924 -0.9192 -0.3783
  527MPD2    C1 7822   4.355   0.692   1.160  0.0946 -0.3396  0.7931
  527MPD2    C2 7823   4.478   0.639   1.131 -0.1591 -0.3976  0.6591
  527MPD2    C3 7824   4.562   0.686   1.034  0.1213 -0.3164 -0.6480
  527MPD2    C4 7825   4.517   0.789   0.955 -0.2299  0.5008 -0.2673
  527MPD2    C5 7826   4.387   0.827   0.960 -0.0758  0.1362  0.5383
  527MPD2     H 7827   4.509   0.550   1.185  0.6838  0.5817  1.7975
  527MPD2    H1 7828   4.577   0.820   0.870  1.4643 -3.1744 -0.4032
  527MPD2    H2 7829   4.218   0.846   1.085  0.7235  0.4399 -1.9088
  527MPD2    H3 7830   4.360   0.911   0.898  2.4503  1.4921  1.2600
  527MPD2     N 7831   4.687   0.623   1.021 -0.3889  0.2387  0.4842
  527MPD2    H5 7832   4.689   0.534   1.069  1.8482 -0.0222 -0.1044
  527MPD2    N1 7833   4.273   0.632   1.260  0.3912 -0.1798 -0.3507
  527MPD2    H7 7834   4.326   0.564   1.314 -0.2313 -0.9470 -0.7072
  528TMC3    C1 7835   4.089   0.572   1.389 -0.1249 -0.3713 -0.3897
  528TMC3    C2 7836   4.187   0.525   1.474 -0.1287  0.1592  0.7010
  528TMC3    C3 7837   4.159   0.423   1.553 -0.8904 -0.2023 -0.7027
  528TMC3    C4 7838   3.979   0.493   1.358 -0.9069  0.1638  0.6491
  528TMC3    C5 7839   3.962   0.372   1.424  0.1043  0.3761 -0.0352
  528TMC3    C6 7840   4.048   0.346   1.523  0.9215 -0.2982 -0.4263
  528TMC3     C 7841   4.135   0.653   1.275  0.0738 -0.1828 -0.4867
  528TMC3     O 7842   4.059   0.708   1.199 -0.4557  0.0908 -0.4542
  528TMC3     H 7843   4.276   0.586   1.485 -0.0387  0.3899 -1.2591
  528TMC3    H1 7844   3.917   0.523   1.275 -1.8906  0.6596  1.5519
  528TMC3    H2 7845   4.020   0.272   1.598 -0.4162  0.3345 -0.3197
  528TMC3    C7 7846   3.828   0.319   1.425 -0.5392 -0.1163  0.3038
  528TMC3    C8 7847   4.275   0.380   1.637  0.0442  0.4339  0.0215
  528TMC3    O1 7848   3.783   0.296   1.537 -0.2269 -0.4774 -0.5870
  528TMC3    O2 7849   4.344   0.471   1.670  0.0663 -0.7497 -0.4393
  529MPD2     C 7850   2.993   3.435   0.464  0.9369  0.2709  0.0674
  529MPD2    C1 7851   2.861   3.410   0.471  0.2776 -0.8427  0.2423
  529MPD2    C2 7852   2.780   3.497   0.400 -0.9012 -0.0445  0.0146
  529MPD2    C3 7853   2.836   3.584   0.306  0.6477 -0.4811 -0.0416
  529MPD2    C4 7854   2.971   3.587   0.292  0.1960  0.0764  0.3911
  529MPD2    C5 7855   3.051   3.520   0.375  0.5037  0.0121  0.4550
  529MPD2     H 7856   2.674   3.475   0.403 -0.4943 -1.8699  0.9657
  529MPD2    H1 7857   3.026   3.665   0.242  2.1613 -1.1320  0.6639
  529MPD2    H2 7858   3.070   3.381   0.517 -0.6942 -0.3551  1.7753
  529MPD2    H3 7859   3.158   3.534   0.370  0.4913  0.0998  0.4454
  529MPD2     N 7860   2.758   3.675   0.233  0.1519 -0.4686  0.2117
  529MPD2    H5 7861   2.804   3.728   0.160  0.5964 -1.5053 -0.2620
  529MPD2    N1 7862   2.804   3.314   0.561 -0.0080  0.3679  0.3013
  529MPD2    H7 7863   2.703   3.308   0.567  0.1319 -0.2506  2.1409
  530TMC3    C1 7864   2.801   3.170   0.751 -0.4975 -0.4539 -0.1592
  530TMC3    C2 7865   2.860   3.110   0.856 -0.1139 -0.1612 -0.2755
  530TMC3    C3 7866   2.784   3.028   0.938  0.5043  0.0244 -0.2832
  530TMC3    C4 7867   2.670   3.141   0.716 -0.0461  0.3025 -0.0340
  530TMC3    C5 7868   2.597   3.067   0.808 -0.2495  0.5737  0.2268
  530TMC3    C6 7869   2.649   3.012   0.925  0.0232 -0.3941 -0.7476
  530TMC3     C 7870   2.879   3.247   0.656  0.6704  0.0559  0.4187
  530TMC3     O 7871   2.996   3.238   0.670 -0.0761  0.1364  0.1887
  530TMC3     H 7872   2.964   3.127   0.882  0.5067 -2.3413 -1.3772
  530TMC3    H1 7873   2.632   3.173   0.619 -0.8169  0.7822  0.4271
  530TMC3    H2 7874   2.592   2.941   0.984 -1.5149 -0.1982 -2.0149
  530TMC3    C7 7875   2.451   3.071   0.805 -0.0742  0.5216 -0.7370
  530TMC3    C8 7876   2.848   2.976   1.057 -1.0207  0.2973  0.2930
  530TMC3    O1 7877   2.411   3.109   0.695 -0.4017  0.2552  0.0929
  530TMC3    O2 7878   2.770   2.953   1.145 -0.2401 -0.2232 -0.3736
  531MPD2     C 7879   1.409   1.341  12.786  0.1032  0.1333 -0.2661
  531MPD2    C1 7880   1.325   1.375  12.889  0.0348 -0.8266  0.2689
  531MPD2    C2 7881   1.223   1.290  12.921  0.1118  0.5831 -0.8444
  531MPD2    C3 7882   1.194   1.180  12.843  0.4758  0.3060  0.3925
  531MPD2    C4 7883   1.273   1.154  12.732  0.4311  0.6866  0.6317
  531MPD2    C5 7884   1.388   1.230  12.711  0.3179  0.2366  0.4520
  531MPD2     H 7885   1.158   1.317  13.003  0.5129 -1.1747  0.0443
  531MPD2    H1 7886   1.259   1.073  12.662  1.8343  0.4192  0.6515
  531MPD2    H2 7887   1.483   1.414  12.755  1.3489 -0.4743  1.2774
  531MPD2    H3 7888   1.458   1.210  12.631  2.0859 -1.3530  2.4083
  531MPD2     N 7889   1.078   1.109  12.874  0.0232 -0.2105 -0.1062
  531MPD2    H5 7890   1.020   1.145  12.949 -1.2522  0.0951 -1.2640
  531MPD2    N1 7891   1.343   1.505  12.937 -0.1927  0.0347  0.0725
  531MPD2    H7 7892   1.416   1.566  12.900  0.1149 -0.2217  0.2517
  532TMC3    C1 7893   1.304   1.690  13.063 -0.1688 -0.0984 -0.7007
  532TMC3    C2 7894   1.192   1.768  13.089 -0.0674  1.6211 -0.3077
  532TMC3    C3 7895   1.171   1.818  13.216  0.3613 -0.3914  0.5103
  532TMC3    C4 7896   1.407   1.677  13.152  0.8148  0.5071  0.6211
  532TMC3    C5 7897   1.381   1.728  13.274 -0.0938  0.3555  0.6632
  532TMC3    C6 7898   1.273   1.806  13.307 -0.8465 -0.1524  0.4971
  532TMC3     C 7899   1.253   1.560  13.019 -0.8239 -0.3146  0.3268
  532TMC3     O 7900   1.141   1.529  13.056  0.1465  0.1326  0.6253
  532TMC3     H 7901   1.116   1.790  13.015 -0.5597  1.5905  0.1896
  532TMC3    H1 7902   1.484   1.608  13.121 -0.0610 -0.0361 -0.3490
  532TMC3    H2 7903   1.259   1.833  13.412 -2.3443 -1.6212  0.6710
  532TMC3    C7 7904   1.476   1.710  13.377  0.6142  0.0602 -0.2214
  532TMC3    C8 7905   1.046   1.775  13.285  0.8877  0.7559  0.2807
  532TMC3    O1 7906   1.486   1.804  13.457 -0.0823 -0.3290  0.9123
  532TMC3    O2 7907   1.003   1.841  13.374  0.1203  0.7161 -0.4014
  533TMC3    C1 7908   2.046   2.926  14.180 -0.2631 -0.2221  0.2280
  533TMC3    C2 7909   2.180   2.942  14.186 -0.9714  0.2430  0.2247
  533TMC3    C3 7910   2.230   3.027  14.283  0.2629 -0.3407  0.2692
  533TMC3    C4 7911   1.960   2.994  14.258 -0.2914 -0.1726 -0.6138
  533TMC3    C5 7912   2.010   3.069  14.362  0.4478  0.2690  0.4741
  533TMC3    C6 7913   2.147   3.087  14.370  0.1902  0.0264 -0.2852
  533TMC3     C 7914   2.015   2.789  14.185 -0.5509  0.3705  0.1617
  533TMC3     O 7915   2.081   2.721  14.259 -0.1041 -0.0681 -0.0509
  533TMC3     H 7916   2.244   2.883  14.121 -1.2661  0.9355 -0.6999
  533TMC3    H1 7917   1.852   2.987  14.253 -0.2194 -1.3122 -0.5772
  533TMC3    H2 7918   2.189   3.149  14.449 -1.2263  1.8681 -0.9625
  533TMC3    C7 7919   1.934   3.059  14.484 -0.1043  0.0603 -0.0043
  533TMC3    C8 7920   2.359   2.993  14.327 -0.1169 -0.2017 -0.1764
  533TMC3    O1 7921   1.863   2.964  14.512  0.1078 -0.5645 -0.3965
  533TMC3    O2 7922   2.382   2.996  14.445  0.2501  0.5226  0.0270
  534MPD2     C 7923   4.679   4.137   1.734  0.3729  0.5723 -0.2523
  534MPD2    C1 7924   4.610   4.214   1.641  0.2131 -0.4794  0.3867
  534MPD2    C2 7925   4.553   4.153   1.533 -0.1949 -0.4201  0.4555
  534MPD2    C3 7926   4.556   4.008   1.520 -0.1669 -0.5355  0.3896
  534MPD2    C4 7927   4.627   3.935   1.613  0.1788 -0.6395  0.1999
  534MPD2    C5 7928   4.690   3.999   1.715 -0.2281 -0.2861  0.7447
  534MPD2     H 7929   4.493   4.205   1.459 -1.8656 -0.9249  1.4504
  534MPD2    H1 7930   4.630   3.827   1.621  0.2302 -0.5481  1.3991
  534MPD2    H2 7931   0.003   4.181   1.821  1.3812  0.7905 -0.9220
  534MPD2    H3 7932   0.026   3.951   1.790  0.7185  1.2003  0.9432
  534MPD2     N 7933   4.510   3.935   1.405  0.5128 -0.0514  0.6056
  534MPD2    H5 7934   4.528   3.835   1.410  0.3962 -0.0693  0.6760
  534MPD2    N1 7935   4.615   4.354   1.643 -0.0139  0.1907 -0.3531
  534MPD2    H7 7936   4.544   4.394   1.581  0.5362  1.7991  0.0420
  535TMC3    C1 7937   4.444   3.881   1.191  0.1306 -0.1091 -0.3271
  535TMC3    C2 7938   4.416   3.753   1.229  0.2546 -0.6180 -0.3521
  535TMC3    C3 7939   4.400   3.668   1.121 -0.4897  0.3881  0.2542
  535TMC3    C4 7940   4.449   3.920   1.061 -0.2252  0.2557  0.0212
  535TMC3    C5 7941   4.429   3.839   0.960  0.3743  0.0617 -0.3034
  535TMC3    C6 7942   4.407   3.703   0.989 -0.0636  0.2134 -0.1981
  535TMC3     C 7943   4.450   3.985   1.291  0.0771  0.4352 -0.0228
  535TMC3     O 7944   4.417   4.100   1.257  0.0926  0.3209 -0.2128
  535TMC3     H 7945   4.387   3.730   1.331  0.1124  1.0884 -0.0100
  535TMC3    H1 7946   4.480   4.021   1.037 -2.1758  1.0541  0.8309
  535TMC3    H2 7947   4.400   3.624   0.915  1.1694 -0.8587  0.8305
  535TMC3    C7 7948   4.420   3.883   0.824  0.2521 -0.4365 -0.3124
  535TMC3    C8 7949   4.325   3.547   1.140 -0.5731 -0.3705 -0.3208
  535TMC3    O1 7950   4.403   3.795   0.743  0.2679 -0.5155  0.4149
  535TMC3    O2 7951   4.254   3.509   1.048 -0.0867 -0.5054 -0.3102
  536MPD2     C 7952   3.206   2.395  16.090  0.0125  0.0585  0.3484
  536MPD2    C1 7953   3.073   2.429  16.053 -0.2640  0.1161  0.0395
  536MPD2    C2 7954   3.045   2.442  15.915  0.3287 -0.2099  0.8070
  536MPD2    C3 7955   3.142   2.431  15.817 -0.0380 -0.1317 -0.1915
  536MPD2    C4 7956   3.273   2.398  15.854 -0.1474 -0.6099  0.1220
  536MPD2    C5 7957   3.301   2.388  15.989  0.1101 -0.1219 -0.0338
  536MPD2     H 7958   2.946   2.473  15.884  0.0480 -0.7292  1.1699
  536MPD2    H1 7959   3.349   2.379  15.779 -0.0622  1.3791 -0.3076
  536MPD2    H2 7960   3.248   2.370  16.187  1.4232 -3.0106 -1.0352
  536MPD2    H3 7961   3.403   2.357  16.005 -0.2287 -1.3686 -0.2818
  536MPD2     N 7962   3.106   2.440  15.679  0.2168  0.5732  0.1004
  536MPD2    H5 7963   3.170   2.405  15.608 -1.6146 -0.6958 -0.9019
  536MPD2    N1 7964   2.981   2.420  16.159 -0.2740  0.1554 -0.0510
  536MPD2    H7 7965   3.012   2.406  16.254 -0.2907  0.6526  0.0261
  537TMC3    C1 7966   2.794   2.424  16.284  0.0937 -0.2139  0.3028
  537TMC3    C2 7967   2.866   2.496  16.383  0.5274 -0.3741 -0.5237
  537TMC3    C3 7968   2.894   2.421  16.497 -0.0325  0.1127 -0.3170
  537TMC3    C4 7969   2.747   2.300  16.307 -0.1992 -0.3774  0.2227
  537TMC3    C5 7970   2.780   2.236  16.424  0.1105 -0.8176  0.0570
  537TMC3    C6 7971   2.840   2.298  16.529 -0.2328 -0.1753  0.0767
  537TMC3     C 7972   2.845   2.441  16.152 -0.2869 -0.6411 -0.5233
  537TMC3     O 7973   2.770   2.454  16.060  0.1168  0.2048  0.5848
  537TMC3     H 7974   2.915   2.588  16.353 -0.6813  1.0986  1.9665
  537TMC3    H1 7975   2.713   2.250  16.217 -0.0864  0.7354 -0.4375
  537TMC3    H2 7976   2.864   2.250  16.623  0.5352 -0.7970 -0.4294
  537TMC3    C7 7977   2.723   2.103  16.428  0.4393  0.3101  0.0562
  537TMC3    C8 7978   2.976   2.475  16.598 -0.3270 -0.1244  0.3743
  537TMC3    O1 7979   2.616   2.097  16.372  0.1167  0.0295  0.3673
  537TMC3    O2 7980   3.051   2.400  16.660 -0.3676  0.3881  0.0256
  538TMC3    C1 7981   0.069   0.333  10.472 -0.1802 -0.4696  0.2420
  538TMC3    C2 7982   0.055   0.300  10.341  0.3612 -0.3211 -0.3447
  538TMC3    C3 7983   4.660   0.342  10.280 -0.1587  0.0083 -0.1369
  538TMC3    C4 7984   4.699   0.400  10.536  0.9194 -0.1486 -0.0495
  538TMC3    C5 7985   4.591   0.456  10.469  0.5952 -0.0342 -0.0366
  538TMC3    C6 7986   4.569   0.432  10.337  0.4048  0.0713  0.0885
  538TMC3     C 7987   0.154   0.251  10.557  0.2142 -0.1134 -0.1786
  538TMC3     O 7988   0.171   0.135  10.526  0.6130  0.0057 -0.2533
  538TMC3     H 7989   0.125   0.232  10.295  2.0392  0.8218  0.5213
  538TMC3    H1 7990   4.703   0.396  10.644  0.3909  1.5243  0.0379
  538TMC3    H2 7991   4.467   0.444  10.302  0.4503  0.5386  0.1192
  538TMC3    C7 7992   4.493   0.534  10.538  0.4639 -0.8695  0.3878
  538TMC3    C8 7993   4.659   0.336  10.140 -0.3183  0.3194  0.0937
  538TMC3    O1 7994   4.381   0.546  10.488 -0.0939 -0.5788 -0.4769
  538TMC3    O2 7995   0.003   0.250  10.087  0.1676 -0.3937  1.4302
  539MPD2     C 7996   4.091   4.497  11.856  0.4636 -0.9370  0.2740
  539MPD2    C1 7997   4.152   4.530  11.743  0.7665  0.0883  0.5194
  539MPD2    C2 7998   4.199   4.661  11.736 -1.0944 -0.5989 -0.6557
  539MPD2    C3 7999   4.185   0.028  11.840 -0.2078 -0.1172  0.0637
  539MPD2    C4 8000   4.113   4.717  11.954 -0.4525 -0.1720  0.0316
  539MPD2    C5 8001   4.074   4.584  11.962 -0.1648 -0.4235  0.9233
  539MPD2     H 8002   4.245   4.687  11.642 -0.5133 -1.7241 -0.6797
  539MPD2    H1 8003   4.090   0.066  12.031  1.2973 -0.1276  0.5264
  539MPD2    H2 8004   4.059   4.396  11.875  0.3855 -1.0730 -0.5555
  539MPD2    H3 8005   4.020   4.541  12.046 -0.2652 -1.1211  0.4989
  539MPD2     N 8006   4.220   0.169  11.830  0.2124 -0.2794 -0.4306
  539MPD2    H5 8007   4.200   0.226  11.911  3.5204  2.4049 -1.5174
  539MPD2    N1 8008   4.175   4.438  11.634 -0.0666  0.2790  0.0116
  539MPD2    H7 8009   4.227   4.482  11.558 -2.0679  0.6161 -1.1546
  540TMC3    C1 8010   4.235   0.363  11.704 -0.0628 -0.1956  0.0522
  540TMC3    C2 8011   4.298   0.432  11.606  0.1209  0.9183 -0.0847
  540TMC3    C3 8012   4.254   0.556  11.563 -0.4664  0.3915 -0.2921
  540TMC3    C4 8013   4.122   0.412  11.754 -0.3558 -0.2017 -0.2522
  540TMC3    C5 8014   4.067   0.526  11.700  0.0977 -0.2513 -0.5782
  540TMC3    C6 8015   4.133   0.603  11.607  0.1411  0.3694 -0.2234
  540TMC3     C 8016   4.268   0.227  11.721  0.1152  0.2028  0.0260
  540TMC3     O 8017   4.333   0.176  11.635 -0.4172 -0.2815 -0.1906
  540TMC3     H 8018   4.381   0.387  11.554  1.2337  1.9069  0.8339
  540TMC3    H1 8019   4.071   0.351  11.829  0.0499  0.5633  0.6485
  540TMC3    H2 8020   4.079   0.672  11.543 -1.0611 -0.8710 -0.5539
  540TMC3    C7 8021   3.959   0.578  11.780  0.4115  1.0137  0.1055
  540TMC3    C8 8022   4.278   0.559  11.422 -0.1230 -0.1023 -0.1378
  540TMC3    O1 8023   3.883   0.498  11.831 -0.5046 -0.2701 -0.0206
  540TMC3    O2 8024   4.398   0.590  11.394  0.1807 -0.2041 -0.1757
  541MPD2     C 8025   2.220   1.842  13.129 -0.1136  0.0101 -0.5309
  541MPD2    C1 8026   2.341   1.805  13.086  0.1128 -0.8643 -0.7765
  541MPD2    C2 8027   2.389   1.861  12.970 -0.1744 -0.0909 -0.1019
  541MPD2    C3 8028   2.315   1.947  12.892 -0.3434  0.3543  0.5357
  541MPD2    C4 8029   2.198   1.985  12.937  0.7766 -0.1827 -0.2097
  541MPD2    C5 8030   2.148   1.936  13.058 -0.3461 -0.3604 -0.4740
  541MPD2     H 8031   2.478   1.813  12.929  0.1272 -2.0236  2.7948
  541MPD2    H1 8032   2.143   2.055  12.876 -0.9388 -0.1799  1.3203
  541MPD2    H2 8033   2.176   1.802  13.220  0.8566  0.6986  0.2283
  541MPD2    H3 8034   2.045   1.956  13.086 -0.9016 -2.7818 -0.8176
  541MPD2     N 8035   2.363   2.000  12.771  0.2733 -0.3754  0.1462
  541MPD2    H5 8036   2.313   2.083  12.740  1.8812  0.6204  0.2155
  541MPD2    N1 8037   2.404   1.697  13.148  0.4137 -0.5919  0.4852
  541MPD2    H7 8038   2.366   1.642  13.224 -2.9434 -0.3971 -1.0506
  542TMC3    C1 8039   2.491   2.012  12.572  0.5808 -0.5467  0.1140
  542TMC3    C2 8040   2.551   1.922  12.488  0.1913 -0.1705  1.2313
  542TMC3    C3 8041   2.518   1.920  12.354  0.8840 -0.4764 -0.1928
  542TMC3    C4 8042   2.385   2.085  12.530 -0.2157  0.8448 -0.0960
  542TMC3    C5 8043   2.357   2.085  12.396 -0.8167 -0.1119  0.0294
  542TMC3    C6 8044   2.428   2.010  12.303 -0.1304  0.2846 -0.2762
  542TMC3     C 8045   2.465   1.943  12.696 -0.8367 -0.1338  0.5469
  542TMC3     O 8046   2.522   1.837  12.709  0.3357 -0.4234  0.3072
  542TMC3     H 8047   2.636   1.867  12.526  0.3182 -0.2729  0.7903
  542TMC3    H1 8048   2.338   2.157  12.596 -0.2493  0.7664 -0.0352
  542TMC3    H2 8049   2.404   2.014  12.197  0.5481 -0.6398 -0.4642
  542TMC3    C7 8050   2.247   2.177  12.355  0.7276 -0.3649  0.0413
  542TMC3    C8 8051   2.570   1.812  12.267 -0.6624 -0.0235 -0.2843
  542TMC3    O1 8052   2.218   2.272  12.426 -0.3640 -0.2772  0.2884
  542TMC3    O2 8053   2.521   1.810  12.155 -0.2596  0.3433 -0.4172
  543TMC3    C1 8054   1.906   2.699  16.977  0.3574  0.9749  0.4826
  543TMC3    C2 8055   1.886   2.569  16.998 -0.0823 -0.1499 -0.3034
  543TMC3    C3 8056   1.884   2.518  17.123 -0.1419 -0.4382 -0.0511
  543TMC3    C4 8057   1.933   2.784  17.086 -0.3778 -0.1675 -0.0744
  543TMC3    C5 8058   1.923   2.726  17.213  0.4392  0.0675 -0.5357
  543TMC3    C6 8059   1.899   2.592  17.236 -0.0279  0.2783 -0.6799
  543TMC3     C 8060   1.937   2.740  16.839  0.4017 -0.4443 -0.8586
  543TMC3     O 8061   1.992   2.646  16.787 -0.4533 -0.2542  0.4656
  543TMC3     H 8062   1.882   2.492  16.921 -2.7378 -0.8287  0.5161
  543TMC3    H1 8063   1.941   2.891  17.068  0.3110 -0.3265 -0.7173
  543TMC3    H2 8064   1.884   2.557  17.338 -0.1072 -0.6403 -1.0036
  543TMC3    C7 8065   1.922   2.819  17.317  0.5370 -0.1962  0.4702
  543TMC3    C8 8066   1.865   2.377  17.139 -0.1429  0.4873  0.2076
  543TMC3    O1 8067   1.869   2.772  17.419 -0.7089  0.1339  0.1997
  543TMC3    O2 8068   1.802   2.318  17.050  0.2449 -0.0255  0.2996
  544MPD2     C 8069   2.058   1.943  17.305 -0.1143 -0.5729  0.0939
  544MPD2    C1 8070   1.969   1.973  17.209 -0.2747  0.4859 -0.4341
  544MPD2    C2 8071   1.929   2.103  17.184 -0.2084 -0.3951 -0.3611
  544MPD2    C3 8072   1.961   2.198  17.276 -0.0858  0.4166 -0.2652
  544MPD2    C4 8073   2.043   2.166  17.376  0.2538  0.4184 -0.5445
  544MPD2    C5 8074   2.087   2.037  17.396  0.3415 -0.0566 -0.8012
  544MPD2     H 8075   1.863   2.114  17.098 -1.2126 -0.9578  0.3350
  544MPD2    H1 8076   2.064   2.235  17.457 -1.3055 -0.0095  0.2224
  544MPD2    H2 8077   2.103   1.845  17.315  1.3602  0.1213  0.2952
  544MPD2    H3 8078   2.136   2.016  17.491  1.1888  2.5099 -0.6869
  544MPD2     N 8079   1.931   2.332  17.254  0.5378  0.5027 -0.1576
  544MPD2    H5 8080   1.980   2.399  17.313  1.9525  0.0787 -0.8492
  544MPD2    N1 8081   1.942   1.868  17.119  0.0033 -0.0329  0.1120
  544MPD2    H7 8082   1.998   1.784  17.133 -0.1391  0.2428  2.2966
  545TMC3    C1 8083   1.864   1.748  16.932  0.7316  0.3993 -0.6682
  545TMC3    C2 8084   1.744   1.711  16.887 -0.0558 -0.2479 -0.0911
  545TMC3    C3 8085   1.745   1.584  16.836 -0.0230  0.1992 -0.3622
  545TMC3    C4 8086   1.986   1.676  16.917  0.5543  0.2514  0.0403
  545TMC3    C5 8087   1.978   1.566  16.844 -0.0319 -0.0433 -0.2348
  545TMC3    C6 8088   1.856   1.516  16.805 -0.7078  0.6165 -0.4389
  545TMC3     C 8089   1.858   1.868  17.010  0.7024 -0.3212 -0.2950
  545TMC3     O 8090   1.794   1.959  16.964 -0.1799  0.5160  0.2939
  545TMC3     H 8091   1.654   1.770  16.877 -0.4476 -1.0786 -1.5222
  545TMC3    H1 8092   2.083   1.715  16.948  0.0817 -0.3198  2.1994
  545TMC3    H2 8093   1.860   1.415  16.767 -0.0798  0.9845 -1.3482
  545TMC3    C7 8094   2.090   1.495  16.808  0.5509 -1.2285 -1.2297
  545TMC3    C8 8095   1.626   1.509  16.815  0.0104  0.0192  0.4529
  545TMC3    O1 8096   2.083   1.433  16.707 -0.0391 -0.0119 -0.2441
  545TMC3    O2 8097   1.600   1.491  16.699 -0.1911 -0.1509  0.2772
  546MPD2     C 8098   3.471   2.712  17.385 -0.4683 -0.0572  0.6798
  546MPD2    C1 8099   3.403   2.753  17.268  0.0376  0.2323  0.2207
  546MPD2    C2 8100   3.462   2.840  17.181 -0.4674 -0.0342 -0.4480
  546MPD2    C3 8101   3.591   2.891  17.197  0.0899  0.0918 -0.0743
  546MPD2    C4 8102   3.655   2.853  17.316  0.8116 -0.0684 -0.1784
  546MPD2    C5 8103   3.597   2.764  17.403  0.0462 -0.1942 -0.5202
  546MPD2     H 8104   3.402   2.866  17.095  0.4110 -0.5187 -1.2108
  546MPD2    H1 8105   3.759   2.880  17.326  1.3860 -2.3082 -0.1995
  546MPD2    H2 8106   3.428   2.648  17.461  1.3952 -1.9025  0.2026
  546MPD2    H3 8107   3.650   2.739  17.494  0.7958  2.9245 -0.0855
  546MPD2     N 8108   3.655   2.985  17.113  0.2813  0.0747  0.2668
  546MPD2    H5 8109   3.738   3.039  17.133  0.1336  0.7127 -0.8037
  546MPD2    N1 8110   3.278   2.707  17.253 -0.0722  0.2740  0.4871
  546MPD2    H7 8111   3.255   2.623  17.305 -3.3892  0.8697 -0.0200
  547TMC3    C1 8112   3.046   2.707  17.187 -0.4155  0.4021 -0.0407
  547TMC3    C2 8113   2.958   2.728  17.086  0.8422  0.2030 -0.0809
  547TMC3    C3 8114   2.849   2.642  17.079  0.6940  0.1524 -0.8233
  547TMC3    C4 8115   3.010   2.633  17.296  0.3471  0.1842 -0.0165
  547TMC3    C5 8116   2.903   2.550  17.282  0.3843 -0.1460 -0.4023
  547TMC3    C6 8117   2.821   2.549  17.172  0.5754 -0.2235  0.1550
  547TMC3     C 8118   3.177   2.773  17.180  0.3403  0.0778 -0.3929
  547TMC3     O 8119   3.182   2.878  17.118 -0.2657  0.1383 -0.2575
  547TMC3     H 8120   2.996   2.770  16.994 -2.6575  1.3043 -1.0195
  547TMC3    H1 8121   3.077   2.626  17.381  1.4996  1.5265 -0.8063
  547TMC3    H2 8122   2.726   2.498  17.183  0.4247 -0.4043 -2.1327
  547TMC3    C7 8123   2.884   2.450  17.389  0.0461  0.0343 -0.5535
  547TMC3    C8 8124   2.789   2.629  16.951  0.1078  0.2329  0.2204
  547TMC3    O1 8125   2.933   2.465  17.499  0.6774 -0.3114 -0.1776
  547TMC3    O2 8126   2.796   2.724  16.873 -0.1631 -0.1406  0.8428
  548MPD2     C 8127   3.565   3.533  12.082  0.2985 -0.0999 -0.2083
  548MPD2    C1 8128   3.456   3.454  12.101 -0.3804 -0.4263 -0.1890
  548MPD2    C2 8129   3.478   3.320  12.109  0.0851 -0.1993 -0.7393
  548MPD2    C3 8130   3.606   3.266  12.099  0.5874  0.5348  0.3395
  548MPD2    C4 8131   3.715   3.351  12.074 -0.3751  0.7193 -0.6679
  548MPD2    C5 8132   3.689   3.484  12.072 -0.1985 -0.0297  0.0589
  548MPD2     H 8133   3.397   3.253  12.135  0.1479  0.0739  0.1698
  548MPD2    H1 8134   3.813   3.309  12.053 -0.0919 -0.0655  2.1125
  548MPD2    H2 8135   3.560   3.641  12.094 -0.9713  0.0450 -2.0152
  548MPD2    H3 8136   3.777   3.545  12.058 -0.1067 -0.6469 -2.0796
  548MPD2     N 8137   3.621   3.121  12.100  0.1721 -0.2052  0.1605
  548MPD2    H5 8138   3.541   3.060  12.107 -0.4471  0.3299 -2.3739
  548MPD2    N1 8139   3.324   3.507  12.113  0.0799  0.5157 -0.0529
  548MPD2    H7 8140   3.322   3.608  12.108 -1.2096  0.5628  1.4307
  549TMC3    C1 8141   3.083   3.505  12.130  0.1293  0.3270 -0.0935
  549TMC3    C2 8142   3.082   3.637  12.106 -0.8199  0.4446 -0.3373
  549TMC3    C3 8143   2.962   3.701  12.131  0.3621 -1.0265  0.3751
  549TMC3    C4 8144   2.976   3.432  12.188 -0.1789 -0.4636  0.0123
  549TMC3    C5 8145   2.866   3.503  12.212  0.0045  0.0560  0.1052
  549TMC3    C6 8146   2.852   3.635  12.181 -0.5219 -0.0172  0.3790
  549TMC3     C 8147   3.208   3.428  12.115  0.0916 -0.0932  0.0722
  549TMC3     O 8148   3.192   3.309  12.106 -0.1334 -0.3287 -0.3217
  549TMC3     H 8149   3.169   3.683  12.061 -1.9521  2.1022 -0.8019
  549TMC3    H1 8150   2.983   3.325  12.203  1.3740 -0.3040  0.4163
  549TMC3    H2 8151   2.759   3.691  12.191 -0.2232  0.7225 -0.8605
  549TMC3    C7 8152   2.744   3.431  12.231 -0.2781  0.4124 -0.4228
  549TMC3    C8 8153   2.937   3.822  12.056  0.4642  0.0338  0.3036
  549TMC3    O1 8154   2.640   3.487  12.219 -0.0015  0.3833  0.5361
  549TMC3    O2 8155   2.824   3.848  12.016  0.1438  0.0588  0.2609
  550TMC3    C1 8156   1.838   1.380  12.676  0.0979  0.0940 -0.0519
  550TMC3    C2 8157   1.795   1.479  12.762  0.7031  0.1681  0.3728
  550TMC3    C3 8158   1.726   1.581  12.710  0.6216  0.8032 -0.4616
  550TMC3    C4 8159   1.796   1.374  12.540 -0.2636 -0.7100 -0.1921
  550TMC3    C5 8160   1.712   1.473  12.509 -0.2896  0.0541 -0.0058
  550TMC3    C6 8161   1.678   1.578  12.581 -0.6417  0.6007 -0.0112
  550TMC3     C 8162   1.952   1.311  12.723 -0.2543  0.4466  0.4668
  550TMC3     O 8163   1.973   1.294  12.842  0.3156  0.0576 -0.1045
  550TMC3     H 8164   1.806   1.462  12.869  1.4729  0.5208  0.3504
  550TMC3    H1 8165   1.810   1.289  12.474  1.5406 -1.1904  0.8377
  550TMC3    H2 8166   1.614   1.657  12.544 -0.4683  1.5031  1.5816
  550TMC3    C7 8167   1.620   1.451  12.398 -0.8194  0.3100 -0.4763
  550TMC3    C8 8168   1.632   1.641  12.806 -0.1293  0.3332 -0.3018
  550TMC3    O1 8169   1.509   1.502  12.411  0.0645  0.3406  0.1710
  550TMC3    O2 8170   1.517   1.641  12.763  0.2320  0.3095 -0.1876
  551TMC3    C1 8171   4.165   3.339  13.055 -0.6109  0.1101 -0.1031
  551TMC3    C2 8172   4.288   3.397  13.015 -0.0362 -0.5253  1.1581
  551TMC3    C3 8173   4.330   3.504  13.095  0.1764 -0.5537  0.1870
  551TMC3    C4 8174   4.090   3.372  13.165 -0.2768 -0.2617  0.9389
  551TMC3    C5 8175   4.142   3.476  13.240 -0.4041 -0.2745 -0.0578
  551TMC3    C6 8176   4.261   3.539  13.208 -0.5443 -0.2535 -0.4489
  551TMC3     C 8177   4.092   3.270  12.955  0.4369  0.2940 -0.1803
  551TMC3     O 8178   3.971   3.277  12.964  0.2890 -0.0854 -0.1800
  551TMC3     H 8179   4.342   3.379  12.923 -0.2944  1.0502  0.6960
  551TMC3    H1 8180   3.988   3.336  13.170 -0.8391  1.0487 -0.8142
  551TMC3    H2 8181   4.308   3.600  13.284 -0.9832 -2.0862  1.2996
  551TMC3    C7 8182   4.105   3.480  13.379 -0.2970  0.0860  0.8103
  551TMC3    C8 8183   4.448   3.579  13.070  0.6001 -0.2876  0.4118
  551TMC3    O1 8184   4.174   3.559  13.443 -0.4685  0.1357  0.3915
  551TMC3    O2 8185   4.463   3.678  13.137  0.5585 -0.1912  0.6242
  552MPD2     C 8186   1.378   1.574  13.693  0.0550  0.2500  0.3592
  552MPD2    C1 8187   1.296   1.479  13.745  0.1134  0.2295  0.2550
  552MPD2    C2 8188   1.335   1.420  13.865  0.1416  0.7365 -0.0472
  552MPD2    C3 8189   1.462   1.443  13.920  0.0431 -0.7610 -0.0947
  552MPD2    C4 8190   1.545   1.532  13.857  0.6899 -0.1038  0.6065
  552MPD2    C5 8191   1.498   1.610  13.755  0.2213  0.3052  0.2188
  552MPD2     H 8192   1.265   1.347  13.902 -1.4063  1.8305 -0.7905
  552MPD2    H1 8193   1.632   1.566  13.912  0.0033  1.8748  0.4645
  552MPD2    H2 8194   1.358   1.623  13.599  0.9105 -0.5156 -0.2234
  552MPD2    H3 8195   1.560   1.691  13.718  1.6679 -0.6695  0.5066
  552MPD2     N 8196   1.511   1.394  14.046 -0.0644  0.0562 -0.4718
  552MPD2    H5 8197   1.605   1.427  14.066 -0.6759  1.7726 -0.4413
  552MPD2    N1 8198   1.172   1.448  13.679  0.0951 -0.4959  0.5997
  552MPD2    H7 8199   1.121   1.376  13.730 -2.5690  0.8555 -0.1682
  553TMC3    C1 8200   1.052   1.383  13.494 -0.6650 -0.2126 -0.3588
  553TMC3    C2 8201   1.093   1.335  13.373  0.6071  0.2143  0.6575
  553TMC3    C3 8202   1.065   1.204  13.347  0.3219 -0.0988  0.0528
  553TMC3    C4 8203   1.000   1.298  13.585  0.0636 -0.1654  0.0912
  553TMC3    C5 8204   0.969   1.171  13.557  0.4804 -0.3607  0.2852
  553TMC3    C6 8205   1.002   1.121  13.435  0.5305  0.0935 -0.4509
  553TMC3     C 8206   1.134   1.488  13.555 -0.1174 -0.0992  0.1448
  553TMC3     O 8207   1.179   1.571  13.477  0.3975  0.2208  0.0841
  553TMC3     H 8208   1.139   1.401  13.301  1.2472 -1.2571 -0.2862
  553TMC3    H1 8209   0.961   1.329  13.681  1.5677  0.5346  0.4812
  553TMC3    H2 8210   0.975   1.019  13.411 -3.1304  1.1279 -0.7206
  553TMC3    C7 8211   0.999   1.071  13.663 -0.4846  0.0570 -0.1867
  553TMC3    C8 8212   1.167   1.145  13.266  0.7688  0.6183 -0.6852
  553TMC3    O1 8213   0.946   0.961  13.667 -0.4378  0.2392  0.2296
  553TMC3    O2 8214   1.269   1.213  13.254  0.2053 -0.7265 -0.1277
  554TMC3    C1 8215   3.394   0.053  11.578 -0.3726  0.3678 -0.1507
  554TMC3    C2 8216   3.361   0.002  11.458  0.0549  0.4395 -0.3971
  554TMC3    C3 8217   3.460   4.717  11.365  0.3618  0.0840 -0.9513
  554TMC3    C4 8218   3.506   0.125  11.594 -0.5067  0.5763  0.0610
  554TMC3    C5 8219   3.602   0.116  11.496 -0.2051 -0.4512 -0.2129
  554TMC3    C6 8220   3.583   0.037  11.383 -0.1303  0.1839 -0.3159
  554TMC3     C 8221   3.292   0.035  11.685  0.7616 -0.2409  0.2725
  554TMC3     O 8222   3.177   0.020  11.649 -0.0069 -0.0189  0.5789
  554TMC3     H 8223   3.256   4.704  11.439  0.2751  0.3450 -1.5030
  554TMC3    H1 8224   3.518   0.169  11.692 -0.7337  0.6098  0.0752
  554TMC3    H2 8225   3.660   0.007  11.313 -1.3577  2.6080 -2.7115
  554TMC3    C7 8226   3.668   0.236  11.447 -0.1694  0.0720 -0.1228
  554TMC3    C8 8227   3.430   4.668  11.231 -0.1250  0.3564  1.0356
  554TMC3    O1 8228   3.701   0.231  11.331  0.3120  0.1512  0.0250
  554TMC3    O2 8229   3.492   4.720  11.141 -0.0588  0.0142  0.0661
  555TMC3    C1 8230   2.344   4.241  14.867  0.3016  0.1466 -0.5731
  555TMC3    C2 8231   2.349   4.348  14.949 -0.0954 -0.4841 -0.3462
  555TMC3    C3 8232   2.358   4.330  15.084  1.3667 -0.1726 -0.4282
  555TMC3    C4 8233   2.354   4.113  14.910  0.1990  0.6473  0.3149
  555TMC3    C5 8234   2.359   4.095  15.042 -0.5792 -0.0809 -0.3767
  555TMC3    C6 8235   2.366   4.195  15.138 -0.0593  0.4067 -0.2845
  555TMC3     C 8236   2.380   4.255  14.724 -0.0027 -0.5259  0.1152
  555TMC3     O 8237   2.462   4.179  14.677  0.5429 -0.2272  0.1540
  555TMC3     H 8238   2.347   4.448  14.909  2.4694  0.0793  0.8781
  555TMC3    H1 8239   2.361   4.035  14.835  1.0105  0.4644  0.5892
  555TMC3    H2 8240   2.368   4.162  15.241 -1.0536 -0.4332 -0.5468
  555TMC3    C7 8241   2.352   3.960  15.086  0.2258  0.9263 -0.2723
  555TMC3    C8 8242   2.366   4.443  15.175 -0.3304  0.0610 -0.2783
  555TMC3    O1 8243   2.284   3.943  15.188  0.3497 -0.6846 -0.9403
  555TMC3    O2 8244   2.346   4.555  15.130  0.4365  0.5924 -0.5149
  556MPD2     C 8245   4.635   1.540  10.423  0.4507 -0.0880 -0.3871
  556MPD2    C1 8246   4.664   1.410  10.425 -1.0873 -0.7495 -0.0809
  556MPD2    C2 8247   4.646   1.335  10.310 -0.6120 -0.6485  0.4868
  556MPD2    C3 8248   4.603   1.393  10.193 -0.5796  0.0379 -0.3042
  556MPD2    C4 8249   4.561   1.521  10.199 -0.6498 -0.0365 -0.1607
  556MPD2    C5 8250   4.575   1.596  10.313  0.2325  0.2546 -0.3890
  556MPD2     H 8251   4.688   1.236  10.308  1.7035  0.3462 -0.0833
  556MPD2    H1 8252   4.509   1.566  10.115  0.2292 -0.4833 -0.9437
  556MPD2    H2 8253   4.651   1.610  10.505 -1.8503 -0.0540  0.0485
  556MPD2    H3 8254   4.540   1.699  10.319 -1.2338 -0.2346 -0.4361
  556MPD2     N 8255   4.606   1.318  10.069 -0.5904  0.2705 -0.2033
  556MPD2    H5 8256   4.652   1.227  10.063  1.0129  1.1513 -1.1571
  556MPD2    N1 8257   0.004   1.351  10.535 -0.6831 -0.7883  0.3014
  556MPD2    H7 8258   0.006   1.250  10.522 -3.8095 -0.7337 -0.6473
  557TMC3    C1 8259   4.556   1.263   9.853  0.3357 -0.9405  0.1683
  557TMC3    C2 8260   4.560   1.291   9.717  0.2959 -0.5664 -0.7352
  557TMC3    C3 8261   4.518   1.188   9.638 -0.8497 -1.0686 -0.1710
  557TMC3    C4 8262   4.507   1.142   9.901 -0.5526 -0.2090 -0.2700
  557TMC3    C5 8263   4.497   1.040   9.816 -0.0366  1.1481  0.5676
  557TMC3    C6 8264   4.489   1.063   9.681  0.0626  0.1334 -0.0996
  557TMC3     C 8265   4.573   1.366   9.946 -0.5174  0.6165  0.1978
  557TMC3     O 8266   4.530   1.477   9.905  0.0132  0.1759  0.6900
  557TMC3     H 8267   4.616   1.377   9.683  0.2309 -0.1558  0.1965
  557TMC3    H1 8268   4.507   1.119  10.007  3.3686 -0.8628 -0.4241
  557TMC3    H2 8269   4.470   0.982   9.611 -0.0067  0.5314 -0.5384
  557TMC3    C7 8270   4.508   0.906   9.869  0.1162  0.4702  0.3789
  557TMC3    C8 8271   4.522   1.215   9.498 -0.5639 -0.6734 -0.2042
  557TMC3    O1 8272   4.446   0.872   9.969 -0.3634 -0.3439 -0.0937
  557TMC3    O2 8273   4.603   1.306   9.462 -0.2638  0.0332 -0.3372
  558TMC3    C1 8274   3.100   3.579   9.931 -0.1142 -0.4767 -0.1696
  558TMC3    C2 8275   3.013   3.612  10.032 -0.0061  0.0312 -0.0599
  558TMC3    C3 8276   2.916   3.526  10.072  0.0787  0.3351 -0.2188
  558TMC3    C4 8277   3.102   3.458   9.885  0.1501 -0.8089 -0.2216
  558TMC3    C5 8278   3.005   3.370   9.926  0.0987 -0.6714 -0.1187
  558TMC3    C6 8279   2.909   3.399  10.023 -0.2295  0.0184 -0.3847
  558TMC3     C 8280   3.198   3.669   9.895 -0.1535  0.2192  0.2599
  558TMC3     O 8281   3.203   3.765   9.967 -1.0714 -0.5330 -0.4301
  558TMC3     H 8282   3.015   3.713  10.072 -2.1467  0.4184 -0.9476
  558TMC3    H1 8283   3.180   3.434   9.813  1.2373  0.6475  0.4791
  558TMC3    H2 8284   2.842   3.327  10.070 -0.2476  0.7869  0.7685
  558TMC3    C7 8285   3.004   3.238   9.867 -0.5037 -0.1859  0.6809
  558TMC3    C8 8286   2.831   3.558  10.183  0.0960  0.4647  0.8527
  558TMC3    O1 8287   3.102   3.213   9.797 -0.2388  0.4805 -0.3532
  558TMC3    O2 8288   2.767   3.475  10.245 -0.2265 -0.0712 -0.6187
  559MPD2     C 8289   3.039   4.332  10.344 -0.0168  0.1436  0.2742
  559MPD2    C1 8290   2.975   4.306  10.461 -0.9139 -0.0503 -0.2189
  559MPD2    C2 8291   3.055   4.275  10.572  0.6059  0.0421 -0.3725
  559MPD2    C3 8292   3.192   4.287  10.566 -0.1551 -0.0194 -0.3235
  559MPD2    C4 8293   3.254   4.313  10.448  0.1097  0.2369  0.0786
  559MPD2    C5 8294   3.176   4.341  10.337  0.0214 -0.0041 -0.4867
  559MPD2     H 8295   3.001   4.259  10.664 -1.0871 -1.0607 -1.5715
  559MPD2    H1 8296   3.358   4.340  10.437  0.2527  0.1197  1.1531
  559MPD2    H2 8297   2.985   4.346  10.251  1.2054  1.3545 -0.2551
  559MPD2    H3 8298   3.235   4.369  10.251  1.1103 -2.3599 -0.5116
  559MPD2     N 8299   3.257   4.254  10.679 -0.1571 -0.3069  0.0279
  559MPD2    H5 8300   3.199   4.229  10.758 -1.6145 -1.2324 -1.3445
  559MPD2    N1 8301   2.836   4.320  10.490 -0.7414 -0.0233 -0.1224
  559MPD2    H7 8302   2.819   4.318  10.590  0.0357 -1.8418 -0.0241
  560TMC3    C1 8303   3.413   4.195  10.836 -0.0778  0.0010 -0.1208
  560TMC3    C2 8304   3.314   4.104  10.876  0.6692  0.1807 -0.3863
  560TMC3    C3 8305   3.296   4.094  11.006 -0.4265 -0.0661  0.5447
  560TMC3    C4 8306   3.500   4.255  10.926 -0.2899  0.7597 -0.6019
  560TMC3    C5 8307   3.471   4.238  11.060 -0.8344  0.4201 -0.1570
  560TMC3    C6 8308   3.368   4.163  11.101  0.3181  0.3544  0.8095
  560TMC3     C 8309   3.390   4.256  10.705  0.3472  1.0082 -0.3832
  560TMC3     O 8310   3.471   4.335  10.655  0.1382  0.2585 -0.5943
  560TMC3     H 8311   3.260   4.045  10.803  1.0572 -0.6583  0.0064
  560TMC3    H1 8312   3.560   4.342  10.902 -1.1492  1.7522  0.8752
  560TMC3    H2 8313   3.329   4.164  11.202  1.7752 -0.7975  1.3874
  560TMC3    C7 8314   3.567   4.257  11.162  0.5185 -0.3401 -0.2014
  560TMC3    C8 8315   3.179   4.023  11.051  0.1382 -0.0320  0.8641
  560TMC3    O1 8316   3.585   4.163  11.239  0.0559  0.2416  0.0502
  560TMC3    O2 8317   3.103   4.009  10.958 -0.1193  0.3781 -0.1105
  561TMC3    C1 8318   1.195   3.386  11.549 -0.2795 -0.3457 -0.0751
  561TMC3    C2 8319   1.099   3.305  11.606  0.5578 -0.4104 -0.7212
  561TMC3    C3 8320   1.012   3.363  11.699 -0.1784  0.1979  0.6182
  561TMC3    C4 8321   1.211   3.514  11.579 -0.1789  0.5710 -0.6279
  561TMC3    C5 8322   1.129   3.564  11.680  0.1297  0.4062 -0.1724
  561TMC3    C6 8323   1.031   3.488  11.743 -0.3959 -0.4725 -0.1644
  561TMC3     C 8324   1.295   3.329  11.456  0.8681 -0.4661 -0.0472
  561TMC3     O 8325   1.387   3.395  11.416 -0.4364  0.3626 -0.4798
  561TMC3     H 8326   1.104   3.198  11.590 -0.4502 -0.5668  0.0931
  561TMC3    H1 8327   1.293   3.577  11.548 -0.3275  1.0845  0.0278
  561TMC3    H2 8328   0.975   3.543  11.819  2.6317  1.0976  0.9442
  561TMC3    C7 8329   1.121   3.701  11.698  0.5004 -0.4453  0.5366
  561TMC3    C8 8330   0.929   3.277  11.776  0.3435  0.0986  0.2207
  561TMC3    O1 8331   1.099   3.747  11.815 -0.3356  0.1638  0.5550
  561TMC3    O2 8332   0.942   3.161  11.766  0.0418  0.6835 -0.4741
  562TMC3    C1 8333   1.960   0.278  15.936  0.2689 -0.1531  0.1502
  562TMC3    C2 8334   1.838   0.337  15.921  0.3552 -0.0304 -0.7593
  562TMC3    C3 8335   1.782   0.320  15.795  1.4389  0.8131 -0.6309
  562TMC3    C4 8336   2.005   0.186  15.852 -0.5443 -0.4652  0.8088
  562TMC3    C5 8337   1.940   0.165  15.738 -0.7583  0.5524  0.0533
  562TMC3    C6 8338   1.824   0.234  15.700 -0.5274 -0.5329  0.3500
  562TMC3     C 8339   2.014   0.262  16.070 -0.2715  0.3716  0.6674
  562TMC3     O 8340   2.065   0.156  16.093 -0.3605  0.2201 -0.0891
  562TMC3     H 8341   1.790   0.399  15.996 -0.1011 -0.0116 -1.0644
  562TMC3    H1 8342   2.100   0.134  15.861 -0.5179 -0.5596 -0.0482
  562TMC3    H2 8343   1.781   0.209  15.604  0.1284 -0.8036  0.1254
  562TMC3    C7 8344   1.966   0.044  15.658  0.0554  0.0671  0.3167
  562TMC3    C8 8345   1.633   0.338  15.787  0.2268  0.0540  0.7134
  562TMC3    O1 8346   1.946   0.051  15.540 -0.2625  0.2723 -0.4659
  562TMC3    O2 8347   1.577   0.366  15.894  0.0370 -0.5769  0.2947
  563MPD2     C 8348   4.340   0.862  15.607 -0.3451  0.2303 -1.2441
  563MPD2    C1 8349   4.343   0.997  15.625  0.2871 -1.1787 -0.3738
  563MPD2    C2 8350   4.458   1.050  15.690  0.6453  0.6408  0.0306
  563MPD2    C3 8351   4.552   0.967  15.743 -0.5414  0.5222 -0.9570
  563MPD2    C4 8352   4.541   0.828  15.729  0.4269 -0.5729  0.0481
  563MPD2    C5 8353   4.443   0.780  15.651 -0.9924 -0.4440 -0.3306
  563MPD2     H 8354   4.466   1.155  15.716 -0.8819  1.1436 -1.5058
  563MPD2    H1 8355   4.591   0.748  15.783 -2.6350 -2.0318  0.6756
  563MPD2    H2 8356   4.256   0.825  15.548  1.0601 -2.0143 -1.8449
  563MPD2    H3 8357   4.422   0.680  15.616 -0.7924 -1.3110  2.0336
  563MPD2     N 8358   4.641   1.022  15.837  0.2622  0.1476  0.3449
  563MPD2    H5 8359   4.631   1.119  15.866  1.4256  0.2450  0.4344
  563MPD2    N1 8360   4.230   1.066  15.608  0.3663 -0.1012  0.2879
  563MPD2    H7 8361   4.156   1.011  15.567 -1.6205  1.8481  1.2787
  564TMC3    C1 8362   4.140   1.162  15.781  0.5221  0.3071 -0.5077
  564TMC3    C2 8363   4.045   1.061  15.775  0.6786  0.8663 -0.3216
  564TMC3    C3 8364   4.012   0.999  15.892 -0.6150 -0.2031 -0.3550
  564TMC3    C4 8365   4.209   1.195  15.893 -0.1113  0.0010  0.4617
  564TMC3    C5 8366   4.185   1.121  16.009  0.4341 -0.4611 -0.6033
  564TMC3    C6 8367   4.071   1.039  16.011  0.0785 -0.3660  0.8478
  564TMC3     C 8368   4.211   1.193  15.660 -0.5557 -0.0478  0.6274
  564TMC3     O 8369   4.289   1.285  15.657  0.0305  0.3157  0.2196
  564TMC3     H 8370   3.992   1.045  15.683  1.1412 -1.5481 -0.1634
  564TMC3    H1 8371   4.297   1.258  15.887  0.5220 -1.0155 -0.7198
  564TMC3    H2 8372   4.042   0.990  16.103 -3.0441  0.2483  0.2031
  564TMC3    C7 8373   4.304   1.047  16.048  0.6716  0.3607 -1.0284
  564TMC3    C8 8374   3.959   0.864  15.892 -0.3640  0.1733  0.1710
  564TMC3    O1 8375   4.409   1.109  16.071  0.4063 -0.0694 -0.3517
  564TMC3    O2 8376   3.943   0.821  16.008  0.0999  0.2837 -0.2497
  565TMC3    C1 8377   0.088   2.886   9.677  0.5866  0.3721 -0.2262
  565TMC3    C2 8378   0.079   2.845   9.808  0.7157 -0.2442  0.3623
  565TMC3    C3 8379   4.678   2.788   9.847 -0.0490 -0.5367 -0.3076
  565TMC3    C4 8380   4.715   2.868   9.589 -0.7686 -0.1363  0.5254
  565TMC3    C5 8381   4.596   2.810   9.630 -0.3010 -1.1269  0.2241
  565TMC3    C6 8382   4.574   2.768   9.759 -0.6419  0.4281 -0.3306
  565TMC3     C 8383   0.199   2.957   9.633  1.1349 -0.3212 -0.5461
  565TMC3     O 8384   0.248   3.039   9.709  0.5497 -0.3834 -0.4328
  565TMC3     H 8385   0.165   2.858   9.873 -1.9534  1.8762  3.4818
  565TMC3    H1 8386   0.001   2.930   9.501 -1.6208 -0.2201  0.3687
  565TMC3    H2 8387   4.471   2.777   9.791 -0.7565  0.6091 -0.7403
  565TMC3    C7 8388   4.480   2.817   9.537  0.8496 -0.3278  0.0738
  565TMC3    C8 8389   4.662   2.731   9.980  0.0360  0.1943  0.4425
  565TMC3    O1 8390   4.494   2.900   9.450  0.5159 -0.3591  0.0465
  565TMC3    O2 8391   0.016   2.768  10.068 -0.3342 -0.3081 -0.0273
  566MPD2     C 8392   1.544   3.979  14.144  0.5507  0.9965 -0.4311
  566MPD2    C1 8393   1.585   4.103  14.106  0.1259  0.1644 -0.2076
  566MPD2    C2 8394   1.490   4.200  14.071  0.4625  0.1363 -1.0028
  566MPD2    C3 8395   1.356   4.166  14.064  0.2984 -0.5890 -0.7293
  566MPD2    C4 8396   1.315   4.044  14.098  0.0659  0.2164  0.7729
  566MPD2    C5 8397   1.414   3.954  14.127  0.4818  0.9198  1.1028
  566MPD2     H 8398   1.523   4.302  14.055  0.9532  0.1171 -0.0955
  566MPD2    H1 8399   1.212   4.013  14.087  0.5487 -1.7595  1.7656
  566MPD2    H2 8400   1.616   3.903  14.173 -1.1228 -0.5247 -0.3103
  566MPD2    H3 8401   1.382   3.851  14.137 -0.7265  1.2198  0.2734
  566MPD2     N 8402   1.261   4.262  14.021  0.1313  0.0965  0.4563
  566MPD2    H5 8403   1.166   4.230  14.039  0.1088  1.2669  2.4010
  566MPD2    N1 8404   1.725   4.123  14.112 -0.0800 -0.6369  0.1253
  566MPD2    H7 8405   1.783   4.042  14.128  0.2700 -0.6411 -1.1960
  567TMC3    C1 8406   1.941   4.237  14.111  0.4496  0.2742  0.0369
  567TMC3    C2 8407   2.011   4.329  14.048  0.0709  0.6529 -0.2744
  567TMC3    C3 8408   2.150   4.337  14.067 -0.0040 -1.3642  0.5128
  567TMC3    C4 8409   1.993   4.143  14.197  0.1578 -0.2463  0.4365
  567TMC3    C5 8410   2.128   4.159  14.220 -0.3035  0.0173 -0.2972
  567TMC3    C6 8411   2.211   4.248  14.156  0.2886 -0.4599  0.2852
  567TMC3     C 8412   1.786   4.246  14.101 -0.5273  0.9370 -0.0516
  567TMC3     O 8413   1.744   4.349  14.054  0.5111 -0.0863  0.2899
  567TMC3     H 8414   1.962   4.388  13.972 -0.3002 -1.4524 -1.6578
  567TMC3    H1 8415   1.931   4.073  14.253  1.3594 -0.5818  1.3335
  567TMC3    H2 8416   2.309   4.260  14.200 -0.1605 -0.2000  1.2102
  567TMC3    C7 8417   2.187   4.117  14.351 -0.3829 -0.0610 -0.0452
  567TMC3    C8 8418   2.222   4.445  14.001 -0.1201 -0.0711  0.6081
  567TMC3    O1 8419   2.304   4.080  14.352 -0.4558 -0.1146  0.1471
  567TMC3    O2 8420   2.162   4.551  13.974 -0.1548  0.5872 -0.3266
  568MPD2     C 8421   3.842   4.568  16.798 -0.4009  0.9860  0.0042
  568MPD2    C1 8422   3.975   4.592  16.812 -0.8637 -0.2492 -0.1310
  568MPD2    C2 8423   4.042   4.674  16.717  0.1200 -0.4843 -0.0896
  568MPD2    C3 8424   3.970   4.723  16.608  0.0566  0.2846  0.3833
  568MPD2    C4 8425   3.838   4.682  16.589  1.1459 -0.1755 -0.0317
  568MPD2    C5 8426   3.780   4.604  16.681  0.9367 -0.2116 -0.1040
  568MPD2     H 8427   4.147   4.701  16.727  1.0092 -3.4420 -1.0740
  568MPD2    H1 8428   3.779   4.708  16.501  0.7715 -0.3897  0.1555
  568MPD2    H2 8429   3.782   4.514  16.870 -0.8653  0.7144 -0.5870
  568MPD2    H3 8430   3.673   4.594  16.671  0.9437 -1.2904  0.8349
  568MPD2     N 8431   4.037   0.084  16.517 -0.1614 -0.4869 -0.1004
  568MPD2    H5 8432   4.133   0.099  16.546 -0.7810 -1.4877  2.4637
  568MPD2    N1 8433   4.039   4.533  16.925  0.5916  0.1990  0.0203
  568MPD2    H7 8434   3.981   4.498  17.001  1.7650 -0.9513  0.3737
  569TMC3    C1 8435   4.093   0.197  16.324  0.6026 -0.2118  0.1868
  569TMC3    C2 8436   4.133   0.313  16.377  0.8871  0.4555  0.2774
  569TMC3    C3 8437   4.216   0.372  16.289  0.7102  0.1008  0.2233
  569TMC3    C4 8438   4.107   0.160  16.195 -0.1155 -0.3390  0.1587
  569TMC3    C5 8439   4.186   0.225  16.110  0.7453  0.3995  0.7287
  569TMC3    C6 8440   4.247   0.333  16.163  0.6504  0.6922  0.3108
  569TMC3     C 8441   3.992   0.120  16.393 -0.4516 -0.5300 -0.6087
  569TMC3     O 8442   3.890   0.095  16.336 -0.7804  0.4097 -0.2137
  569TMC3     H 8443   4.098   0.363  16.467 -0.2618 -1.4310  0.8704
  569TMC3    H1 8444   4.070   0.063  16.161 -2.7640  0.1302  1.7260
  569TMC3    H2 8445   4.333   0.377  16.113  0.5354  0.7665  0.1770
  569TMC3    C7 8446   4.126   0.259  15.983 -0.4980 -0.1108 -0.1817
  569TMC3    C8 8447   4.201   0.510  16.291 -0.5352  0.2668  0.0892
  569TMC3    O1 8448   4.122   0.177  15.889  0.1994  0.0204  0.1170
  569TMC3    O2 8449   4.134   0.554  16.195 -0.3516  0.3436 -0.1806
  570TMC3    C1 8450   3.410   3.478  15.990  0.5220  0.1774  0.0433
  570TMC3    C2 8451   3.509   3.471  15.893  0.2227  0.2698 -0.6679
  570TMC3    C3 8452   3.515   3.569  15.800 -0.5355 -0.3519  0.0870
  570TMC3    C4 8453   3.327   3.584  16.004  0.0195 -0.8446 -0.2275
  570TMC3    C5 8454   3.340   3.688  15.907  0.3199 -0.2053 -0.0852
  570TMC3    C6 8455   3.422   3.665  15.802 -0.1959  0.4254  0.2491
  570TMC3     C 8456   3.411   3.374  16.090 -0.6588  0.4142 -0.0217
  570TMC3     O 8457   3.450   3.261  16.063  0.1859 -0.2187 -0.1662
  570TMC3     H 8458   3.584   3.393  15.886  1.2873  1.2261 -0.1767
  570TMC3    H1 8459   3.247   3.606  16.074  0.3230  0.9786 -0.4381
  570TMC3    H2 8460   3.428   3.736  15.720  1.0556 -0.9904 -0.8821
  570TMC3    C7 8461   3.343   3.819  15.971 -0.4196 -0.1754  0.2037
  570TMC3    C8 8462   3.642   3.612  15.741 -0.7086  0.3295 -0.0602
  570TMC3    O1 8463   3.355   3.809  16.094  0.6791  0.2501  0.4173
  570TMC3    O2 8464   3.644   3.707  15.663  0.0693 -0.2957  0.1145
  571MPD2     C 8465   2.496   0.949   0.055  0.9655 -0.8187  0.2956
  571MPD2    C1 8466   2.371   0.894   0.041 -0.0570 -0.1288  0.4727
  571MPD2    C2 8467   2.290   0.895   0.154 -0.9503  0.4564 -0.0384
  571MPD2    C3 8468   2.326   0.959   0.270 -0.2325  0.0992 -0.3162
  571MPD2    C4 8469   2.449   1.021   0.278 -0.0199 -0.4164 -0.2746
  571MPD2    C5 8470   2.535   1.014   0.176  0.2263 -0.1283 -0.1721
  571MPD2     H 8471   2.191   0.851   0.153 -0.3664 -0.8739  1.1385
  571MPD2    H1 8472   2.479   1.086   0.360 -2.5084 -1.9168  1.8424
  571MPD2    H2 8473   2.569   0.927  17.676 -0.9856  0.1204 -1.8361
  571MPD2    H3 8474   2.635   1.056   0.175  0.7641 -1.4232 -0.8170
  571MPD2     N 8475   2.232   0.995   0.370 -0.3681  0.1524  0.5897
  571MPD2    H5 8476   2.270   1.047   0.449  0.0558  1.0255 -0.1923
  571MPD2    N1 8477   2.335   0.831  17.621 -0.5538  0.0898 -0.5763
  571MPD2    H7 8478   2.410   0.828  17.553 -0.4185 -2.3713 -0.3257
  572TMC3    C1 8479   2.020   0.996   0.484  0.0633  0.6170  0.2545
  572TMC3    C2 8480   1.918   0.923   0.532 -0.1948 -0.0518  0.2629
  572TMC3    C3 8481   1.837   1.003   0.608 -0.6373 -0.5885 -0.7342
  572TMC3    C4 8482   2.043   1.128   0.512 -0.1880  0.5520  0.0270
  572TMC3    C5 8483   1.955   1.201   0.589 -0.3971  0.2200  0.4813
  572TMC3    C6 8484   1.847   1.138   0.644 -0.3703  0.0720  0.1858
  572TMC3     C 8485   2.107   0.934   0.388 -0.7113  0.3831  0.6521
  572TMC3     O 8486   2.064   0.830   0.336  0.0558  0.5555  0.2250
  572TMC3     H 8487   1.882   0.837   0.477  0.6638 -0.0418 -0.3133
  572TMC3    H1 8488   2.130   1.180   0.474 -0.2741  0.2949 -0.5189
  572TMC3    H2 8489   1.771   1.182   0.706  0.9566  0.8542  1.2417
  572TMC3    C7 8490   1.922   1.328   0.522 -0.3707 -0.7121 -0.0604
  572TMC3    C8 8491   1.701   0.954   0.599 -0.0009 -0.5876 -0.2117
  572TMC3    O1 8492   1.973   1.343   0.409  0.2705 -0.4468  0.1386
  572TMC3    O2 8493   1.690   0.832   0.607  0.3350 -0.4410 -0.1503
  573MPD2     C 8494   2.306   1.347   0.372 -0.5607 -0.3086  0.0704
  573MPD2    C1 8495   2.441   1.349   0.375  0.9096  0.2593 -0.3343
  573MPD2    C2 8496   2.515   1.356   0.255 -0.2051  0.3847 -0.2133
  573MPD2    C3 8497   2.452   1.341   0.130  0.3117 -0.1308 -0.4597
  573MPD2    C4 8498   2.315   1.349   0.131 -0.3442  0.7052 -0.1087
  573MPD2    C5 8499   2.244   1.350   0.251  0.1208 -0.2418  0.0991
  573MPD2     H 8500   2.624   1.355   0.263 -0.1953 -0.6215 -0.5820
  573MPD2    H1 8501   2.258   1.351   0.038  1.2870 -2.0729 -1.1578
  573MPD2    H2 8502   2.253   1.361   0.465 -1.8768  0.0997 -0.7374
  573MPD2    H3 8503   2.136   1.361   0.249  0.2678  1.0879  0.0049
  573MPD2     N 8504   2.510   1.324   0.012  0.6320  0.1435  0.3657
  573MPD2    H5 8505   2.443   1.302  17.638  2.1227 -1.0414 -0.6664
  573MPD2    N1 8506   2.503   1.341   0.510  0.5554 -0.2712 -1.0795
  573MPD2    H7 8507   2.432   1.338   0.582  0.9290  0.2871 -0.6848
  574TMC3    C1 8508   2.688   1.344  17.550 -0.3031  0.4642 -0.5517
  574TMC3    C2 8509   2.598   1.337  17.448  0.0268 -0.5845 -0.2469
  574TMC3    C3 8510   2.650   1.352  17.319  0.3130 -0.0858 -0.0687
  574TMC3    C4 8511   2.814   1.372  17.529  0.1831  0.4855  0.0533
  574TMC3    C5 8512   2.861   1.386  17.405  0.3424 -0.2589 -0.1153
  574TMC3    C6 8513   2.781   1.376  17.293 -0.1327  0.5334 -0.0652
  574TMC3     C 8514   2.644   1.349  17.693  0.6084 -0.9817  0.0813
  574TMC3     O 8515   2.735   1.361   0.074 -0.1809 -1.0755  0.2218
  574TMC3     H 8516   2.499   1.297  17.467  0.3352 -0.9330  0.6180
  574TMC3    H1 8517   2.887   1.386  17.608 -0.3868 -0.7954  0.8180
  574TMC3    H2 8518   2.825   1.379  17.194 -1.1186  0.9858 -0.4892
  574TMC3    C7 8519   2.995   1.443  17.387 -0.1873  0.2782  0.7318
  574TMC3    C8 8520   2.555   1.354  17.221 -0.5103 -0.0098 -0.0059
  574TMC3    O1 8521   3.074   1.414  17.477  0.2476  0.1737  0.3642
  574TMC3    O2 8522   2.440   1.360  17.257  0.6250  0.0089  0.6858
  575TMC3    C1 8523   0.129   2.470  10.801 -0.3126  0.6137 -0.1724
  575TMC3    C2 8524   0.170   2.340  10.819 -0.3453 -0.5976  0.3050
  575TMC3    C3 8525   0.136   2.252  10.722 -0.4646 -0.1872  0.2930
  575TMC3    C4 8526   0.094   2.517  10.680  0.5759  0.2240 -0.8896
  575TMC3    C5 8527   0.064   2.427  10.581 -0.1597 -0.0184 -0.2235
  575TMC3    C6 8528   0.069   2.288  10.602 -0.4477 -0.8081  0.1804
  575TMC3     C 8529   0.117   2.552  10.921 -0.3198  0.1555  0.2037
  575TMC3     O 8530   0.109   2.496  11.027  0.0864  0.2746  0.4637
  575TMC3     H 8531   0.222   2.319  10.912  0.9065 -0.3430 -0.3389
  575TMC3    H1 8532   0.077   2.622  10.656 -0.9019 -0.0195 -0.9442
  575TMC3    H2 8533   0.060   2.216  10.522  0.5221 -1.4034  0.6133
  575TMC3    C7 8534   0.007   2.483  10.456 -0.2149 -0.6265 -0.6278
  575TMC3    C8 8535   0.142   2.108  10.747 -0.6110 -1.1784  1.2677
  575TMC3    O1 8536   0.050   2.590  10.425  0.7871  0.1043 -0.1288
  575TMC3    O2 8537   0.065   2.036  10.681 -0.6698  0.8901 -0.7188
  576MPD2     C 8538   4.413   3.425  12.433  0.6206 -0.8944  0.0944
  576MPD2    C1 8539   4.507   3.520  12.400  0.1179 -0.5991 -0.2129
  576MPD2    C2 8540   4.522   3.629  12.485 -0.4395 -0.6904 -0.4148
  576MPD2    C3 8541   4.437   3.636  12.592  0.7689 -0.0213 -0.6408
  576MPD2    C4 8542   4.335   3.539  12.617  0.5306  0.3977 -0.2280
  576MPD2    C5 8543   4.335   3.434  12.539 -0.4653 -0.8772 -0.3687
  576MPD2     H 8544   4.595   3.705  12.461 -1.1593  0.3647  0.7291
  576MPD2    H1 8545   4.261   3.534  12.696  1.6281  0.1878  0.7887
  576MPD2    H2 8546   4.393   3.342  12.365  0.4056  0.1546 -1.1347
  576MPD2    H3 8547   4.266   3.354  12.566  1.6971 -2.1053  1.4748
  576MPD2     N 8548   4.455   3.747  12.679  0.2622 -0.6989  0.7337
  576MPD2    H5 8549   4.538   3.802  12.658  0.6300 -1.5953 -0.1603
  576MPD2    N1 8550   4.592   3.509  12.289  0.3623  0.0078  0.4085
  576MPD2    H7 8551   4.666   3.579  12.294  0.6036 -0.2482  0.4168
  577TMC3    C1 8552   4.703   3.433  12.102 -0.1284 -0.1162  0.5076
  577TMC3    C2 8553   0.095   3.469  12.156 -0.9885 -0.1551  0.7955
  577TMC3    C3 8554   0.199   3.499  12.075  0.3246 -0.0416 -0.0556
  577TMC3    C4 8555   4.682   3.427  11.965  0.9025 -0.3861  0.1569
  577TMC3    C5 8556   0.063   3.458  11.888  0.2694  0.2387 -0.6679
  577TMC3    C6 8557   0.188   3.476  11.941  0.0033  0.3902 -0.0250
  577TMC3     C 8558   4.584   3.426  12.188 -0.3242 -0.6016 -0.3761
  577TMC3     O 8559   4.508   3.333  12.167  0.0527  0.1740  0.7052
  577TMC3     H 8560   0.106   3.459  12.263 -1.6073 -2.0897  0.6746
  577TMC3    H1 8561   4.581   3.435  11.929  0.2508 -1.5234  1.6906
  577TMC3    H2 8562   0.260   3.519  11.872  0.4827 -1.7342 -0.8601
  577TMC3    C7 8563   0.058   3.470  11.746 -0.0576 -0.4337 -0.1799
  577TMC3    C8 8564   0.313   3.427  12.125  0.2068  0.1732 -0.2853
  577TMC3    O1 8565   0.148   3.429  11.675 -0.2267 -0.2619 -0.3043
  577TMC3    O2 8566   0.293   3.348  12.217 -0.6054  0.6358  0.2928
  578MPD2     C 8567   2.819   3.275   1.225 -0.4078  0.0899  0.0063
  578MPD2    C1 8568   2.878   3.350   1.121  0.1222  0.4767 -0.2745
  578MPD2    C2 8569   3.017   3.340   1.107  0.0397 -0.1884  0.3939
  578MPD2    C3 8570   3.093   3.267   1.201  0.0079 -0.0449  0.0490
  578MPD2    C4 8571   3.039   3.213   1.308 -0.5202 -0.0248 -0.7638
  578MPD2    C5 8572   2.903   3.216   1.315  0.4043 -0.2909 -0.3375
  578MPD2     H 8573   3.065   3.403   1.033  2.0257 -2.3818 -0.2060
  578MPD2    H1 8574   3.088   3.148   1.378 -0.6130  1.5599  0.7641
  578MPD2    H2 8575   2.712   3.280   1.239 -0.5557  1.5974 -1.7748
  578MPD2    H3 8576   2.860   3.153   1.392  1.2752 -1.4096 -0.7627
  578MPD2     N 8577   3.235   3.247   1.171 -1.0442 -0.1492  0.3314
  578MPD2    H5 8578   3.257   3.283   1.078  1.9927  0.8787  1.4795
  578MPD2    N1 8579   2.794   3.425   1.030 -0.3187  0.0958 -0.2706
  578MPD2    H7 8580   2.695   3.408   1.044  0.2687 -0.9904  2.5578
  579TMC3    C1 8581   3.462   3.170   1.196  0.2327  0.0076  0.6191
  579TMC3    C2 8582   3.570   3.157   1.286 -0.5312 -0.2535  0.1364
  579TMC3    C3 8583   3.696   3.161   1.230 -0.5754 -0.7072 -0.0616
  579TMC3    C4 8584   3.481   3.163   1.059  0.1838  1.0020  0.6436
  579TMC3    C5 8585   3.613   3.149   1.010 -0.6403  0.0781 -0.1368
  579TMC3    C6 8586   3.720   3.150   1.099 -0.0635 -0.4049 -0.2795
  579TMC3     C 8587   3.327   3.187   1.256  0.3562 -0.8975  0.3654
  579TMC3     O 8588   3.320   3.169   1.378 -0.0351 -0.3267  0.0592
  579TMC3     H 8589   3.547   3.174   1.390  1.7703 -0.3591  0.6560
  579TMC3    H1 8590   3.392   3.156   0.996 -0.2366 -1.1482  1.4775
  579TMC3    H2 8591   3.821   3.135   1.061  0.7484  3.4005  0.3937
  579TMC3    C7 8592   3.642   3.148   0.867  0.2222 -0.9049 -0.3260
  579TMC3    C8 8593   3.808   3.190   1.321 -0.8626  0.1841 -0.2297
  579TMC3    O1 8594   3.757   3.179   0.838  0.0407  0.2299 -0.1059
  579TMC3    O2 8595   3.791   3.164   1.441  0.1744  0.3961 -0.0780
  580TMC3    C1 8596   2.033   2.639  11.718  0.3464  0.0980 -0.7072
  580TMC3    C2 8597   2.119   2.694  11.624  0.1567 -0.6932 -0.7112
  580TMC3    C3 8598   2.234   2.630  11.601  0.3003  0.2609  0.2911
  580TMC3    C4 8599   2.066   2.523  11.780  0.6120 -0.4139  0.4495
  580TMC3    C5 8600   2.190   2.466  11.752 -0.3282  0.2193 -0.3974
  580TMC3    C6 8601   2.271   2.520  11.664  0.6777 -0.3083  0.7754
  580TMC3     C 8602   1.986   2.740  11.817  0.3467 -0.1588  0.2595
  580TMC3     O 8603   1.966   2.700  11.933  0.0694  0.2438 -0.0428
  580TMC3     H 8604   2.099   2.775  11.555 -0.4493  1.1557  1.6152
  580TMC3    H1 8605   1.995   2.482  11.851  1.7446 -0.7565  1.3780
  580TMC3    H2 8606   2.353   2.462  11.625 -0.2579 -1.9642  1.2459
  580TMC3    C7 8607   2.252   2.422  11.875  0.3046 -0.4326  0.2244
  580TMC3    C8 8608   2.341   2.716  11.587  0.1947 -0.8203  0.3593
  580TMC3    O1 8609   2.242   2.501  11.971  0.2242  0.4053 -0.1182
  580TMC3    O2 8610   2.427   2.704  11.503  0.0519  0.7039  0.2156
  581MPD2     C 8611   0.700   2.413  14.431 -0.1758 -0.5974 -1.2214
  581MPD2    C1 8612   0.610   2.384  14.528 -0.3041 -0.0567  0.6578
  581MPD2    C2 8613   0.478   2.423  14.498 -0.0500 -0.3676  0.3750
  581MPD2    C3 8614   0.440   2.490  14.381 -0.5523 -0.2482  0.0449
  581MPD2    C4 8615   0.537   2.510  14.285 -0.4680 -1.0281 -0.8994
  581MPD2    C5 8616   0.667   2.486  14.322  0.2928  0.3188  0.1270
  581MPD2     H 8617   0.402   2.409  14.573 -0.4057 -0.3287  0.0207
  581MPD2    H1 8618   0.514   2.544  14.185 -0.4624 -0.5934 -0.7548
  581MPD2    H2 8619   0.803   2.392  14.456 -0.8525 -2.2216  0.1943
  581MPD2    H3 8620   0.740   2.493  14.243 -2.2146 -0.7496 -2.3004
  581MPD2     N 8621   0.301   2.521  14.354  0.3391 -0.1391 -0.5363
  581MPD2    H5 8622   0.232   2.488  14.421 -0.5486  0.9345 -0.9182
  581MPD2    N1 8623   0.654   2.326  14.652  0.6256 -0.2609 -0.6184
  581MPD2    H7 8624   0.754   2.319  14.669  0.4827 -0.2917  0.2277
  582TMC3    C1 8625   0.641   2.212  14.858 -0.2776 -0.5455 -1.0384
  582TMC3    C2 8626   0.755   2.260  14.922 -0.3463  0.3357  0.2770
  582TMC3    C3 8627   0.798   2.211  15.041  0.2866 -0.1897 -0.3711
  582TMC3    C4 8628   0.564   2.119  14.929  0.4209 -0.2068  0.1674
  582TMC3    C5 8629   0.612   2.074  15.052  0.0932 -0.2857 -0.3967
  582TMC3    C6 8630   0.735   2.103  15.098 -0.3138  0.1418 -0.7187
  582TMC3     C 8631   0.568   2.267  14.747 -0.9708 -0.2810  0.1680
  582TMC3     O 8632   0.455   2.234  14.733 -0.7720  0.5400 -0.2438
  582TMC3     H 8633   0.798   2.349  14.876 -2.5434  1.9475  1.3231
  582TMC3    H1 8634   0.470   2.079  14.894  0.8484 -0.1808 -1.0180
  582TMC3    H2 8635   0.762   2.058  15.193 -3.4354 -1.4791 -0.6066
  582TMC3    C7 8636   0.507   2.070  15.151 -0.6217  0.1779 -0.8920
  582TMC3    C8 8637   0.814   2.314  15.141  1.0402 -0.4006 -0.2565
  582TMC3    O1 8638   0.501   1.974  15.228 -0.2634 -0.0064  0.0042
  582TMC3    O2 8639   0.706   2.368  15.168 -0.1409  0.6473 -0.1308
  583MPD2     C 8640   0.500   4.317  16.588  0.5263 -0.4657  0.1280
  583MPD2    C1 8641   0.518   4.441  16.532 -0.0116  0.1054  0.1128
  583MPD2    C2 8642   0.503   4.558  16.606  0.3655  0.7505 -0.1031
  583MPD2    C3 8643   0.457   4.548  16.738  0.0442  0.3879 -0.1385
  583MPD2    C4 8644   0.418   4.419  16.786 -0.5393  0.6298 -0.5221
  583MPD2    C5 8645   0.437   4.308  16.710  0.2461 -0.0072 -0.5259
  583MPD2     H 8646   0.538   4.654  16.570  1.9962 -0.1677 -0.9866
  583MPD2    H1 8647   0.367   4.407  16.880 -2.6708 -0.5292 -1.8258
  583MPD2    H2 8648   0.528   4.224  16.539  3.0410 -0.5204  1.6550
  583MPD2    H3 8649   0.417   4.208  16.748 -1.1146  1.1160  1.6932
  583MPD2     N 8650   0.456   4.666  16.811  0.1359  0.2168 -0.2818
  583MPD2    H5 8651   0.477   0.024  16.756  2.6459 -0.0366  0.3091
  583MPD2    N1 8652   0.573   4.458  16.405  0.0523 -0.4369  0.4955
  583MPD2    H7 8653   0.596   4.555  16.387 -1.5862 -0.6166 -2.5412
  584TMC3    C1 8654   0.462   0.093  16.991 -0.4279 -0.2107  0.3313
  584TMC3    C2 8655   0.409   0.198  16.923 -0.1560  0.7712  0.8403
  584TMC3    C3 8656   0.430   0.322  16.980 -0.1789  0.3771  0.4565
  584TMC3    C4 8657   0.526   0.115  17.108  0.4607  0.3339  0.1574
  584TMC3    C5 8658   0.552   0.241  17.162  0.0320 -1.1314  0.4955
  584TMC3    C6 8659   0.505   0.351  17.094 -0.4699  0.7161  0.0566
  584TMC3     C 8660   0.426   4.684  16.944 -0.2119  0.3731  0.3530
  584TMC3     O 8661   0.423   4.593  17.023  0.1380  0.2234  0.0001
  584TMC3     H 8662   0.346   0.200  16.834 -0.8215 -1.0029  1.2645
  584TMC3    H1 8663   0.551   0.025  17.163 -1.1185 -1.5504 -2.2155
  584TMC3    H2 8664   0.523   0.452  17.131  0.2646  0.7121 -0.2939
  584TMC3    C7 8665   0.582   0.253  17.303  0.0290 -0.4165 -0.3934
  584TMC3    C8 8666   0.367   0.421  16.895  0.9235  0.3323  0.4554
  584TMC3    O1 8667   0.545   0.162  17.377 -0.6423 -0.2169 -0.4474
  584TMC3    O2 8668   0.269   0.395  16.825 -0.1236  0.1515 -0.4961
  585MPD2     C 8669   4.455   3.424   0.198 -0.6554 -0.0331 -0.5637
  585MPD2    C1 8670   4.499   3.487   0.083 -0.0961 -0.1294 -0.0504
  585MPD2    C2 8671   4.527   3.410  17.671 -0.3304 -0.4475  0.4152
  585MPD2    C3 8672   4.522   3.271  17.665 -0.6945 -0.8667  0.5413
  585MPD2    C4 8673   4.458   3.213   0.076  0.6057 -0.6950 -0.5155
  585MPD2    C5 8674   4.437   3.287   0.192  0.4842  0.1633  0.2586
  585MPD2     H 8675   4.541   3.470  17.582 -1.6310 -0.4844  0.1798
  585MPD2    H1 8676   4.439   3.107   0.073 -0.5569 -0.3689 -4.3973
  585MPD2    H2 8677   4.431   3.478   0.289 -0.3702 -2.0737  0.7182
  585MPD2    H3 8678   4.387   3.252   0.281  0.0172 -0.3734 -0.2126
  585MPD2     N 8679   4.543   3.191  17.550  0.0095 -0.2137 -0.2511
  585MPD2    H5 8680   4.534   3.090  17.558 -2.2631  0.0744  0.9669
  585MPD2    N1 8681   4.513   3.624   0.087 -0.0720 -0.5306  0.1168
  585MPD2    H7 8682   4.484   3.670   0.173 -3.0691 -0.3805 -1.0034
  586TMC3    C1 8683   4.623   3.145  17.329  0.0567  0.4230  0.1481
  586TMC3    C2 8684   0.020   3.139  17.261  0.2471  0.0193 -0.2710
  586TMC3    C3 8685   0.026   3.054  17.157  0.2211 -0.4062  0.9417
  586TMC3    C4 8686   4.510   3.080  17.303 -0.1253 -0.0464  0.6316
  586TMC3    C5 8687   4.516   3.000  17.198  0.5827  0.5118  0.6383
  586TMC3    C6 8688   4.635   2.978  17.132  0.2267 -0.1082 -0.1663
  586TMC3     C 8689   4.618   3.235  17.446 -0.0012 -0.3206 -0.8167
  586TMC3     O 8690   4.687   3.337  17.440 -0.3836 -1.4114 -0.5378
  586TMC3     H 8691   0.101   3.210  17.277 -0.5319  0.3253  2.2885
  586TMC3    H1 8692   4.419   3.098  17.359  0.6995  1.7288  1.3816
  586TMC3    H2 8693   4.644   2.917  17.043 -1.8413  2.0377 -1.8333
  586TMC3    C7 8694   4.398   2.921  17.169  1.0723 -0.3547  0.9318
  586TMC3    C8 8695   0.146   2.980  17.138 -0.2960 -0.2496  0.1039
  586TMC3    O1 8696   4.294   2.948  17.226 -0.0116 -0.6818 -0.6647
  586TMC3    O2 8697   0.145   2.861  17.132 -0.6365 -0.7097  0.5111
  587TMC3    C1 8698   2.333   1.997  16.147 -0.3261  0.4522  0.2098
  587TMC3    C2 8699   2.280   2.099  16.074  0.3430  0.1527 -0.0676
  587TMC3    C3 8700   2.349   2.149  15.970 -0.5436  0.1692 -0.4927
  587TMC3    C4 8701   2.460   1.962  16.115  0.0920 -0.2540  0.1424
  587TMC3    C5 8702   2.528   2.005  16.008  0.5265  0.7326 -0.0800
  587TMC3    C6 8703   2.472   2.106  15.934  0.7330  0.6111  0.6365
  587TMC3     C 8704   2.271   1.935  16.261 -0.3124  0.8882  0.5608
  587TMC3     O 8705   2.311   1.828  16.298  0.3547  0.1395 -0.7248
  587TMC3     H 8706   2.177   2.125  16.094  0.0435 -0.6036 -0.6259
  587TMC3    H1 8707   2.502   1.892  16.187 -1.1627 -2.8726 -1.6680
  587TMC3    H2 8708   2.523   2.156  15.852 -0.0341  0.3521 -0.0107
  587TMC3    C7 8709   2.671   2.005  16.001  0.7229  0.3728  0.3731
  587TMC3    C8 8710   2.287   2.257  15.895  0.5876 -0.5372 -0.1814
  587TMC3    O1 8711   2.728   2.084  15.923  0.2158  0.2280 -0.8655
  587TMC3    O2 8712   2.310   2.253  15.777  0.5515  0.0286 -0.2228
  588TMC3    C1 8713   4.254   4.580   9.263 -0.1456  0.5711  0.1538
  588TMC3    C2 8714   4.232   4.439   9.243  0.2299 -0.0517 -0.2508
  588TMC3    C3 8715   4.286   4.349   9.337  0.6474 -0.8463 -0.8857
  588TMC3    C4 8716   4.337   4.617   9.360 -0.2953  0.1143  0.1636
  588TMC3    C5 8717   4.381   4.528   9.455 -0.5455  0.0480  0.3499
  588TMC3    C6 8718   4.364   4.393   9.445  0.1415 -1.0013  0.0156
  588TMC3     C 8719   4.142   4.672   9.237  0.8132  0.2179  0.3177
  588TMC3     O 8720   4.084   4.655   9.131  0.0876  0.2629 -0.3318
  588TMC3     H 8721   4.170   4.418   9.157  0.1714 -0.9848  0.0140
  588TMC3    H1 8722   4.357   4.723   9.372 -0.7711  0.3245 -0.9071
  588TMC3    H2 8723   4.397   4.335   9.530  0.9629  1.0679  1.1088
  588TMC3    C7 8724   4.423   4.575   9.592 -0.3638  0.4887 -0.1060
  588TMC3    C8 8725   4.245   4.210   9.330  0.3096 -0.4427 -0.4526
  588TMC3    O1 8726   4.444   4.493   9.681  0.3780  0.1067 -0.5899
  588TMC3    O2 8727   4.174   4.181   9.237  0.3167 -0.2351 -0.0848
  589TMC3    C1 8728   3.477   1.879   0.927 -0.2994  0.1266 -0.1249
  589TMC3    C2 8729   3.558   1.979   0.979  0.2267  0.2686 -0.1133
  589TMC3    C3 8730   3.689   1.975   0.958  0.0366 -0.2834  0.1247
  589TMC3    C4 8731   3.529   1.770   0.867 -0.4945  0.3556 -0.1554
  589TMC3    C5 8732   3.665   1.761   0.864  0.1073 -0.3591  0.1703
  589TMC3    C6 8733   3.744   1.865   0.905 -0.1442 -0.0332  0.5494
  589TMC3     C 8734   3.331   1.893   0.924 -0.5352  0.6766  0.4055
  589TMC3     O 8735   3.271   1.809   0.863  0.3608 -0.1081 -0.6393
  589TMC3     H 8736   3.511   2.061   1.032 -0.6959 -1.3405  1.5677
  589TMC3    H1 8737   3.469   1.681   0.849 -1.3471  0.6120  1.3408
  589TMC3    H2 8738   3.852   1.861   0.908 -0.0783  0.0967 -1.6174
  589TMC3    C7 8739   3.710   1.645   0.790 -0.3756 -0.1787  0.3108
  589TMC3    C8 8740   3.758   2.101   0.974 -0.2367 -0.0014 -0.2858
  589TMC3    O1 8741   3.632   1.555   0.770 -0.2074 -0.1576 -0.1275
  589TMC3    O2 8742   3.690   2.202   0.962  0.0383  0.0479  0.7855
  590MPD2     C 8743   3.035   0.358  16.535 -0.6495 -0.7222  0.5254
  590MPD2    C1 8744   2.995   0.398  16.413 -0.2130  0.5179 -0.0975
  590MPD2    C2 8745   3.089   0.429  16.322 -0.0765  0.5818  0.7485
  590MPD2    C3 8746   3.226   0.427  16.353 -0.0049 -0.4534 -0.1305
  590MPD2    C4 8747   3.266   0.385  16.471 -0.2766 -0.0034  1.0150
  590MPD2    C5 8748   3.171   0.349  16.564 -0.3679 -0.9126  0.2518
  590MPD2     H 8749   3.060   0.463  16.223 -0.1058 -0.8157  0.2713
  590MPD2    H1 8750   3.367   0.359  16.500  0.2617 -0.5807 -1.4159
  590MPD2    H2 8751   2.970   0.335  16.619  0.6553  2.2528  2.3464
  590MPD2    H3 8752   3.205   0.306  16.658  2.1862  1.0801  0.2396
  590MPD2     N 8753   3.315   0.470  16.252  0.0131 -0.0554 -0.0614
  590MPD2    H5 8754   3.279   0.495  16.161 -2.0172  0.4102  0.8662
  590MPD2    N1 8755   2.853   0.407  16.392 -0.1805 -0.0580  0.9598
  590MPD2    H7 8756   2.790   0.401  16.472  0.0350  0.8109  1.1967
  591TMC3    C1 8757   3.495   0.567  16.156 -0.6135  0.4685  0.0949
  591TMC3    C2 8758   3.483   0.511  16.030  0.2576 -0.1603 -0.3025
  591TMC3    C3 8759   3.547   0.583  15.933  0.1769  0.2669  0.0582
  591TMC3    C4 8760   3.559   0.684  16.183  0.3220  0.4604 -0.0911
  591TMC3    C5 8761   3.615   0.758  16.080  0.1864 -0.2946 -0.4354
  591TMC3    C6 8762   3.605   0.703  15.955  0.2656 -0.1268 -0.6282
  591TMC3     C 8763   3.448   0.484  16.267  0.3563  0.4992 -0.6894
  591TMC3     O 8764   3.531   0.468  16.360 -0.0968  0.1149 -0.0558
  591TMC3     H 8765   3.439   0.413  16.014  1.3438 -0.5840 -0.6383
  591TMC3    H1 8766   3.583   0.711  16.285  2.5059  0.6723 -0.6659
  591TMC3    H2 8767   3.669   0.744  15.877  0.1901  0.7880 -0.2126
  591TMC3    C7 8768   3.661   0.895  16.107  0.2103  0.7184  0.3717
  591TMC3    C8 8769   3.542   0.520  15.799  0.2139 -0.2104  0.4186
  591TMC3    O1 8770   3.708   0.932  16.217 -0.2008  0.3638 -0.4301
  591TMC3    O2 8771   3.513   0.405  15.801  0.2529 -0.2527 -0.4872
  592MPD2     C 8772   3.354   2.681  11.108 -0.7356 -0.6591  0.1791
  592MPD2    C1 8773   3.353   2.711  11.245 -0.4526 -0.1081 -0.5733
  592MPD2    C2 8774   3.292   2.626  11.333 -0.7701  0.4224  0.4097
  592MPD2    C3 8775   3.232   2.504  11.287  0.7643  0.1654 -0.1728
  592MPD2    C4 8776   3.239   2.468  11.151  0.1087 -0.4057  0.3777
  592MPD2    C5 8777   3.308   2.556  11.066 -0.3929 -0.2661  0.5419
  592MPD2     H 8778   3.285   2.649  11.439 -0.2451  1.6542  0.1733
  592MPD2    H1 8779   3.202   2.379  11.103  2.1546 -0.2957 -1.4216
  592MPD2    H2 8780   3.400   2.737  11.027 -1.6532  1.1707  0.9306
  592MPD2    H3 8781   3.299   2.530  10.961 -0.5885  0.5979  0.3415
  592MPD2     N 8782   3.170   2.410  11.382 -0.1881  0.2043 -0.4591
  592MPD2    H5 8783   3.170   2.448  11.476  5.1646  0.1948 -0.4661
  592MPD2    N1 8784   3.414   2.832  11.277  0.1903  0.3154 -0.4972
  592MPD2    H7 8785   3.466   2.884  11.207  0.1873  2.3402  1.0109
  593TMC3    C1 8786   3.485   3.015  11.411  0.2451  0.5589  0.5428
  593TMC3    C2 8787   3.533   3.046  11.537  0.5396 -0.0102  0.1632
  593TMC3    C3 8788   3.603   3.161  11.549  0.7552  0.5258  0.2499
  593TMC3    C4 8789   3.488   3.100  11.307  0.1350  0.8170 -0.0753
  593TMC3    C5 8790   3.556   3.223  11.329 -0.0436 -0.2367 -0.3758
  593TMC3    C6 8791   3.611   3.255  11.453  0.2856 -0.2771  0.2585
  593TMC3     C 8792   3.406   2.891  11.402  0.5631  0.2763 -0.2448
  593TMC3     O 8793   3.354   2.852  11.504  0.3576  0.1264 -0.1595
  593TMC3     H 8794   3.541   2.973  11.616  0.6941 -1.4239 -1.1574
  593TMC3    H1 8795   3.437   3.081  11.213  2.2310  0.6865 -1.1901
  593TMC3    H2 8796   3.665   3.348  11.468  2.2683 -1.6105  1.3609
  593TMC3    C7 8797   3.596   3.313  11.223  0.4458  1.0153  0.4158
  593TMC3    C8 8798   3.690   3.162  11.663 -0.2073  0.2733 -0.8203
  593TMC3    O1 8799   3.647   3.416  11.254  0.2101 -0.3121  0.5629
  593TMC3    O2 8800   3.741   3.054  11.686  0.0703 -0.1418  0.3325
  594MPD2     C 8801   2.196   1.062  14.203  0.7411  0.4197  0.1587
  594MPD2    C1 8802   2.112   1.169  14.230  0.0168 -0.8199 -0.5183
  594MPD2    C2 8803   2.175   1.291  14.238  0.0935 -0.4566  0.0460
  594MPD2    C3 8804   2.308   1.304  14.239  0.0006  0.0486  0.0464
  594MPD2    C4 8805   2.390   1.194  14.219 -0.8734  0.6796 -0.3698
  594MPD2    C5 8806   2.334   1.070  14.208 -0.6686  0.1506 -0.3729
  594MPD2     H 8807   2.131   1.389  14.249  1.3053  0.2044 -1.0567
  594MPD2    H1 8808   2.497   1.196  14.233 -0.7114  0.1024 -1.5061
  594MPD2    H2 8809   2.164   0.958  14.206  0.4126  0.5301  0.3989
  594MPD2    H3 8810   2.390   0.977  14.202  0.2279  0.6092  0.8092
  594MPD2     N 8811   2.352   1.434  14.268  0.0180 -0.2802 -0.7453
  594MPD2    H5 8812   2.280   1.504  14.286 -0.9916 -1.2073 -1.2337
  594MPD2    N1 8813   1.975   1.152  14.255  0.5315  0.1403  0.5938
  594MPD2    H7 8814   1.946   1.059  14.226  3.1686 -0.8217  1.0712
  595TMC3    C1 8815   2.695   1.773  14.272  0.0202  0.0079  0.0574
  595TMC3    C2 8816   2.630   1.664  14.216 -0.3645  0.7771 -0.8864
  595TMC3    C3 8817   2.507   1.622  14.265 -0.6696 -0.4562  0.4720
  595TMC3    C4 8818   2.649   1.820  14.395  0.3879  0.4614  0.0961
  595TMC3    C5 8819   2.534   1.767  14.452  0.2059  0.5422 -0.0774
  595TMC3    C6 8820   2.469   1.662  14.392  0.1450 -0.0836  0.1485
  595TMC3     C 8821   2.831   1.800  14.232  0.0086  0.6374  0.0952
  595TMC3     O 8822   2.889   1.697  14.197  0.1843  0.3676  0.0428
  595TMC3     H 8823   2.669   1.625  14.123  2.3273 -0.6384  0.8634
  595TMC3    H1 8824   2.701   1.902  14.445  0.7347  0.2665  0.0581
  595TMC3    H2 8825   2.381   1.631  14.447 -1.6371  1.2389 -1.9673
  595TMC3    C7 8826   2.443   1.856  14.528 -0.3591  0.1664 -0.3549
  595TMC3    C8 8827   2.477   1.481  14.238  0.9449 -0.1015  0.6502
  595TMC3    O1 8828   2.351   1.801  14.591 -0.3683 -0.5703 -0.6010
  595TMC3    O2 8829   2.580   1.414  14.220  0.4703 -0.1522  0.5185
  596MPD2     C 8830   1.178   4.102  16.477  0.1537 -0.1645  0.0490
  596MPD2    C1 8831   1.237   4.223  16.448  0.2717  0.2193 -0.1025
  596MPD2    C2 8832   1.286   4.242  16.312  0.4102  0.5198  0.4575
  596MPD2    C3 8833   1.273   4.149  16.213 -0.3570  0.2007 -0.3351
  596MPD2    C4 8834   1.204   4.034  16.247  0.0029 -0.4349 -0.3007
  596MPD2    C5 8835   1.162   4.013  16.376  0.6597  0.3774 -0.0594
  596MPD2     H 8836   1.329   4.338  16.286 -0.1952 -0.0938 -2.8004
  596MPD2    H1 8837   1.182   3.956  16.175 -1.4461 -0.5202  0.2278
  596MPD2    H2 8838   1.135   4.088  16.575  0.3198  0.4410  0.2037
  596MPD2    H3 8839   1.119   3.916  16.399  0.2516  0.7321  0.6838
  596MPD2     N 8840   1.313   4.167  16.078  0.2542  0.1114 -0.0854
  596MPD2    H5 8841   1.265   4.111  16.008 -0.9379 -1.8323  2.2736
  596MPD2    N1 8842   1.258   4.324  16.545 -0.1988  0.0364  0.1127
  596MPD2    H7 8843   1.283   4.412  16.501  3.8633 -1.6131 -0.8641
  597TMC3    C1 8844   1.245   4.457  16.741 -0.1207 -0.0926  0.0396
  597TMC3    C2 8845   1.345   4.532  16.685  0.2687  0.0906 -0.2579
  597TMC3    C3 8846   1.388   4.645  16.743 -0.0016 -0.2352 -0.5758
  597TMC3    C4 8847   1.179   4.496  16.856  0.8129 -0.2946 -0.3691
  597TMC3    C5 8848   1.225   4.613  16.911  0.8064 -0.2201 -0.0697
  597TMC3    C6 8849   1.336   4.684  16.866  0.0312 -0.1373 -0.3951
  597TMC3     C 8850   1.232   4.319  16.685 -0.3948 -0.5915 -0.0867
  597TMC3     O 8851   1.180   4.233  16.755  0.5830 -0.5260 -0.0081
  597TMC3     H 8852   1.399   4.507  16.594  0.7783  0.7316 -0.1360
  597TMC3    H1 8853   1.096   4.438  16.896  0.0922  0.0717 -1.3316
  597TMC3    H2 8854   1.394   0.037  16.915 -2.8177 -0.2206  3.0933
  597TMC3    C7 8855   1.156   4.662  17.032  0.3305  0.8370  0.2884
  597TMC3    C8 8856   1.508   4.709  16.685  0.4831  0.2273  0.0047
  597TMC3    O1 8857   1.086   4.588  17.099  0.2918 -0.1461 -0.1350
  597TMC3    O2 8858   1.586   4.648  16.617  0.9900 -0.1777  0.3459
  598TMC3    C1 8859   4.219   1.058  14.929 -0.2680 -0.1139 -0.2249
  598TMC3    C2 8860   4.108   0.973  14.932 -0.7892 -0.6329 -0.0751
  598TMC3    C3 8861   4.019   0.980  14.827 -0.2078 -0.1102 -0.2949
  598TMC3    C4 8862   4.247   1.138  14.822  0.5480 -0.5269  0.3094
  598TMC3    C5 8863   4.146   1.148  14.726 -0.0898  0.8932  0.7253
  598TMC3    C6 8864   4.036   1.068  14.725  0.2408  0.5397  0.3299
  598TMC3     C 8865   4.286   1.074  15.054 -0.8111 -0.2552 -0.0485
  598TMC3     O 8866   4.226   1.035  15.155 -0.9159 -0.6699  0.3281
  598TMC3     H 8867   4.098   0.904  15.015  0.3146 -1.6582 -0.8047
  598TMC3    H1 8868   4.335   1.198  14.803  1.0026 -0.3570  2.8964
  598TMC3    H2 8869   3.948   1.092  14.666  0.0325 -0.3998  0.2676
  598TMC3    C7 8870   4.157   1.238  14.616 -0.0700  0.1623  0.3503
  598TMC3    C8 8871   3.891   0.915  14.849 -1.1299  0.4169  0.2683
  598TMC3    O1 8872   4.076   1.218  14.529 -0.4674  0.5075  0.0471
  598TMC3    O2 8873   3.909   0.815  14.912  0.1564  0.1381  0.1040
  599MPD2     C 8874   4.514   3.508  15.836  0.3841  0.8998  0.5804
  599MPD2    C1 8875   4.464   3.384  15.864  0.2360  0.2550 -0.5119
  599MPD2    C2 8876   4.351   3.364  15.943 -0.3704  0.1180  0.3937
  599MPD2    C3 8877   4.288   3.469  16.007  0.5635  0.9786  0.7265
  599MPD2    C4 8878   4.336   3.589  15.972 -0.2378  0.1645  0.4114
  599MPD2    C5 8879   4.442   3.614  15.886  0.7851 -0.1190 -0.0826
  599MPD2     H 8880   4.299   3.269  15.955 -2.8339  1.4529  0.3839
  599MPD2    H1 8881   4.292   3.674  16.023 -1.5267 -0.5986  0.5502
  599MPD2    H2 8882   4.604   3.528  15.778  0.2221 -1.2974 -0.4294
  599MPD2    H3 8883   4.475   3.717  15.875  0.1391  0.0689 -0.2672
  599MPD2     N 8884   4.187   3.460  16.105 -0.0737 -0.3262  0.1371
  599MPD2    H5 8885   4.147   3.552  16.122 -0.9544 -0.0788 -3.2483
  599MPD2    N1 8886   4.547   3.280  15.825 -0.3307 -1.1339  0.7490
  599MPD2    H7 8887   4.629   3.308  15.771 -1.2961  0.5222  0.1232
  600TMC3    C1 8888   4.061   3.392  16.289  0.3162 -0.0443 -0.0405
  600TMC3    C2 8889   3.998   3.286  16.350 -0.5120 -0.1131  0.0789
  600TMC3    C3 8890   3.929   3.314  16.461  0.1800  0.2273 -0.2642
  600TMC3    C4 8891   4.048   3.524  16.338 -0.8525  0.4880 -0.1724
  600TMC3    C5 8892   3.977   3.540  16.457  0.5671 -0.9980  0.1428
  600TMC3    C6 8893   3.929   3.432  16.528  0.5243 -0.1362 -0.2961
  600TMC3     C 8894   4.143   3.354  16.173 -0.7709 -0.0251 -1.2792
  600TMC3     O 8895   4.154   3.235  16.148 -0.8363  0.9086  0.5451
  600TMC3     H 8896   3.992   3.188  16.305  0.9500  0.3968 -1.2606
  600TMC3    H1 8897   4.090   3.616  16.299  0.3452 -0.3062 -0.7655
  600TMC3    H2 8898   3.872   3.447  16.619  1.8270  1.4006  0.2721
  600TMC3    C7 8899   3.959   3.668  16.514  0.2737 -0.1300 -0.0548
  600TMC3    C8 8900   3.872   3.197  16.529 -0.1521 -0.1437 -0.5034
  600TMC3    O1 8901   3.989   3.768  16.452 -0.5735 -0.4307 -0.0200
  600TMC3    O2 8902   3.878   3.188  16.651  0.6577  0.6584  0.1238
  601MPD2     C 8903   1.723   1.788   0.462 -0.3049  0.1760  0.1755
  601MPD2    C1 8904   1.780   1.709   0.368  0.1236 -0.4648  0.1408
  601MPD2    C2 8905   1.828   1.584   0.409 -0.2914 -0.4637  0.8641
  601MPD2    C3 8906   1.811   1.540   0.544  0.4349 -0.0633  0.2224
  601MPD2    C4 8907   1.759   1.627   0.636  0.0923 -0.0372  0.2407
  601MPD2    C5 8908   1.709   1.747   0.589  0.3488 -0.0333  0.1428
  601MPD2     H 8909   1.874   1.529   0.327  0.8983 -1.1440  2.0028
  601MPD2    H1 8910   1.732   1.591   0.734 -3.8426 -2.2441 -1.6205
  601MPD2    H2 8911   1.692   1.892   0.454 -1.0240  0.0039  0.6812
  601MPD2    H3 8912   1.644   1.806   0.653 -0.3693 -2.3070  1.4981
  601MPD2     N 8913   1.856   1.418   0.597 -0.3012  0.4403 -0.1986
  601MPD2    H5 8914   1.833   1.399   0.694  2.7491  0.8833  0.6368
  601MPD2    N1 8915   1.806   1.758   0.235  0.3954  0.5760  0.6125
  601MPD2    H7 8916   1.852   1.691   0.174  1.4018  0.0396  1.9636
  602TMC3    C1 8917   1.804   1.880   0.045  0.3148 -0.5497  0.1053
  602TMC3    C2 8918   1.788   2.004  17.691 -0.5183 -0.7155  0.5548
  602TMC3    C3 8919   1.764   2.023  17.555 -0.0028  0.2789 -0.4964
  602TMC3    C4 8920   1.775   1.772  17.662 -0.0565  0.2004  0.2610
  602TMC3    C5 8921   1.738   1.793  17.535 -0.5668 -0.0642  0.5778
  602TMC3    C6 8922   1.748   1.915  17.474  1.1673 -0.0352  0.2935
  602TMC3     C 8923   1.775   1.879   0.187  0.0753  0.3542  0.0129
  602TMC3     O 8924   1.720   1.975   0.242  0.3274  0.1767  0.6931
  602TMC3     H 8925   1.781   2.092   0.056 -1.9413 -0.0789 -0.5056
  602TMC3    H1 8926   1.784   1.674   0.009  0.2339  0.9294  1.8306
  602TMC3    H2 8927   1.724   1.926  17.369 -1.1885 -2.0901  0.6115
  602TMC3    C7 8928   1.628   1.707  17.489  0.0856 -0.1189  0.6430
  602TMC3    C8 8929   1.661   2.119  17.526  0.2086  0.3717  0.2403
  602TMC3    O1 8930   1.625   1.582  17.486 -0.1039 -0.1626  0.8806
  602TMC3    O2 8931   1.582   2.065  17.457  0.3940  0.1634  0.1662
  603TMC3    C1 8932   4.506   1.848  10.753  0.2760  0.0251 -1.1265
  603TMC3    C2 8933   4.563   1.791  10.866  0.7341  0.2395  0.1986
  603TMC3    C3 8934   4.579   1.875  10.972  0.0541 -0.1061  0.0617
  603TMC3    C4 8935   4.463   1.979  10.757 -0.1189 -0.1397 -1.0146
  603TMC3    C5 8936   4.500   2.061  10.862  0.0622 -0.1454  0.1896
  603TMC3    C6 8937   4.538   2.002  10.978 -0.0826 -0.1981  0.0647
  603TMC3     C 8938   4.433   1.765  10.652  0.7161 -0.4295  0.2263
  603TMC3     O 8939   4.357   1.821  10.577  0.5245  0.4673 -0.4257
  603TMC3     H 8940   4.596   1.688  10.873 -0.4598 -0.1421  0.3423
  603TMC3    H1 8941   4.457   2.025  10.660 -2.4865  0.6286 -0.5143
  603TMC3    H2 8942   4.559   2.073  11.057 -0.0824 -0.2503  0.1117
  603TMC3    C7 8943   4.487   2.207  10.856  0.0584  0.6878  0.0303
  603TMC3    C8 8944   4.595   1.804  11.099  0.3763 -0.4432 -0.0217
  603TMC3    O1 8945   4.549   2.272  10.936 -0.7117  0.1390 -0.3685
  603TMC3    O2 8946   4.580   1.681  11.098 -0.6604 -0.2048  0.2009
  604MPD2     C 8947   0.718   0.898  15.860  0.4509 -0.2116 -0.4446
  604MPD2    C1 8948   0.648   0.789  15.904 -0.0003 -0.3194 -0.4801
  604MPD2    C2 8949   0.652   0.673  15.827 -0.2015  0.0411 -0.7604
  604MPD2    C3 8950   0.721   0.657  15.705  0.5812  0.0698  0.6488
  604MPD2    C4 8951   0.766   0.779  15.653  0.0803 -0.3731  0.4224
  604MPD2    C5 8952   0.772   0.893  15.734 -0.1923  0.3807 -0.3124
  604MPD2     H 8953   0.608   0.583  15.869 -0.9068  1.1222  0.8482
  604MPD2    H1 8954   0.819   0.791  15.560  0.4245  1.0064  0.7967
  604MPD2    H2 8955   0.740   0.988  15.917 -0.5704 -0.0705 -0.2676
  604MPD2    H3 8956   0.831   0.976  15.699 -2.0210  0.9485 -2.0517
  604MPD2     N 8957   0.727   0.527  15.645  0.5832  0.7860 -0.4041
  604MPD2    H5 8958   0.690   0.452  15.702  0.0224  0.3438 -1.3495
  604MPD2    N1 8959   0.566   0.803  16.018 -0.1472  0.1028  0.5297
  604MPD2    H7 8960   0.571   0.888  16.074 -1.6496 -1.5690  3.2358
  605TMC3    C1 8961   0.382   0.766  16.165 -0.2953  0.1579 -0.3767
  605TMC3    C2 8962   0.439   0.855  16.258 -0.5321 -0.5326 -0.5875
  605TMC3    C3 8963   0.360   0.928  16.334 -0.4198 -0.8928 -0.2867
  605TMC3    C4 8964   0.246   0.737  16.166 -0.2277 -0.1984 -0.0427
  605TMC3    C5 8965   0.173   0.799  16.273 -0.1796 -0.1043 -0.7907
  605TMC3    C6 8966   0.226   0.897  16.353 -0.0620 -0.0562 -0.0046
  605TMC3     C 8967   0.456   0.722  16.047 -0.3258  0.2779  0.2871
  605TMC3     O 8968   0.406   0.628  15.977  0.1169 -0.1213 -0.5397
  605TMC3     H 8969   0.543   0.882  16.246 -0.6598 -0.4151 -1.4380
  605TMC3    H1 8970   0.206   0.676  16.086 -1.0670 -1.2503  1.1827
  605TMC3    H2 8971   0.172   0.967  16.416  2.2682  1.7100  0.0224
  605TMC3    C7 8972   0.031   0.814  16.256 -0.2345  0.1448 -0.2162
  605TMC3    C8 8973   0.431   1.016  16.422 -0.3256  0.3342 -0.0536
  605TMC3    O1 8974   4.703   0.911  16.308 -0.4017 -0.1581 -0.5293
  605TMC3    O2 8975   0.552   1.001  16.434 -0.0782 -0.4463 -0.2830
  606TMC3    C1 8976   1.917   4.342  17.148  0.4818  0.1753 -0.8180
  606TMC3    C2 8977   1.918   4.297  17.275  0.4470 -0.2383  0.2608
  606TMC3    C3 8978   1.875   4.175  17.306 -0.1865  0.1307 -0.4643
  606TMC3    C4 8979   1.873   4.263  17.046  0.3604  0.5098  0.0532
  606TMC3    C5 8980   1.838   4.135  17.078 -0.6349 -0.0701  0.5106
  606TMC3    C6 8981   1.842   4.084  17.203  0.6584  0.2928  0.4950
  606TMC3     C 8982   1.969   4.466  17.114 -0.1396 -0.6894  0.2188
  606TMC3     O 8983   1.959   4.484  16.995 -0.0612  0.2909  0.2044
  606TMC3     H 8984   1.939   4.357  17.362  2.1709  0.0876 -0.3901
  606TMC3    H1 8985   1.891   4.290  16.943  0.2494  1.1349  0.2000
  606TMC3    H2 8986   1.829   3.980  17.231 -2.8347  0.8209  0.8713
  606TMC3    C7 8987   1.797   4.048  16.972 -0.7922  0.3023  0.1513
  606TMC3    C8 8988   1.909   4.128  17.445  0.8662 -0.1158 -0.4768
  606TMC3    O1 8989   1.806   4.099  16.863 -0.1207  0.0793  0.2868
  606TMC3    O2 8990   2.010   4.175  17.500  0.0452  0.1864 -0.0917
  607MPD2     C 8991   3.502   2.005  10.951  0.3065  0.6628 -0.0888
  607MPD2    C1 8992   3.433   2.076  11.045  0.4734 -0.4428 -0.0131
  607MPD2    C2 8993   3.341   2.016  11.131  0.2939  0.5714 -0.5474
  607MPD2    C3 8994   3.313   1.877  11.109  0.1560 -0.1266 -0.0182
  607MPD2    C4 8995   3.385   1.809  11.010 -1.0498  0.1269  0.1977
  607MPD2    C5 8996   3.476   1.878  10.936 -0.4593 -0.0523  0.2229
  607MPD2     H 8997   3.279   2.073  11.199  1.0626 -0.9381  1.3931
  607MPD2    H1 8998   3.383   1.701  11.001 -0.3099  0.1375 -0.0767
  607MPD2    H2 8999   3.583   2.052  10.896  0.5752  2.0303  1.4987
  607MPD2    H3 9000   3.535   1.818  10.868  0.8792  1.2790  0.1817
  607MPD2     N 9001   3.218   1.818  11.194  0.3212 -0.1494 -0.6733
  607MPD2    H5 9002   3.181   1.882  11.263  1.8581  0.4343 -0.3965
  607MPD2    N1 9003   3.461   2.218  11.073  0.4523 -0.0188  0.7681
  607MPD2    H7 9004   3.405   2.261  11.147 -1.4781  0.7471 -1.1183
  608TMC3    C1 9005   3.605   2.391  11.132  0.3409  0.2770  0.3330
  608TMC3    C2 9006   3.571   2.368  11.261 -0.9231  0.4514  0.3859
  608TMC3    C3 9007   3.613   2.460  11.352  1.0199  0.2209  1.1900
  608TMC3    C4 9008   3.667   2.509  11.097 -0.1409  1.2671 -0.5370
  608TMC3    C5 9009   3.690   2.601  11.192  0.0448 -0.1723  0.5601
  608TMC3    C6 9010   3.668   2.580  11.323 -0.9812  0.1724  0.2756
  608TMC3     C 9011   3.574   2.291  11.037  0.3219  0.0336  0.6654
  608TMC3     O 9012   3.667   2.257  10.964 -0.4894  0.1205  0.4068
  608TMC3     H 9013   3.547   2.265  11.285 -0.1604 -0.1219 -1.3284
  608TMC3    H1 9014   3.692   2.520  10.992 -2.3934 -2.1471 -1.4429
  608TMC3    H2 9015   3.677   2.658  11.398  0.5114  1.3161 -1.1057
  608TMC3    C7 9016   3.728   2.726  11.141 -0.3793  0.7104 -0.1410
  608TMC3    C8 9017   3.592   2.434  11.496  0.3462  0.5443  0.9002
  608TMC3    O1 9018   3.697   2.754  11.029  0.4183  0.5910 -0.0793
  608TMC3    O2 9019   3.539   2.522  11.564  0.3387 -0.2898  0.0555
  609TMC3    C1 9020   1.839   0.167   9.189 -0.6039 -0.0259  0.1652
  609TMC3    C2 9021   1.840   0.048   9.125 -0.2856  0.3300 -0.2413
  609TMC3    C3 9022   1.958   4.710   9.106  0.1012  0.8501  0.2811
  609TMC3    C4 9023   1.958   0.218   9.237 -0.3207 -0.3489  0.5691
  609TMC3    C5 9024   2.082   0.148   9.211 -0.2783 -1.0757  0.2851
  609TMC3    C6 9025   2.080   0.033   9.134 -0.3404  0.4238  0.4759
  609TMC3     C 9026   1.721   0.252   9.186 -0.3669 -0.1964 -0.2200
  609TMC3     O 9027   1.716   0.337   9.273  0.2761  0.9204 -0.5507
  609TMC3     H 9028   1.746   4.720   9.108 -1.0401  1.9535 -1.0567
  609TMC3    H1 9029   1.951   0.305   9.301 -1.5279  0.9945 -1.3833
  609TMC3    H2 9030   2.167   4.693   9.124  0.0615  0.8065  1.4374
  609TMC3    C7 9031   2.208   0.218   9.229  0.1646 -0.5716  1.2398
  609TMC3    C8 9032   1.951   4.570   9.095  0.1077 -0.2924  0.4357
  609TMC3    O1 9033   2.314   0.175   9.188  0.3268 -0.3578 -0.1542
  609TMC3    O2 9034   2.045   4.503   9.141  0.3490  0.5684  0.1560
  610TMC3    C1 9035   3.769   2.249  12.154 -0.1344 -0.5817 -0.0248
  610TMC3    C2 9036   3.825   2.349  12.075  0.4093  0.6521 -0.3350
  610TMC3    C3 9037   3.962   2.339  12.050  0.3762  0.0555 -0.1901
  610TMC3    C4 9038   3.837   2.138  12.189 -0.0711  0.1687  0.3152
  610TMC3    C5 9039   3.971   2.136  12.167 -0.4235 -0.0260  0.2454
  610TMC3    C6 9040   4.040   2.235  12.089  0.2858  0.1705 -0.2997
  610TMC3     C 9041   3.630   2.254  12.166  0.0275 -0.0116  0.8006
  610TMC3     O 9042   3.576   2.362  12.181 -0.4304 -0.2392  0.4713
  610TMC3     H 9043   3.766   2.433  12.040  0.2935  0.1292 -1.3870
  610TMC3    H1 9044   3.789   2.062  12.251 -0.2457 -0.8188 -1.0386
  610TMC3    H2 9045   4.145   2.217  12.071  0.2397 -1.3349  0.8993
  610TMC3    C7 9046   4.054   2.050  12.252 -0.4454 -0.4222 -0.2487
  610TMC3    C8 9047   4.012   2.443  11.962 -0.5889 -0.3314  0.3960
  610TMC3    O1 9048   4.162   2.012  12.207  0.0008  0.0012  0.3139
  610TMC3    O2 9049   3.928   2.500  11.897 -0.5967  0.0334  0.1865
  611MPD2     C 9050   3.849   1.906   9.916  0.2533 -0.2122  0.8106
  611MPD2    C1 9051   3.795   1.977  10.022  0.1486 -0.5639  0.4343
  611MPD2    C2 9052   3.853   2.098  10.068  0.8093  0.0651 -1.1903
  611MPD2    C3 9053   3.962   2.149  10.005  0.0967 -0.7386  0.4351
  611MPD2    C4 9054   4.002   2.082   9.894  0.9860 -0.1614  0.1082
  611MPD2    C5 9055   3.957   1.959   9.850 -0.3593 -0.2698  0.2032
  611MPD2     H 9056   3.813   2.140  10.160 -0.0674 -2.5238 -0.3752
  611MPD2    H1 9057   4.072   2.132   9.827 -0.0726 -0.2454 -1.0743
  611MPD2    H2 9058   3.816   1.812   9.874  1.3430  0.4935 -1.6355
  611MPD2    H3 9059   3.997   1.906   9.765  1.8877  0.5144  0.7783
  611MPD2     N 9060   4.015   2.277  10.025 -0.0574  0.1087 -0.2256
  611MPD2    H5 9061   4.095   2.303   9.967  0.7634  2.8069  2.1670
  611MPD2    N1 9062   3.686   1.913  10.088 -0.4073 -0.1208 -0.2464
  611MPD2    H7 9063   3.645   1.836  10.037 -0.1074 -0.0097 -0.6587
  612TMC3    C1 9064   4.040   2.487  10.113  0.5565 -0.8760  0.1660
  612TMC3    C2 9065   4.079   2.534  10.234 -0.3085 -0.2840 -0.2789
  612TMC3    C3 9066   4.155   2.652  10.234 -0.4627  0.2708 -0.7529
  612TMC3    C4 9067   4.074   2.546   9.990 -0.1115  0.1499  0.1965
  612TMC3    C5 9068   4.142   2.663   9.997  0.0698  1.1262 -0.1644
  612TMC3    C6 9069   4.191   2.717  10.118  0.2472 -0.5797  0.0237
  612TMC3     C 9070   3.971   2.360  10.123 -0.0192 -0.1892 -0.1904
  612TMC3     O 9071   3.896   2.337  10.211  0.2611  0.5537  0.1053
  612TMC3     H 9072   4.058   2.479  10.325 -1.1095 -1.6558 -1.3031
  612TMC3    H1 9073   4.020   2.522   9.900 -0.3173 -0.8596  0.5941
  612TMC3    H2 9074   4.251   2.807  10.126 -0.0405 -0.3916  0.0807
  612TMC3    C7 9075   4.128   2.759   9.886  1.0987 -0.1705  0.1548
  612TMC3    C8 9076   4.236   2.673  10.349  0.5272  0.7673  0.4618
  612TMC3    O1 9077   4.098   2.710   9.775  0.0538 -0.5999  0.4565
  612TMC3    O2 9078   4.281   2.787  10.369  0.3475 -0.1244 -0.1397
  613MPD2     C 9079   2.677   4.309  16.627 -0.4150 -0.1606 -0.2637
  613MPD2    C1 9080   2.638   4.360  16.508 -0.1249 -0.5974  0.0765
  613MPD2    C2 9081   2.524   4.322  16.446 -0.0913  0.5195  0.6504
  613MPD2    C3 9082   2.444   4.220  16.503 -0.0075  0.1297  0.1044
  613MPD2    C4 9083   2.479   4.174  16.630 -0.3930 -0.7209 -0.0611
  613MPD2    C5 9084   2.602   4.212  16.682  0.2942 -0.4823  0.5407
  613MPD2     H 9085   2.490   4.373  16.356 -2.8118 -0.8933  0.8660
  613MPD2    H1 9086   2.428   4.089  16.673  0.2157 -1.2998 -0.4796
  613MPD2    H2 9087   2.773   4.334  16.671 -0.7925  1.5266 -0.3926
  613MPD2    H3 9088   2.632   4.171  16.778  0.1764  0.9547  1.1952
  613MPD2     N 9089   2.336   4.162  16.434 -0.4266  0.0182  0.4290
  613MPD2    H5 9090   2.294   4.079  16.475 -0.2724 -0.6686 -0.7878
  613MPD2    N1 9091   2.722   4.463  16.451 -0.5113 -0.0663 -0.0355
  613MPD2    H7 9092   2.786   4.505  16.517 -0.5879 -1.0849  0.6967
  614TMC3    C1 9093   2.699   4.437  16.203 -0.3309  1.0340  0.3776
  614TMC3    C2 9094   2.715   4.303  16.187 -0.4028  0.1034 -0.7302
  614TMC3    C3 9095   2.674   4.241  16.075  0.2768 -0.8462  0.2623
  614TMC3    C4 9096   2.675   4.514  16.092 -0.3864 -0.0331 -0.1248
  614TMC3    C5 9097   2.627   4.454  15.981 -0.5157 -0.7321 -0.0341
  614TMC3    C6 9098   2.617   4.317  15.977 -0.0818  0.3956  0.5185
  614TMC3     C 9099   2.745   4.509  16.319 -0.3534  0.4261 -0.6154
  614TMC3     O 9100   2.818   4.604  16.299  0.3135  0.1267 -0.2568
  614TMC3     H 9101   2.759   4.248  16.270 -1.1227  1.5114  0.5920
  614TMC3    H1 9102   2.676   4.621  16.109 -2.0629 -0.1466  0.6625
  614TMC3    H2 9103   2.571   4.261  15.897 -0.2959  0.4919  0.5732
  614TMC3    C7 9104   2.591   4.528  15.867  0.2130 -0.2504 -0.0672
  614TMC3    C8 9105   2.624   4.107  16.085  0.1186 -0.1093 -0.0065
  614TMC3    O1 9106   2.578   4.648  15.897 -1.2820  0.1802 -0.3408
  614TMC3    O2 9107   2.595   4.072  16.200  0.1873 -0.0557  0.5663
  615MPD2     C 9108   1.816   1.100  16.012 -0.5565 -0.8104 -0.1689
  615MPD2    C1 9109   1.885   1.016  15.932 -0.5318  0.8827 -0.2327
  615MPD2    C2 9110   1.819   0.915  15.868  0.5303 -0.0338  0.7908
  615MPD2    C3 9111   1.681   0.903  15.878 -0.5777  0.5467 -0.1354
  615MPD2    C4 9112   1.612   0.986  15.961 -0.0478 -0.2204  0.5208
  615MPD2    C5 9113   1.683   1.085  16.023 -0.7834 -0.1396  0.0162
  615MPD2     H 9114   1.873   0.844  15.807 -0.0094 -1.3506  1.8374
  615MPD2    H1 9115   1.505   0.975  15.979 -0.2653  0.7164 -0.1934
  615MPD2    H2 9116   1.868   1.174  16.072 -1.8309  0.8335 -1.1027
  615MPD2    H3 9117   1.626   1.146  16.092 -1.1887  0.8100 -1.1591
  615MPD2     N 9118   1.607   0.804  15.803  0.0102 -0.0350  0.7806
  615MPD2    H5 9119   1.506   0.816  15.799 -0.4449 -3.9602  0.8088
  615MPD2    N1 9120   2.019   1.030  15.897 -0.0233 -0.6941  0.0079
  615MPD2    H7 9121   2.063   0.957  15.842 -0.5998 -0.7628 -0.3652
  616TMC3    C1 9122   2.230   1.135  15.871 -0.0281 -0.2480 -0.3129
  616TMC3    C2 9123   2.290   1.249  15.834 -0.0364  0.5181  0.1840
  616TMC3    C3 9124   2.414   1.247  15.772 -1.2096 -0.5537 -0.1157
  616TMC3    C4 9125   2.278   1.014  15.836 -1.1275  0.1685 -0.6885
  616TMC3    C5 9126   2.400   1.012  15.771  0.0280 -0.0841 -0.2729
  616TMC3    C6 9127   2.465   1.124  15.732  0.7713 -0.9598 -0.3135
  616TMC3     C 9128   2.103   1.134  15.942  0.3511 -0.2097 -0.4463
  616TMC3     O 9129   2.069   1.229  16.008  0.3494  0.2213 -0.3820
  616TMC3     H 9130   2.246   1.345  15.857  0.3191  1.6213 -3.6819
  616TMC3    H1 9131   2.237   0.921  15.876 -0.9199  1.0071  1.4745
  616TMC3    H2 9132   2.546   1.115  15.662  0.0600 -1.3698 -1.0870
  616TMC3    C7 9133   2.443   0.887  15.725 -0.4782 -0.0932  0.4610
  616TMC3    C8 9134   2.492   1.366  15.776 -0.2482  0.2895 -0.4167
  616TMC3    O1 9135   2.355   0.803  15.715 -0.0776 -0.1632  0.6833
  616TMC3    O2 9136   2.434   1.463  15.824 -0.0517  0.1723  0.0183
  617MPD2     C 9137   4.638   4.077  13.960  0.6213  0.6104  0.0040
  617MPD2    C1 9138   4.705   3.974  14.011 -0.0040  0.7127 -0.0075
  617MPD2    C2 9139   4.648   3.849  14.007  0.5890 -0.1281 -0.3374
  617MPD2    C3 9140   4.547   3.825  13.922  0.5974 -0.8566  0.6299
  617MPD2    C4 9141   4.490   3.929  13.849  0.2424 -0.6888  0.0284
  617MPD2    C5 9142   4.529   4.055  13.879 -0.3971  0.0371 -0.4619
  617MPD2     H 9143   4.691   3.763  14.057  0.3706 -0.5122 -0.8004
  617MPD2    H1 9144   4.406   3.908  13.784  1.1380 -0.1827 -1.2768
  617MPD2    H2 9145   4.684   4.176  13.961  0.9338  0.4712 -0.5518
  617MPD2    H3 9146   4.475   4.140  13.838 -0.3024  0.5002  0.3972
  617MPD2     N 9147   4.489   3.697  13.893  0.0707  0.0792  0.1229
  617MPD2    H5 9148   4.431   3.689  13.810 -4.3176 -0.1670  3.2301
  617MPD2    N1 9149   0.095   4.005  14.077  0.3458  0.3596  0.8513
  617MPD2    H7 9150   0.118   4.103  14.088  1.5532  0.3907 -1.8601
  618TMC3    C1 9151   0.303   4.003  14.163  0.3693  0.7605  0.0519
  618TMC3    C2 9152   0.430   3.959  14.137 -0.0264 -0.4617  0.6925
  618TMC3    C3 9153   0.526   4.059  14.141  0.2015  0.0016 -0.3275
  618TMC3    C4 9154   0.272   4.126  14.221  0.0248  0.5037  0.3834
  618TMC3    C5 9155   0.365   4.224  14.209  0.1999 -0.2727 -0.5755
  618TMC3    C6 9156   0.493   4.188  14.181 -0.1725  0.6862  0.1932
  618TMC3     C 9157   0.192   3.915  14.110  0.3422 -0.2765  1.1527
  618TMC3     O 9158   0.215   3.804  14.063  0.6517  0.1511  0.5904
  618TMC3     H 9159   0.466   3.864  14.100 -1.5219  0.7166 -3.6853
  618TMC3    H1 9160   0.173   4.153  14.254  0.1945 -2.0616  2.9634
  618TMC3    H2 9161   0.575   4.258  14.192  0.6136 -0.3505  0.8712
  618TMC3    C7 9162   0.323   4.312  14.102  0.6775 -0.3572  0.1473
  618TMC3    C8 9163   0.642   4.037  14.055  1.0438  0.2951 -0.5454
  618TMC3    O1 9164   0.231   4.272  14.032  0.4313 -0.1323 -0.0301
  618TMC3    O2 9165   0.670   3.922  14.012 -0.2034  0.1287 -0.2943
  619MPD2     C 9166   1.683   0.610  13.788 -0.2782  0.4340 -0.5544
  619MPD2    C1 9167   1.623   0.680  13.683  0.4708  0.1134 -0.0097
  619MPD2    C2 9168   1.484   0.673  13.662 -0.4773 -0.6471 -0.3300
  619MPD2    C3 9169   1.405   0.592  13.750 -0.1351  0.2757  0.0274
  619MPD2    C4 9170   1.469   0.555  13.872  0.2151 -0.0661 -0.8411
  619MPD2    C5 9171   1.600   0.556  13.885 -0.2332  0.1877 -0.3572
  619MPD2     H 9172   1.445   0.728  13.577 -0.4130 -1.1248 -0.6722
  619MPD2    H1 9173   1.406   0.521  13.954  1.0034  0.1874 -0.1323
  619MPD2    H2 9174   1.791   0.608  13.797 -0.1560 -0.6406 -2.1712
  619MPD2    H3 9175   1.642   0.526  13.980 -0.5072 -2.0740 -0.9655
  619MPD2     N 9176   1.266   0.568  13.732 -0.0650 -0.2939  0.0219
  619MPD2    H5 9177   1.224   0.505  13.800  1.8061  0.2123  1.6658
  619MPD2    N1 9178   1.695   0.752  13.585  1.2089  0.1428  0.0389
  619MPD2    H7 9179   1.643   0.814  13.524 -1.8744 -1.6812  0.8064
  620TMC3    C1 9180   1.875   0.838  13.462  0.0531  0.0505 -0.1547
  620TMC3    C2 9181   1.790   0.823  13.359  0.3255 -0.3764 -0.6645
  620TMC3    C3 9182   1.793   0.929  13.272 -0.0569  0.8103  0.1413
  620TMC3    C4 9183   1.942   0.953  13.494 -0.4781 -0.6936  0.4238
  620TMC3    C5 9184   1.945   1.053  13.403 -0.0370  0.2816  0.0204
  620TMC3    C6 9185   1.859   1.046  13.296  0.2446  0.0981  0.2893
  620TMC3     C 9186   1.831   0.775  13.582  0.1319 -0.6604  0.2380
  620TMC3     O 9187   1.914   0.755  13.670 -0.2603  0.3307 -0.0218
  620TMC3     H 9188   1.740   0.727  13.349  0.5523 -0.6177  0.4948
  620TMC3    H1 9189   1.976   0.965  13.596 -0.8847 -0.0086  0.4786
  620TMC3    H2 9190   1.870   1.114  13.213  1.2521 -0.6766 -0.2171
  620TMC3    C7 9191   1.953   1.175  13.470 -0.0391 -0.7804 -1.1051
  620TMC3    C8 9192   1.663   0.962  13.215 -0.5202  0.0631 -0.2728
  620TMC3    O1 9193   2.041   1.205  13.549 -0.1395  0.1110 -0.1114
  620TMC3    O2 9194   1.632   1.078  13.216 -0.0996 -0.4279  0.0013
  621MPD2     C 9195   2.192   4.362  10.201 -0.3669 -0.4282 -0.0017
  621MPD2    C1 9196   2.095   4.439  10.259  0.2789  0.0720 -0.8287
  621MPD2    C2 9197   2.122   4.574  10.267  0.5637 -0.1350  0.8018
  621MPD2    C3 9198   2.246   4.632  10.243 -0.4512 -0.2077  0.0332
  621MPD2    C4 9199   2.345   4.546  10.205  0.0029 -0.2068  0.0559
  621MPD2    C5 9200   2.320   4.412  10.177  0.5668  0.2263  0.2911
  621MPD2     H 9201   2.042   4.638  10.302 -0.2548 -0.6537 -0.1202
  621MPD2    H1 9202   2.450   4.571  10.195 -0.5844  2.5611  0.8506
  621MPD2    H2 9203   2.184   4.254  10.193  0.6044 -0.5229  0.3302
  621MPD2    H3 9204   2.391   4.333  10.155 -1.4922 -1.3362 -0.7709
  621MPD2     N 9205   2.270   0.041  10.272 -0.1791 -0.8428 -0.1158
  621MPD2    H5 9206   2.185   0.096  10.278 -0.0443 -0.7023  0.4756
  621MPD2    N1 9207   1.974   4.388  10.316 -0.3924 -0.0934 -0.8284
  621MPD2    H7 9208   1.923   4.459  10.368 -0.9975 -0.2513 -1.2043
  622TMC3    C1 9209   1.804   4.209  10.368  0.3588 -0.3559 -0.4801
  622TMC3    C2 9210   1.744   4.296  10.454  0.4186 -0.1114 -0.1256
  622TMC3    C3 9211   1.624   4.244  10.508  0.3151  0.5681  0.0242
  622TMC3    C4 9212   1.752   4.086  10.333  0.3378  0.3438 -0.8472
  622TMC3    C5 9213   1.635   4.045  10.389  0.0795  0.2631 -0.3754
  622TMC3    C6 9214   1.570   4.123  10.484  0.3062  0.2803 -0.6129
  622TMC3     C 9215   1.923   4.256  10.298 -0.0331  0.4219  0.3599
  622TMC3     O 9216   1.959   4.175  10.214 -0.3520  0.8979  0.5882
  622TMC3     H 9217   1.782   4.395  10.477 -0.7110  0.5224 -1.0201
  622TMC3    H1 9218   1.802   4.025  10.259  1.8034 -1.0918  1.3484
  622TMC3    H2 9219   1.474   4.101  10.529 -0.4954 -1.2590 -3.0694
  622TMC3    C7 9220   1.556   3.937  10.329 -0.0440 -0.4229  0.6881
  622TMC3    C8 9221   1.542   4.338  10.588  0.3215  0.3124  0.5974
  622TMC3    O1 9222   1.463   3.898  10.401 -0.3460 -0.3412  0.0388
  622TMC3    O2 9223   1.460   4.293  10.664  0.1212 -0.2968  0.1953
  623MPD2     C 9224   0.658   1.233  15.727  0.3836  0.2470  0.6298
  623MPD2    C1 9225   0.622   1.213  15.861 -0.4078  0.1325  0.1946
  623MPD2    C2 9226   0.697   1.274  15.961 -0.2803  0.8496  0.7144
  623MPD2    C3 9227   0.801   1.355  15.927 -0.5434  0.4557  0.0185
  623MPD2    C4 9228   0.844   1.363  15.795  0.2022  0.0054 -0.4606
  623MPD2    C5 9229   0.772   1.303  15.700 -0.1602  0.0079 -0.1234
  623MPD2     H 9230   0.657   1.274  16.062 -1.7448  2.1694  0.1410
  623MPD2    H1 9231   0.931   1.421  15.766  0.4900 -1.5133 -2.6607
  623MPD2    H2 9232   0.601   1.177  15.653 -0.0313  1.3950  0.0860
  623MPD2    H3 9233   0.797   1.297  15.595  2.2691 -1.4387  0.5369
  623MPD2     N 9234   0.857   1.430  16.036  0.1564  0.0606  0.1565
  623MPD2    H5 9235   0.809   1.407  16.122 -0.3499 -0.5525 -0.2888
  623MPD2    N1 9236   0.499   1.161  15.894 -0.6210 -0.2431 -0.0672
  623MPD2    H7 9237   0.442   1.141  15.812 -0.9093  0.6571 -0.0908
  624TMC3    C1 9238   1.115   1.439  16.320  0.2262  0.6456  0.1825
  624TMC3    C2 9239   1.006   1.416  16.401 -0.2145 -0.2547 -0.5005
  624TMC3    C3 9240   0.884   1.472  16.360  0.1457  0.8043  0.9979
  624TMC3    C4 9241   1.108   1.510  16.203 -0.6352  0.4350  0.0581
  624TMC3    C5 9242   0.987   1.566  16.173  0.4782  0.3596 -0.0009
  624TMC3    C6 9243   0.876   1.552  16.251 -0.3785  0.4422  0.2444
  624TMC3     C 9244   1.241   1.406  16.377 -0.2724 -0.9409 -0.1580
  624TMC3     O 9245   1.248   1.351  16.485  0.0455 -0.2052  0.5275
  624TMC3     H 9246   1.019   1.353  16.488  1.3857  1.0113  0.1945
  624TMC3    H1 9247   1.194   1.540  16.145 -0.5725 -0.2461 -0.1972
  624TMC3    H2 9248   0.789   1.614  16.234 -1.3097 -1.4781 -2.0392
  624TMC3    C7 9249   0.963   1.522  16.035  0.3163 -0.4288 -0.5575
  624TMC3    C8 9250   0.774   1.398  16.409 -0.1094  0.3225 -0.8670
  624TMC3    O1 9251   1.023   1.565  15.943  0.1246  0.1610 -0.0084
  624TMC3    O2 9252   0.797   1.290  16.460  0.0555  0.1199 -0.4281
  625MPD2     C 9253   1.174   2.290   0.776 -0.3963 -0.5513  0.2346
  625MPD2    C1 9254   1.284   2.368   0.805  0.9039 -0.0955 -0.7514
  625MPD2    C2 9255   1.350   2.353   0.925 -0.0165  0.5921 -0.2824
  625MPD2    C3 9256   1.313   2.256   1.012 -0.2969 -0.3349 -0.2715
  625MPD2    C4 9257   1.216   2.165   0.978 -0.5386 -0.5940 -0.1274
  625MPD2    C5 9258   1.147   2.194   0.864 -0.6132 -0.8032 -0.5393
  625MPD2     H 9259   1.440   2.409   0.949  0.0685  0.9322 -1.3686
  625MPD2    H1 9260   1.184   2.080   1.036 -0.6542  0.9840  2.1465
  625MPD2    H2 9261   1.105   2.304   0.693  0.2346 -1.2789 -0.4014
  625MPD2    H3 9262   1.060   2.131   0.851 -1.8727  1.1501 -1.5190
  625MPD2     N 9263   1.401   2.240   1.124 -0.1480  0.5099  0.3248
  625MPD2    H5 9264   1.473   2.311   1.131  1.1492 -0.9559  2.0126
  625MPD2    N1 9265   1.344   2.453   0.714  0.0575 -0.5306  0.1765
  625MPD2    H7 9266   1.410   2.521   0.748 -1.5236  1.3097 -0.4493
  626TMC3    C1 9267   1.355   2.595   0.531 -0.3849  0.2067 -0.1398
  626TMC3    C2 9268   1.277   2.638   0.426 -0.2672 -0.3935  0.5395
  626TMC3    C3 9269   1.302   2.753   0.368  0.5333 -0.2049 -0.5188
  626TMC3    C4 9270   1.449   2.673   0.589 -0.7376 -0.9640  0.5010
  626TMC3    C5 9271   1.470   2.791   0.530  0.1653  0.6259 -1.0524
  626TMC3    C6 9272   1.397   2.833   0.418 -0.5443  0.2815 -0.2853
  626TMC3     C 9273   1.316   2.466   0.583  0.5670  0.8835  0.3887
  626TMC3     O 9274   1.233   2.399   0.521 -0.1155  0.3003  0.3055
  626TMC3     H 9275   1.198   2.569   0.399 -1.2639  0.3219  1.6247
  626TMC3    H1 9276   1.528   2.636   0.655  0.4574 -0.1659 -0.4877
  626TMC3    H2 9277   1.415   2.928   0.371  3.6190 -1.0050 -1.2527
  626TMC3    C7 9278   1.555   2.894   0.596 -0.2926 -0.0758  0.1087
  626TMC3    C8 9279   1.199   2.804   0.279  0.5669 -0.3486  0.5579
  626TMC3    O1 9280   1.583   2.989   0.522 -0.3483 -0.7048  0.0236
  626TMC3    O2 9281   1.233   2.899   0.209 -0.2997 -0.0218 -0.1734
  627MPD2     C 9282   4.415   2.355  13.808 -0.2144  0.2377  0.4228
  627MPD2    C1 9283   4.381   2.367  13.943  0.0855 -0.1077 -0.0086
  627MPD2    C2 9284   4.256   2.314  13.981  0.0870 -0.0175 -0.4506
  627MPD2    C3 9285   4.180   2.242  13.891 -0.1733 -0.6683 -0.1737
  627MPD2    C4 9286   4.225   2.225  13.761 -0.0391  0.1849  0.1336
  627MPD2    C5 9287   4.336   2.294  13.714 -0.6165  0.3289 -0.5055
  627MPD2     H 9288   4.221   2.329  14.083  0.4731 -1.5650 -0.0848
  627MPD2    H1 9289   4.174   2.170  13.682 -1.4069  1.5890  0.0444
  627MPD2    H2 9290   4.509   2.396  13.772 -0.0988 -0.5088 -0.1180
  627MPD2    H3 9291   4.378   2.284  13.615  1.5105 -3.7777  0.8291
  627MPD2     N 9292   4.059   2.181  13.945 -0.5070  0.0525 -0.1816
  627MPD2    H5 9293   4.051   2.208  14.042 -1.4600  2.6409 -0.9763
  627MPD2    N1 9294   4.452   2.437  14.035  0.3137  0.7330 -0.1344
  627MPD2    H7 9295   4.404   2.452  14.124 -1.3721 -0.9766 -0.7481
  628TMC3    C1 9296   4.623   2.563  14.137  1.3676  0.7679 -0.1341
  628TMC3    C2 9297   0.032   2.580  14.128  0.8584  0.4452 -0.5711
  628TMC3    C3 9298   0.104   2.579  14.246 -0.3777  0.4363  0.8275
  628TMC3    C4 9299   4.557   2.560  14.261  0.9443  0.2465 -0.0516
  628TMC3    C5 9300   4.625   2.575  14.376  0.2715 -0.2656  0.7809
  628TMC3    C6 9301   0.038   2.575  14.366  0.6890 -0.0650  0.6297
  628TMC3     C 9302   4.561   2.521  14.013 -0.0061 -0.1562 -0.1214
  628TMC3     O 9303   4.611   2.557  13.905  0.4209  0.3620  0.2582
  628TMC3     H 9304   0.088   2.559  14.037  2.8019 -1.4007  1.0422
  628TMC3    H1 9305   4.449   2.560  14.268  0.8714  0.6347 -1.1872
  628TMC3    H2 9306   0.088   2.619  14.451  2.5409 -0.4786 -0.2447
  628TMC3    C7 9307   4.569   2.679  14.462 -0.3166  0.1819  0.2976
  628TMC3    C8 9308   0.249   2.575  14.244  0.2915  0.2276  0.3975
  628TMC3    O1 9309   4.612   2.695  14.576  0.0651 -0.0352 -0.0426
  628TMC3    O2 9310   0.297   2.629  14.148 -0.8673  0.1875 -0.5010
  629MPD2     C 9311   2.945   1.601  15.860 -0.3567 -0.6765  0.0616
  629MPD2    C1 9312   2.968   1.471  15.844 -0.5512  0.1785 -0.1321
  629MPD2    C2 9313   2.862   1.377  15.826  0.0918  0.0822  0.0768
  629MPD2    C3 9314   2.736   1.433  15.811  0.6293  0.0557  0.1158
  629MPD2    C4 9315   2.709   1.570  15.836  0.2647  0.0884  0.1486
  629MPD2    C5 9316   2.816   1.651  15.849 -0.4173  0.2585 -0.2573
  629MPD2     H 9317   2.876   1.269  15.819 -0.2531 -0.0296  1.2070
  629MPD2    H1 9318   2.613   1.619  15.843  0.6608  0.6180  1.8260
  629MPD2    H2 9319   3.029   1.667  15.876  0.1132 -1.0670 -0.7965
  629MPD2    H3 9320   2.800   1.756  15.871  3.3460  0.6390  0.6644
  629MPD2     N 9321   2.630   1.344  15.785  0.1671  0.0160  0.4725
  629MPD2    H5 9322   2.652   1.245  15.780  1.5479  0.4061 -1.3951
  629MPD2    N1 9323   3.105   1.428  15.859  0.3773 -0.2386 -0.0737
  629MPD2    H7 9324   3.176   1.500  15.865 -1.5828  1.8750 -2.3748
  630TMC3    C1 9325   3.296   1.294  15.829 -0.1090  0.3205  0.0401
  630TMC3    C2 9326   3.347   1.408  15.778  0.2005 -0.1373 -1.3571
  630TMC3    C3 9327   3.455   1.468  15.844  0.1487  1.1957 -0.0771
  630TMC3    C4 9328   3.356   1.223  15.927  0.9173  0.3804  0.5219
  630TMC3    C5 9329   3.440   1.299  16.003  0.1260  0.7563  0.1433
  630TMC3    C6 9330   3.500   1.418  15.966 -0.5674  0.1583  0.5767
  630TMC3     C 9331   3.151   1.297  15.857  0.1684  0.3572 -0.8738
  630TMC3     O 9332   3.102   1.188  15.861  0.0379 -0.8663 -0.5234
  630TMC3     H 9333   3.308   1.437  15.682 -2.7689 -0.6829 -0.3151
  630TMC3    H1 9334   3.304   1.142  15.976 -0.9814  0.1988 -1.7569
  630TMC3    H2 9335   3.573   1.468  16.028 -2.9303  2.1700  1.7741
  630TMC3    C7 9336   3.445   1.267  16.148 -0.0703  0.2339 -0.1640
  630TMC3    C8 9337   3.448   1.612  15.830  0.0648  0.5739 -0.7312
  630TMC3    O1 9338   3.356   1.199  16.200  0.6021 -0.1352 -0.5309
  630TMC3    O2 9339   3.341   1.642  15.777  0.6015  0.2718 -0.4963
  631MPD2     C 9340   1.047   1.260  15.543  0.0395 -0.9309  0.0867
  631MPD2    C1 9341   1.111   1.242  15.426 -0.2171 -0.7983  0.3353
  631MPD2    C2 9342   1.168   1.123  15.395  0.2763 -0.1857  0.2631
  631MPD2    C3 9343   1.156   1.016  15.483  0.0179 -0.1583  0.0089
  631MPD2    C4 9344   1.076   1.025  15.597  0.0906 -0.1067  0.2594
  631MPD2    C5 9345   1.032   1.154  15.628  0.4716  0.2240 -0.3185
  631MPD2     H 9346   1.237   1.108  15.312 -0.5851  2.6950 -0.9670
  631MPD2    H1 9347   1.066   0.950  15.675  1.3138 -0.4734  0.0653
  631MPD2    H2 9348   1.012   1.356  15.580 -2.5334 -1.6616 -0.4358
  631MPD2    H3 9349   0.991   1.164  15.728 -1.4104 -0.0264 -1.0698
  631MPD2     N 9350   1.242   0.904  15.462  0.2299 -0.2777 -0.0205
  631MPD2    H5 9351   1.322   0.919  15.400  1.7604  2.7699  2.6505
  631MPD2    N1 9352   1.127   1.355  15.347 -0.7667  0.2075 -0.4315
  631MPD2    H7 9353   1.106   1.444  15.391  1.0688 -0.3000  1.4391
  632TMC3    C1 9354   1.151   1.487  15.147 -0.3296  0.6327  0.5609
  632TMC3    C2 9355   1.096   1.592  15.214 -0.0890 -0.0100  0.6530
  632TMC3    C3 9356   1.080   1.707  15.137  0.7859  0.3331  0.2586
  632TMC3    C4 9357   1.196   1.490  15.015 -0.0824 -0.6033  0.0023
  632TMC3    C5 9358   1.188   1.614  14.951 -0.1268  0.1233  0.2046
  632TMC3    C6 9359   1.130   1.723  15.010 -0.3846  0.0857 -0.3684
  632TMC3     C 9360   1.151   1.350  15.212 -0.6474 -0.2272  0.3273
  632TMC3     O 9361   1.179   1.253  15.141 -0.2575 -0.0304  0.3378
  632TMC3     H 9362   1.053   1.578  15.312 -2.0099  4.0661  0.4396
  632TMC3    H1 9363   1.253   1.407  14.975 -3.9278 -3.5756  0.7504
  632TMC3    H2 9364   1.123   1.814  14.952  0.0579 -0.4085 -1.2029
  632TMC3    C7 9365   1.260   1.627  14.826  0.4977  0.1084 -0.0554
  632TMC3    C8 9366   1.019   1.828  15.195 -0.2419 -0.2333  0.3001
  632TMC3    O1 9367   1.229   1.724  14.761 -0.5005  0.6351 -0.9020
  632TMC3    O2 9368   0.985   1.918  15.123 -0.6265 -0.2631 -0.1891
  633MPD2     C 9369   1.006   3.939  17.216 -0.3767 -0.6786  0.2195
  633MPD2    C1 9370   1.010   3.888  17.094 -0.0994  0.0387  0.3149
  633MPD2    C2 9371   1.043   3.753  17.067 -0.3742 -0.2469 -0.1959
  633MPD2    C3 9372   1.072   3.670  17.178  0.0913  0.8460  0.0859
  633MPD2    C4 9373   1.074   3.726  17.301  0.0049  0.3440  0.3668
  633MPD2    C5 9374   1.045   3.860  17.318  0.2450 -1.3093  0.2440
  633MPD2     H 9375   1.036   3.718  16.965  2.0668 -1.8867  0.2161
  633MPD2    H1 9376   1.091   3.676  17.396  1.1072  0.4314  0.2165
  633MPD2    H2 9377   0.977   4.040  17.246  0.4648 -0.6411  0.9022
  633MPD2    H3 9378   1.038   3.911  17.414 -1.2079 -0.4761 -0.3100
  633MPD2     N 9379   1.126   3.538  17.165  0.0715  0.5116 -0.4044
  633MPD2    H5 9380   1.183   3.502  17.241 -0.4385 -0.0946 -0.3160
  633MPD2    N1 9381   0.953   3.960  16.984 -0.2650  0.5358 -0.0713
  633MPD2    H7 9382   0.944   3.906  16.899 -1.2535  0.0768  0.3243
  634TMC3    C1 9383   0.852   4.132  16.853  0.4918  0.0905 -0.2426
  634TMC3    C2 9384   0.844   4.041  16.753 -0.9288  0.4724  0.0824
  634TMC3    C3 9385   0.809   4.088  16.623  0.6503  0.9077 -0.0122
  634TMC3    C4 9386   0.849   4.264  16.822 -0.2512 -0.6495  0.4422
  634TMC3    C5 9387   0.831   4.306  16.697 -0.0880 -0.7726  0.0817
  634TMC3    C6 9388   0.802   4.224  16.592 -0.6580  0.1864 -0.5478
  634TMC3     C 9389   0.902   4.091  16.985 -0.2506  0.2606  0.2095
  634TMC3     O 9390   0.919   4.178  17.071 -0.0854  0.2437  0.1897
  634TMC3     H 9391   0.836   3.934  16.770 -0.2104  0.2954 -0.7408
  634TMC3    H1 9392   0.868   4.336  16.901 -1.8769  0.8801 -0.5833
  634TMC3    H2 9393   0.778   4.264  16.494 -0.2710 -1.7563 -1.4213
  634TMC3    C7 9394   0.862   4.444  16.657  0.2135  0.6697  0.1324
  634TMC3    C8 9395   0.816   3.989  16.511 -0.2629  0.3247  0.4136
  634TMC3    O1 9396   0.911   4.455  16.547 -0.6366 -0.0526  0.1327
  634TMC3    O2 9397   0.870   3.879  16.538 -0.2668 -0.2104 -0.3899
  635TMC3    C1 9398   2.193   0.765  17.454  0.6987 -0.2340 -0.1575
  635TMC3    C2 9399   2.092   0.805  17.376  0.1853  0.0325  0.2310
  635TMC3    C3 9400   2.091   0.784  17.240 -0.5657 -0.0743 -0.0793
  635TMC3    C4 9401   2.299   0.695  17.402 -0.6890  0.2647 -0.5231
  635TMC3    C5 9402   2.298   0.679  17.267 -0.5598  0.4243  0.2284
  635TMC3    C6 9403   2.201   0.728  17.183  0.1693 -0.1034 -0.1372
  635TMC3     C 9404   2.205   0.800  17.595 -0.2125  0.7153  0.2519
  635TMC3     O 9405   2.101   0.827  17.650 -0.6722  0.1684  0.1978
  635TMC3     H 9406   2.013   0.862  17.423 -2.0303 -2.4753 -0.4585
  635TMC3    H1 9407   2.376   0.663  17.471 -1.6613 -1.2955 -0.1677
  635TMC3    H2 9408   2.211   0.726  17.075  1.9336  4.2598 -0.0693
  635TMC3    C7 9409   2.410   0.593  17.222  0.2066  0.3449  0.2726
  635TMC3    C8 9410   1.969   0.827  17.179  0.3005 -0.1410 -0.0043
  635TMC3    O1 9411   2.501   0.574  17.300  0.4788  0.6685  0.0203
  635TMC3    O2 9412   1.891   0.906  17.237  0.2765 -0.3609  0.2040
  636MPD2     C 9413   2.063   4.501  15.566 -0.1790 -0.1012  0.3164
  636MPD2    C1 9414   2.041   4.537  15.700 -0.0851  0.0876  0.6073
  636MPD2    C2 9415   2.049   4.446  15.798  0.3090  0.3990 -0.8960
  636MPD2    C3 9416   2.085   4.315  15.771 -0.2548 -0.5855 -0.6445
  636MPD2    C4 9417   2.098   4.273  15.641 -0.6942  0.5673 -0.0600
  636MPD2    C5 9418   2.086   4.368  15.543  0.2502 -0.3319 -0.0348
  636MPD2     H 9419   2.049   4.471  15.904 -0.9571  0.3015 -0.8808
  636MPD2    H1 9420   2.113   4.167  15.625 -0.5047  0.6318 -0.3135
  636MPD2    H2 9421   2.056   4.568  15.482  0.9856 -0.2020  0.1348
  636MPD2    H3 9422   2.116   4.342  15.442  1.4896 -0.2864  0.3293
  636MPD2     N 9423   2.104   4.226  15.879  0.3289 -0.1117  0.2724
  636MPD2    H5 9424   2.106   4.272  15.970  0.1696 -0.0630  0.2509
  636MPD2    N1 9425   1.994   4.663  15.740 -0.7159  0.1872  0.4603
  636MPD2    H7 9426   1.993   4.685  15.839  0.5966 -1.0284  0.7561
  637TMC3    C1 9427   2.128   4.052  16.018 -0.3346 -0.0206 -0.1346
  637TMC3    C2 9428   2.150   4.140  16.122  0.5966 -0.4692  0.1900
  637TMC3    C3 9429   2.198   4.100  16.246 -0.6659  0.7903 -0.2757
  637TMC3    C4 9430   2.157   3.919  16.037  0.4456 -0.1240 -0.4651
  637TMC3    C5 9431   2.202   3.879  16.155  0.6886 -1.1947 -0.7652
  637TMC3    C6 9432   2.224   3.963  16.261  0.0254  0.6727 -0.7211
  637TMC3     C 9433   2.087   4.095  15.885  0.2058 -0.8116  0.2558
  637TMC3     O 9434   2.061   4.013  15.794  0.6762 -0.0708 -0.6687
  637TMC3     H 9435   2.139   4.247  16.107 -0.7950 -0.5812  0.3834
  637TMC3    H1 9436   2.134   3.843  15.963 -0.1287 -0.7666  0.3819
  637TMC3    H2 9437   2.278   3.924  16.346 -0.8100  3.8467  1.2830
  637TMC3    C7 9438   2.246   3.741  16.175 -0.2713 -0.0167 -0.0643
  637TMC3    C8 9439   2.293   4.194  16.308 -0.0149  0.8575 -0.2532
  637TMC3    O1 9440   2.206   3.695  16.279 -0.4383 -0.4311  0.0693
  637TMC3    O2 9441   2.328   4.283  16.234  0.4957  0.0507  0.1658
  638MPD2     C 9442   1.977   3.285  14.785  0.2005  0.2382 -0.2865
  638MPD2    C1 9443   1.932   3.173  14.711 -0.8114 -0.3657  0.8196
  638MPD2    C2 9444   1.865   3.074  14.785 -0.6567  0.1991 -0.2134
  638MPD2    C3 9445   1.844   3.079  14.919 -0.0871  0.2797  0.8172
  638MPD2    C4 9446   1.897   3.183  14.983  0.4497 -0.2404  0.0803
  638MPD2    C5 9447   1.964   3.282  14.919  0.8799 -0.2972  0.1976
  638MPD2     H 9448   1.815   2.989  14.738  0.1816 -0.3955 -0.0359
  638MPD2    H1 9449   1.906   3.190  15.090 -0.0993  4.3496 -0.1994
  638MPD2    H2 9450   2.022   3.370  14.734  0.9092  0.6522  1.0290
  638MPD2    H3 9451   2.009   3.362  14.977 -2.8629  1.8224  0.2217
  638MPD2     N 9452   1.786   2.976  14.990  0.1451  0.3637 -0.2489
  638MPD2    H5 9453   1.741   2.986  15.080 -2.6243 -0.5913 -1.5232
  638MPD2    N1 9454   1.970   3.158  14.574  0.3882  0.1901  0.0284
  638MPD2    H7 9455   2.010   3.242  14.532 -1.0448  1.1244  0.5158
  639TMC3    C1 9456   1.763   2.754  15.059  0.2080 -0.3602 -0.3796
  639TMC3    C2 9457   1.630   2.754  15.071 -0.4749 -0.0936 -0.3195
  639TMC3    C3 9458   1.569   2.637  15.111  0.3018  0.2428  0.1023
  639TMC3    C4 9459   1.834   2.639  15.078 -0.2621 -0.4430 -0.1125
  639TMC3    C5 9460   1.770   2.523  15.113  0.1984  0.1642  0.7484
  639TMC3    C6 9461   1.634   2.522  15.124 -0.5027  0.0448 -0.3920
  639TMC3     C 9462   1.812   2.847  14.957 -0.3015 -0.1990 -0.0515
  639TMC3     O 9463   1.884   2.802  14.870 -0.2309  0.6294  0.2385
  639TMC3     H 9464   1.571   2.836  15.033 -0.5452  0.5867  1.2355
  639TMC3    H1 9465   1.942   2.637  15.068 -0.1914 -0.3265  0.6456
  639TMC3    H2 9466   1.575   2.442  15.167 -0.7126  0.7292  0.5914
  639TMC3    C7 9467   1.840   2.398  15.102 -0.3320  1.2681  0.5157
  639TMC3    C8 9468   1.429   2.631  15.083 -0.1716 -0.3344  0.2250
  639TMC3    O1 9469   1.937   2.403  15.024 -0.4846  0.3746 -0.1775
  639TMC3    O2 9470   1.346   2.679  15.162  0.2804 -0.1952  0.1754
  640MPD2     C 9471   2.293   1.145  10.269  0.4467 -0.6988 -0.1849
  640MPD2    C1 9472   2.349   1.236  10.192 -0.5015 -0.5063 -0.0111
  640MPD2    C2 9473   2.268   1.346  10.164 -0.0698  0.2071 -0.7787
  640MPD2    C3 9474   2.140   1.349  10.208  0.1582 -0.0329  0.5347
  640MPD2    C4 9475   2.078   1.247  10.286 -0.1007 -0.7653 -0.1921
  640MPD2    C5 9476   2.158   1.140  10.312 -0.3497  0.2485  0.0333
  640MPD2     H 9477   2.309   1.424  10.101 -3.0935  3.0642  0.8071
  640MPD2    H1 9478   1.973   1.248  10.312 -0.0218  2.5352  0.0401
  640MPD2    H2 9479   2.351   1.055  10.279  1.0438 -0.3377 -0.3871
  640MPD2    H3 9480   2.122   1.045  10.350  0.8206 -0.0423  0.3969
  640MPD2     N 9481   2.052   1.458  10.173  0.3731  0.7354 -0.7224
  640MPD2    H5 9482   1.958   1.449  10.210  0.3560  0.3384 -0.8592
  640MPD2    N1 9483   2.478   1.217  10.130  0.2451 -0.5004 -0.2611
  640MPD2    H7 9484   2.536   1.148  10.177 -0.0556 -0.0254  0.8229
  641TMC3    C1 9485   2.667   1.252   9.987 -0.5573  0.4824  0.5792
  641TMC3    C2 9486   2.702   1.119  10.002  0.5507  0.4886  0.7586
  641TMC3    C3 9487   2.822   1.076   9.954 -0.0585 -0.4939 -0.4133
  641TMC3    C4 9488   2.744   1.343   9.919  0.0700  0.0053  0.7408
  641TMC3    C5 9489   2.862   1.294   9.863 -0.1614  0.0938  0.5618
  641TMC3    C6 9490   2.902   1.159   9.874  0.3419  0.2468 -0.5553
  641TMC3     C 9491   2.533   1.297  10.029 -0.0510  0.1598 -0.5627
  641TMC3     O 9492   2.485   1.386   9.965 -0.0537  0.4450 -0.4970
  641TMC3     H 9493   2.639   1.051  10.059  1.8732 -1.1486  0.2614
  641TMC3    H1 9494   2.722   1.449   9.920 -0.5745 -0.1251  0.1748
  641TMC3    H2 9495   2.986   1.112   9.824  0.8680 -1.4707  1.9265
  641TMC3    C7 9496   2.932   1.374   9.764  0.0341 -0.1316  0.0784
  641TMC3    C8 9497   2.857   0.936   9.955  0.2232 -0.1159 -0.4265
  641TMC3    O1 9498   3.029   1.320   9.713 -0.4032  0.1452  0.8031
  641TMC3    O2 9499   2.766   0.856   9.969  0.1721  0.0168  0.3978
  642TMC3    C1 9500   3.717   2.905  12.097 -0.7101  0.2676  0.5365
  642TMC3    C2 9501   3.782   2.852  12.202 -1.3055  0.0736 -0.1931
  642TMC3    C3 9502   3.728   2.750  12.270  0.5068  0.3213 -0.0083
  642TMC3    C4 9503   3.600   2.851  12.054  0.8424  0.2692 -1.2788
  642TMC3    C5 9504   3.550   2.743  12.120  0.0136 -0.1210  1.1560
  642TMC3    C6 9505   3.614   2.688  12.234 -0.3834  0.9374  0.1021
  642TMC3     C 9506   3.744   3.049  12.088 -0.2010  0.0087  0.3222
  642TMC3     O 9507   3.859   3.083  12.102 -0.7591 -0.4078  0.7913
  642TMC3     H 9508   3.871   2.899  12.241 -0.2874 -1.9647 -0.0220
  642TMC3    H1 9509   3.559   2.893  11.962 -0.0594 -0.3681 -1.1715
  642TMC3    H2 9510   3.570   2.608  12.293 -0.8574 -0.4276 -2.0910
  642TMC3    C7 9511   3.439   2.674  12.063 -0.4776 -0.6017  0.1694
  642TMC3    C8 9512   3.787   2.739  12.400  0.5662  0.0045  1.4443
  642TMC3    O1 9513   3.396   2.711  11.953  0.0380  0.1308  0.1572
  642TMC3    O2 9514   3.907   2.725  12.410 -0.1908  0.0512 -0.0615
  643TMC3    C1 9515   2.793   2.156   0.497 -0.3086 -0.0719 -0.3281
  643TMC3    C2 9516   2.659   2.183   0.499  0.3814  0.2798  0.3758
  643TMC3    C3 9517   2.585   2.153   0.391  0.4792 -0.0437 -0.3246
  643TMC3    C4 9518   2.847   2.097   0.380 -0.1827 -0.2807  0.8226
  643TMC3    C5 9519   2.761   2.055   0.282 -0.5350  0.7585  0.0695
  643TMC3    C6 9520   2.628   2.077   0.290  0.3589  0.0883  0.5562
  643TMC3     C 9521   2.868   2.213   0.595 -0.2069  0.3425  0.0850
  643TMC3     O 9522   2.812   2.300   0.660 -0.9756 -0.1469 -0.1683
  643TMC3     H 9523   2.602   2.219   0.584 -0.4837 -1.8330  0.6888
  643TMC3    H1 9524   2.954   2.101   0.366 -0.3645 -1.6574 -0.9592
  643TMC3    H2 9525   2.573   2.079   0.197  1.8994 -1.4202 -0.4008
  643TMC3    C7 9526   2.812   2.106   0.149 -0.4496 -0.8045  0.2073
  643TMC3    C8 9527   2.515   2.265   0.350 -0.6559 -0.7772 -0.7904
  643TMC3    O1 9528   2.861   2.217   0.150  0.6098 -0.0324 -0.1720
  643TMC3    O2 9529   2.404   2.287   0.400  0.9446  0.2166  0.1742
  644MPD2     C 9530   2.718   2.669  10.042 -0.0630 -1.0032 -0.2883
  644MPD2    C1 9531   2.697   2.542   9.975  0.8689  0.0866 -0.4764
  644MPD2    C2 9532   2.570   2.534   9.925 -0.6304  0.0871  0.4028
  644MPD2    C3 9533   2.473   2.627   9.915  0.4214 -0.6560  0.8108
  644MPD2    C4 9534   2.500   2.749   9.975  0.2891 -0.3830 -0.3946
  644MPD2    C5 9535   2.618   2.766  10.032 -0.5205  0.1817 -0.3189
  644MPD2     H 9536   2.540   2.443   9.873  0.3446 -0.5192  0.8820
  644MPD2    H1 9537   2.424   2.826   9.986  0.8197  0.0217  0.4016
  644MPD2    H2 9538   2.810   2.684  10.098 -0.9888  1.2991  0.6000
  644MPD2    H3 9539   2.627   2.863  10.080  0.5854 -0.7838  1.4352
  644MPD2     N 9540   2.346   2.591   9.861 -0.1130  0.1737  0.0798
  644MPD2    H5 9541   2.334   2.497   9.823  0.7219 -0.4129  1.2617
  644MPD2    N1 9542   2.785   2.432   9.999 -0.3823 -0.6141  0.4034
  644MPD2    H7 9543   2.872   2.460  10.041 -1.4212  0.5919  1.7394
  645TMC3    C1 9544   2.118   2.611   9.815 -1.3353 -0.2676 -0.3986
  645TMC3    C2 9545   2.119   2.472   9.803  0.8773 -0.3176  1.3146
  645TMC3    C3 9546   1.996   2.422   9.762  0.3014 -0.4629  0.0548
  645TMC3    C4 9547   2.013   2.689   9.791 -0.6536  0.5624 -0.5772
  645TMC3    C5 9548   1.899   2.631   9.752 -0.1677  0.1385  0.0562
  645TMC3    C6 9549   1.886   2.493   9.739  0.2572 -0.2059  0.3435
  645TMC3     C 9550   2.239   2.681   9.852 -0.2290 -0.1740  0.2523
  645TMC3     O 9551   2.231   2.794   9.894  0.6410 -0.1362  0.1042
  645TMC3     H 9552   2.198   2.407   9.840  2.1135 -0.2386 -1.2039
  645TMC3    H1 9553   2.020   2.796   9.802 -0.3412  0.3944  0.9013
  645TMC3    H2 9554   1.791   2.455   9.702 -0.8602  1.8720  1.1135
  645TMC3    C7 9555   1.785   2.720   9.735  0.8157  0.2946 -0.5785
  645TMC3    C8 9556   1.998   2.271   9.745 -0.2046 -0.2943  0.5301
  645TMC3    O1 9557   1.819   2.834   9.706  0.0061 -0.1471 -0.0364
  645TMC3    O2 9558   2.091   2.197   9.778  0.0634  0.3389  0.1108
  646MPD2     C 9559   1.927   1.821  14.487  0.0553  0.0742  0.0659
  646MPD2    C1 9560   1.825   1.818  14.576  0.1576  0.3814 -0.4757
  646MPD2    C2 9561   1.700   1.868  14.542  0.0246 -0.2838  1.0606
  646MPD2    C3 9562   1.672   1.928  14.417 -0.0055 -0.3174 -0.0031
  646MPD2    C4 9563   1.777   1.929  14.332 -0.8515  0.4332  0.7877
  646MPD2    C5 9564   1.901   1.871  14.360 -0.2232  0.4487  0.2517
  646MPD2     H 9565   1.613   1.861  14.607 -0.1458  0.4221  0.9045
  646MPD2    H1 9566   1.770   1.973  14.233  0.1864 -1.2112 -0.0291
  646MPD2    H2 9567   2.030   1.790  14.499 -0.1147 -0.8615 -0.8756
  646MPD2    H3 9568   1.982   1.875  14.287 -0.1075 -0.4884  0.3273
  646MPD2     N 9569   1.550   1.997  14.390 -0.8310 -0.4384  0.1822
  646MPD2    H5 9570   1.476   1.981  14.458 -1.5159  1.9512 -0.0049
  646MPD2    N1 9571   1.851   1.757  14.703 -0.4894 -0.0726  0.5089
  646MPD2    H7 9572   1.944   1.720  14.718  0.0528  0.8203 -0.6718
  647TMC3    C1 9573   1.814   1.633  14.903 -0.5590  0.1957  0.1588
  647TMC3    C2 9574   1.786   1.653  15.034 -0.0576  0.1104 -0.4190
  647TMC3    C3 9575   1.866   1.605  15.125 -0.3997 -0.5295  0.1904
  647TMC3    C4 9576   1.920   1.557  14.868  0.4166  0.4006  0.5876
  647TMC3    C5 9577   2.002   1.503  14.963 -1.0045 -0.5307  0.5299
  647TMC3    C6 9578   1.975   1.536  15.092  0.0887  0.0750 -0.0519
  647TMC3     C 9579   1.763   1.736  14.810  0.4608 -0.2944 -0.3425
  647TMC3     O 9580   1.653   1.792  14.831 -0.5687 -1.0119  0.9047
  647TMC3     H 9581   1.705   1.721  15.056  1.1796  1.2581  0.5296
  647TMC3    H1 9582   1.939   1.537  14.764 -3.5385  1.2804 -0.2950
  647TMC3    H2 9583   2.040   1.490  15.165 -0.9833 -1.3351  0.0166
  647TMC3    C7 9584   2.108   1.400  14.939  0.9077 -0.5309  0.3109
  647TMC3    C8 9585   1.801   1.544  15.239 -0.4175  0.0976 -0.2979
  647TMC3    O1 9586   2.168   1.361  15.037 -0.2842  0.1330 -0.3037
  647TMC3    O2 9587   1.733   1.614  15.310  0.4716 -0.1153  0.2350
  648TMC3    C1 9588   1.408   4.244  15.881  0.1423  0.1531 -0.2797
  648TMC3    C2 9589   1.448   4.124  15.834  0.4983  0.4787 -0.0172
  648TMC3    C3 9590   1.392   4.083  15.719  0.2545 -0.3692 -0.8606
  648TMC3    C4 9591   1.326   4.331  15.820 -0.7952 -0.3284  0.1864
  648TMC3    C5 9592   1.274   4.292  15.698  0.1403 -0.4914 -0.0524
  648TMC3    C6 9593   1.313   4.170  15.643 -0.1235 -0.3435 -0.1623
  648TMC3     C 9594   1.400   4.257  16.024 -0.2822  0.1985  0.0180
  648TMC3     O 9595   1.464   4.343  16.077  0.5109  0.2454 -0.7443
  648TMC3     H 9596   1.494   4.060  15.908  0.0691  1.2899  0.9680
  648TMC3    H1 9597   1.274   4.405  15.879  0.2605  0.8999 -0.4339
  648TMC3    H2 9598   1.280   4.142  15.543 -1.1869  1.7943 -0.4098
  648TMC3    C7 9599   1.181   4.375  15.623 -0.3426 -0.0138 -0.1497
  648TMC3    C8 9600   1.362   3.941  15.701 -0.7658 -0.8823 -0.2062
  648TMC3    O1 9601   1.122   4.316  15.533  0.0647 -0.1262  0.0925
  648TMC3    O2 9602   1.250   3.914  15.661 -0.1591 -0.0609 -0.3667
  649TMC3    C1 9603   0.297   0.554  12.604  0.1289 -0.1200  0.4362
  649TMC3    C2 9604   0.397   0.471  12.554 -0.5422 -0.2234 -0.0290
  649TMC3    C3 9605   0.476   0.400  12.637  0.3177 -1.3829 -0.0816
  649TMC3    C4 9606   0.265   0.541  12.736 -0.0527  0.3638 -0.3725
  649TMC3    C5 9607   0.348   0.471  12.819  0.6539  0.4334  0.0604
  649TMC3    C6 9608   0.460   0.404  12.771 -0.1698 -0.2591 -0.4990
  649TMC3     C 9609   0.200   0.610  12.514  0.8691 -0.1318 -0.3549
  649TMC3     O 9610   0.109   0.664  12.579 -0.4156 -0.4653 -0.0048
  649TMC3     H 9611   0.406   0.446  12.449  1.5515  0.9064 -0.1242
  649TMC3    H1 9612   0.178   0.591  12.775  1.2879  1.1496  1.5979
  649TMC3    H2 9613   0.510   0.335  12.837  0.1261 -1.9228 -2.4463
  649TMC3    C7 9614   0.279   0.424  12.943  0.0198 -0.5059 -0.2663
  649TMC3    C8 9615   0.612   0.381  12.596 -0.4684  0.4541 -0.4327
  649TMC3    O1 9616   0.200   0.505  12.987  0.2782  0.8982  0.1080
  649TMC3    O2 9617   0.683   0.318  12.675 -0.2309 -0.2073  0.0867
  650TMC3    C1 9618   2.856   2.512  12.614 -0.5491  0.6227 -0.1241
  650TMC3    C2 9619   2.837   2.644  12.576 -0.5255  0.6966 -0.7184
  650TMC3    C3 9620   2.752   2.669  12.469 -0.2722  1.0667 -0.0626
  650TMC3    C4 9621   2.789   2.409  12.557  0.4746 -0.1923 -0.3281
  650TMC3    C5 9622   2.708   2.438  12.453 -0.0612  0.3019 -0.3991
  650TMC3    C6 9623   2.691   2.567  12.401 -0.2910  0.1747 -0.2128
  650TMC3     C 9624   2.950   2.481  12.714  0.0874 -0.2897  0.2167
  650TMC3     O 9625   2.994   2.569  12.785  0.4189  0.5444 -0.1057
  650TMC3     H 9626   2.882   2.724  12.634 -0.2068 -1.1685  1.6082
  650TMC3    H1 9627   2.794   2.305  12.586 -0.2840  0.0003  0.4823
  650TMC3    H2 9628   2.624   2.583  12.317  0.2884  1.4462 -0.4368
  650TMC3    C7 9629   2.708   2.340  12.345  1.6986 -0.4143 -0.8668
  650TMC3    C8 9630   2.753   2.796  12.411 -0.1146  0.4382 -1.7458
  650TMC3    O1 9631   2.793   2.250  12.354 -0.6742  0.1384 -0.0676
  650TMC3    O2 9632   2.861   2.849  12.414 -0.0517  0.4381  0.2381
  651MPD2     C 9633   1.870   3.994  10.674 -0.2442  0.3189  0.5648
  651MPD2    C1 9634   1.860   4.121  10.719 -0.1392 -0.4704 -0.5176
  651MPD2    C2 9635   1.969   4.203  10.694 -0.8907 -0.6124 -0.3985
  651MPD2    C3 9636   2.085   4.161  10.623 -0.3074 -0.6298 -0.0405
  651MPD2    C4 9637   2.079   4.030  10.572 -0.4677  0.2035 -0.1034
  651MPD2    C5 9638   1.969   3.952  10.592 -0.7989  0.3019 -0.3715
  651MPD2     H 9639   1.972   4.303  10.737  0.3493  0.2734 -2.5097
  651MPD2    H1 9640   2.161   3.995  10.510 -0.9212 -1.6125  0.3276
  651MPD2    H2 9641   1.795   3.917  10.684 -2.1170  1.9852 -0.6769
  651MPD2    H3 9642   1.964   3.848  10.561  2.9608 -0.9741  3.3253
  651MPD2     N 9643   2.192   4.247  10.601  0.0799 -0.1418  0.6282
  651MPD2    H5 9644   2.200   4.334  10.653  2.8049 -0.0426  0.0751
  651MPD2    N1 9645   1.761   4.163  10.808 -0.3751 -0.4475 -0.2771
  651MPD2    H7 9646   1.777   4.254  10.851  0.3578 -0.3233 -0.8212
  652TMC3    C1 9647   2.624   4.396  10.473  0.4857  0.3967  0.5335
  652TMC3    C2 9648   2.510   4.320  10.452  0.1103  0.6307 -0.3387
  652TMC3    C3 9649   2.414   4.303  10.552 -0.5949 -0.4039 -0.5725
  652TMC3    C4 9650   2.642   4.460  10.597 -0.1346 -0.1739  0.2185
  652TMC3    C5 9651   2.542   4.438  10.695  0.0291 -0.6148  0.0166
  652TMC3    C6 9652   2.429   4.360  10.671  0.4138  0.1309  0.2261
  652TMC3     C 9653   2.742   4.361  10.401  0.0709  0.0694 -0.5902
  652TMC3     O 9654   2.743   4.350  10.277  0.1274 -0.2585  1.2015
  652TMC3     H 9655   2.494   4.277  10.354 -2.2339 -2.7716  1.5546
  652TMC3    H1 9656   2.733   4.512  10.622  0.3982 -1.5873  1.1852
  652TMC3    H2 9657   2.358   4.358  10.754  0.6641  0.3818  0.4483
  652TMC3    C7 9658   2.570   4.475  10.834 -0.1494 -0.0261 -0.3654
  652TMC3    C8 9659   2.296   4.223  10.515  0.5397  0.0320  0.2541
  652TMC3    O1 9660   2.519   4.412  10.928  0.4322 -0.2135  0.4391
  652TMC3    O2 9661   2.303   4.151  10.412  0.1528 -0.1099 -0.2537
  653MPD2     C 9662   1.013   4.337   0.175  1.4749  0.7575  0.4330
  653MPD2    C1 9663   0.935   4.412   0.089 -0.1041  0.3706  0.1164
  653MPD2    C2 9664   0.856   4.351  17.694 -0.4963  0.1180  0.5952
  653MPD2    C3 9665   0.860   4.212  17.676 -0.0526 -0.2325  0.6560
  653MPD2    C4 9666   0.941   4.141   0.066  0.3363 -0.2333  0.6459
  653MPD2    C5 9667   1.013   4.205   0.159 -0.5245  0.6574  0.3551
  653MPD2     H 9668   0.783   4.406  17.635  2.6044  0.4911 -2.8702
  653MPD2    H1 9669   0.944   4.032   0.064  2.7846 -0.0836 -2.4357
  653MPD2    H2 9670   1.071   4.378   0.258  1.7242  0.0614  0.5992
  653MPD2    H3 9671   1.081   4.149   0.222  0.2033 -0.5968 -1.5478
  653MPD2     N 9672   0.774   4.154  17.583  0.2850  0.0180 -0.1737
  653MPD2    H5 9673   0.719   4.219  17.528  1.0910 -0.6711 -1.7939
  653MPD2    N1 9674   0.931   4.551   0.106 -0.2294  0.2016 -0.3390
  653MPD2    H7 9675   0.898   4.612   0.031 -1.2568 -1.5596 -1.3030
  654TMC3    C1 9676   0.647   3.993  17.480  0.3830 -0.1380 -0.2999
  654TMC3    C2 9677   0.549   4.088  17.466  0.4667  0.4292 -0.7878
  654TMC3    C3 9678   0.460   4.064  17.370  0.2521  0.1148  1.0767
  654TMC3    C4 9679   0.655   3.883  17.396  0.5505 -1.6047 -0.3013
  654TMC3    C5 9680   0.560   3.871  17.306 -0.0641 -0.5074 -0.4076
  654TMC3    C6 9681   0.457   3.951  17.294  0.0930  0.7427  0.1817
  654TMC3     C 9682   0.761   4.023  17.562  0.3032  0.3762  0.5254
  654TMC3     O 9683   0.843   3.932  17.575  0.5791  0.4539 -0.2039
  654TMC3     H 9684   0.536   4.169  17.537  1.6507  0.3967 -0.5409
  654TMC3    H1 9685   0.731   3.807  17.411  2.4142  0.0003 -1.6658
  654TMC3    H2 9686   0.390   3.942  17.210  0.0038  0.9475  0.2320
  654TMC3    C7 9687   0.580   3.783  17.193 -0.6104 -0.0674 -1.0627
  654TMC3    C8 9688   0.331   4.129  17.385 -0.2749  0.4508 -0.2366
  654TMC3    O1 9689   0.512   3.803  17.094  0.7024 -0.0784  0.5311
  654TMC3    O2 9690   0.326   4.245  17.416 -0.3786  0.0294 -0.1264
  655MPD2     C 9691   1.769   4.078  15.603  0.1379  0.1473  0.3319
  655MPD2    C1 9692   1.702   4.169  15.528  0.5237 -0.5332 -0.8387
  655MPD2    C2 9693   1.652   4.142  15.407  1.3040  0.5679  0.1496
  655MPD2    C3 9694   1.680   4.017  15.345 -0.0487 -0.2543  0.4233
  655MPD2    C4 9695   1.759   3.929  15.416  0.1479 -0.3399 -0.1204
  655MPD2    C5 9696   1.801   3.958  15.541 -0.6759  0.2002  0.7169
  655MPD2     H 9697   1.593   4.213  15.351  1.5102  0.8734  0.3189
  655MPD2    H1 9698   1.790   3.831  15.382  1.8808 -0.3561  1.5333
  655MPD2    H2 9699   1.804   4.088  15.705  0.5272  0.7586  0.1395
  655MPD2    H3 9700   1.842   3.882  15.606  4.3292  1.5841 -0.8279
  655MPD2     N 9701   1.644   3.986  15.214  0.1881 -0.1524 -0.4940
  655MPD2    H5 9702   1.686   3.898  15.182  1.2528  0.7042 -1.4698
  655MPD2    N1 9703   1.676   4.296  15.582 -0.3524  0.3884 -0.1940
  655MPD2    H7 9704   1.646   4.361  15.510  1.8378  1.5780 -0.0495
  656TMC3    C1 9705   1.716   4.485  15.719  0.2839 -0.7055  0.0604
  656TMC3    C2 9706   1.664   4.534  15.837  0.6086 -0.1069 -0.1457
  656TMC3    C3 9707   1.602   4.653  15.839  0.9480 -0.0952 -0.0050
  656TMC3    C4 9708   1.714   4.561  15.604 -0.4920  0.1483  0.7272
  656TMC3    C5 9709   1.646   4.683  15.611  0.4716  0.0906  0.2068
  656TMC3    C6 9710   1.580   0.000  15.720 -0.0381  0.0374 -0.1976
  656TMC3     C 9711   1.719   4.337  15.710 -0.3545  0.2361 -0.3929
  656TMC3     O 9712   1.740   4.279  15.815 -0.6327 -0.2248 -0.2673
  656TMC3     H 9713   1.651   4.472  15.925 -1.9016 -1.0416 -1.1978
  656TMC3    H1 9714   1.753   4.521  15.511  1.0999  0.9272  1.0711
  656TMC3    H2 9715   1.537   0.100  15.719  1.2855  0.5978 -0.6607
  656TMC3    C7 9716   1.584   4.715  15.487  0.3131  0.7079  0.3729
  656TMC3    C8 9717   1.483   4.661  15.925  0.0467 -0.6785 -0.2231
  656TMC3    O1 9718   1.659   0.001  15.391 -0.2635  0.7276 -0.9832
  656TMC3    O2 9719   1.381   4.652  15.856  0.0084 -0.6831 -0.1327
  657TMC3    C1 9720   0.633   3.488  14.855  0.1413 -0.2945  0.5863
  657TMC3    C2 9721   0.664   3.535  14.983  0.0343  0.0143 -0.3239
  657TMC3    C3 9722   0.568   3.631  15.029 -0.3079 -0.8429 -0.5717
  657TMC3    C4 9723   0.530   3.528  14.781 -0.1609  0.0233 -0.5847
  657TMC3    C5 9724   0.435   3.611  14.839  0.1555 -0.1633 -0.7309
  657TMC3    C6 9725   0.453   3.666  14.962  0.5333  0.4804 -0.2302
  657TMC3     C 9726   0.732   3.398  14.786 -0.6956 -0.1598  0.2545
  657TMC3     O 9727   0.690   3.327  14.693 -0.1728 -0.0589 -0.0973
  657TMC3     H 9728   0.757   3.522  15.038 -2.1703 -2.6857  2.7478
  657TMC3    H1 9729   0.517   3.484  14.682  1.7791 -1.2212 -0.2915
  657TMC3    H2 9730   0.365   3.706  15.011  0.2131 -0.3479 -0.1355
  657TMC3    C7 9731   0.320   3.646  14.760 -0.2434 -0.4972  0.0704
  657TMC3    C8 9732   0.586   3.710  15.145  0.8148  0.2536 -0.3297
  657TMC3    O1 9733   0.274   3.559  14.685 -0.4767 -0.2204 -0.2442
  657TMC3    O2 9734   0.532   3.821  15.139  0.0389 -0.1833  0.3608
  658MPD2     C 9735   2.113   3.845  14.785 -0.0761 -0.4533  0.2306
  658MPD2    C1 9736   1.987   3.869  14.734 -0.2542  0.5581 -0.4645
  658MPD2    C2 9737   1.984   3.933  14.610 -0.7456 -0.4468  0.6933
  658MPD2    C3 9738   2.095   3.993  14.556 -0.2059  0.3291  0.7119
  658MPD2    C4 9739   2.219   3.956  14.605 -0.9642 -0.3166  0.1521
  658MPD2    C5 9740   2.222   3.884  14.715 -0.6556 -0.9186 -0.3744
  658MPD2     H 9741   1.887   3.946  14.563  0.4012 -2.2633 -2.1753
  658MPD2    H1 9742   2.311   4.002  14.571 -0.6829  0.9150  2.5938
  658MPD2    H2 9743   2.130   3.789  14.876 -2.0002 -0.2196  0.7213
  658MPD2    H3 9744   2.321   3.862  14.754 -0.3836 -0.4122 -0.7716
  658MPD2     N 9745   2.087   4.084  14.443  0.5854 -0.0563 -0.5544
  658MPD2    H5 9746   2.000   4.132  14.423  0.7548  0.8294  0.8536
  658MPD2    N1 9747   1.868   3.842  14.807  0.5099  0.2138  0.3309
  658MPD2    H7 9748   1.880   3.812  14.903 -1.4520  3.3506  1.5672
  659TMC3    C1 9749   1.633   3.830  14.858 -0.4574  0.4270  0.3460
  659TMC3    C2 9750   1.650   3.919  14.953  0.2805 -0.1071 -0.0663
  659TMC3    C3 9751   1.536   3.967  15.007  0.3375  0.9490  0.4524
  659TMC3    C4 9752   1.511   3.790  14.813 -0.2196  0.5043 -0.2512
  659TMC3    C5 9753   1.398   3.840  14.878 -0.1372 -0.0854  0.0373
  659TMC3    C6 9754   1.409   3.935  14.971  0.1471 -0.3442 -0.5010
  659TMC3     C 9755   1.737   3.841  14.756  0.0014 -0.4013 -0.3730
  659TMC3     O 9756   1.691   3.874  14.647 -0.2295  0.2646 -0.7046
  659TMC3     H 9757   1.747   3.956  14.985  0.3053  0.2912 -0.5940
  659TMC3    H1 9758   1.497   3.748  14.714  0.3774  2.3687 -1.1297
  659TMC3    H2 9759   1.332   3.980  15.032 -0.3417 -1.0980 -0.5664
  659TMC3    C7 9760   1.265   3.827  14.815  0.5402  0.1067  0.0144
  659TMC3    C8 9761   1.559   4.052  15.130 -0.0133 -0.0592 -0.0022
  659TMC3    O1 9762   1.175   3.906  14.851  0.4586  0.1316 -0.2011
  659TMC3    O2 9763   1.490   4.150  15.154  0.0022  0.1968 -0.5743
  660MPD2     C 9764   0.040   2.708  12.187  0.3660 -0.2484  0.7191
  660MPD2    C1 9765   4.631   2.734  12.152  0.4565  0.0580  0.1452
  660MPD2    C2 9766   4.533   2.654  12.206 -0.4465  0.0047  0.5566
  660MPD2    C3 9767   4.555   2.561  12.304  0.1696  0.2292  0.8453
  660MPD2    C4 9768   4.683   2.566  12.349  0.5704  0.0559  0.2559
  660MPD2    C5 9769   0.065   2.629  12.287  0.0703  0.4583 -0.5695
  660MPD2     H 9770   4.431   2.659  12.167  0.3373  2.8337 -1.2054
  660MPD2    H1 9771   4.712   2.497  12.427 -2.4327  1.9394  2.9963
  660MPD2    H2 9772   0.117   2.763  12.134  0.2653  0.4869  1.3311
  660MPD2    H3 9773   0.164   2.610  12.327  0.2974  0.1644 -1.2635
  660MPD2     N 9774   4.456   2.482  12.369 -0.9176  0.0197 -0.2859
  660MPD2    H5 9775   4.476   2.444  12.461 -0.2957  1.6945  0.2712
  660MPD2    N1 9776   4.604   2.835  12.062 -0.1087 -0.1524  0.1570
  660MPD2    H7 9777   4.683   2.880  12.016 -0.5958  1.2368  0.6710
  661TMC3    C1 9778   4.474   2.982  11.932  0.4184 -0.3241  1.6230
  661TMC3    C2 9779   4.558   2.963  11.828 -0.0342 -0.1193 -1.0374
  661TMC3    C3 9780   4.575   3.065  11.737 -0.1508 -0.7338  0.4632
  661TMC3    C4 9781   4.394   3.091  11.939  0.8738 -0.0623 -0.0592
  661TMC3    C5 9782   4.412   3.187  11.849  0.2783 -0.6805 -0.0159
  661TMC3    C6 9783   4.503   3.185  11.746  0.3581 -0.3261  0.5602
  661TMC3     C 9784   4.478   2.883  12.038  0.0660 -0.6516  0.3392
  661TMC3     O 9785   4.376   2.864  12.106 -0.8866  0.7595 -0.0107
  661TMC3     H 9786   4.624   2.877  11.823 -0.2776 -0.3324 -0.4690
  661TMC3    H1 9787   4.316   3.104  12.014  0.9225  0.3210 -0.0731
  661TMC3    H2 9788   4.503   3.265  11.673 -0.9665  1.0613  2.0725
  661TMC3    C7 9789   4.307   3.280  11.828 -0.3599 -0.1317  1.1770
  661TMC3    C8 9790   4.672   3.047  11.631  0.0962  0.2742  0.0900
  661TMC3    O1 9791   4.343   3.390  11.789  0.2730 -0.2181 -0.1691
  661TMC3    O2 9792   0.018   2.947  11.649  0.1967  0.0844 -0.1595
  662MPD2     C 9793   0.587   2.903  16.896 -0.8701  0.0129  0.0283
  662MPD2    C1 9794   0.541   2.854  17.020  0.5796  0.1747  0.6923
  662MPD2    C2 9795   0.420   2.899  17.072  0.2289  0.2474  0.3566
  662MPD2    C3 9796   0.352   3.004  17.014 -0.0927  0.3078 -0.0899
  662MPD2    C4 9797   0.409   3.067  16.901  0.4672 -0.6378 -0.2345
  662MPD2    C5 9798   0.522   3.010  16.840  0.4640  0.3753  0.0046
  662MPD2     H 9799   0.384   2.858  17.166 -1.8922 -3.2387 -1.9545
  662MPD2    H1 9800   0.368   3.157  16.856  1.1403  0.9771  2.4037
  662MPD2    H2 9801   0.683   2.874  16.855  0.2416  2.3399  0.9517
  662MPD2    H3 9802   0.563   3.065  16.755  1.7067 -0.7310 -0.0990
  662MPD2     N 9803   0.242   3.054  17.075 -0.2160  0.0048  0.2607
  662MPD2    H5 9804   0.208   3.141  17.037  0.8994 -0.7277 -2.4260
  662MPD2    N1 9805   0.601   2.746  17.087  0.1217 -0.0572  0.1119
  662MPD2    H7 9806   0.560   2.712  17.173  1.5444  1.2523  1.2992
  663TMC3    C1 9807   0.697   2.545  17.120  0.1380  0.1877  0.0053
  663TMC3    C2 9808   0.653   2.567  17.249 -0.8996  0.6954 -0.8042
  663TMC3    C3 9809   0.621   2.455  17.322 -1.1648  0.9781  0.2269
  663TMC3    C4 9810   0.684   2.428  17.058  0.1225 -0.6214 -0.4560
  663TMC3    C5 9811   0.670   2.321  17.138 -0.2327 -0.5734  0.0932
  663TMC3    C6 9812   0.631   2.330  17.270  0.0403  0.0514  0.0305
  663TMC3     C 9813   0.684   2.657  17.029 -0.4371 -0.5681  0.0973
  663TMC3     O 9814   0.720   2.641  16.915  0.4144  0.6327  0.6316
  663TMC3     H 9815   0.664   2.664  17.297  0.6509 -0.4445  1.1287
  663TMC3    H1 9816   0.696   2.409  16.952  1.5271 -0.4953 -0.3099
  663TMC3    H2 9817   0.646   2.250  17.342 -1.1776  0.5026  0.7864
  663TMC3    C7 9818   0.670   2.193  17.075 -0.0351 -0.2100 -1.6165
  663TMC3    C8 9819   0.658   2.467  17.463 -0.3736  0.1446  0.1680
  663TMC3    O1 9820   0.707   2.175  16.962 -0.0680 -0.5643  0.4959
  663TMC3    O2 9821   0.755   2.540  17.488  0.1154  0.0370  0.4950
  664MPD2     C 9822   2.824   1.004  17.147 -0.7662  0.5617  0.4658
  664MPD2    C1 9823   2.943   1.065  17.183 -0.0377 -0.4160  0.1274
  664MPD2    C2 9824   2.991   1.066  17.316 -0.0081 -0.1866  0.2063
  664MPD2    C3 9825   2.924   1.003  17.411 -0.8877  0.1330 -0.4740
  664MPD2    C4 9826   2.811   0.933  17.371 -0.5659  0.5139  0.2080
  664MPD2    C5 9827   2.753   0.934  17.238 -0.1641 -0.3384 -0.2727
  664MPD2     H 9828   3.079   1.125  17.339  0.0894  0.2318 -1.2276
  664MPD2    H1 9829   2.750   0.880  17.444 -1.7310  1.4975 -0.0542
  664MPD2    H2 9830   2.780   1.022  17.050  1.6774 -0.0144 -0.7199
  664MPD2    H3 9831   2.658   0.887  17.216 -0.7331  0.4039  0.5552
  664MPD2     N 9832   2.964   1.005  17.549  0.5508  0.1526 -0.3883
  664MPD2    H5 9833   3.048   1.052  17.580 -1.0452  3.5172 -1.0981
  664MPD2    N1 9834   3.019   1.136  17.088  0.9874  0.3326 -0.0555
  664MPD2    H7 9835   3.117   1.155  17.105  1.3533  0.3172 -2.1183
  665TMC3    C1 9836   2.947   0.999   0.085  0.5149  0.0737  0.0670
  665TMC3    C2 9837   2.931   0.921   0.196  0.2230  0.5599  0.5749
  665TMC3    C3 9838   2.927   0.973   0.323 -0.1292 -0.1939 -0.5058
  665TMC3    C4 9839   2.976   1.139   0.102 -0.3720  0.1092  0.1992
  665TMC3    C5 9840   2.980   1.176   0.231  0.3077  0.2612  0.3111
  665TMC3    C6 9841   2.962   1.099   0.342  0.6195  0.1140  0.0249
  665TMC3     C 9842   2.895   0.945  17.655 -0.1571 -0.1321  0.0276
  665TMC3     O 9843   2.783   0.898  17.662  0.6652  0.7206  0.3700
  665TMC3     H 9844   2.907   0.816   0.182  3.4490 -0.0167 -0.5598
  665TMC3    H1 9845   2.999   1.198   0.014 -2.5668  0.1577 -0.3380
  665TMC3    H2 9846   2.980   1.138   0.442 -1.8164 -2.0303  1.3172
  665TMC3    C7 9847   3.035   1.308   0.249 -1.2434  0.9309  0.8181
  665TMC3    C8 9848   2.859   0.902   0.439 -0.1822 -0.0582  0.1776
  665TMC3    O1 9849   3.109   1.343   0.158  0.3950 -0.2187 -0.9704
  665TMC3    O2 9850   2.863   0.939   0.551  0.6111  0.1893  0.6643
  666TMC3    C1 9851   2.394   0.237  10.302  0.6538 -0.1549  0.2940
  666TMC3    C2 9852   2.495   0.291  10.374  0.9061 -0.1480 -0.2963
  666TMC3    C3 9853   2.523   0.425  10.359 -1.3292 -0.2620 -0.0678
  666TMC3    C4 9854   2.308   0.313  10.229 -0.0906  0.3267  0.5725
  666TMC3    C5 9855   2.330   0.451  10.233  0.3520 -0.4788 -0.7483
  666TMC3    C6 9856   2.436   0.513  10.297 -0.1428 -0.7465 -0.9106
  666TMC3     C 9857   2.390   0.093  10.306 -0.7508  0.1773  0.1156
  666TMC3     O 9858   2.491   0.028  10.322  0.7890  0.3663  0.1285
  666TMC3     H 9859   2.561   0.225  10.429  1.3023  0.0563 -0.5238
  666TMC3    H1 9860   2.215   0.276  10.187 -0.9484  0.6404  2.2130
  666TMC3    H2 9861   2.453   0.620  10.295 -1.7630 -0.4804 -0.6255
  666TMC3    C7 9862   2.239   0.554  10.172  1.0340 -0.3161 -0.2958
  666TMC3    C8 9863   2.645   0.467  10.426  0.1577  0.4155 -0.2472
  666TMC3    O1 9864   2.120   0.528  10.144  0.1142 -0.1300 -0.5271
  666TMC3    O2 9865   2.700   0.377  10.485 -0.4286  0.2655  0.1901
  667MPD2     C 9866   3.122   1.162  14.716 -0.3085  0.2431 -0.1062
  667MPD2    C1 9867   3.143   1.038  14.782  0.2655  0.4704 -0.1874
  667MPD2    C2 9868   3.072   0.930  14.732  0.2692  0.0791 -0.3981
  667MPD2    C3 9869   2.973   0.941  14.639 -0.6350  0.2210  0.3659
  667MPD2    C4 9870   2.953   1.067  14.576  0.3101 -1.1344 -0.2166
  667MPD2    C5 9871   3.031   1.172  14.615  0.5240  0.4231  0.4587
  667MPD2     H 9872   3.105   0.837  14.778  0.8255 -0.2800 -1.5240
  667MPD2    H1 9873   2.874   1.087  14.505  0.0927  0.8417  0.5732
  667MPD2    H2 9874   3.162   1.255  14.754  0.5033  0.3157 -1.1637
  667MPD2    H3 9875   3.009   1.263  14.560 -1.8722  0.0569  0.8242
  667MPD2     N 9876   2.900   0.829  14.594 -0.2539  0.2386 -0.2502
  667MPD2    H5 9877   2.859   0.831  14.501 -0.5398 -3.1360 -0.1926
  667MPD2    N1 9878   3.244   1.013  14.879  0.1414 -0.9857 -0.6636
  667MPD2    H7 9879   3.242   0.921  14.922 -0.5209 -0.1979  1.0098
  668TMC3    C1 9880   3.422   1.063  15.008  0.0034 -0.1742 -0.9252
  668TMC3    C2 9881   3.554   1.090  15.006  0.5270 -0.2279  0.1467
  668TMC3    C3 9882   3.627   1.065  15.118  0.6838 -0.2069  0.5386
  668TMC3    C4 9883   3.355   1.029  15.122 -0.6014  0.4027 -0.8568
  668TMC3    C5 9884   3.430   1.010  15.240 -0.2416  0.2698 -0.3627
  668TMC3    C6 9885   3.571   1.026  15.241  0.1630 -0.4837  0.2190
  668TMC3     C 9886   3.340   1.104  14.900  0.4053 -0.0789  0.2980
  668TMC3     O 9887   3.377   1.203  14.839  0.7170 -0.3186 -0.5879
  668TMC3     H 9888   3.606   1.116  14.914 -0.3865  0.7142 -0.1038
  668TMC3    H1 9889   3.247   1.024  15.125 -0.4901  0.0243  2.5060
  668TMC3    H2 9890   3.616   1.006  15.337 -1.5558 -0.6727  0.9965
  668TMC3    C7 9891   3.381   0.923  15.346  0.0302  0.1466  0.5285
  668TMC3    C8 9892   3.767   1.119  15.140  0.3064 -0.4502  0.5473
  668TMC3    O1 9893   3.438   0.936  15.454 -0.1638 -0.1696  0.2533
  668TMC3    O2 9894   3.824   1.072  15.240 -0.5238  0.2067  0.5376
  669TMC3    C1 9895   1.588   1.055  14.345 -0.0840  0.2028  0.2334
  669TMC3    C2 9896   1.495   1.138  14.285  0.4711 -0.0190  0.2350
  669TMC3    C3 9897   1.536   1.256  14.224 -0.4205  0.2482 -0.0553
  669TMC3    C4 9898   1.719   1.087  14.346 -0.2230 -0.2405 -0.0786
  669TMC3    C5 9899   1.752   1.216  14.297 -0.3831  0.1630  0.1912
  669TMC3    C6 9900   1.667   1.297  14.234  0.0888 -0.0226  1.0192
  669TMC3     C 9901   1.542   0.962  14.449  0.2856  1.0053  0.3151
  669TMC3     O 9902   1.432   0.977  14.502  0.2912  0.5794 -0.0296
  669TMC3     H 9903   1.389   1.118  14.300  0.7212 -0.9885  0.6525
  669TMC3    H1 9904   1.799   1.032  14.395 -0.4682 -1.7788 -1.4140
  669TMC3    H2 9905   1.705   1.393  14.202 -0.5174 -0.3222 -0.6153
  669TMC3    C7 9906   1.891   1.255  14.289 -0.7796  0.0299  0.0770
  669TMC3    C8 9907   1.448   1.308  14.128 -0.3237  0.6546 -0.3041
  669TMC3    O1 9908   1.919   1.370  14.327 -0.3117  0.1867  0.3625
  669TMC3    O2 9909   1.335   1.268  14.116  0.0750  0.4752 -0.5895
  670MPD2     C 9910   0.453   3.693  13.216 -0.5507  0.4939  0.7661
  670MPD2    C1 9911   0.368   3.756  13.311 -0.0149  0.4124 -0.4913
  670MPD2    C2 9912   0.300   3.671  13.398 -0.1595 -0.1986  0.1016
  670MPD2    C3 9913   0.297   3.535  13.386  0.7293  0.2363 -0.6952
  670MPD2    C4 9914   0.383   3.477  13.296  0.8480  0.5109  0.0938
  670MPD2    C5 9915   0.460   3.556  13.214 -0.3762  0.3468 -0.3482
  670MPD2     H 9916   0.229   3.715  13.467 -1.7487 -2.8075  0.1223
  670MPD2    H1 9917   0.387   3.371  13.272  0.7582  0.4973  0.1393
  670MPD2    H2 9918   0.505   3.757  13.146 -1.0428  0.6054  0.5042
  670MPD2    H3 9919   0.517   3.506  13.136 -2.1279 -1.1716 -0.6415
  670MPD2     N 9920   0.224   3.454  13.472  0.0396  0.4236 -0.0977
  670MPD2    H5 9921   0.178   3.497  13.552 -0.8870 -1.5491  0.4257
  670MPD2    N1 9922   0.365   3.899  13.331 -0.2230 -0.0225  0.0586
  670MPD2    H7 9923   0.304   3.935  13.404  0.1352 -0.0306  0.3611
  671TMC3    C1 9924   0.118   3.288  13.577  0.4690  0.2095 -0.2821
  671TMC3    C2 9925   0.153   3.336  13.704  0.1271  0.2721 -0.1522
  671TMC3    C3 9926   0.082   3.288  13.810  0.8380 -0.0917 -0.3027
  671TMC3    C4 9927   0.025   3.191  13.559 -0.4040 -0.1043  0.3224
  671TMC3    C5 9928   4.686   3.143  13.670 -1.1045  0.3677 -0.7729
  671TMC3    C6 9929   4.708   3.193  13.795 -0.5488  0.1263  0.0326
  671TMC3     C 9930   0.194   3.321  13.460  0.8266 -0.8380  0.3302
  671TMC3     O 9931   0.207   3.235  13.370  0.0225  0.1263  0.1319
  671TMC3     H 9932   0.229   3.406  13.737  1.3219 -0.8882 -0.4331
  671TMC3    H1 9933   4.723   3.146  13.464 -1.6642  0.7496  0.2629
  671TMC3    H2 9934   4.641   3.171  13.878 -0.4165  1.2916  0.4537
  671TMC3    C7 9935   4.619   3.016  13.665 -0.4450 -0.3407 -0.7644
  671TMC3    C8 9936   0.093   3.363  13.934  0.2940  0.3410  0.3299
  671TMC3    O1 9937   4.659   2.943  13.577 -0.3131  0.6197  0.5230
  671TMC3    O2 9938   0.099   3.481  13.914 -0.1303  0.0171  0.3421
  672MPD2     C 9939   0.060   3.636   0.906  0.4327  0.1363  0.2233
  672MPD2    C1 9940   0.052   3.767   0.864 -0.2216  0.4214 -0.0787
  672MPD2    C2 9941   0.052   3.873   0.954 -0.1284  0.4768  0.0569
  672MPD2    C3 9942   0.053   3.835   1.090  0.6524 -0.4429 -0.0278
  672MPD2    C4 9943   0.054   3.707   1.133  0.0575 -0.1350  0.0002
  672MPD2    C5 9944   0.061   3.606   1.042 -0.1590 -0.4334  1.0645
  672MPD2     H 9945   0.066   3.973   0.916  3.3790  0.0302  0.1576
  672MPD2    H1 9946   0.049   3.688   1.240 -1.1161  0.4647  0.0536
  672MPD2    H2 9947   0.054   3.551   0.838 -1.5191 -0.0190  0.5869
  672MPD2    H3 9948   0.070   3.503   1.075 -1.2585 -0.6828  0.6223
  672MPD2     N 9949   0.050   3.924   1.195  0.3700 -0.1568 -0.2013
  672MPD2    H5 9950   0.052   3.890   1.291 -0.4503 -0.6328 -0.3505
  672MPD2    N1 9951   0.071   3.802   0.731  0.5316  0.2875 -0.0126
  672MPD2    H7 9952   0.071   3.901   0.710 -1.2229  0.4584  0.8368
  673TMC3    C1 9953   0.193   3.799   0.532  0.2510 -0.2623 -0.1532
  673TMC3    C2 9954   0.330   3.807   0.546 -0.1974 -0.3416  1.2413
  673TMC3    C3 9955   0.385   3.927   0.514  0.9966 -0.3197  0.4346
  673TMC3    C4 9956   0.115   3.903   0.504 -0.1317 -0.0330 -0.5025
  673TMC3    C5 9957   0.176   4.013   0.459  0.4977  0.6151 -0.1431
  673TMC3    C6 9958   0.307   4.030   0.463  0.4049  0.7704 -0.0646
  673TMC3     C 9959   0.134   3.719   0.634 -0.1407  0.5116 -0.6004
  673TMC3     O 9960   0.156   3.596   0.626  0.0526  0.3061  0.0315
  673TMC3     H 9961   0.397   3.728   0.580  0.8053 -0.1967 -0.3885
  673TMC3    H1 9962   0.007   3.900   0.510 -0.0440  0.0495  1.0152
  673TMC3    H2 9963   0.344   4.123   0.420  0.6998  1.3935  1.5369
  673TMC3    C7 9964   0.085   4.127   0.426  0.8723  0.3957 -0.1579
  673TMC3    C8 9965   0.507   3.975   0.581  0.2739 -0.2305 -0.6555
  673TMC3    O1 9966   4.697   4.093   0.392  0.1027  0.5547 -0.2594
  673TMC3    O2 9967   0.546   4.090   0.548  0.5074  0.1237 -0.6471
  674MPD2     C 9968   0.539   4.185   0.194 -0.2335  0.4048 -0.3207
  674MPD2    C1 9969   0.513   4.053   0.177  0.7417  0.2021 -0.6820
  674MPD2    C2 9970   0.396   4.013   0.123  0.3925  0.1150  0.4388
  674MPD2    C3 9971   0.298   4.108   0.092  0.5914  0.3032 -0.6161
  674MPD2    C4 9972   0.325   4.240   0.113  0.6446 -0.0806  0.2109
  674MPD2    C5 9973   0.446   4.277   0.165 -0.7194 -0.1299  0.3629
  674MPD2     H 9974   0.375   3.907   0.114 -1.2544  0.4533  0.2877
  674MPD2    H1 9975   0.255   4.320   0.091  1.3606 -0.1080 -2.1746
  674MPD2    H2 9976   0.637   4.226   0.217 -0.9574  2.0795 -0.2513
  674MPD2    H3 9977   0.474   4.379   0.188  0.2554  0.0838 -1.7282
  674MPD2     N 9978   0.175   4.064   0.049 -0.2259  0.0320 -0.9576
  674MPD2    H5 9979   0.169   3.964   0.031 -1.5416 -0.1055  0.2147
  674MPD2    N1 9980   0.618   3.966   0.217 -0.9786  0.6966 -0.2446
  674MPD2    H7 9981   0.682   4.013   0.280  0.1084  1.6650 -2.0814
  675TMC3    C1 9982   0.714   3.761   0.282 -0.0641 -0.0854 -0.4980
  675TMC3    C2 9983   0.654   3.652   0.354  0.6777 -0.5594  0.0754
  675TMC3    C3 9984   0.714   3.620   0.468  0.2795 -0.6612 -0.0221
  675TMC3    C4 9985   0.824   3.836   0.325 -0.5671  0.3411 -0.3580
  675TMC3    C5 9986   0.885   3.789   0.442  0.8038  0.6144  0.4143
  675TMC3    C6 9987   0.833   3.681   0.513  0.0880  0.0149 -0.6608
  675TMC3     C 9988   0.617   3.827   0.198  0.5114  0.0084  0.1796
  675TMC3     O 9989   0.544   3.754   0.132 -0.1159 -0.6297 -0.1886
  675TMC3     H 9990   0.559   3.609   0.324  0.2078  0.8036 -0.4161
  675TMC3    H1 9991   0.860   3.918   0.265  1.6491 -1.2942 -1.2473
  675TMC3    H2 9992   0.869   3.658   0.612  1.2761 -0.8164 -1.2854
  675TMC3    C7 9993   1.011   3.856   0.488 -0.3945 -0.0541  0.0476
  675TMC3    C8 9994   0.635   3.546   0.567 -0.4695 -0.2428  0.2411
  675TMC3    O1 9995   1.096   3.777   0.533 -0.4989 -0.0684 -0.4406
  675TMC3    O2 9996   0.517   3.526   0.542 -0.6214  0.2895  0.1038
  676MPD2     C 9997   2.893   1.957  10.925  0.3613 -0.1606  0.7806
  676MPD2    C1 9998   2.800   1.887  10.993  0.2621  0.6113 -0.3726
  676MPD2    C2 9999   2.820   1.746  11.017  0.2846 -0.1701  0.2240
  676MPD2    C310000   2.927   1.678  10.963 -0.7051 -0.2354 -0.7720
  676MPD2    C410001   3.019   1.752  10.888  0.5461 -0.5654 -0.2992
  676MPD2    C510002   2.998   1.887  10.872  0.4364  0.1366  0.5283
  676MPD2     H10003   2.746   1.701  11.082  1.6279  1.6070  2.9966
  676MPD2    H110004   3.110   1.702  10.859  0.9503  0.5487 -0.9453
  676MPD2    H210005   2.879   2.060  10.894 -0.0464 -0.5456 -0.2939
  676MPD2    H310006   3.075   1.941  10.817 -2.1303  1.1925 -2.0028
  676MPD2     N10007   2.948   1.538  10.985 -0.6266  0.0940 -0.7785
  676MPD2    H510008   3.025   1.495  10.935 -1.1081 -0.3723 -1.1318
  676MPD2    N110009   2.687   1.953  11.046  0.1412 -0.7164  0.2062
  676MPD2    H710010   2.622   1.894  11.096 -0.8702  1.0771  0.9797
  677TMC3    C110011   2.541   2.129  11.121 -0.3203 -0.2547  0.6428
  677TMC3    C210012   2.456   2.026  11.139  0.3504  0.3137  0.8379
  677TMC3    C310013   2.355   2.035  11.236  0.9441  0.4137  1.0052
  677TMC3    C410014   2.546   2.236  11.211  0.5804 -0.5865  0.4532
  677TMC3    C510015   2.467   2.224  11.322 -0.4034 -0.1183 -0.0591
  677TMC3    C610016   2.364   2.134  11.335 -0.4666 -0.0652 -0.1111
  677TMC3     C10017   2.666   2.088  11.058 -0.3345  0.2998  0.5225
  677TMC3     O10018   2.737   2.182  11.027 -0.3125  0.0534  0.0840
  677TMC3     H10019   2.448   1.944  11.068  2.3466 -2.0089  3.2624
  677TMC3    H110020   2.621   2.312  11.191  1.1995 -1.1630  0.5553
  677TMC3    H210021   2.288   2.147  11.411 -0.2596  0.9526 -0.0795
  677TMC3    C710022   2.504   2.286  11.445 -1.4298  0.2900 -0.2336
  677TMC3    C810023   2.269   1.917  11.263  0.4884 -0.0750  0.7794
  677TMC3    O110024   2.447   2.252  11.548  0.5742  0.1246  0.2879
  677TMC3    O210025   2.205   1.880  11.167 -0.1714  0.0525  0.3172
  678MPD2     C10026   4.115   2.381   1.221 -0.1823 -0.0030 -0.9794
  678MPD2    C110027   4.170   2.250   1.203 -0.0624  0.2693 -0.1712
  678MPD2    C210028   4.095   2.166   1.120 -0.4309  0.1416 -0.0352
  678MPD2    C310029   3.970   2.191   1.071  0.1066  0.0097  0.3773
  678MPD2    C410030   3.920   2.318   1.095  0.2042  0.2631  0.3333
  678MPD2    C510031   3.992   2.410   1.171  0.7570  0.7480 -0.2738
  678MPD2     H10032   4.133   2.066   1.102 -3.4714 -0.9495 -0.4550
  678MPD2    H110033   3.825   2.345   1.050  0.2669  0.6792  0.4510
  678MPD2    H210034   4.158   2.458   1.283 -3.7112 -0.4292  2.0255
  678MPD2    H310035   3.946   2.508   1.179 -1.0602 -0.1566  0.5239
  678MPD2     N10036   3.892   2.088   1.015  0.1447 -0.3951 -0.2523
  678MPD2    H510037   3.927   1.994   1.031  0.6507 -0.4978 -1.9419
  678MPD2    N110038   4.289   2.197   1.259 -0.1894 -0.4075 -0.2318
  678MPD2    H710039   4.317   2.103   1.231 -1.8038 -0.9670  0.0536
  679TMC3    C110040   4.612   1.997   1.414  0.4357  0.4994  0.5021
  679TMC3    C210041   4.493   2.067   1.399 -0.5452 -0.4626 -0.4646
  679TMC3    C310042   4.502   2.198   1.361 -0.1070  0.0785 -0.1224
  679TMC3    C410043   0.010   2.057   1.376  0.7137 -0.2164 -0.2574
  679TMC3    C510044   0.015   2.188   1.348 -0.2955 -0.4529  0.0480
  679TMC3    C610045   4.618   2.261   1.346  0.4066  0.7586 -0.2502
  679TMC3     C10046   4.614   1.855   1.384  0.0559  0.5958  0.3200
  679TMC3     O10047   4.675   1.825   1.282 -0.2740 -0.4403  0.6621
  679TMC3     H10048   4.394   2.023   1.403 -0.1584 -1.3310 -0.3928
  679TMC3    H110049   0.103   2.003   1.362  0.4220 -1.1444  1.3200
  679TMC3    H210050   4.615   2.367   1.324 -1.7233  0.4579 -1.3847
  679TMC3    C710051   0.087   2.224   1.228  0.2865  0.0891 -0.2873
  679TMC3    C810052   4.380   2.275   1.326 -0.0030  0.3067 -0.0275
  679TMC3    O110053   0.023   2.303   1.156 -0.0972 -0.5467 -0.0006
  679TMC3    O210054   4.387   2.397   1.332  0.1970  0.0238 -0.2460
  680MPD2     C10055   4.301   0.914  13.338 -0.3285 -0.3385 -0.3791
  680MPD2    C110056   4.407   0.904  13.426 -0.8494 -0.0676  0.6301
  680MPD2    C210057   4.464   1.017  13.491  0.6837  0.5066  0.3480
  680MPD2    C310058   4.425   1.141  13.443 -0.1523 -0.3195 -0.1028
  680MPD2    C410059   4.330   1.150  13.343 -0.1932  0.1268 -0.0825
  680MPD2    C510060   4.273   1.040  13.283 -0.9445  0.1635 -0.2608
  680MPD2     H10061   4.538   1.000  13.568  1.9855  0.8618 -0.8227
  680MPD2    H110062   4.299   1.246  13.303 -0.8682  0.0267  0.1976
  680MPD2    H210063   4.247   0.827  13.301  0.7333 -2.0867  2.0837
  680MPD2    H310064   4.202   1.062  13.204 -1.6659 -1.4866 -0.0745
  680MPD2     N10065   4.485   1.260  13.489  0.3330  0.4731  0.6804
  680MPD2    H510066   4.450   1.341  13.439  1.1386 -0.0373 -0.7157
  680MPD2    N110067   4.463   0.778  13.463 -0.5001 -0.3607 -0.1132
  680MPD2    H710068   4.540   0.777  13.530  0.4531  1.7344 -1.1943
  681TMC3    C110069   4.490   0.554  13.514 -0.1662 -0.1234  0.0160
  681TMC3    C210070   4.493   0.574  13.652  0.3804  0.0361 -0.5512
  681TMC3    C310071   4.546   0.474  13.729 -0.1269  0.1664  0.2373
  681TMC3    C410072   4.526   0.435  13.456 -0.3817  0.3332  0.5674
  681TMC3    C510073   4.591   0.344  13.535  0.0289 -0.7761  0.3896
  681TMC3    C610074   4.598   0.362  13.667  0.2115 -0.1519  0.0876
  681TMC3     C10075   4.426   0.648  13.424 -0.3209 -0.4726  0.7704
  681TMC3     O10076   4.334   0.610  13.351  0.5867  0.1420  0.2831
  681TMC3     H10077   4.459   0.669  13.692  2.0685  1.2933 -2.0608
  681TMC3    H110078   4.517   0.427  13.348 -3.7263 -0.4359  0.9049
  681TMC3    H210079   4.667   0.296  13.718  0.4364 -0.5112 -0.6817
  681TMC3    C710080   4.683   0.251  13.482  0.1308 -0.2715  0.2897
  681TMC3    C810081   4.558   0.500  13.865  0.0714  0.1454  0.0097
  681TMC3    O110082   4.698   0.151  13.549 -0.4117  0.3547 -0.1333
  681TMC3    O210083   4.546   0.612  13.905  0.0401  0.2879  0.7942
  682MPD2     C10084   1.508   1.453  10.598 -0.2718 -0.3520 -0.3571
  682MPD2    C110085   1.515   1.322  10.624  0.1608 -0.6964  0.2858
  682MPD2    C210086   1.523   1.275  10.750 -0.3713  0.6579 -0.0472
  682MPD2    C310087   1.514   1.363  10.858  1.0549 -0.0533  0.3829
  682MPD2    C410088   1.491   1.494  10.830 -0.7269 -0.0521  0.4057
  682MPD2    C510089   1.490   1.542  10.702 -0.5338  0.0879  0.4448
  682MPD2     H10090   1.544   1.169  10.764 -2.5170  0.2040 -0.2322
  682MPD2    H110091   1.471   1.569  10.906  2.3354 -0.1297  1.2528
  682MPD2    H210092   1.512   1.483  10.493 -2.4954  0.3179 -0.2494
  682MPD2    H310093   1.475   1.645  10.674 -0.2571 -0.4534 -1.6904
  682MPD2     N10094   1.513   1.334  10.995 -1.0381 -0.1464 -0.9195
  682MPD2    H510095   1.498   1.412  11.059 -0.0816 -0.1905 -0.6484
  682MPD2    N110096   1.531   1.215  10.529  0.6458  0.3577  0.1390
  682MPD2    H710097   1.536   1.116  10.553 -0.3922  0.2308 -0.1785
  683TMC3    C110098   1.499   1.343  11.382  0.2476 -0.1782  0.1967
  683TMC3    C210099   1.597   1.263  11.439 -0.2778 -0.8152  0.1184
  683TMC3    C310100   1.658   1.166  11.364  0.0362 -0.0061 -0.4310
  683TMC3    C410101   1.448   1.310  11.257 -0.5488  0.8635  0.0723
  683TMC3    C510102   1.512   1.207  11.189 -0.4009  0.1373  0.1372
  683TMC3    C610103   1.609   1.132  11.239 -0.7356  0.0789  0.2367
  683TMC3     C10104   1.437   1.448  11.463  0.0945  0.0036  0.7446
  683TMC3     O10105   1.521   1.497  11.540 -0.0087  0.5233 -0.7832
  683TMC3     H10106   1.643   1.286  11.535 -0.4322  0.4525 -0.1136
  683TMC3    H110107   1.374   1.378  11.216 -0.8057  1.1872  1.0723
  683TMC3    H210108   1.674   1.070  11.179 -1.9330 -0.4040 -0.5594
  683TMC3    C710109   1.518   1.206  11.044 -0.1443  1.0641  0.0765
  683TMC3    C810110   1.771   1.104  11.430  0.4425 -0.5528 -0.3169
  683TMC3    O110111   1.519   1.098  10.978 -0.9133  0.6073 -0.4834
  683TMC3    O210112   1.834   1.166  11.515  0.0602 -0.6632  0.0690
  684MPD2     C10113   4.704   1.518  16.433  0.1403 -0.6765 -0.0963
  684MPD2    C110114   0.075   1.539  16.338  0.0919 -0.4468 -0.3779
  684MPD2    C210115   0.137   1.668  16.321  0.0760 -0.4560  0.5134
  684MPD2    C310116   0.119   1.771  16.410 -0.4005  0.8322  0.6166
  684MPD2    C410117   0.027   1.748  16.506  0.3115  0.5306 -0.7756
  684MPD2    C510118   4.682   1.629  16.513 -0.4678 -0.6292  0.8708
  684MPD2     H10119   0.212   1.680  16.244  1.5013 -2.3930  1.5903
  684MPD2    H110120   4.721   1.826  16.575 -1.1569  1.1583 -2.1191
  684MPD2    H210121   4.661   1.420  16.450 -1.3689 -0.3857 -2.2582
  684MPD2    H310122   4.595   1.626  16.577 -0.4168 -2.1743  0.8696
  684MPD2     N10123   0.187   1.892  16.396  0.0564 -0.5252 -0.1548
  684MPD2    H510124   0.182   1.958  16.472 -1.1385 -0.5218 -0.2393
  684MPD2    N110125   0.099   1.450  16.234  0.0730 -0.3357 -0.3940
  684MPD2    H710126   0.164   1.473  16.160 -1.9691  0.7539 -1.8365
  685TMC3    C110127   0.122   1.247  16.114  0.5472  0.4758 -0.1816
  685TMC3    C210128   0.044   1.147  16.050  0.5954 -0.0889 -0.1957
  685TMC3    C310129   0.099   1.053  15.969 -0.0050 -0.5238 -0.6620
  685TMC3    C410130   0.254   1.246  16.086 -0.7072 -0.1490  0.2873
  685TMC3    C510131   0.307   1.144  16.013 -0.2265 -0.6184 -0.2685
  685TMC3    C610132   0.236   1.044  15.953  0.4732  0.1564 -0.0666
  685TMC3     C10133   0.060   1.317  16.221 -0.2339 -0.0016  0.2943
  685TMC3     O10134   4.707   1.254  16.290  0.0434  0.1321  0.3195
  685TMC3     H10135   4.661   1.157  16.064  0.6549  1.1774 -0.6334
  685TMC3    H110136   0.327   1.314  16.130 -0.7527  0.4198 -0.5099
  685TMC3    H210137   0.283   0.958  15.905 -0.6842 -0.4031 -0.2053
  685TMC3    C710138   0.452   1.129  16.012 -0.1594  0.2675 -0.7708
  685TMC3    C810139   0.037   0.960  15.876  0.7999  0.1783 -0.3183
  685TMC3    O110140   0.508   1.099  16.114 -0.0319  0.5770 -0.2207
  685TMC3    O210141   0.083   0.854  15.840 -0.1662 -0.3008 -0.1324
  686MPD2     C10142   1.459   1.162  15.204  0.2304 -0.5582  0.8202
  686MPD2    C110143   1.507   1.108  15.322 -0.1451  0.0202  0.5139
  686MPD2    C210144   1.569   0.979  15.322  0.0105 -0.7927 -0.2610
  686MPD2    C310145   1.572   0.911  15.193  0.5239 -0.3453 -0.1111
  686MPD2    C410146   1.523   0.970  15.079  0.8109 -0.1736  0.6729
  686MPD2    C510147   1.472   1.094  15.092 -0.0076 -1.3043  0.1233
  686MPD2     H10148   1.609   0.938  15.414 -0.8228 -0.5545  0.2046
  686MPD2    H110149   1.530   0.931  14.978 -1.1896  0.9927  0.0826
  686MPD2    H210150   1.416   1.262  15.199  0.4011 -0.4337  1.7626
  686MPD2    H310151   1.441   1.134  14.996 -0.4348  1.7621  1.5450
  686MPD2     N10152   1.619   0.777  15.167  0.5134  0.0745 -0.1834
  686MPD2    H510153   1.633   0.761  15.068 -0.9815 -0.7662 -0.2617
  686MPD2    N110154   1.489   1.178  15.442 -0.5337 -0.5408 -0.1759
  686MPD2    H710155   1.446   1.270  15.439  0.1115 -0.2960 -1.8907
  687TMC3    C110156   1.567   0.682  15.393 -0.1233  0.0845  0.5509
  687TMC3    C210157   1.436   0.722  15.396  0.1676 -0.4301 -0.3517
  687TMC3    C310158   1.375   0.720  15.515  0.3709 -0.1715 -0.2285
  687TMC3    C410159   1.642   0.650  15.506 -0.1964 -0.7923  1.2414
  687TMC3    C510160   1.578   0.662  15.622  0.2651 -0.6438  0.3714
  687TMC3    C610161   1.443   0.694  15.632  0.6449 -0.9334  0.2031
  687TMC3     C10162   1.651   0.683  15.268  0.5234 -0.1835  0.0891
  687TMC3     O10163   1.725   0.586  15.257  0.3279 -0.1296 -0.2654
  687TMC3     H10164   1.385   0.736  15.302  0.8251  0.4226 -0.5887
  687TMC3    H110165   1.743   0.613  15.498 -0.9480 -3.1634  2.6377
  687TMC3    H210166   1.391   0.698  15.727  0.2777 -1.1479  0.0116
  687TMC3    C710167   1.666   0.702  15.731 -0.3142  0.6772 -0.1134
  687TMC3    C810168   1.253   0.794  15.540 -0.2763  0.5040 -0.1816
  687TMC3    O110169   1.778   0.650  15.731  0.6756 -1.1787 -0.6273
  687TMC3    O210170   1.176   0.743  15.622  0.1915  0.3635 -0.0420
  688MPD2     C10171   1.061   0.365  17.311  0.3171  0.1425  0.2132
  688MPD2    C110172   1.055   0.234  17.354  0.3159 -0.1867  0.1141
  688MPD2    C210173   1.079   0.137  17.253  0.0281 -0.5314 -0.4953
  688MPD2    C310174   1.121   0.170  17.131 -0.1189 -0.6270  0.4859
  688MPD2    C410175   1.112   0.297  17.090 -0.6975 -1.1231 -0.2263
  688MPD2    C510176   1.089   0.397  17.183 -0.4867 -0.9445 -0.0505
  688MPD2     H10177   1.071   0.034  17.287 -1.9508 -0.2088  0.0369
  688MPD2    H110178   1.139   0.323  16.989 -1.3276  0.1002 -0.0856
  688MPD2    H210179   1.056   0.443  17.386  1.2362 -0.9873  1.4339
  688MPD2    H310180   1.083   0.499  17.150 -3.7145 -1.2401 -0.3939
  688MPD2     N10181   1.169   0.076  17.038  0.3397  0.1362 -0.3747
  688MPD2    H510182   1.219   0.114  16.959  1.3172  0.0723  0.2069
  688MPD2    N110183   1.026   0.186  17.487 -0.3696 -0.1286 -0.1914
  688MPD2    H710184   1.037   0.086  17.501  0.7152  0.3830  2.5873
  689TMC3    C110185   0.931   0.185   0.006 -1.1802  0.0088 -0.7562
  689TMC3    C210186   0.862   0.274   0.095 -0.5581  0.4871 -0.3037
  689TMC3    C310187   0.858   0.242   0.229  0.7707  0.1499  0.0755
  689TMC3    C410188   0.989   0.065   0.053 -0.3752 -0.0893 -0.6722
  689TMC3    C510189   0.974   0.042   0.185 -0.1901  0.6588  0.1586
  689TMC3    C610190   0.912   0.121   0.275  0.2787 -0.4281 -0.2620
  689TMC3     C10191   0.975   0.256  17.587  0.0007 -0.0741 -0.3847
  689TMC3     O10192   0.944   0.373  17.595  0.1613  0.3361  0.4074
  689TMC3     H10193   0.798   0.356   0.066 -0.2407  0.4706 -1.0615
  689TMC3    H110194   1.052   4.724  17.691  0.2729 -0.3651  0.3066
  689TMC3    H210195   0.877   0.078   0.368  1.3088 -0.9651 -0.1230
  689TMC3    C710196   0.980   4.623   0.214  0.0962  0.0347 -0.1143
  689TMC3    C810197   0.795   0.333   0.322  0.4373 -0.2816  0.1389
  689TMC3    O110198   1.019   4.589   0.327 -1.0618 -0.3187  0.3157
  689TMC3    O210199   0.779   0.296   0.436 -0.1434  0.3567 -0.0672
  690MPD2     C10200   2.891   2.010  15.685 -0.1678  0.0160 -0.1009
  690MPD2    C110201   2.917   1.882  15.640 -0.4567  0.7412 -0.2331
  690MPD2    C210202   3.048   1.850  15.620  0.6080 -0.7885  0.2455
  690MPD2    C310203   3.150   1.936  15.628 -0.3614  0.7884 -0.1754
  690MPD2    C410204   3.132   2.059  15.687 -0.4500  0.5649  0.6546
  690MPD2    C510205   2.998   2.092  15.718  0.5041 -0.2807 -0.4047
  690MPD2     H10206   3.066   1.762  15.559 -1.5666 -2.9684  2.8136
  690MPD2    H110207   3.207   2.135  15.706  0.0838  0.7804 -2.3587
  690MPD2    H210208   2.791   2.039  15.715  0.3708  1.2767  0.4922
  690MPD2    H310209   2.973   2.185  15.766  0.3068 -0.0401 -0.9709
  690MPD2     N10210   3.273   1.883  15.584  0.1607 -0.1211  0.6621
  690MPD2    H510211   3.275   1.785  15.558 -0.6190  0.3570 -1.1463
  690MPD2    N110212   2.823   1.789  15.586  0.4801  0.1272 -0.2266
  690MPD2    H710213   2.861   1.704  15.546  2.8508  0.8563  0.5062
  691TMC3    C110214   2.613   1.711  15.506 -0.5774 -0.2459  0.0560
  691TMC3    C210215   2.478   1.701  15.526  0.2757  0.0066  0.0145
  691TMC3    C310216   2.405   1.589  15.492  0.3007 -0.1445 -0.4191
  691TMC3    C410217   2.685   1.612  15.444  0.2864  0.8867  0.5750
  691TMC3    C510218   2.610   1.504  15.415  0.4504 -0.3952  0.3870
  691TMC3    C610219   2.475   1.491  15.429 -0.0349  0.7812  0.4264
  691TMC3     C10220   2.692   1.818  15.574  0.4686  0.0557  0.1786
  691TMC3     O10221   2.619   1.902  15.632 -0.7079  1.0589 -0.0255
  691TMC3     H10222   2.429   1.789  15.565 -0.5716  0.4172 -1.9850
  691TMC3    H110223   2.791   1.611  15.423  0.0367  2.1626 -0.7284
  691TMC3    H210224   2.414   1.409  15.391  1.7070  0.6511 -2.0763
  691TMC3    C710225   2.685   1.383  15.387  0.7312  0.6506 -0.2411
  691TMC3    C810226   2.271   1.562  15.536  0.5642 -0.6104  0.3934
  691TMC3    O110227   2.789   1.362  15.448 -0.4604  0.1561  0.2095
  691TMC3    O210228   2.250   1.445  15.551  0.1326 -0.0518  0.0845
  692TMC3    C110229   4.647   3.068  15.807 -0.5126 -0.4098 -0.0962
  692TMC3    C210230   0.037   3.118  15.856  0.7822  0.4077  0.0528
  692TMC3    C310231   0.153   3.048  15.843  0.0225 -0.1603 -0.3551
  692TMC3    C410232   4.642   2.950  15.735  0.0443 -0.1238 -0.4109
  692TMC3    C510233   0.036   2.894  15.707 -0.0238  0.1775 -0.0519
  692TMC3    C610234   0.157   2.942  15.756 -0.5793  0.1866 -0.3795
  692TMC3     C10235   4.527   3.142  15.849 -0.6705  0.0987  0.1564
  692TMC3     O10236   4.422   3.075  15.850 -0.6295 -0.4838  0.1765
  692TMC3     H10237   0.046   3.203  15.923  0.7450  1.3094 -1.0736
  692TMC3    H110238   4.558   2.884  15.715  0.6883 -0.9373 -0.4094
  692TMC3    H210239   0.250   2.887  15.746 -1.1733 -0.9912  0.5520
  692TMC3    C710240   0.035   2.752  15.683  0.3225 -0.5940  0.8833
  692TMC3    C810241   0.214   3.017  15.971 -0.7527  0.0337  0.0235
  692TMC3    O110242   4.672   2.706  15.611 -0.6605  0.1786 -0.3747
  692TMC3    O210243   0.247   2.898  15.966 -0.7513  0.9861 -0.2164
  693MPD2     C10244   4.408   0.909  10.873 -0.0791  0.5530 -0.2771
  693MPD2    C110245   4.321   0.846  10.787  0.1340  1.1861  0.1895
  693MPD2    C210246   4.369   0.748  10.703 -0.4601  0.6552  0.2775
  693MPD2    C310247   4.499   0.714  10.705  0.0489  1.4043  0.0668
  693MPD2    C410248   4.590   0.788  10.782 -0.0547 -0.5004  0.1850
  693MPD2    C510249   4.538   0.886  10.859 -0.6839 -0.1890  0.4939
  693MPD2     H10250   4.300   0.690  10.643  1.2885  0.8673 -1.8997
  693MPD2    H110251   4.697   0.768  10.782 -0.1650 -1.0886  0.7257
  693MPD2    H210252   4.375   0.997  10.927 -2.0026 -1.4050  1.7390
  693MPD2    H310253   4.610   0.932  10.925 -0.0684 -0.3068 -0.0888
  693MPD2     N10254   4.554   0.614  10.621 -0.1726  0.0542 -0.6500
  693MPD2    H510255   4.655   0.608  10.628 -0.2500 -1.1118 -0.6191
  693MPD2    N110256   4.185   0.860  10.809  0.5722  0.1485 -0.4136
  693MPD2    H710257   4.160   0.897  10.900  0.3092  0.0156 -0.4316
  694TMC3    C110258   3.954   0.798  10.794  0.2686  0.1892 -0.2465
  694TMC3    C210259   3.854   0.732  10.727 -0.3948 -0.2198 -0.1318
  694TMC3    C310260   3.744   0.697  10.792 -0.6449  0.4761  0.0722
  694TMC3    C410261   3.945   0.820  10.931  0.1029 -0.2809  0.3416
  694TMC3    C510262   3.832   0.766  10.991  0.5456  1.4020 -0.5102
  694TMC3    C610263   3.729   0.709  10.921  0.1523 -0.4584 -0.4722
  694TMC3     C10264   4.085   0.794  10.738 -0.4791 -0.1844 -0.4289
  694TMC3     O10265   4.098   0.733  10.633  0.2148 -0.5067  0.1501
  694TMC3     H10266   3.883   0.685  10.633  0.1935  1.4082 -0.7543
  694TMC3    H110267   4.023   0.865  10.991  0.8353  1.5103 -1.9534
  694TMC3    H210268   3.644   0.660  10.968  0.3429 -0.3526 -0.0210
  694TMC3    C710269   3.830   0.772  11.135 -0.0457  0.4843  0.8036
  694TMC3    C810270   3.642   0.614  10.717 -0.0342 -0.4048  0.9093
  694TMC3    O110271   3.891   0.863  11.189 -0.3530  0.1696  0.2515
  694TMC3    O210272   3.585   0.525  10.773  0.3188  0.2148  0.2881
  695MPD2     C10273   0.277   2.489  13.262  0.1699  0.1756  0.2334
  695MPD2    C110274   0.188   2.549  13.346 -0.4655 -0.6271  0.2238
  695MPD2    C210275   0.065   2.591  13.302 -0.4783  0.2766  0.0263
  695MPD2    C310276   0.019   2.558  13.176 -0.4726 -0.6261  0.9994
  695MPD2    C410277   0.117   2.503  13.090 -1.3238 -0.5959  0.8695
  695MPD2    C510278   0.239   2.476  13.134 -0.5527  0.8374 -0.7123
  695MPD2     H10279   4.715   2.629  13.372 -1.4750 -0.6288 -0.5250
  695MPD2    H110280   0.085   2.482  12.989  2.0738  1.9783 -0.7514
  695MPD2    H210281   0.378   2.460  13.288  0.5076  0.8023 -0.3580
  695MPD2    H310282   0.316   2.440  13.066 -0.4292  2.3083 -1.3550
  695MPD2     N10283   4.605   2.582  13.142  0.1832 -0.8522  0.2683
  695MPD2    H510284   4.542   2.606  13.217 -1.4794 -0.5626 -1.2185
  695MPD2    N110285   0.228   2.583  13.477  0.7023  0.1266 -0.5066
  695MPD2    H710286   0.169   2.640  13.537  0.0887 -1.0725  0.0310
  696TMC3    C110287   4.417   2.608  13.031  0.3034 -0.7557 -0.1117
  696TMC3    C210288   4.347   2.555  13.138  0.2833 -0.1655  0.1063
  696TMC3    C310289   4.260   2.629  13.212 -0.5880 -0.4951  0.3479
  696TMC3    C410290   4.388   2.731  12.995  0.7049  0.8560 -0.4166
  696TMC3    C510291   4.308   2.811  13.072 -0.6519 -0.0314  1.2787
  696TMC3    C610292   4.240   2.759  13.176  0.1553 -0.2575  0.3845
  696TMC3     C10293   4.555   2.574  13.018  0.3594 -0.2217 -0.6562
  696TMC3     O10294   4.611   2.588  12.913 -0.0633 -0.3924 -0.5596
  696TMC3     H10295   4.368   2.452  13.164 -1.2173 -0.1112  1.4716
  696TMC3    H110296   4.443   2.767  12.909 -1.5848  3.0745 -0.9380
  696TMC3    H210297   4.161   2.813  13.227  1.1957  0.9425  0.7505
  696TMC3    C710298   4.356   2.950  13.065 -0.6904  0.2292  0.0065
  696TMC3    C810299   4.246   2.604  13.358  0.4764 -0.2289 -0.9360
  696TMC3    O110300   4.434   2.983  12.978  0.2512  0.5127  0.3139
  696TMC3    O210301   4.257   2.490  13.402 -0.2752  0.0371  0.6567
  697MPD2     C10302   4.104   4.665  15.523 -0.2504  0.6055 -0.2998
  697MPD2    C110303   4.125   4.594  15.401  0.1342  0.2759  0.3024
  697MPD2    C210304   4.155   4.668  15.287  0.5478 -0.1981  0.2673
  697MPD2    C310305   4.178   0.083  15.298  0.6569  0.1071 -0.0072
  697MPD2    C410306   4.164   0.144  15.421  0.5610  0.3180  0.4591
  697MPD2    C510307   4.109   0.079  15.527 -1.0118 -0.2976  0.0337
  697MPD2     H10308   4.176   4.621  15.192 -1.6944  2.1019 -1.3625
  697MPD2    H110309   4.190   0.249  15.437  0.7390  0.4692 -0.8244
  697MPD2    H210310   4.064   4.616  15.610  1.9443  0.1147  0.4191
  697MPD2    H310311   4.096   0.128  15.622  2.5439  0.8145 -0.0571
  697MPD2     N10312   4.242   0.149  15.190  0.1030 -0.0596  0.2389
  697MPD2    H510313   4.252   0.091  15.108 -0.6056  0.0260  0.0934
  697MPD2    N110314   4.126   4.451  15.396 -0.0421 -0.3849 -0.9105
  697MPD2    H710315   4.149   4.405  15.308 -0.4309 -0.8140 -0.7908
  698TMC3    C110316   4.340   0.327  15.069  0.2357  0.2245 -0.3627
  698TMC3    C210317   4.319   0.453  15.020  0.8852 -0.2718 -0.5646
  698TMC3    C310318   4.363   0.482  14.889  0.0124 -0.0513 -0.0804
  698TMC3    C410319   4.424   0.238  15.005  0.4319 -0.0770 -0.0018
  698TMC3    C510320   4.483   0.277  14.886 -0.8877  0.1244 -0.2356
  698TMC3    C610321   4.441   0.391  14.821 -0.4827 -0.5468  0.0222
  698TMC3     C10322   4.263   0.286  15.182 -0.2914 -0.1031 -0.7779
  698TMC3     O10323   4.216   0.373  15.258 -0.0722  0.0733  0.5928
  698TMC3     H10324   4.277   0.538  15.072  0.7247 -1.0988  0.6559
  698TMC3    H110325   4.430   0.137  15.043 -0.3524  0.0494  0.4486
  698TMC3    H210326   4.498   0.416  14.732 -0.7684  0.0607  0.0105
  698TMC3    C710327   4.559   0.175  14.822 -0.1191 -0.0495  0.3611
  698TMC3    C810328   4.340   0.617  14.842 -0.3648  0.2688 -0.1245
  698TMC3    O110329   4.631   0.108  14.889 -0.2852  0.5168 -0.2848
  698TMC3    O210330   4.349   0.696  14.936  0.4492  0.4329 -1.0227
  699TMC3    C110331   4.236   2.443  12.452 -0.5844  0.6851  0.4903
  699TMC3    C210332   4.283   2.432  12.585 -0.2260  0.0887  0.5200
  699TMC3    C310333   4.187   2.423  12.681 -0.2941 -0.5448  0.4799
  699TMC3    C410334   4.103   2.431  12.423  0.4639  0.0561  0.4974
  699TMC3    C510335   4.015   2.423  12.528  0.1092 -0.3130  0.1537
  699TMC3    C610336   4.057   2.424  12.659  0.0080 -0.0572  0.3964
  699TMC3     C10337   4.327   2.464  12.336  0.2241  0.2426  0.1195
  699TMC3     O10338   4.280   2.476  12.225  0.0511  0.4432 -0.0156
  699TMC3     H10339   4.385   2.460  12.610  0.1500  0.6664 -1.6854
  699TMC3    H110340   4.070   2.426  12.320  2.6120 -0.5823 -0.1571
  699TMC3    H210341   3.989   2.419  12.743 -0.3193  0.7191  0.1731
  699TMC3    C710342   3.869   2.424  12.511  0.4776  0.1073 -0.5421
  699TMC3    C810343   4.225   2.359  12.810 -0.5629  0.5653  0.5996
  699TMC3    O110344   3.815   2.351  12.428  0.1926  0.3280  0.2041
  699TMC3    O210345   4.143   2.373  12.894  0.7688 -0.2722  0.7552
  700TMC3    C110346   3.372   0.453  17.100  0.0770 -0.1886  0.4594
  700TMC3    C210347   3.464   0.365  17.156  0.3724 -0.5221  0.0933
  700TMC3    C310348   3.484   0.360  17.294 -0.4270  0.1668  0.0263
  700TMC3    C410349   3.305   0.539  17.187 -0.1879  0.1659  0.4491
  700TMC3    C510350   3.331   0.521  17.321 -0.4925  0.5224 -1.1375
  700TMC3    C610351   3.405   0.423  17.386 -0.3870 -0.5090  0.0581
  700TMC3     C10352   3.371   0.498  16.965 -0.0675 -0.7388 -0.5517
  700TMC3     O10353   3.263   0.538  16.922 -0.0018  0.1078 -0.2428
  700TMC3     H10354   3.516   0.301  17.085  0.8043  0.9656 -0.9322
  700TMC3    H110355   3.241   0.621  17.155 -0.9427 -0.4897  0.2795
  700TMC3    H210356   3.413   0.408  17.493  2.5018 -0.7519 -0.2041
  700TMC3    C710357   3.267   0.617  17.414  0.0323 -0.0744 -0.0584
  700TMC3    C810358   3.592   0.267  17.338  0.3809 -0.0801 -0.3981
  700TMC3    O110359   3.221   0.583  17.523  0.4421  0.6299 -0.4259
  700TMC3    O210360   3.633   0.192  17.250  0.6298  0.1930  0.7782
  701TMC3    C110361   3.417   3.588  15.364 -0.0566 -0.1203 -0.6472
  701TMC3    C210362   3.423   3.517  15.245 -0.2936 -0.3598 -0.0875
  701TMC3    C310363   3.502   3.569  15.148  0.7856  0.0737 -0.0431
  701TMC3    C410364   3.479   3.705  15.385  0.5105  0.0127 -0.1088
  701TMC3    C510365   3.568   3.749  15.285 -0.3781 -0.1071  1.0810
  701TMC3    C610366   3.577   3.686  15.161  0.0670 -0.3055  0.0362
  701TMC3     C10367   3.323   3.556  15.471  0.1803  0.1030  0.1537
  701TMC3     O10368   3.262   3.655  15.519  0.1654 -0.5073 -0.1596
  701TMC3     H10369   3.359   3.430  15.233 -1.9650  0.9358 -0.6312
  701TMC3    H110370   3.461   3.769  15.470 -1.2523 -0.1497 -0.3669
  701TMC3    H210371   3.649   3.724  15.090  0.0208  0.9196  0.6501
  701TMC3    C710372   3.639   3.878  15.305 -0.1029  0.3675  0.0543
  701TMC3    C810373   3.493   3.515  15.010  0.0270  0.2896 -0.9238
  701TMC3    O110374   3.670   3.951  15.209 -0.4809 -0.1351  0.0809
  701TMC3    O210375   3.582   3.553  14.937 -0.0367 -0.1198 -0.8213
  702MPD2     C10376   3.166   1.130  10.486  0.3215 -0.4295  0.5916
  702MPD2    C110377   3.155   1.237  10.569  0.2493  0.6477 -0.0917
  702MPD2    C210378   3.223   1.353  10.546  0.1881  0.1402 -0.3458
  702MPD2    C310379   3.292   1.372  10.428  0.6387 -0.3914  0.0918
  702MPD2    C410380   3.300   1.259  10.342 -0.0714  0.0476 -0.0947
  702MPD2    C510381   3.230   1.147  10.369 -0.3607  0.4691 -0.0384
  702MPD2     H10382   3.215   1.438  10.613  0.8352 -1.8095  2.2061
  702MPD2    H110383   3.346   1.260  10.243  1.7348  1.4350  0.7478
  702MPD2    H210384   3.114   1.036  10.502 -0.0377 -0.2077  0.7280
  702MPD2    H310385   3.229   1.071  10.292  0.9984  2.2193 -1.7756
  702MPD2     N10386   3.358   1.496  10.406  0.1153 -1.3259  0.6221
  702MPD2    H510387   3.341   1.567  10.476  0.7658  1.2845 -1.8821
  702MPD2    N110388   3.078   1.239  10.689 -0.4348  0.3824  0.0910
  702MPD2    H710389   3.092   1.329  10.733 -0.3162 -0.0413  0.9077
  703TMC3    C110390   3.402   1.682  10.287 -0.3962 -0.6117 -0.2212
  703TMC3    C210391   3.296   1.755  10.336  0.8083  0.2987  0.7068
  703TMC3    C310392   3.289   1.893  10.312 -0.8527  0.1564 -0.1728
  703TMC3    C410393   3.504   1.751  10.228  0.4952  0.0263  0.7427
  703TMC3    C510394   3.491   1.889  10.212 -0.2826 -0.1492  0.3452
  703TMC3    C610395   3.385   1.965  10.255 -0.1218 -0.7759 -0.8868
  703TMC3     C10396   3.398   1.536  10.284 -0.2604  0.0432  0.5117
  703TMC3     O10397   3.469   1.471  10.210  0.3434 -0.1872  0.0855
  703TMC3     H10398   3.213   1.701  10.379  0.0960  0.9368  0.1302
  703TMC3    H110399   3.596   1.703  10.196  0.3902 -0.5131  1.2425
  703TMC3    H210400   3.380   2.068  10.220  0.5140 -1.1100 -1.9653
  703TMC3    C710401   3.604   1.973  10.183  0.3616  0.2443 -0.9410
  703TMC3    C810402   3.165   1.967  10.355  0.2185 -0.2111 -0.1095
  703TMC3    O110403   3.620   2.078  10.241  0.5946  0.3646  0.3390
  703TMC3    O210404   3.163   2.084  10.317 -0.7409 -0.0495  0.3809
  704TMC3    C110405   0.844   4.420  12.251  0.3260 -0.1571  0.1404
  704TMC3    C210406   0.964   4.481  12.249  0.3237  0.2108 -0.2492
  704TMC3    C310407   1.045   4.470  12.359 -0.2864 -0.5185  0.5132
  704TMC3    C410408   0.803   4.348  12.364  0.8340 -0.2399  0.1174
  704TMC3    C510409   0.878   4.349  12.477  0.1277 -0.4623  0.1867
  704TMC3    C610410   1.008   4.399  12.470 -0.9512  0.2244 -0.2024
  704TMC3     C10411   0.728   4.457  12.160  0.2283  0.3489 -0.5452
  704TMC3     O10412   0.618   4.441  12.207 -0.0771  0.1342 -0.4596
  704TMC3     H10413   1.005   4.546  12.173  0.3955 -1.0876 -1.3098
  704TMC3    H110414   0.715   4.285  12.361  0.6733  0.1585 -3.8277
  704TMC3    H210415   1.069   4.399  12.559  1.2559 -0.8774 -1.7118
  704TMC3    C710416   0.879   4.216  12.536 -0.1906  0.4034  0.7353
  704TMC3    C810417   1.180   4.502  12.328 -0.3264 -0.0977 -0.4730
  704TMC3    O110418   0.813   4.126  12.484  0.2119 -0.5574 -0.2736
  704TMC3    O210419   1.216   4.523  12.213 -0.5527  0.2325  0.2376
  705MPD2     C10420   0.647   2.675  16.465 -0.5528 -0.2058 -0.5959
  705MPD2    C110421   0.546   2.644  16.371  0.3704  0.0506  0.6778
  705MPD2    C210422   0.411   2.656  16.411  0.0416  0.0431 -0.4688
  705MPD2    C310423   0.381   2.689  16.544  0.1865 -0.4330 -0.3856
  705MPD2    C410424   0.478   2.733  16.625 -0.1338 -0.4401  0.0098
  705MPD2    C510425   0.611   2.716  16.588  0.4434  0.1610 -0.2112
  705MPD2     H10426   0.335   2.644  16.334  1.0727 -2.0412 -1.1472
  705MPD2    H110427   0.461   2.777  16.723 -2.4335 -1.3988  0.0474
  705MPD2    H210428   0.751   2.684  16.434  0.6397 -1.9829  2.9527
  705MPD2    H310429   0.682   2.759  16.658  0.4341 -2.8621  1.6519
  705MPD2     N10430   0.251   2.697  16.592 -0.2287  0.2111 -0.2280
  705MPD2    H510431   0.246   2.747  16.680 -1.1731  0.4080 -0.3909
  705MPD2    N110432   0.576   2.630  16.235 -0.9377 -0.4044  0.2506
  705MPD2    H710433   0.496   2.610  16.176  0.3884 -2.1420 -0.9563
  706TMC3    C110434   0.761   2.589  15.810 -0.5434  0.2182  0.6978
  706TMC3    C210435   0.666   2.669  15.755  0.2381  0.4649 -0.0454
  706TMC3    C310436   0.575   2.711  15.843  0.6841  0.4114 -0.6735
  706TMC3    C410437   0.777   2.567  15.947  0.6673 -0.3801  0.2440
  706TMC3    C510438   0.673   2.611  16.029  1.1009 -0.1223  0.7855
  706TMC3    C610439   0.570   2.684  15.975  0.9432 -0.9293 -0.0427
  706TMC3     C10440   0.879   2.558  15.729 -0.0723 -0.0102  0.0639
  706TMC3     O10441   0.980   2.524  15.788 -0.1254 -0.0585  0.3184
  706TMC3     H10442   0.675   2.717  15.658 -0.2632  0.9765  0.1660
  706TMC3    H110443   0.856   2.510  15.994  0.3563 -1.1309 -0.1549
  706TMC3    H210444   0.491   2.736  16.028  1.5244 -1.2507  1.1524
  706TMC3    C710445   0.697   2.617  16.174 -0.2267 -0.1743  0.5274
  706TMC3    C810446   0.552   2.855  15.817 -0.3928  0.1779  0.5827
  706TMC3    O110447   0.814   2.622  16.210  0.3283 -0.6017  0.5166
  706TMC3    O210448   0.506   2.889  15.711 -0.0824  0.0398 -0.5199
  707TMC3    C110449   2.123   1.500   1.472 -0.2000  0.3745 -0.3418
  707TMC3    C210450   2.095   1.369   1.496 -0.7404 -0.8879 -0.4140
  707TMC3    C310451   2.019   1.337   1.607 -0.0642 -0.5700 -0.3183
  707TMC3    C410452   2.075   1.603   1.548 -0.2813 -0.1158 -0.2232
  707TMC3    C510453   1.999   1.562   1.664  0.1782 -0.3501 -0.4522
  707TMC3    C610454   1.963   1.433   1.692 -0.0952 -0.0820  0.4549
  707TMC3     C10455   2.202   1.521   1.354  0.6453  0.8655  0.2348
  707TMC3     O10456   2.255   1.423   1.310  0.1445  0.0515 -0.3357
  707TMC3     H10457   2.141   1.293   1.434 -0.7996 -0.6358 -0.7598
  707TMC3    H110458   2.088   1.706   1.517  0.9364 -0.2732 -0.2475
  707TMC3    H210459   1.899   1.403   1.774  0.7935  0.7120  1.4354
  707TMC3    C710460   1.937   1.661   1.748  0.1227  0.4900 -0.1162
  707TMC3    C810461   2.025   1.194   1.650  0.5939 -0.6072 -0.1444
  707TMC3    O110462   1.859   1.629   1.834  0.2719 -0.1712  0.0870
  707TMC3    O210463   2.025   1.180   1.771 -0.2941  0.4731 -0.0543
  708MPD2     C10464   3.843   0.672  13.675  0.5047  0.2189  0.6202
  708MPD2    C110465   3.731   0.742  13.658  0.3793  0.0328  0.4263
  708MPD2    C210466   3.614   0.699  13.721 -0.2825 -0.8641 -0.6931
  708MPD2    C310467   3.612   0.592  13.815  0.3905 -0.3498 -0.1342
  708MPD2    C410468   3.731   0.528  13.839  0.2591  0.2055  0.3822
  708MPD2    C510469   3.847   0.564  13.767  0.4606 -0.1175 -0.4541
  708MPD2     H10470   3.535   0.773  13.713 -1.3581 -1.8981  0.4370
  708MPD2    H110471   3.740   0.444  13.907  2.1641  0.1323  0.0530
  708MPD2    H210472   3.940   0.699  13.634 -0.4407  0.2374 -1.5753
  708MPD2    H310473   3.936   0.510  13.797  0.6057  1.1129  1.3727
  708MPD2     N10474   3.502   0.557  13.889 -0.3527  0.3194 -0.1499
  708MPD2    H510475   3.517   0.493  13.967 -0.5904  0.7287  0.2332
  708MPD2    N110476   3.745   0.853  13.568  0.4512 -0.5891  0.4645
  708MPD2    H710477   3.838   0.872  13.530  0.9912 -1.6708  1.2449
  709TMC3    C110478   3.687   1.045  13.466  0.2550  0.0014 -0.4432
  709TMC3    C210479   3.719   1.027  13.337  0.0552 -0.1499 -0.3741
  709TMC3    C310480   3.666   1.118  13.249  0.0482  0.1933  0.0420
  709TMC3    C410481   3.608   1.148  13.504 -0.1241 -0.2253  0.2468
  709TMC3    C510482   3.544   1.232  13.414 -0.2877  0.0472 -0.3225
  709TMC3    C610483   3.574   1.215  13.281 -1.0508  0.9784  0.3188
  709TMC3     C10484   3.647   0.937  13.547  0.7036  0.4856  0.4574
  709TMC3     O10485   3.529   0.936  13.577 -0.2604 -0.2351 -0.0286
  709TMC3     H10486   3.792   0.952  13.308 -0.4890 -0.6120 -0.5313
  709TMC3    H110487   3.599   1.169  13.610  0.8229  1.8000 -0.0609
  709TMC3    H210488   3.517   1.277  13.212 -0.0776 -1.1758 -2.4100
  709TMC3    C710489   3.407   1.247  13.447 -0.2408 -0.2814 -0.4592
  709TMC3    C810490   3.687   1.094  13.104 -0.2898 -0.1067  0.0095
  709TMC3    O110491   3.340   1.336  13.398  0.1345  0.2963  0.3614
  709TMC3    O210492   3.697   0.981  13.069 -0.6141 -0.2932  0.3107
  710TMC3    C110493   4.645   2.332   0.401  0.0013  0.1289 -0.1504
  710TMC3    C210494   0.015   2.317   0.300 -0.5292 -0.1837 -0.1410
  710TMC3    C310495   0.144   2.279   0.340  0.0807  0.2911 -0.2702
  710TMC3    C410496   4.675   2.307   0.532 -0.1100 -0.2472 -0.5357
  710TMC3    C510497   0.077   2.255   0.558 -0.0500 -0.4318  0.7764
  710TMC3    C610498   0.172   2.239   0.469  1.2202  0.4215 -0.6641
  710TMC3     C10499   4.508   2.372   0.361 -0.4390 -0.7496 -0.2321
  710TMC3     O10500   4.477   2.368   0.240  0.6642  0.5474 -0.1617
  710TMC3     H10501   4.710   2.361   0.205 -0.5028 -2.0233 -0.9999
  710TMC3    H110502   4.590   2.299   0.599 -1.4507 -1.4596 -2.3811
  710TMC3    H210503   0.268   2.195   0.491  0.0821 -1.6131  0.2042
  710TMC3    C710504   0.114   2.255   0.700  0.0972  0.8294 -0.4374
  710TMC3    C810505   0.253   2.290   0.239  0.1930  0.5998 -0.0300
  710TMC3    O110506   0.031   2.309   0.769 -0.2831  0.2994  0.1591
  710TMC3    O210507   0.213   2.294   0.126 -0.5267  0.5873 -0.2368
  711TMC3    C110508   3.908   3.410  14.876  0.0080 -1.1277  1.1013
  711TMC3    C210509   3.933   3.486  14.983  0.4377  0.6716  0.7446
  711TMC3    C310510   4.064   3.516  15.005 -0.4588 -0.1754  0.2043
  711TMC3    C410511   4.004   3.384  14.782 -0.7215 -0.4493  0.0030
  711TMC3    C510512   4.134   3.405  14.810 -0.1931  0.1809 -0.1850
  711TMC3    C610513   4.170   3.481  14.917 -0.5254 -0.1136 -0.0297
  711TMC3     C10514   3.817   3.302  14.890 -0.3806  0.2047  0.1224
  711TMC3     O10515   3.809   3.222  14.796 -0.4240 -0.0692 -0.3811
  711TMC3     H10516   3.860   3.510  15.060  0.1511  0.0838  0.6557
  711TMC3    H110517   3.989   3.340  14.684  0.2571 -0.4840 -0.1263
  711TMC3    H210518   4.277   3.488  14.936 -0.4351 -2.7715  0.4375
  711TMC3    C710519   4.202   3.273  14.815  0.2419 -0.5526 -0.0493
  711TMC3    C810520   4.091   3.468  15.142  0.5695  0.3533 -0.4896
  711TMC3    O110521   4.324   3.270  14.834  0.0491  0.0161 -0.0651
  711TMC3    O210522   3.998   3.411  15.201 -0.3230 -0.0400 -0.4183
  712MPD2     C10523   0.820   0.001  14.129  0.3523 -0.4552  0.1696
  712MPD2    C110524   0.739   0.096  14.075  0.2576  0.3694  0.0327
  712MPD2    C210525   0.778   0.153  13.953 -0.0835 -0.5096  0.2305
  712MPD2    C310526   0.904   0.134  13.905 -0.0889  0.2675 -0.1828
  712MPD2    C410527   0.995   0.059  13.978  0.1403 -0.2133  0.3273
  712MPD2    C510528   0.946   4.711  14.083  0.2365 -0.1731 -0.0031
  712MPD2     H10529   0.705   0.216  13.905  0.5774  1.2350  1.5097
  712MPD2    H110530   1.096   0.057  13.939 -0.6599  0.9349 -1.8296
  712MPD2    H210531   0.783   4.660  14.207 -0.7622  0.5327  0.4644
  712MPD2    H310532   1.013   4.641  14.130 -0.2990 -1.5757 -1.3483
  712MPD2     N10533   0.949   0.219  13.805 -0.3938 -0.2286 -0.1682
  712MPD2    H510534   1.047   0.245  13.806 -0.2810 -0.6772  2.2033
  712MPD2    N110535   0.606   0.124  14.121 -0.2727 -0.0100 -0.6765
  712MPD2    H710536   0.548   0.183  14.062  2.7254 -0.3766 -4.0090
  713TMC3    C110537   0.914   0.383  13.640  0.0572 -0.4535  0.4578
  713TMC3    C210538   1.035   0.428  13.671  0.6198  0.2064  0.0827
  713TMC3    C310539   1.053   0.559  13.636 -0.5366  0.7920 -0.3080
  713TMC3    C410540   0.822   0.450  13.573 -0.0002 -0.3174 -0.3495
  713TMC3    C510541   0.836   0.582  13.546 -0.7051  0.4770  1.0634
  713TMC3    C610542   0.952   0.646  13.585 -0.0441  0.6809  1.1135
  713TMC3     C10543   0.866   0.263  13.697  0.2674 -0.1487 -0.0592
  713TMC3     O10544   0.745   0.237  13.672 -0.0867  0.5282  0.5909
  713TMC3     H10545   1.100   0.368  13.733 -2.0040 -1.2368  1.4515
  713TMC3    H110546   0.723   0.411  13.556 -0.4083  0.3180  0.6090
  713TMC3    H210547   0.971   0.751  13.565 -2.9643  0.9960 -0.0210
  713TMC3    C710548   0.708   0.658  13.520 -0.3792 -0.6749  0.2704
  713TMC3    C810549   1.188   0.616  13.635  0.2168  0.1258 -0.4993
  713TMC3    O110550   0.615   0.607  13.467 -0.1597 -0.4708 -0.9881
  713TMC3    O210551   1.216   0.694  13.547 -0.7692  0.1103  0.4825
  714MPD2     C10552   3.237   2.785   1.336 -0.2439 -0.1534 -0.0676
  714MPD2    C110553   3.290   2.813   1.212  0.1581  0.1226  0.6320
  714MPD2    C210554   3.205   2.881   1.123  0.6066 -0.2781  0.2806
  714MPD2    C310555   3.067   2.907   1.153 -0.3337 -0.0749  0.1068
  714MPD2    C410556   3.023   2.888   1.279 -0.0954  0.1499  0.6752
  714MPD2    C510557   3.109   2.828   1.367  0.3916  0.9372  0.3147
  714MPD2     H10558   3.245   2.915   1.028  1.9756  1.0404  1.3161
  714MPD2    H110559   2.923   2.909   1.313 -0.2984 -0.6739  0.5745
  714MPD2    H210560   3.309   2.750   1.409  0.5211  2.2714  0.3386
  714MPD2    H310561   3.085   2.806   1.470  0.2239 -0.2391  0.0287
  714MPD2     N10562   2.985   2.958   1.050  0.0428 -0.3229  0.4539
  714MPD2    H510563   3.026   2.963   0.958 -0.7654  1.9249  0.2199
  714MPD2    N110564   3.431   2.795   1.186 -0.3588 -0.5031  0.2668
  714MPD2    H710565   3.480   2.754   1.265 -0.3964  0.0917  0.6031
  715TMC3    C110566   3.651   2.818   1.096  0.5927 -0.1664 -0.0237
  715TMC3    C210567   3.717   2.815   0.977  0.1020  0.5024 -0.5328
  715TMC3    C310568   3.853   2.804   0.978  0.3058  0.2791 -0.0221
  715TMC3    C410569   3.711   2.819   1.216  0.0368 -0.7925  1.1177
  715TMC3    C510570   3.847   2.817   1.217  0.0729  0.8473 -0.2984
  715TMC3    C610571   3.918   2.819   1.097  0.6217 -0.1497  0.3051
  715TMC3     C10572   3.503   2.830   1.080 -0.6058  0.4101 -0.2189
  715TMC3     O10573   3.453   2.857   0.969 -0.5078  0.2274  0.1834
  715TMC3     H10574   3.660   2.802   0.886 -1.8188  0.9608  0.5858
  715TMC3    H110575   3.655   2.815   1.309  1.7616 -0.2436  2.1804
  715TMC3    H210576   4.026   2.822   1.089  0.6501  0.6424  1.0486
  715TMC3    C710577   3.929   2.813   1.339 -0.9645 -0.0985 -0.2528
  715TMC3    C810578   3.909   2.721   0.872 -0.2253  0.0804  0.1050
  715TMC3    O110579   4.042   2.848   1.316  0.7714  0.5437 -0.9139
  715TMC3    O210580   3.835   2.690   0.778  0.0177  0.2489  0.4472
  716MPD2     C10581   3.178   0.790   9.983 -0.5794 -0.0462  0.1340
  716MPD2    C110582   3.045   0.792   9.947 -0.7058  0.9622 -1.2758
  716MPD2    C210583   2.981   0.682   9.889  0.0241  0.6974  0.7483
  716MPD2    C310584   3.052   0.569   9.863 -0.6359  0.2976  1.0273
  716MPD2    C410585   3.181   0.558   9.914  0.7856  0.5787 -0.4351
  716MPD2    C510586   3.246   0.668   9.966  0.2296 -0.2062  0.3893
  716MPD2     H10587   2.884   0.701   9.846 -1.0278 -0.7198  2.4949
  716MPD2    H110588   3.244   0.470   9.904 -0.4898 -0.3311 -0.5087
  716MPD2    H210589   3.223   0.877  10.030  0.4606  0.0815 -1.1095
  716MPD2    H310590   3.351   0.669   9.994 -0.0977  0.4042  1.6314
  716MPD2     N10591   2.989   0.468   9.790  0.5132  1.0650 -0.4266
  716MPD2    H510592   2.902   0.500   9.749 -0.0943 -1.0166 -0.7690
  716MPD2    N110593   2.989   0.914   9.970 -0.3878 -0.2587 -0.2587
  716MPD2    H710594   3.045   0.995   9.994 -1.1757  0.2905 -0.2665
  717TMC3    C110595   2.981   0.286   9.630 -0.0580 -0.0887 -0.6262
  717TMC3    C210596   2.869   0.336   9.571 -0.2270 -0.0496  0.2483
  717TMC3    C310597   2.823   0.279   9.456 -0.2586 -0.1367  0.1958
  717TMC3    C410598   3.065   0.199   9.558 -0.1762 -0.2144 -0.2006
  717TMC3    C510599   3.016   0.151   9.434 -0.2752 -0.3029 -0.1121
  717TMC3    C610600   2.896   0.193   9.382  0.3433  0.6707  0.7431
  717TMC3     C10601   3.043   0.349   9.748  0.1273 -0.0668  0.3676
  717TMC3     O10602   3.146   0.291   9.780 -0.7595 -0.7424 -0.6259
  717TMC3     H10603   2.800   0.387   9.638 -1.5972 -0.7856 -0.6045
  717TMC3    H110604   3.154   0.154   9.598 -0.5264 -3.2323 -2.8493
  717TMC3    H210605   2.867   0.156   9.284 -1.4406 -0.7212  1.8166
  717TMC3    C710606   3.065   0.033   9.367  0.1015  0.6315  0.0736
  717TMC3    C810607   2.695   0.314   9.398  0.5775 -0.3184  0.1686
  717TMC3    O110608   3.009   4.700   9.277 -0.1091 -0.2576 -0.2332
  717TMC3    O210609   2.656   0.224   9.329 -0.4275  0.3056 -0.6844
  718MPD2     C10610   2.362   4.611  13.341 -0.2493 -0.1132  0.2851
  718MPD2    C110611   2.315   4.691  13.239  0.5173 -0.2004 -0.1145
  718MPD2    C210612   2.181   4.718  13.231 -0.3805 -0.5347 -0.3345
  718MPD2    C310613   2.086   4.656  13.312 -0.7425  0.8655  0.2322
  718MPD2    C410614   2.135   4.576  13.415 -0.1835 -0.2244  0.2905
  718MPD2    C510615   2.271   4.548  13.426 -0.3127 -0.2588 -0.0096
  718MPD2     H10616   2.137   0.061  13.158 -0.0437  0.1441  0.0898
  718MPD2    H110617   2.071   4.529  13.489 -1.3929 -1.9022 -1.8169
  718MPD2    H210618   2.468   4.590  13.345  0.0113  1.4483  1.3530
  718MPD2    H310619   2.305   4.464  13.485  1.9326  0.9770  0.4876
  718MPD2     N10620   1.951   4.693  13.280 -0.0632 -0.1414 -0.3600
  718MPD2    H510621   1.941   0.040  13.208 -2.5077  0.6024  0.7086
  718MPD2    N110622   2.399   0.019  13.134  0.4572 -0.7735  0.1633
  718MPD2    H710623   2.359   0.076  13.060  1.4984 -2.1254 -1.4638
  719TMC3    C110624   2.558   0.005  12.977  0.7604 -0.6282 -0.6095
  719TMC3    C210625   2.453   4.715  12.887  0.2387 -0.0300  0.0813
  719TMC3    C310626   2.442   0.071  12.780 -0.1832  0.0342  0.3380
  719TMC3    C410627   2.653   0.105  12.955  1.1523 -0.4829 -0.1211
  719TMC3    C510628   2.642   0.176  12.841 -0.1572  0.0355  0.8974
  719TMC3    C610629   2.536   0.168  12.754 -1.2353 -0.5632  0.0924
  719TMC3     C10630   2.531   4.707  13.119 -0.6378 -0.4071 -0.2598
  719TMC3     O10631   2.616   4.664  13.194  0.2468  0.2536  0.9158
  719TMC3     H10632   2.376   4.638  12.889  0.3064 -0.0747  0.9600
  719TMC3    H110633   2.733   0.116  13.026 -0.2593 -1.0727  1.5450
  719TMC3    H210634   2.537   0.229  12.663  2.7019 -1.8002 -0.6756
  719TMC3    C710635   2.765   0.243  12.789  0.0232  0.2650 -0.5339
  719TMC3    C810636   2.308   0.118  12.797  0.1135  0.2159  0.1048
  719TMC3    O110637   2.762   0.269  12.670 -0.2823 -0.0983 -0.0227
  719TMC3    O210638   2.270   0.130  12.915 -0.8461  0.0643 -0.1676
  720MPD2     C10639   0.703   1.850  13.715 -0.8262  0.1901 -0.4458
  720MPD2    C110640   0.808   1.898  13.639  0.0756  0.3795 -0.4912
  720MPD2    C210641   0.934   1.874  13.690  0.1760  0.3182 -0.3673
  720MPD2    C310642   0.957   1.813  13.817 -0.1205 -0.4142  0.5522
  720MPD2    C410643   0.846   1.770  13.892 -0.5395 -0.4781  0.4578
  720MPD2    C510644   0.721   1.799  13.846  0.7077 -0.2928 -0.3756
  720MPD2     H10645   1.019   1.900  13.628  0.3089  1.0506  0.1270
  720MPD2    H110646   0.858   1.724  13.990  0.8942  1.7055  1.2932
  720MPD2    H210647   0.601   1.861  13.682 -1.3468 -0.9324  0.8005
  720MPD2    H310648   0.635   1.762  13.900  0.3348  0.1411 -0.6744
  720MPD2     N10649   1.093   1.777  13.846  0.4325 -0.3757  0.3837
  720MPD2    H510650   1.162   1.803  13.776 -0.8852  0.8570 -0.4558
  720MPD2    N110651   0.796   1.953  13.513 -0.2113  0.4768  0.6445
  720MPD2    H710652   0.878   1.954  13.453 -0.8649 -1.2159 -0.2761
  721TMC3    C110653   1.276   1.778  14.002  0.7943  0.2347  0.0931
  721TMC3    C210654   1.327   1.723  14.118  0.8757  0.0477 -0.3352
  721TMC3    C310655   1.460   1.737  14.131  0.3601  0.5325 -0.0770
  721TMC3    C410656   1.344   1.863  13.918  0.2165 -0.1124  0.2331
  721TMC3    C510657   1.478   1.884  13.948  0.1405 -0.2370  0.0813
  721TMC3    C610658   1.538   1.814  14.048 -0.1009  0.3372  0.3686
  721TMC3     C10659   1.142   1.735  13.970 -0.5395  0.5978  0.1163
  721TMC3     O10660   1.084   1.699  14.072  0.4661  0.3260 -0.1303
  721TMC3     H10661   1.269   1.653  14.177  1.1742  0.9769  1.0635
  721TMC3    H110662   1.290   1.908  13.835  1.8424 -2.0184 -1.8677
  721TMC3    H210663   1.644   1.833  14.064 -0.2566  0.0780  1.7678
  721TMC3    C710664   1.557   1.978  13.872 -0.8444 -0.0810  0.4762
  721TMC3    C810665   1.524   1.653  14.227 -0.0637 -0.3326  0.4702
  721TMC3    O110666   1.677   1.953  13.883 -0.1681 -0.0535  0.0803
  721TMC3    O210667   1.643   1.624  14.206 -0.5126 -0.5392  0.0567
  722MPD2     C10668   4.623   0.415  13.022  0.7202 -0.3140 -0.1342
  722MPD2    C110669   4.531   0.524  13.002 -0.5163 -0.1212 -0.0876
  722MPD2    C210670   4.433   0.506  12.910 -0.6002 -0.3683 -0.3083
  722MPD2    C310671   4.411   0.389  12.844 -0.1931  0.2276 -0.2744
  722MPD2    C410672   4.494   0.281  12.880  0.3901 -0.6129  0.4639
  722MPD2    C510673   4.602   0.299  12.961 -0.3874  0.2867 -0.2979
  722MPD2     H10674   4.358   0.582  12.892  1.1963  1.9476  2.0518
  722MPD2    H110675   4.482   0.182  12.839 -2.4798  0.3709 -1.0682
  722MPD2    H210676   4.702   0.428  13.095  0.6486 -1.1667  0.0937
  722MPD2    H310677   4.676   0.221  12.966 -2.4849 -1.6696  0.3893
  722MPD2     N10678   4.305   0.378  12.755  0.5336  0.1535 -0.0263
  722MPD2    H510679   4.260   0.463  12.724  0.8640  0.2634 -0.2028
  722MPD2    N110680   4.551   0.655  13.066  0.6381 -0.7497  0.8802
  722MPD2    H710681   4.498   0.730  13.023  1.2608 -0.8374 -0.0196
  723TMC3    C110682   4.135   0.274  12.648 -0.9952  0.1951 -0.9009
  723TMC3    C210683   4.027   0.206  12.698 -0.0290 -0.0749 -0.0401
  723TMC3    C310684   3.908   0.226  12.647 -0.0234 -0.7383  0.4065
  723TMC3    C410685   4.130   0.365  12.551  0.2777 -0.2510 -0.3811
  723TMC3    C510686   4.002   0.389  12.500 -0.3892  0.1304  0.7380
  723TMC3    C610687   3.896   0.317  12.543  0.3245  0.6416 -0.3175
  723TMC3     C10688   4.251   0.260  12.727 -0.0766 -0.0582  0.4221
  723TMC3     O10689   4.264   0.148  12.776 -0.0685  0.6042 -0.1167
  723TMC3     H10690   4.041   0.130  12.774 -0.4169  2.0880  2.2043
  723TMC3    H110691   4.217   0.417  12.514  0.9667  0.1016  1.7501
  723TMC3    H210692   3.794   0.325  12.506  0.5988  0.8984 -1.0128
  723TMC3    C710693   3.983   0.493  12.400  0.4490 -0.1748 -0.1091
  723TMC3    C810694   3.787   0.171  12.699  0.6210  0.1932  0.2788
  723TMC3    O110695   3.888   0.487  12.326  0.1633 -0.5635  0.0039
  723TMC3    O210696   3.673   0.217  12.685  0.1624 -0.6891 -0.1973
  724TMC3    C110697   4.611   2.960  10.437  0.4075 -0.5890  0.5281
  724TMC3    C210698   4.544   2.989  10.316  0.7879  0.3229  0.5774
  724TMC3    C310699   4.617   3.052  10.220 -0.0084  0.4336  0.6073
  724TMC3    C410700   0.021   2.981  10.445 -0.8361  0.0807 -0.4422
  724TMC3    C510701   0.080   3.054  10.352 -0.0710  0.5220  0.0097
  724TMC3    C610702   0.023   3.088  10.232 -0.3776 -0.4424  0.1981
  724TMC3     C10703   4.562   3.006  10.559  0.6599 -0.2478  0.0113
  724TMC3     O10704   4.650   3.039  10.633 -0.5533 -1.1305  0.3239
  724TMC3     H10705   4.440   2.963  10.300  0.8762 -0.1495  0.7789
  724TMC3    H110706   0.081   2.931  10.520  1.3461  2.6082 -0.5161
  724TMC3    H210707   0.076   3.160  10.170  0.5073 -1.6795 -0.4742
  724TMC3    C710708   0.181   3.143  10.404  0.0948 -0.0770 -0.1137
  724TMC3    C810709   4.551   3.066  10.087  0.3140 -0.4091  0.0931
  724TMC3    O110710   0.260   3.200  10.325  0.3892  0.1535 -0.5522
  724TMC3    O210711   4.430   3.050  10.080 -0.3214 -0.3664 -0.2352
  725TMC3    C110712   1.223   2.367  12.727 -0.3756  0.5603 -0.3473
  725TMC3    C210713   1.181   2.352  12.598  0.4716 -0.2072 -0.2086
  725TMC3    C310714   1.137   2.220  12.571 -0.1788  0.2737  0.1693
  725TMC3    C410715   1.244   2.267  12.821 -0.3537  0.1617  0.0509
  725TMC3    C510716   1.201   2.139  12.795 -0.5531 -0.3331 -0.3842
  725TMC3    C610717   1.142   2.122  12.670 -0.3188  0.1944  0.2238
  725TMC3     C10718   1.269   2.501  12.763 -0.2674  0.1484 -0.3638
  725TMC3     O10719   1.291   2.581  12.672  0.3480 -0.0262 -0.1236
  725TMC3     H10720   1.183   2.441  12.537 -1.4189 -0.7108 -1.0009
  725TMC3    H110721   1.284   2.286  12.920  2.1948  0.3092 -0.9886
  725TMC3    H210722   1.124   2.020  12.638  1.8552  0.0071 -0.4302
  725TMC3    C710723   1.283   2.026  12.835 -0.1893  0.1362 -0.4885
  725TMC3    C810724   1.095   2.181  12.434  0.5939  0.3928 -0.0265
  725TMC3    O110725   1.277   1.918  12.780  0.5279  0.6044 -0.0709
  725TMC3    O210726   1.037   2.073  12.434  0.1198  0.0303  0.0203
  726MPD2     C10727   3.861   3.289  10.197  0.0072  0.8604 -0.4956
  726MPD2    C110728   3.850   3.384  10.293  0.4248  0.2009  0.4552
  726MPD2    C210729   3.724   3.417  10.345 -0.1305  0.0672 -0.2010
  726MPD2    C310730   3.611   3.353  10.289 -0.6152 -0.2459  0.1795
  726MPD2    C410731   3.620   3.248  10.204  0.0474 -0.2196 -0.7145
  726MPD2    C510732   3.750   3.212  10.158  0.2312 -0.4811  0.0474
  726MPD2     H10733   3.706   3.498  10.415  0.4678 -0.1466  0.2016
  726MPD2    H110734   3.529   3.198  10.172  0.0658 -1.6971  1.5480
  726MPD2    H210735   3.960   3.259  10.166 -0.8921 -1.7356 -0.8333
  726MPD2    H310736   3.758   3.125  10.095 -0.5058  0.8463 -1.8851
  726MPD2     N10737   3.478   3.391  10.313  0.3813  0.1000 -0.0652
  726MPD2    H510738   3.410   3.318  10.297  0.5322 -0.3026  1.1470
  726MPD2    N110739   3.967   3.449  10.326 -0.3203  0.4189 -0.0017
  726MPD2    H710740   4.045   3.420  10.268  0.6736  0.2105  1.4517
  727TMC3    C110741   4.126   3.585  10.419  0.2931 -0.1859  0.5195
  727TMC3    C210742   4.194   3.632  10.533 -1.2117 -0.3929  0.3131
  727TMC3    C310743   4.317   3.693  10.514  0.3639  0.5782  0.1635
  727TMC3    C410744   4.173   3.616  10.292  0.0437 -0.6545  0.0187
  727TMC3    C510745   4.289   3.689  10.278 -0.1386  0.5753 -0.1038
  727TMC3    C610746   4.363   3.729  10.388  0.8751  0.1371 -0.2820
  727TMC3     C10747   3.982   3.541  10.427  0.3949  0.6332 -0.5552
  727TMC3     O10748   3.914   3.555  10.530  0.0679 -0.3686 -0.2607
  727TMC3     H10749   4.147   3.627  10.631 -0.4007 -1.1385  0.6560
  727TMC3    H110750   4.111   3.592  10.206  0.8199  1.8631 -1.2554
  727TMC3    H210751   4.456   3.784  10.382  0.5625  0.7995  1.2705
  727TMC3    C710752   4.308   3.758  10.156  0.0275  0.1545  0.1748
  727TMC3    C810753   4.399   3.736  10.620 -0.1797  0.1316 -0.2662
  727TMC3    O110754   4.217   3.762  10.072  0.5320  0.4993 -0.8505
  727TMC3    O210755   4.480   3.826  10.593  0.4150  0.1485  0.5349
  728TMC3    C110756   3.486   1.900  15.515 -0.0408 -0.3218  0.2629
  728TMC3    C210757   3.611   1.959  15.529 -0.1185 -0.3417  0.6536
  728TMC3    C310758   3.701   1.973  15.431  0.2710  0.0823 -0.0294
  728TMC3    C410759   3.446   1.850  15.394 -0.5927  0.5376  0.5795
  728TMC3    C510760   3.535   1.872  15.291  0.1913  0.2806 -0.1034
  728TMC3    C610761   3.657   1.930  15.304 -0.2767 -0.0035 -0.5428
  728TMC3     C10762   3.387   1.952  15.594 -0.0599  0.1321 -0.0796
  728TMC3     O10763   3.408   2.071  15.616  0.3104 -0.3536  0.6702
  728TMC3     H10764   3.628   2.018  15.618  0.9228 -1.2976  1.0801
  728TMC3    H110765   3.346   1.812  15.375 -0.2813  0.4424 -0.9258
  728TMC3    H210766   3.721   1.940  15.218 -0.2857  1.6856 -0.3440
  728TMC3    C710767   3.475   1.855  15.162 -0.0645 -0.5630 -0.8110
  728TMC3    C810768   3.773   2.099  15.430 -0.1677 -0.2561  0.0752
  728TMC3    O110769   3.418   1.748  15.137  0.3208  0.6241  0.1715
  728TMC3    O210770   3.759   2.167  15.329  0.4175 -0.4967 -0.2436
  729MPD2     C10771   0.893   3.115  16.417 -0.2402  0.2769  0.0288
  729MPD2    C110772   1.027   3.152  16.421 -0.3240 -0.8830  0.2812
  729MPD2    C210773   1.103   3.127  16.531  0.0043  0.3298  1.0408
  729MPD2    C310774   1.036   3.084  16.648  0.6570  0.5215 -0.6499
  729MPD2    C410775   0.904   3.042  16.639 -0.1059  0.2505  0.2404
  729MPD2    C510776   0.834   3.055  16.524 -0.1443 -0.0664 -0.2041
  729MPD2     H10777   1.208   3.151  16.538  0.1604  0.8343 -2.7169
  729MPD2    H110778   0.858   3.001  16.728 -0.5729  1.4107  0.5317
  729MPD2    H210779   0.838   3.134  16.325  1.2401 -0.7859 -1.0836
  729MPD2    H310780   0.728   3.032  16.529 -0.5413  2.4094  2.7476
  729MPD2     N10781   1.102   3.071  16.775  0.3447  0.7192  0.0338
  729MPD2    H510782   1.043   3.058  16.857  0.6338  0.9234  0.2777
  729MPD2    N110783   1.091   3.228  16.324 -0.4915  0.0328 -0.2714
  729MPD2    H710784   1.185   3.259  16.349 -1.2400  1.3584  0.8883
  730TMC3    C110785   1.262   3.150  16.930 -0.3107  0.2586 -0.2170
  730TMC3    C210786   1.397   3.173  16.963 -0.2258 -0.6932  0.6646
  730TMC3    C310787   1.430   3.294  17.014 -0.6530 -0.1413  0.8274
  730TMC3    C410788   1.165   3.231  16.980  0.3363  0.0261  0.1680
  730TMC3    C510789   1.203   3.339  17.061 -0.4711  0.2903  0.2354
  730TMC3    C610790   1.335   3.370  17.086  0.1702  0.2423 -0.1931
  730TMC3     C10791   1.237   3.084  16.801  0.9197 -0.5264  0.8460
  730TMC3     O10792   1.336   3.074  16.730  0.2400 -0.3215  0.5918
  730TMC3     H10793   1.480   3.120  16.917 -1.1889 -1.1839 -0.5137
  730TMC3    H110794   1.062   3.236  16.944  0.5960  0.6401 -0.4856
  730TMC3    H210795   1.370   3.464  17.127 -0.7794  0.5333 -0.0388
  730TMC3    C710796   1.113   3.458  17.054  0.3180  0.0061  0.7115
  730TMC3    C810797   1.520   3.366  16.933 -0.1481 -0.4613 -0.5211
  730TMC3    O110798   1.038   3.465  16.954 -0.0731 -0.0431  0.4717
  730TMC3    O210799   1.545   3.327  16.819 -0.2845  0.2958 -0.2593
  731MPD2     C10800   0.503   1.371  12.244 -0.3137  0.2023 -0.0985
  731MPD2    C110801   0.627   1.318  12.247 -0.0835  0.1553  0.4936
  731MPD2    C210802   0.673   1.266  12.363  0.1989 -0.3633  0.8669
  731MPD2    C310803   0.597   1.266  12.479  0.6879 -0.0311 -0.3867
  731MPD2    C410804   0.473   1.315  12.470 -0.1826  0.1282 -0.5734
  731MPD2    C510805   0.427   1.366  12.352 -0.1872  0.4453 -0.0673
  731MPD2     H10806   0.775   1.232  12.382 -0.2854 -2.8608 -0.9792
  731MPD2    H110807   0.401   1.310  12.552 -1.6759 -0.7324 -1.9380
  731MPD2    H210808   0.470   1.423  12.155 -0.4791 -0.4761 -0.4325
  731MPD2    H310809   0.326   1.405  12.355 -1.1584 -2.1730  0.9197
  731MPD2     N10810   0.655   1.206  12.594 -0.4361 -0.0913 -0.4220
  731MPD2    H510811   0.749   1.176  12.570 -0.4116 -0.0438 -0.3846
  731MPD2    N110812   0.708   1.327  12.126 -0.1711 -0.1075 -0.5442
  731MPD2    H710813   0.663   1.363  12.043  0.3488  0.3955 -0.6069
  732TMC3    C110814   0.902   1.342  12.003 -0.1761 -0.2238  0.4552
  732TMC3    C210815   0.833   1.346  11.885 -0.2536  0.6618 -0.6384
  732TMC3    C310816   0.898   1.360  11.766 -0.3040 -0.3030 -0.0033
  732TMC3    C410817   1.040   1.349  12.003  0.3308  0.1636  0.2306
  732TMC3    C510818   1.098   1.367  11.885 -0.1157 -0.4659 -0.3317
  732TMC3    C610819   1.030   1.361  11.769  0.9647 -0.1430 -0.1238
  732TMC3     C10820   0.844   1.308  12.131 -0.2694 -0.0090  0.0499
  732TMC3     O10821   0.916   1.296  12.229 -0.2188  0.2075  0.1008
  732TMC3     H10822   0.728   1.319  11.876  0.2142 -1.2846 -0.3046
  732TMC3    H110823   1.097   1.337  12.094  0.8346  0.1711 -0.0838
  732TMC3    H210824   1.089   1.385  11.682 -0.3838  1.1026 -0.6849
  732TMC3    C710825   1.245   1.360  11.869 -0.0791  0.2128 -0.2388
  732TMC3    C810826   0.836   1.306  11.650  0.5384 -0.2367 -0.5622
  732TMC3    O110827   1.293   1.312  11.766 -1.2463 -0.0797 -0.4570
  732TMC3    O210828   0.888   1.214  11.589  0.0743 -0.7336  0.1956
  733TMC3    C110829   1.509   0.025  13.235  0.0567  0.5536 -0.3411
  733TMC3    C210830   1.609   4.709  13.325  0.9182 -0.5779 -0.0284
  733TMC3    C310831   1.730   4.689  13.268  0.4895 -0.1047  0.0894
  733TMC3    C410832   1.534   0.034  13.103 -0.4518 -0.0059  1.0248
  733TMC3    C510833   1.659   0.011  13.051  0.2876 -0.1501 -0.1321
  733TMC3    C610834   1.764   4.702  13.136 -0.1494 -0.0977 -0.4709
  733TMC3     C10835   1.373   0.027  13.272  0.4418  0.8253  0.6118
  733TMC3     O10836   1.298   0.071  13.185 -0.0097 -0.3047 -0.1303
  733TMC3     H10837   1.598   4.688  13.430  0.0736 -1.7689 -0.3560
  733TMC3    H110838   1.450   0.060  13.039 -0.6193  1.0288  1.6674
  733TMC3    H210839   1.849   4.649  13.093 -0.1609 -0.6199  0.1577
  733TMC3    C710840   1.683   0.034  12.911 -0.4781  0.2614 -0.6428
  733TMC3    C810841   1.840   4.646  13.349  0.0286 -0.4013 -0.0648
  733TMC3    O110842   1.591   0.000  12.840  0.5174  0.0393 -0.0134
  733TMC3    O210843   1.830   4.583  13.454  0.2220 -0.5672  0.3097
  734MPD2     C10844   3.357   2.113  11.833  0.3208 -0.6222  0.2019
  734MPD2    C110845   3.355   2.069  11.701 -0.6277 -0.0722 -0.0126
  734MPD2    C210846   3.432   2.130  11.602 -0.2266  0.0787  0.7451
  734MPD2    C310847   3.498   2.247  11.629 -0.4836 -0.1042 -0.5080
  734MPD2    C410848   3.490   2.297  11.757  0.0579  0.2361 -0.4951
  734MPD2    C510849   3.421   2.233  11.859 -0.3681  0.6156  0.2344
  734MPD2     H10850   3.433   2.090  11.502  2.0939  0.4358  0.6224
  734MPD2    H110851   3.541   2.387  11.790 -0.5755 -0.2974  1.9441
  734MPD2    H210852   3.299   2.074  11.916 -1.6551  2.2368  0.1750
  734MPD2    H310853   3.407   2.276  11.957 -0.4205  0.8235  0.1370
  734MPD2     N10854   3.578   2.298  11.523  0.3659  0.0588  0.5943
  734MPD2    H510855   3.599   2.231  11.450 -0.8109  1.3378 -0.9286
  734MPD2    N110856   3.287   1.947  11.672  0.0868  0.5668  0.5115
  734MPD2    H710857   3.253   1.894  11.752  1.5816  1.0677  1.4629
  735TMC3    C110858   3.171   1.790  11.528  0.2480  0.0096 -0.1018
  735TMC3    C210859   3.106   1.764  11.411  0.0409 -0.5857 -0.0295
  735TMC3    C310860   3.132   1.652  11.338  0.6192 -0.2740  1.0123
  735TMC3    C410861   3.234   1.690  11.589 -0.2379  0.2802 -0.2059
  735TMC3    C510862   3.243   1.571  11.524 -0.7362 -0.1887  0.7568
  735TMC3    C610863   3.193   1.550  11.400 -0.4201 -0.1496 -0.0862
  735TMC3     C10864   3.229   1.923  11.546 -0.2562  0.7039  0.0600
  735TMC3     O10865   3.228   2.000  11.448 -0.3797  0.3314 -0.1330
  735TMC3     H10866   3.032   1.831  11.369  1.4530  0.8701 -0.1820
  735TMC3    H110867   3.283   1.711  11.683 -2.0827  2.9095  0.1540
  735TMC3    H210868   3.222   1.471  11.332 -1.6225 -0.8508  0.2135
  735TMC3    C710869   3.339   1.489  11.580  0.1980  0.3273 -0.5840
  735TMC3    C810870   3.199   1.681  11.214 -0.0004  0.8508 -0.0194
  735TMC3    O110871   3.405   1.536  11.671  0.1419 -0.2342  0.1097
  735TMC3    O210872   3.246   1.585  11.152 -0.4722  0.2201  0.2934
  736MPD2     C10873   3.427   1.150  11.485 -0.1176 -0.0652 -0.2098
  736MPD2    C110874   3.454   1.270  11.540  0.0569 -0.3223  0.3810
  736MPD2    C210875   3.576   1.297  11.603  0.7545 -1.1474 -0.3445
  736MPD2    C310876   3.674   1.199  11.610 -0.1446  0.2979 -0.6235
  736MPD2    C410877   3.640   1.071  11.569 -0.8395 -0.3293  0.1899
  736MPD2    C510878   3.517   1.050  11.510  0.2248 -0.3323 -0.0690
  736MPD2     H10879   3.581   1.401  11.633 -0.4288 -0.9130 -0.9290
  736MPD2    H110880   3.710   0.990  11.581 -0.5247  0.2994  2.5279
  736MPD2    H210881   3.331   1.134  11.438  1.1946 -0.8652 -2.5743
  736MPD2    H310882   3.494   0.952  11.470  0.5416  0.0228 -1.1164
  736MPD2     N10883   3.809   1.225  11.649 -0.1594  0.2334 -0.3365
  736MPD2    H510884   3.871   1.145  11.647  1.5786  1.5520  0.6585
  736MPD2    N110885   3.353   1.372  11.518  0.0913  0.0602 -0.2792
  736MPD2    H710886   3.289   1.360  11.440 -1.7504  1.8969  0.9547
  737TMC3    C110887   4.017   1.349  11.679 -0.3869 -0.1780  0.5264
  737TMC3    C210888   4.071   1.471  11.679 -0.4163 -0.7448 -1.0681
  737TMC3    C310889   4.195   1.488  11.625  0.3459 -0.3420 -0.3432
  737TMC3    C410890   4.078   1.245  11.619  0.0197  0.2192  0.7958
  737TMC3    C510891   4.195   1.269  11.555 -0.1328  0.0823 -0.4408
  737TMC3    C610892   4.264   1.390  11.559  0.2497 -0.1888  0.0707
  737TMC3     C10893   3.872   1.347  11.689 -0.0681  0.6814  0.4179
  737TMC3     O10894   3.821   1.457  11.701  0.0314 -0.0898  0.5052
  737TMC3     H10895   4.020   1.559  11.716  2.3882  0.3117  0.2867
  737TMC3    H110896   4.029   1.148  11.614  0.7024 -0.1336  0.9375
  737TMC3    H210897   4.366   1.396  11.523 -0.1379  1.5391 -0.7090
  737TMC3    C710898   4.246   1.156  11.480  0.1383  0.3978 -0.2302
  737TMC3    C810899   4.237   1.624  11.616 -0.4849 -0.9987 -0.2388
  737TMC3    O110900   4.193   1.047  11.489 -0.4455 -0.4750 -0.2068
  737TMC3    O210901   4.196   1.707  11.695  0.5993 -1.0419 -0.3412
  738MPD2     C10902   4.250   0.733  14.512 -0.1947  0.1914 -0.3856
  738MPD2    C110903   4.297   0.740  14.640  0.3288 -0.2558 -0.3353
  738MPD2    C210904   4.380   0.852  14.670 -0.7395  0.0714  0.2143
  738MPD2    C310905   4.425   0.936  14.566 -0.2366 -0.4778 -0.1048
  738MPD2    C410906   4.354   0.937  14.445  0.5766 -0.4070  0.1397
  738MPD2    C510907   4.269   0.831  14.416  0.3724  0.5058  0.3324
  738MPD2     H10908   4.424   0.851  14.769 -0.8024 -0.2623  0.2384
  738MPD2    H110909   4.368   1.018  14.374 -0.5219  0.9223  1.4373
  738MPD2    H210910   4.195   0.645  14.482  0.8412  0.0220 -1.7754
  738MPD2    H310911   4.221   0.817  14.319  0.6804  2.4820 -0.1131
  738MPD2     N10912   4.531   1.024  14.577  0.1202 -0.7892 -0.3971
  738MPD2    H510913   4.549   1.082  14.495  0.3524 -0.0071  0.2024
  738MPD2    N110914   4.298   0.618  14.709  0.1400 -0.3786  0.9004
  738MPD2    H710915   4.279   0.538  14.649  0.4461  0.1147  0.1495
  739TMC3    C110916   4.713   1.135  14.667  0.4108  0.3913 -0.6212
  739TMC3    C210917   0.032   1.169  14.540 -0.4413 -0.4844  0.5182
  739TMC3    C310918   0.151   1.232  14.525 -0.6689 -0.1529  0.2723
  739TMC3    C410919   0.062   1.172  14.778  0.2759  0.4498  0.1974
  739TMC3    C510920   0.170   1.261  14.758  0.0654 -0.2146 -0.6134
  739TMC3    C610921   0.215   1.288  14.629 -0.1606 -0.0935 -0.0009
  739TMC3     C10922   4.601   1.052  14.689  0.2313 -0.4030  0.3899
  739TMC3     O10923   4.588   1.013  14.801  0.3127 -0.5743  0.2564
  739TMC3     H10924   4.719   1.116  14.454 -2.1850  3.3144 -1.0678
  739TMC3    H110925   0.025   1.148  14.877  0.7867 -0.5450  0.1494
  739TMC3    H210926   0.289   1.364  14.608  0.3464 -0.9514 -1.3190
  739TMC3    C710927   0.228   1.340  14.872  0.7541 -0.7628 -0.4534
  739TMC3    C810928   0.196   1.250  14.393  0.1895  0.1756 -1.0273
  739TMC3    O110929   0.176   1.327  14.983 -0.1824  0.9239 -0.2782
  739TMC3    O210930   0.112   1.225  14.308 -0.0804 -0.5307 -0.2953
  740TMC3    C110931   0.718   2.193  14.018 -0.2424  0.3975  0.2777
  740TMC3    C210932   0.754   2.153  14.142 -0.2369  0.1191  0.4126
  740TMC3    C310933   0.875   2.090  14.155  0.2509  0.2303  0.2138
  740TMC3    C410934   0.801   2.178  13.912 -0.2799  0.1413  0.1026
  740TMC3    C510935   0.927   2.134  13.926  0.6848  0.2404 -0.0855
  740TMC3    C610936   0.964   2.093  14.056  0.1558 -0.1672  0.0311
  740TMC3     C10937   0.587   2.245  13.997 -0.6290  0.2534  0.6361
  740TMC3     O10938   0.562   2.286  13.885  0.0282  0.0490  0.7023
  740TMC3     H10939   0.696   2.163  14.233  1.2798  1.5730  1.2197
  740TMC3    H110940   0.763   2.220  13.819  1.4892 -1.6919 -1.4508
  740TMC3    H210941   1.063   2.050  14.065  0.2199 -0.3466 -1.5108
  740TMC3    C710942   1.031   2.141  13.819 -0.3649 -0.0777 -0.4424
  740TMC3    C810943   0.926   2.056  14.289 -0.0363 -0.4130 -0.5448
  740TMC3    O110944   1.135   2.083  13.842  0.6538  0.2394 -0.0233
  740TMC3    O210945   1.046   2.033  14.306  0.0963  0.2146 -0.4380
  741TMC3    C110946   4.678   1.637  14.235 -0.0078  0.5776 -0.2646
  741TMC3    C210947   4.614   1.525  14.204 -0.2226  0.2920 -1.0516
  741TMC3    C310948   4.605   1.427  14.298 -0.4175 -0.7549 -0.3401
  741TMC3    C410949   0.009   1.656  14.364  0.2477  0.2936  0.6911
  741TMC3    C510950   4.716   1.562  14.456 -0.3992 -0.5953 -0.4232
  741TMC3    C610951   4.641   1.448  14.427 -0.0821  0.3238  0.1498
  741TMC3     C10952   4.678   1.757  14.145 -0.8029 -0.6506 -0.3347
  741TMC3     O10953   0.019   1.853  14.178 -0.9870  0.0888 -0.4772
  741TMC3     H10954   4.562   1.513  14.110  1.1808  2.0501 -2.0373
  741TMC3    H110955   0.056   1.750  14.392 -0.0241  0.3941  0.8088
  741TMC3    H210956   4.625   1.375  14.506  2.9425 -0.4950  0.0026
  741TMC3    C710957   0.019   1.586  14.598 -0.1420 -0.3344  0.7258
  741TMC3    C810958   4.539   1.298  14.266 -0.0317  0.8252  0.7608
  741TMC3    O110959   4.669   1.525  14.676 -0.1566 -0.5593  0.3184
  741TMC3    O210960   4.486   1.234  14.361  0.1672 -0.1355  0.6037
  742TMC3    C110961   4.578   4.499  14.908 -0.2065 -0.0968  0.6539
  742TMC3    C210962   4.502   4.448  14.804  0.5176  0.5442 -0.6394
  742TMC3    C310963   4.576   4.376  14.713 -0.6863 -1.0664 -0.4332
  742TMC3    C410964   4.716   4.482  14.912 -0.1784 -0.8298 -0.2882
  742TMC3    C510965   0.061   4.440  14.804  0.0481 -0.5199 -0.2877
  742TMC3    C610966   4.715   4.382  14.703 -0.3567 -0.2098 -0.0209
  742TMC3     C10967   4.514   4.529  15.033 -0.0539  0.0519 -0.0170
  742TMC3     O10968   4.411   4.470  15.069 -0.2566  0.0115 -0.0033
  742TMC3     H10969   4.394   4.462  14.804  0.3812 -0.5252 -0.6032
  742TMC3    H110970   0.046   4.518  14.999 -1.1749 -3.5329  1.4590
  742TMC3    H210971   0.038   4.341  14.614 -1.5256 -0.4559 -0.5326
  742TMC3    C710972   0.203   4.418  14.804 -0.0694 -0.4260 -0.8702
  742TMC3    C810973   4.512   4.330  14.591 -0.7266  0.0417  0.2987
  742TMC3    O110974   0.246   4.333  14.725 -0.0916 -0.1389  0.0485
  742TMC3    O210975   4.569   4.252  14.526 -0.3818  0.6306 -0.6095
  743MPD2     C10976   2.868   0.473   1.617 -0.6055  0.3530  0.1233
  743MPD2    C110977   2.898   0.522   1.491  0.7799 -0.3558  0.2154
  743MPD2    C210978   3.030   0.531   1.450  0.0704 -0.1090 -0.2250
  743MPD2    C310979   3.130   0.515   1.542  0.3626 -0.1167 -0.0183
  743MPD2    C410980   3.096   0.485   1.677 -0.7443 -0.1715 -0.1074
  743MPD2    C510981   2.970   0.453   1.712 -0.6563 -0.2371 -0.3676
  743MPD2     H10982   3.067   0.547   1.350  1.5152 -2.2843 -0.0490
  743MPD2    H110983   3.165   0.454   1.754 -1.8379 -1.2166  0.4334
  743MPD2    H210984   2.768   0.456   1.654  0.0705  0.2031  1.8737
  743MPD2    H310985   2.938   0.414   1.808  1.3587  1.4752  0.9791
  743MPD2     N10986   3.264   0.532   1.494  0.1179 -0.6408 -0.1097
  743MPD2    H510987   3.282   0.564   1.399 -1.0683  0.9565  0.2095
  743MPD2    N110988   2.784   0.538   1.402 -0.2968 -0.0420 -0.2391
  743MPD2    H710989   2.696   0.504   1.438  1.3174  0.3812  4.0635
  744TMC3    C110990   2.666   0.576   1.206 -0.4570  0.1475  0.3822
  744TMC3    C210991   2.574   0.652   1.271  0.2411  0.5203 -0.5320
  744TMC3    C310992   2.473   0.700   1.190  0.2464 -0.1283 -0.0789
  744TMC3    C410993   2.670   0.547   1.072  0.1023 -1.2358 -0.1179
  744TMC3    C510994   2.572   0.602   0.991 -0.4000  0.4050  0.2120
  744TMC3    C610995   2.464   0.679   1.053  0.6784 -0.4504 -0.1111
  744TMC3     C10996   2.794   0.572   1.271 -0.1494  0.4922  0.2458
  744TMC3     O10997   2.892   0.585   1.198 -0.1484  0.5188  0.3103
  744TMC3     H10998   2.595   0.699   1.367 -0.6804  1.0286 -0.5806
  744TMC3    H110999   2.745   0.497   1.012  0.5588 -0.6326 -0.0370
  744TMC3    H211000   2.382   0.726   1.000  0.5003 -2.3031 -1.4802
  744TMC3    C711001   2.624   0.643   0.864  0.2771  0.0072 -1.6401
  744TMC3    C811002   2.379   0.784   1.265  0.2936 -0.7009 -0.2363
  744TMC3    O111003   2.742   0.663   0.856  0.3263  0.5316  0.2095
  744TMC3    O211004   2.336   0.882   1.210  0.3079 -0.1531 -0.0744
  745TMC3    C111005   0.437   0.144  14.264 -0.3228 -0.4439 -0.2749
  745TMC3    C211006   0.448   0.231  14.366 -0.1363 -0.3992  0.3732
  745TMC3    C311007   0.370   0.342  14.359 -0.0807  0.7529  0.1575
  745TMC3    C411008   0.373   0.163  14.147 -0.3906  0.1285  0.1153
  745TMC3    C511009   0.303   0.275  14.141  0.2220  0.2136 -0.4222
  745TMC3    C611010   0.296   0.374  14.244  0.1960 -0.7889  1.1387
  745TMC3     C11011   0.560   0.074  14.238 -0.4610  1.1768  0.2118
  745TMC3     O11012   0.624   0.018  14.326  0.2899 -0.0014  0.3053
  745TMC3     H11013   0.509   0.204  14.452  3.5412  4.2728 -0.7628
  745TMC3    H111014   0.372   0.076  14.082  2.2700  0.8483 -0.8873
  745TMC3    H211015   0.236   0.464  14.233 -0.0377 -0.9783  0.8325
  745TMC3    C711016   0.260   0.305  14.009 -0.9473  0.1142  0.0871
  745TMC3    C811017   0.396   0.454  14.451  0.2132 -0.3250 -0.1833
  745TMC3    O111018   0.250   0.212  13.931 -0.4193  0.0865 -0.2753
  745TMC3    O211019   0.309   0.538  14.457  0.1731 -0.1668 -0.6081
  746TMC3    C111020   2.876   1.321  11.024  0.5676  0.1869  0.4489
  746TMC3    C211021   2.963   1.286  10.924  0.3781 -0.0131  0.1362
  746TMC3    C311022   2.953   1.163  10.870 -0.5604  0.0992 -0.0013
  746TMC3    C411023   2.774   1.237  11.067 -0.2905  0.1171  0.1661
  746TMC3    C511024   2.776   1.111  11.016  0.4377  0.1325 -0.2165
  746TMC3    C611025   2.862   1.075  10.915  0.0948  0.2446  0.5393
  746TMC3     C11026   2.863   1.459  11.062 -0.7027  0.5856  0.3286
  746TMC3     O11027   2.787   1.489  11.156 -0.0069 -0.5251  0.4944
  746TMC3     H11028   3.053   1.345  10.915  1.7365 -2.2971 -1.2349
  746TMC3    H111029   2.700   1.286  11.129 -1.3581 -0.7116 -0.4576
  746TMC3    H211030   2.847   0.980  10.865 -1.6599  0.8435 -0.0517
  746TMC3    C711031   2.654   1.036  11.016  0.3530  0.4885 -0.1495
  746TMC3    C811032   3.000   1.137  10.742 -0.4313  0.1245 -0.1418
  746TMC3    O111033   2.645   0.946  10.936 -0.1606  0.1418 -0.4599
  746TMC3    O211034   2.986   1.028  10.685  0.4724 -0.2544  0.2170
  747TMC3    C111035   0.133   1.338  10.749 -0.2377 -1.0784 -0.5497
  747TMC3    C211036   0.073   1.229  10.820  0.4806  0.0424  0.2917
  747TMC3    C311037   0.150   1.172  10.920  0.0884 -0.8983  0.1895
  747TMC3    C411038   0.253   1.387  10.785 -0.0362  0.9230  0.3999
  747TMC3    C511039   0.320   1.325  10.880 -0.4837 -0.0601  0.5431
  747TMC3    C611040   0.275   1.219  10.950  0.1565 -0.4484 -0.1678
  747TMC3     C11041   0.055   1.416  10.647  0.3952  0.1255  0.1419
  747TMC3     O11042   0.060   1.538  10.671 -0.2007  0.0822 -0.2412
  747TMC3     H11043   4.693   1.200  10.805  0.2394  0.8615  0.3886
  747TMC3    H111044   0.281   1.477  10.733 -1.8603  1.7014  0.7591
  747TMC3    H211045   0.332   1.171  11.029 -0.0986 -1.9925 -0.9190
  747TMC3    C711046   0.448   1.369  10.907 -0.0007  0.2356 -0.7530
  747TMC3    C811047   0.089   1.086  11.021  0.1842 -0.4579  0.0497
  747TMC3    O111048   0.462   1.486  10.878 -0.4505 -0.2659 -0.3792
  747TMC3    O211049   0.149   0.986  11.056  0.1246  0.3604  0.2475
  748MPD2     C11050   1.594   2.762   1.367 -0.2301 -0.2295  0.4318
  748MPD2    C111051   1.662   2.659   1.427  0.8021  0.1404  0.6598
  748MPD2    C211052   1.791   2.631   1.385 -0.3417 -0.4661 -0.3075
  748MPD2    C311053   1.855   2.705   1.279 -0.4418  0.0799  1.1174
  748MPD2    C411054   1.781   2.808   1.220 -1.0187  0.4431 -0.6368
  748MPD2    C511055   1.655   2.829   1.268 -0.5326  0.1934  0.1045
  748MPD2     H11056   1.851   2.558   1.437 -2.2746 -1.3697  0.6314
  748MPD2    H111057   1.800   2.865   1.130  0.1103  0.2802 -0.4984
  748MPD2    H211058   1.492   2.787   1.393  0.3949  0.4477  2.2094
  748MPD2    H311059   1.600   2.908   1.218  0.0913 -0.0374 -0.9295
  748MPD2     N11060   1.979   2.670   1.226 -0.9288  0.0633 -0.2913
  748MPD2    H511061   2.040   2.623   1.292 -1.0330  1.1566  0.5875
  748MPD2    N111062   1.589   2.589   1.530 -0.1878  0.0894  0.0746
  748MPD2    H711063   1.490   2.611   1.536 -0.0435  0.7036  0.2128
  749TMC3    C111064   2.165   2.682   1.091 -0.0047 -0.0562 -0.1696
  749TMC3    C211065   2.231   2.611   1.193  0.4333 -0.2126 -0.1537
  749TMC3    C311066   2.361   2.583   1.171  0.9968  0.2756  0.1302
  749TMC3    C411067   2.223   2.727   0.981  0.0307 -0.5338 -0.1071
  749TMC3    C511068   2.352   2.687   0.960 -0.0324  0.0898 -0.8759
  749TMC3    C611069   2.423   2.619   1.053  0.7934 -0.3299  0.7199
  749TMC3     C11070   2.030   2.720   1.111  0.1941 -0.4953  0.7176
  749TMC3     O11071   1.973   2.768   1.017  0.2748  0.1790 -0.3996
  749TMC3     H11072   2.185   2.560   1.278 -2.5630 -1.2899 -2.4080
  749TMC3    H111073   2.169   2.794   0.915 -1.1444  0.2845  1.7148
  749TMC3    H211074   2.523   2.579   1.040  1.5834  2.0369 -0.3958
  749TMC3    C711075   2.421   2.721   0.837 -1.0460  0.3372 -0.4518
  749TMC3    C811076   2.438   2.511   1.269 -0.3166 -0.5117  0.5809
  749TMC3    O111077   2.545   2.713   0.843 -0.0778 -0.0605 -0.2180
  749TMC3    O211078   2.400   2.539   1.383  0.3178 -0.7272  0.0307
  750MPD2     C11079   2.834   3.379  11.171 -0.0104 -0.0587 -0.2675
  750MPD2    C111080   2.754   3.286  11.234  0.2972  0.1655  0.7214
  750MPD2    C211081   2.734   3.167  11.176 -0.1255  0.4088  0.1765
  750MPD2    C311082   2.789   3.143  11.050  0.5583  0.0325  0.2684
  750MPD2    C411083   2.869   3.237  10.992  0.0843  0.9749 -0.2594
  750MPD2    C511084   2.897   3.355  11.050  0.2930  0.1403  0.0405
  750MPD2     H11085   2.673   3.091  11.225  0.2800 -0.9051 -1.3756
  750MPD2    H111086   2.919   3.217  10.898 -0.8189  0.2648 -0.5880
  750MPD2    H211087   2.856   3.469  11.227  0.3714 -0.6574  0.5499
  750MPD2    H311088   2.959   3.431  11.004 -0.7470  0.4572 -0.8258
  750MPD2     N11089   2.754   3.030  10.978  0.0536  0.5660 -0.2839
  750MPD2    H511090   2.799   3.014  10.888 -2.0168 -0.1901 -1.1723
  750MPD2    N111091   2.702   3.323  11.357  0.4560 -0.1291 -0.2145
  750MPD2    H711092   2.719   3.418  11.389  0.5460 -0.3427  0.3605
  751TMC3    C111093   2.687   2.809  10.924 -0.3506  0.1124 -0.2972
  751TMC3    C211094   2.590   2.716  10.948  0.2970 -0.0922  0.2846
  751TMC3    C311095   2.619   2.589  10.895 -0.1752 -0.2328 -0.9916
  751TMC3    C411096   2.810   2.784  10.859  0.3775 -0.4191 -0.3738
  751TMC3    C511097   2.830   2.652  10.834 -0.0969  0.4518  0.7658
  751TMC3    C611098   2.736   2.554  10.841 -0.8735  0.4916 -0.2328
  751TMC3     C11099   2.684   2.921  11.020 -0.7529  0.1088 -0.0754
  751TMC3     O11100   2.622   2.889  11.119  0.3983 -0.0038  0.0824
  751TMC3     H11101   2.492   2.750  10.981  0.6535  0.4915  0.7405
  751TMC3    H111102   2.893   2.854  10.854 -0.0949  0.3868  2.6293
  751TMC3    H211103   2.740   2.450  10.808 -0.2869  0.2167  0.7143
  751TMC3    C711104   2.955   2.601  10.788 -0.0960 -0.2914  0.0329
  751TMC3    C811105   2.510   2.496  10.884 -0.3191  0.8450 -0.3831
  751TMC3    O111106   3.026   2.677  10.725  0.2042  0.4102 -0.3927
  751TMC3    O211107   2.516   2.424  10.781  0.5436 -0.8247  0.3874
  752TMC3    C111108   1.965   3.393  16.763  0.8513  0.8479  0.6576
  752TMC3    C211109   1.870   3.305  16.818  0.1407 -0.0399 -0.0183
  752TMC3    C311110   1.882   3.279  16.952 -0.2156  0.4415  0.0051
  752TMC3    C411111   2.062   3.452  16.848 -0.2994 -1.0788  0.1903
  752TMC3    C511112   2.072   3.416  16.975  0.1245 -0.3746  0.1203
  752TMC3    C611113   1.986   3.325  17.033 -0.6037 -0.1307  0.4157
  752TMC3     C11114   1.973   3.431  16.623  0.0525  0.2853  0.2163
  752TMC3     O11115   2.083   3.456  16.575 -0.0742 -0.3695  0.2278
  752TMC3     H11116   1.781   3.267  16.770  0.8894  1.5185 -2.6014
  752TMC3    H111117   2.131   3.520  16.800 -0.1806 -0.3174  1.4241
  752TMC3    H211118   2.009   3.287  17.132 -0.2089 -1.9849 -0.3889
  752TMC3    C711119   2.184   3.447  17.051 -0.1109 -0.2089  0.2959
  752TMC3    C811120   1.797   3.185  17.013  0.3777  0.3129  0.9542
  752TMC3    O111121   2.241   3.351  17.104  0.1530  0.2657 -0.0567
  752TMC3    O211122   1.766   3.094  16.937  0.4947 -0.0413 -0.3382
  753TMC3    C111123   4.056   4.469  13.006 -0.3553 -0.6067 -0.6923
  753TMC3    C211124   4.050   4.399  13.128  1.0245 -0.2164 -0.6345
  753TMC3    C311125   4.110   4.271  13.126 -0.3003 -0.3568  0.1654
  753TMC3    C411126   4.098   4.411  12.891 -0.1634  0.4296 -0.7000
  753TMC3    C511127   4.155   4.286  12.899 -0.8359  0.1686 -0.0714
  753TMC3    C611128   4.145   4.208  13.011 -0.1681  0.6265 -0.4581
  753TMC3     C11129   3.980   4.587  12.990 -0.8670  0.2605 -0.3836
  753TMC3     O11130   4.017   4.668  12.906  0.1773  0.0800 -0.0934
  753TMC3     H11131   4.030   4.461  13.215 -2.1034  0.2608 -1.6987
  753TMC3    H111132   4.100   4.472  12.801 -0.1382  3.2530  1.2240
  753TMC3    H211133   4.180   4.106  13.019 -0.4155  0.4892 -1.1298
  753TMC3    C711134   4.189   4.211  12.781  0.2567  0.9640 -0.2121
  753TMC3    C811135   4.051   4.188  13.224 -0.3344 -0.3629  0.4727
  753TMC3    O111136   4.173   4.091  12.790  0.2998 -0.5752  0.5052
  753TMC3    O211137   4.002   4.076  13.196  0.2002  0.4471  0.0545
  754MPD2     C11138   2.169   3.397  12.385 -0.1420 -1.1251 -0.4080
  754MPD2    C111139   2.125   3.296  12.463  0.7232 -1.2661  0.4363
  754MPD2    C211140   1.992   3.297  12.505  0.3230 -0.0714 -0.0791
  754MPD2    C311141   1.901   3.391  12.458  0.0944  0.2706 -0.2717
  754MPD2    C411142   1.950   3.491  12.376 -0.2628 -0.5469  0.1921
  754MPD2    C511143   2.082   3.491  12.344  0.4532 -0.1250  0.0293
  754MPD2     H11144   1.962   3.226  12.581  0.1192 -1.1062 -1.1399
  754MPD2    H111145   1.889   3.575  12.343  0.9706 -0.4527 -1.8744
  754MPD2    H211146   2.269   3.394  12.345 -0.3401 -1.1841 -0.8911
  754MPD2    H311147   2.118   3.563  12.272 -1.9249 -0.1377 -1.1910
  754MPD2     N11148   1.769   3.394  12.508  0.3930  0.0275  0.4446
  754MPD2    H511149   1.717   3.480  12.495  2.7284  1.4238  0.4109
  754MPD2    N111150   2.220   3.204  12.512  0.8227 -0.2240  0.8664
  754MPD2    H711151   2.316   3.234  12.497 -0.4144  3.2489  0.0833
  755MPD2     C11152   1.492   3.942  13.098 -0.2332  0.1303  0.6382
  755MPD2    C111153   1.478   3.821  13.164  0.1509 -0.2377  0.2822
  755MPD2    C211154   1.472   3.708  13.084 -0.4875  0.0098 -0.1884
  755MPD2    C311155   1.478   3.721  12.952 -0.0728 -0.2176 -0.3644
  755MPD2    C411156   1.498   3.845  12.890  0.6401 -0.4046  0.0211
  755MPD2    C511157   1.501   3.958  12.967 -0.1113 -0.9247 -0.2753
  755MPD2     H11158   1.460   3.618  13.142  1.4774 -1.1886 -1.6273
  755MPD2    H111159   1.494   3.852  12.781 -1.0706  1.5300  0.2123
  755MPD2    H211160   1.520   4.029  13.156  1.5903  0.3708 -0.6216
  755MPD2    H311161   1.505   4.059  12.927  2.3535 -1.5049 -1.4491
  755MPD2     N11162   1.457   3.617  12.864  0.4189  0.9822  0.3950
  755MPD2    H511163   1.474   3.637  12.766  0.3547 -0.7543  0.0253
  755MPD2    N111164   1.474   3.803  13.312  0.3132  0.0038 -0.1610
  755MPD2    H711165   1.481   3.710  13.351 -2.6217  0.4941  1.5268
  756MPD2     C11166   2.926   3.002   9.724 -0.4393  0.0195  0.9201
  756MPD2    C111167   2.836   3.088   9.784  0.1057 -0.1379  0.0726
  756MPD2    C211168   2.703   3.062   9.760  0.2730  0.3512 -0.5960
  756MPD2    C311169   2.656   2.953   9.687 -0.0940 -0.4574 -0.2796
  756MPD2    C411170   2.745   2.875   9.618  0.2917 -0.1719 -0.2328
  756MPD2    C511171   2.881   2.901   9.638  0.0838  0.2949  0.3222
  756MPD2     H11172   2.628   3.118   9.815  0.2159  0.4827 -0.8068
  756MPD2    H111173   2.712   2.809   9.538 -1.2915  1.4656 -0.9380
  756MPD2    H211174   3.034   3.002   9.735 -0.3445  0.3565 -0.0768
  756MPD2    H311175   2.954   2.853   9.574  0.5244  2.0505 -0.4838
  756MPD2     N11176   2.515   2.933   9.668  0.6509  0.7262  0.6189
  756MPD2    H511177   2.458   3.006   9.710 -0.0776  1.1465 -1.1048
  756MPD2    N111178   2.876   3.194   9.864  0.4380  0.0699  0.5067
  756MPD2    H711179   2.806   3.242   9.921 -1.4186  0.7950 -2.3533
  757MPD2     C11180   1.565   2.456   9.369  0.0683 -0.0230 -0.0901
  757MPD2    C111181   1.559   2.589   9.363  0.3352  0.0180 -0.3619
  757MPD2    C211182   1.673   2.663   9.387  0.2867  0.7421 -0.2850
  757MPD2    C311183   1.796   2.610   9.407 -0.2840 -0.0136  0.5666
  757MPD2    C411184   1.801   2.467   9.409  0.2275 -0.5353  1.1957
  757MPD2    C511185   1.685   2.395   9.400 -0.1541  0.1260 -0.4717
  757MPD2     H11186   1.672   2.768   9.413 -0.1852  0.5805  0.3516
  757MPD2    H111187   1.893   2.414   9.431  0.4718 -1.2046 -1.4604
  757MPD2    H211188   1.481   2.389   9.357  0.4186 -0.1666 -1.7569
  757MPD2    H311189   1.692   2.287   9.412 -0.7063 -0.0012 -1.3820
  757MPD2     N11190   1.902   2.698   9.420  0.1258  0.5201  0.3249
  757MPD2    H511191   1.881   2.797   9.426  0.3316  0.6047 -0.3589
  757MPD2    N111192   1.435   2.650   9.341 -0.1167  0.7762  0.4196
  757MPD2    H711193   1.360   2.584   9.324  1.6832 -0.7379 -1.6297
  758MPD2     C11194   2.458   2.787  15.413  0.1230 -0.1209 -0.1120
  758MPD2    C111195   2.549   2.724  15.496 -0.1889  0.5476  0.2100
  758MPD2    C211196   2.515   2.712  15.622 -0.0042  0.1239  0.5749
  758MPD2    C311197   2.397   2.767  15.678 -0.3399 -0.2221  0.3758
  758MPD2    C411198   2.309   2.835  15.602  0.0398 -0.2282  0.1582
  758MPD2    C511199   2.345   2.836  15.468  0.0342  0.4714 -0.1554
  758MPD2     H11200   2.584   2.664  15.692 -0.3758  0.3153  1.0743
  758MPD2    H111201   2.221   2.887  15.638  0.4583 -0.5810  1.6506
  758MPD2    H211202   2.477   2.804  15.308 -0.3043  1.5594  0.0907
  758MPD2    H311203   2.273   2.886  15.404 -0.4980  1.8219  1.4872
  758MPD2     N11204   2.383   2.763  15.821 -0.3344  0.5239 -1.0350
  758MPD2    H511205   2.301   2.808  15.861 -0.4903 -0.7078  0.0508
  758MPD2    N111206   2.671   2.673  15.454  0.6147  0.4021  0.2677
  758MPD2    H711207   2.737   2.648  15.527 -0.2203 -2.1653  0.1590
  759MPD2     C11208   1.710   0.808   9.827  0.1380  0.4944  0.3480
  759MPD2    C111209   1.586   0.751   9.813  0.0583  0.8272  0.7207
  759MPD2    C211210   1.500   0.787   9.711  1.0139  0.3344  0.3846
  759MPD2    C311211   1.540   0.892   9.628 -0.2624 -0.2158 -0.1219
  759MPD2    C411212   1.670   0.943   9.640  0.1093 -0.0192 -0.1076
  759MPD2    C511213   1.752   0.896   9.738  0.7330  0.1250  0.4866
  759MPD2     H11214   1.405   0.737   9.695  0.5892  1.4198 -0.5917
  759MPD2    H111215   1.710   1.024   9.580  1.0809  0.8569  1.7288
  759MPD2    H211216   1.777   0.782   9.908  1.2007 -0.0119 -0.6924
  759MPD2    H311217   1.855   0.927   9.743  1.2517 -1.6682  1.0791
  759MPD2     N11218   1.453   0.932   9.531 -0.0397 -0.3927 -0.3517
  759MPD2    H511219   1.355   0.907   9.533 -0.2065  0.1311 -1.7932
  759MPD2    N111220   1.536   0.646   9.893  0.7777  0.3568 -0.3010
  759MPD2    H711221   1.446   0.605   9.871  0.0182  1.9879 -0.2812
  760MPD2     C11222   1.351   3.291  11.860 -0.1278  0.5387 -0.6005
  760MPD2    C111223   1.428   3.249  11.755 -0.1256  0.5382  0.6462
  760MPD2    C211224   1.417   3.120  11.710  0.0941 -0.1246 -0.9810
  760MPD2    C311225   1.339   3.028  11.776  0.4105 -0.1139  0.0211
  760MPD2    C411226   1.272   3.069  11.884  0.2806  0.4040  0.5678
  760MPD2    C511227   1.273   3.198  11.921  0.1707 -0.1420 -0.1376
  760MPD2     H11228   1.475   3.094  11.622  1.6914  1.3210 -0.3682
  760MPD2    H111229   1.194   3.008  11.929  1.9651 -0.9054  1.7233
  760MPD2    H211230   1.346   3.389  11.905  0.0012  0.3031 -0.0681
  760MPD2    H311231   1.209   3.236  11.999 -0.1565 -2.2378  0.6004
  760MPD2     N11232   1.321   2.890  11.737 -0.3418  0.5061  0.1634
  760MPD2    H511233   1.264   2.829  11.795 -1.3746  2.4242  1.1693
  760MPD2    N111234   1.520   3.339  11.695 -0.6748 -0.3120 -0.2896
  760MPD2    H711235   1.575   3.303  11.618  1.8455  1.2898  0.7651
  761MPD2     C11236   2.122   2.198  11.068 -0.3376 -0.0415  0.5145
  761MPD2    C111237   2.208   2.185  10.959 -0.9212 -0.6715 -0.0156
  761MPD2    C211238   2.305   2.286  10.937  0.2031 -0.7786 -0.6008
  761MPD2    C311239   2.341   2.393  11.024  0.3784 -0.4274 -0.0869
  761MPD2    C411240   2.254   2.398  11.128  0.3314  0.5479  0.6236
  761MPD2    C511241   2.147   2.315  11.152  0.1824  0.0825  0.1330
  761MPD2     H11242   2.365   2.270  10.849  1.0047  0.0775 -0.2073
  761MPD2    H111243   2.261   2.478  11.201 -0.1745  0.9130  0.2738
  761MPD2    H211244   2.041   2.127  11.084 -1.3697  0.2312 -3.6339
  761MPD2    H311245   2.095   2.328  11.246  0.1690  1.3288 -0.0473
  761MPD2     N11246   2.434   2.492  11.001  0.0116  0.2884 -0.0857
  761MPD2    H511247   2.448   2.557  11.077 -0.6013  1.0182 -0.6030
  761MPD2    N111248   2.201   2.067  10.878  0.6871 -0.2627  0.2591
  761MPD2    H711249   2.126   2.007  10.912  1.3862 -1.7949 -0.9272
  762MPD2     C11250   2.751   2.091  10.635  0.5868  0.2153 -1.0313
  762MPD2    C111251   2.743   1.957  10.607 -0.4068 -0.0209 -0.3217
  762MPD2    C211252   2.844   1.901  10.531  0.0681 -0.5793 -0.1873
  762MPD2    C311253   2.955   1.970  10.488  0.0417 -0.6084 -0.2984
  762MPD2    C411254   2.964   2.103  10.534  0.0074  0.1838  0.3322
  762MPD2    C511255   2.863   2.162  10.609 -0.1688 -0.5023  0.2965
  762MPD2     H11256   2.841   1.797  10.501 -0.9567 -0.0950 -1.7688
  762MPD2    H111257   3.047   2.170  10.515  0.7744 -0.3483  1.8095
  762MPD2    H211258   2.665   2.134  10.685 -0.0250 -2.8193  0.5795
  762MPD2    H311259   2.878   2.253  10.665  1.6074 -0.5154 -0.1301
  762MPD2     N11260   3.065   1.901  10.424 -0.6421  0.0166  0.5497
  762MPD2    H511261   3.063   1.800  10.432  1.3543 -0.1174 -0.7173
  762MPD2    N111262   2.623   1.894  10.645  0.0185 -0.6225  0.0112
  762MPD2    H711263   2.552   1.953  10.687 -0.6437 -0.4031 -1.4115
  763MPD2     C11264   0.001   2.600  16.068  0.8764  0.4081 -0.4074
  763MPD2    C111265   4.621   2.683  16.039 -0.1001 -0.0229 -0.2016
  763MPD2    C211266   4.615   2.800  16.112 -0.3746 -0.3423  0.8029
  763MPD2    C311267   4.700   2.831  16.222 -0.7533  0.1152  0.1517
  763MPD2    C411268   0.083   2.753  16.234 -0.1817  0.0210 -0.1268
  763MPD2    C511269   0.093   2.642  16.161  0.0321  0.6041  0.4812
  763MPD2     H11270   4.542   2.877  16.090 -1.6869 -1.6939  0.4080
  763MPD2    H111271   0.157   2.779  16.310 -0.8978  1.2339  0.1520
  763MPD2    H211272   0.016   2.499  16.030 -0.0426 -0.1079  0.5958
  763MPD2    H311273   0.175   2.577  16.187 -1.0658 -1.4765 -1.2878
  763MPD2     N11274   4.688   2.953  16.297 -0.1916  0.1747 -0.2001
  763MPD2    H511275   0.045   2.987  16.348 -0.4635  4.2932 -2.4928
  763MPD2    N111276   4.523   2.660  15.936 -0.4893 -0.4610  0.3320
  763MPD2    H711277   4.453   2.729  15.910  0.5524 -0.1223 -1.5241
  764MPD2     C11278   2.681   4.442  17.359 -0.6386 -0.8483 -0.5011
  764MPD2    C111279   2.551   4.385  17.359 -0.3616 -0.3912 -0.2460
  764MPD2    C211280   2.516   4.308  17.465  0.5330  0.0566 -0.1824
  764MPD2    C311281   2.603   4.281  17.567 -0.2047 -0.2521  0.4254
  764MPD2    C411282   2.732   4.335  17.560  0.6377  0.5950  0.1328
  764MPD2    C511283   2.774   4.415  17.454 -0.5642 -0.1279  0.1168
  764MPD2     H11284   2.416   4.268  17.456  0.9945 -1.2127  0.3506
  764MPD2    H111285   2.809   4.326  17.636  1.0238 -0.0237 -0.3438
  764MPD2    H211286   2.716   4.502  17.276  1.2982  0.0692  0.9948
  764MPD2    H311287   2.879   4.439  17.442 -1.0157  1.7445 -0.1069
  764MPD2     N11288   2.570   4.182  17.667 -0.7283  0.7892 -0.1605
  764MPD2    H511289   2.478   4.140  17.666 -0.5913  0.4735  1.0019
  764MPD2    N111290   2.448   4.414  17.264 -0.3675  0.3020 -1.2304
  764MPD2    H711291   2.366   4.355  17.273 -0.3490  0.5571  0.5155
  765MPD2     C11292   1.839   1.693  15.769  0.7271  0.1263  0.0929
  765MPD2    C111293   1.887   1.804  15.716  0.0565  0.1783  0.2260
  765MPD2    C211294   2.004   1.791  15.647 -0.3808  0.5431  0.2270
  765MPD2    C311295   2.074   1.674  15.639  0.0912 -0.1415  0.2866
  765MPD2    C411296   2.023   1.555  15.687  0.3977  0.8891 -0.5465
  765MPD2    C511297   1.903   1.573  15.752 -0.0909 -0.0994  0.6373
  765MPD2     H11298   2.043   1.881  15.601  1.5865  0.6324  2.1340
  765MPD2    H111299   2.059   1.456  15.664 -0.6918  0.3182  0.2057
  765MPD2    H211300   1.742   1.690  15.816  0.3287 -2.3409 -0.9162
  765MPD2    H311301   1.859   1.484  15.795 -3.6694  1.1661 -0.4381
  765MPD2     N11302   2.200   1.678  15.564  0.5421  0.2061 -1.2280
  765MPD2    H511303   2.229   1.762  15.516  0.6729  0.1686 -1.2132
  765MPD2    N111304   1.816   1.921  15.738  0.0197  0.9335 -0.1105
  765MPD2    H711305   1.724   1.904  15.777  0.0509 -0.7873 -0.7583
  766MPD2     C11306   1.370   1.885  15.331  0.3759 -0.4535  0.2298
  766MPD2    C111307   1.410   2.010  15.308  0.9229 -0.3479  0.8016
  766MPD2    C211308   1.480   2.052  15.199  0.0417  0.6016 -0.5794
  766MPD2    C311309   1.502   1.966  15.089 -0.4770 -0.4059  0.7988
  766MPD2    C411310   1.462   1.836  15.114  0.1368  0.2558  0.3938
  766MPD2    C511311   1.395   1.796  15.226 -0.1102  0.2417  0.5935
  766MPD2     H11312   1.516   2.154  15.189  0.5364  0.5273  0.4825
  766MPD2    H111313   1.470   1.768  15.030  1.2070  0.4335  0.3543
  766MPD2    H211314   1.333   1.856  15.429 -4.0420 -2.7090 -2.0967
  766MPD2    H311315   1.379   1.691  15.243  2.8288 -0.3554 -0.2122
  766MPD2     N11316   1.565   2.001  14.970 -0.3535 -0.6356 -0.3598
  766MPD2    H511317   1.594   1.927  14.906  0.2303 -0.9885  0.3112
  766MPD2    N111318   1.413   2.093  15.424 -0.3060  0.4030 -0.0787
  766MPD2    H711319   1.392   2.042  15.510  1.4570  0.3375  0.3137
  767MPD2     C11320   1.178   2.503  14.969  0.3794  0.0074 -0.4115
  767MPD2    C111321   1.306   2.498  14.912 -0.6113  0.1816 -0.3805
  767MPD2    C211322   1.326   2.434  14.796  0.0006  0.1038 -0.6867
  767MPD2    C311323   1.222   2.396  14.725 -0.1643  0.2954  0.2857
  767MPD2    C411324   1.093   2.408  14.767 -0.0814  0.4331  0.6150
  767MPD2    C511325   1.078   2.444  14.896  0.3690  0.9406 -0.4983
  767MPD2     H11326   1.430   2.421  14.771  0.3983  3.0144 -0.5817
  767MPD2    H111327   1.005   2.385  14.708 -0.6806  4.1353  0.0511
  767MPD2    H211328   1.157   2.550  15.064 -0.6140 -0.3771 -0.4391
  767MPD2    H311329   0.980   2.446  14.942  1.1023 -0.9486  1.1307
  767MPD2     N11330   1.257   2.350  14.595  0.9044  0.0244  0.4747
  767MPD2    H511331   1.357   2.352  14.581  0.9411  0.5980  0.7887
  767MPD2    N111332   1.419   2.557  14.970 -0.1321  0.0475 -1.2449
  767MPD2    H711333   1.509   2.527  14.932  0.0728 -1.0419  0.0685
  768MPD2     C11334   2.698   0.675  10.726 -0.0706  0.0137 -0.0808
  768MPD2    C111335   2.647   0.588  10.820  0.0864  0.3259  0.0348
  768MPD2    C211336   2.731   0.554  10.929  0.4167 -0.6976 -0.4749
  768MPD2    C311337   2.852   0.613  10.947 -0.4166  0.0186 -0.4440
  768MPD2    C411338   2.893   0.703  10.846  0.3162  0.5137  0.4775
  768MPD2    C511339   2.820   0.728  10.739 -0.4367 -0.0889  0.4050
  768MPD2     H11340   2.705   0.479  11.003 -1.1372  0.0841 -0.2179
  768MPD2    H111341   2.995   0.739  10.854 -0.4715  2.8604  0.0013
  768MPD2    H211342   2.645   0.689  10.632  0.8755 -0.2742 -0.6501
  768MPD2    H311343   2.867   0.793  10.667 -0.4304  0.6040  1.0317
  768MPD2     N11344   2.935   0.603  11.060 -0.8748  0.1102  0.0320
  768MPD2    H511345   3.017   0.663  11.055  0.3338 -1.5816 -0.4564
  768MPD2    N111346   2.520   0.526  10.820  0.3515 -0.1167 -0.7807
  768MPD2    H711347   2.498   0.454  10.889 -0.2078 -0.5216 -1.3739
  769MPD2     C11348   3.316   3.170  14.676  0.1294 -0.0289 -0.4258
  769MPD2    C111349   3.228   3.160  14.783 -0.1138  0.3017  0.3038
  769MPD2    C211350   3.252   3.248  14.892  0.0110 -0.4288 -0.1205
  769MPD2    C311351   3.362   3.338  14.889 -0.7550 -0.2024 -0.6944
  769MPD2    C411352   3.454   3.334  14.783 -0.0785 -0.3233  0.1604
  769MPD2    C511353   3.422   3.264  14.671  0.2352 -0.8385  0.5558
  769MPD2     H11354   3.189   3.247  14.981 -1.1223 -1.4779 -0.9416
  769MPD2    H111355   3.530   3.408  14.762  1.6637 -1.1987  3.5602
  769MPD2    H211356   3.297   3.112  14.586 -2.0430  1.1119 -0.7027
  769MPD2    H311357   3.476   3.278  14.578 -0.8409 -0.2322  0.0289
  769MPD2     N11358   3.379   3.432  14.993  0.5282 -0.2706 -0.0014
  769MPD2    H511359   3.305   3.445  15.060  0.6134 -0.2715  0.0925
  769MPD2    N111360   3.132   3.058  14.782  0.1291 -0.0347  0.6815
  769MPD2    H711361   3.125   3.005  14.696 -0.3247  1.5409 -0.2468
  770MPD2     C11362   2.927   2.048  14.952 -0.5431  0.6117  0.5298
  770MPD2    C111363   2.798   2.091  14.918  0.0275 -0.8065 -0.4578
  770MPD2    C211364   2.778   2.230  14.915 -0.4371 -0.1278  0.0869
  770MPD2    C311365   2.877   2.322  14.942 -0.2903  1.3778 -0.0146
  770MPD2    C411366   3.004   2.277  14.980  0.0131 -0.6356  0.4322
  770MPD2    C511367   3.025   2.141  14.982 -0.1356 -0.0063  0.5816
  770MPD2     H11368   2.680   2.265  14.884 -0.5131 -0.2859  0.1474
  770MPD2    H111369   3.090   2.343  14.987  1.6988 -2.6355 -1.2844
  770MPD2    H211370   2.957   1.943  14.953  1.5262  1.2084  0.4040
  770MPD2    H311371   3.118   2.093  15.011  0.8124  1.9213  0.7218
  770MPD2     N11372   2.852   2.460  14.941 -0.2412  0.1712  0.6139
  770MPD2    H511373   2.769   2.489  14.889  0.6618  0.6663 -0.5536
  770MPD2    N111374   2.702   1.990  14.877  0.1216  0.0335  0.6519
  770MPD2    H711375   2.731   1.895  14.858 -0.2540  0.2636 -1.0776
  771MPD2     C11376   4.008   1.429  13.359 -0.0324 -0.1710  0.9142
  771MPD2    C111377   4.010   1.550  13.289 -0.5923 -0.7247  0.5406
  771MPD2    C211378   3.996   1.542  13.152  0.3095  0.0886 -0.4002
  771MPD2    C311379   4.019   1.424  13.080 -0.4581 -0.5308 -0.0043
  771MPD2    C411380   4.020   1.301  13.155 -0.5429 -0.1522 -0.5160
  771MPD2    C511381   4.020   1.308  13.290 -0.1343 -0.1378 -0.2690
  771MPD2     H11382   3.973   1.628  13.091 -0.2830  0.6559  0.6154
  771MPD2    H111383   4.044   1.210  13.103  0.9622 -1.6377  2.7302
  771MPD2    H211384   4.001   1.433  13.467 -1.5781 -1.3385  0.8663
  771MPD2    H311385   4.035   1.219  13.351  0.1905 -0.3330 -0.6353
  771MPD2     N11386   4.021   1.440  12.939  0.3523  0.4047 -0.1208
  771MPD2    H511387   4.022   1.532  12.897 -0.8519 -0.1160 -1.2718
  771MPD2    N111388   4.004   1.673  13.357  0.6574  0.0272 -0.3947
  771MPD2    H711389   3.988   1.753  13.298 -1.9751  0.9310  1.5479
  772MPD2     C11390   3.576   2.294  13.464  0.2096 -0.5208  0.3284
  772MPD2    C111391   3.610   2.180  13.534  1.0753 -0.7417  0.4371
  772MPD2    C211392   3.518   2.129  13.624 -0.6425  0.3006  0.4530
  772MPD2    C311393   3.397   2.194  13.641 -0.5133  0.5041 -0.3643
  772MPD2    C411394   3.369   2.310  13.576 -0.1071 -0.8340  0.0397
  772MPD2    C511395   3.455   2.353  13.481  0.5228 -0.5297  0.5936
  772MPD2     H11396   3.530   2.045  13.693  1.7783  0.5294  0.3146
  772MPD2    H111397   3.275   2.363  13.590 -0.6121 -1.6696 -0.1994
  772MPD2    H211398   3.644   2.343  13.396  0.3797 -1.5302 -0.2331
  772MPD2    H311399   3.427   2.447  13.434 -1.4938 -1.1220  0.6104
  772MPD2     N11400   3.295   2.154  13.732 -0.4157 -0.1686 -0.5148
  772MPD2    H511401   3.215   2.216  13.734  1.4692  2.1958  1.5547
  772MPD2    N111402   3.732   2.105  13.526 -0.3762  0.3905 -0.1891
  772MPD2    H711403   3.747   2.024  13.585  0.5107  0.0961 -0.8328
  773MPD2     C11404   3.395   2.820   0.238  0.2621  0.4013 -0.2942
  773MPD2    C111405   3.301   2.736   0.181  0.4321  0.4146  1.1920
  773MPD2    C211406   3.299   2.606   0.215 -0.2195  0.4200 -0.6743
  773MPD2    C311407   3.379   2.548   0.309  0.5933  0.7286 -0.3661
  773MPD2    C411408   3.470   2.628   0.375  0.4487  0.0076  0.0814
  773MPD2    C511409   3.467   2.767   0.344  0.6447  0.7016 -0.3618
  773MPD2     H11410   3.229   2.542   0.164 -1.6186  1.3796  0.0387
  773MPD2    H111411   3.537   2.588   0.451  0.8362 -2.4007 -1.5281
  773MPD2    H211412   3.391   2.925   0.214 -0.0830  0.7012  1.0508
  773MPD2    H311413   3.537   2.831   0.396 -1.1639  0.2758  2.5904
  773MPD2     N11414   3.372   2.409   0.322  0.1456 -0.0189 -0.1847
  773MPD2    H511415   3.295   2.360   0.278 -0.9680 -0.6828  2.4858
  773MPD2    N111416   3.209   2.773   0.081  0.3397  0.0931 -0.7217
  773MPD2    H711417   3.151   2.699   0.045  0.1017 -0.0065 -0.1416
  774MPD2     C11418   2.483   2.253  12.924  0.1847 -1.2975 -0.9203
  774MPD2    C111419   2.408   2.325  13.015 -0.3756  0.3534 -0.1364
  774MPD2    C211420   2.394   2.466  12.993  0.0388 -0.0735  0.1791
  774MPD2    C311421   2.444   2.520  12.877 -0.2717 -0.0242  0.0847
  774MPD2    C411422   2.504   2.442  12.782  0.0970 -0.0532 -0.0250
  774MPD2    C511423   2.531   2.311  12.813 -0.5347 -0.2715  0.2810
  774MPD2     H11424   2.353   2.530  13.071 -2.7973 -1.1731 -0.4352
  774MPD2    H111425   2.539   2.478  12.686  1.6327  1.7195  1.2145
  774MPD2    H211426   2.513   2.149  12.931 -2.5082 -2.1528 -2.2320
  774MPD2    H311427   2.585   2.254  12.739 -1.9640  2.7013 -3.0681
  774MPD2     N11428   2.421   2.653  12.847  0.0057 -0.1275  0.3017
  774MPD2    H511429   2.369   2.709  12.914  2.0773  2.5833 -0.3597
  774MPD2    N111430   2.365   2.259  13.132  0.3623 -0.3761 -0.4883
  774MPD2    H711431   2.424   2.181  13.158  1.8209  0.2548 -1.9093
  775MPD2     C11432   3.968   3.432  15.743  0.0661  0.3171  0.1849
  775MPD2    C111433   3.883   3.536  15.728  0.5542 -0.7159 -0.1204
  775MPD2    C211434   3.933   3.651  15.669  0.2437 -0.1684  0.2604
  775MPD2    C311435   4.065   3.660  15.626  0.1949  0.6890  0.2822
  775MPD2    C411436   4.142   3.550  15.631  0.3096  0.3078  0.1514
  775MPD2    C511437   4.096   3.434  15.694 -0.2756 -0.1788 -0.3262
  775MPD2     H11438   3.869   3.738  15.656 -0.6977 -0.7280  1.1385
  775MPD2    H111439   4.241   3.553  15.587  0.1277  1.7803 -0.1559
  775MPD2    H211440   3.934   3.351  15.807  0.5988 -0.9450 -1.1143
  775MPD2    H311441   4.157   3.344  15.695 -0.0925 -0.0594 -0.6561
  775MPD2     N11442   4.125   3.777  15.574  0.6476  0.0239  0.4278
  775MPD2    H511443   4.223   3.771  15.545  1.5238 -1.0448  3.6299
  775MPD2    N111444   3.747   3.522  15.770 -0.4617 -0.5965 -0.2020
  775MPD2    H711445   3.727   3.446  15.834 -0.8369 -2.2058 -2.2293
  776MPD2     C11446   3.118   3.486  11.803 -0.2708 -0.2183  1.0726
  776MPD2    C111447   3.005   3.550  11.764 -0.4975 -0.0429  0.1747
  776MPD2    C211448   3.017   3.684  11.724  0.2351 -0.5905 -0.2982
  776MPD2    C311449   3.133   3.755  11.740  0.2483 -0.2290  0.3815
  776MPD2    C411450   3.247   3.679  11.769  0.2538  0.0644 -0.7218
  776MPD2    C511451   3.238   3.548  11.793  0.1785  0.2981 -0.0602
  776MPD2     H11452   2.931   3.744  11.695  1.2587  0.7242 -0.6037
  776MPD2    H111453   3.343   3.724  11.790  0.0523  0.0924  0.1414
  776MPD2    H211454   3.113   3.387  11.847 -0.1863  0.4408  2.5757
  776MPD2    H311455   3.323   3.488  11.822  0.7705  1.6372  0.9839
  776MPD2     N11456   3.151   3.895  11.716 -0.0939  0.7333  0.6716
  776MPD2    H511457   3.245   3.931  11.707 -0.7316  2.4746  0.9438
  776MPD2    N111458   2.882   3.487  11.777 -0.6453  0.1964  0.1319
  776MPD2    H711459   2.888   3.387  11.763 -0.0970 -0.1177  2.5287
  777MPD2     C11460   3.221   1.640   0.592 -0.3349  0.2507 -0.4016
  777MPD2    C111461   3.090   1.609   0.631  0.1429 -0.3581 -0.1095
  777MPD2    C211462   3.017   1.520   0.554 -0.6060  0.1008  0.0313
  777MPD2    C311463   3.065   1.476   0.433 -1.4232  0.1202 -0.1952
  777MPD2    C411464   3.186   1.516   0.383 -0.1645 -0.0846 -0.4023
  777MPD2    C511465   3.261   1.598   0.465  0.0246 -0.0878 -0.6016
  777MPD2     H11466   2.921   1.479   0.581 -1.4305  0.1522 -2.8260
  777MPD2    H111467   3.221   1.480   0.287  0.5489  1.0625 -0.5682
  777MPD2    H211468   3.287   1.699   0.654  0.1781 -0.0284 -0.6871
  777MPD2    H311469   3.359   1.637   0.443  0.2086  0.4363  1.1650
  777MPD2     N11470   2.992   1.374   0.366 -0.2429 -0.7921  0.3248
  777MPD2    H511471   2.904   1.348   0.408  0.8920 -1.0467  2.5359
  777MPD2    N111472   3.053   1.649   0.764  0.3185  0.3898  0.0782
  777MPD2    H711473   3.120   1.702   0.819 -0.2640  2.1970 -0.9372
  778MPD2     C11474   4.023   1.282  15.120 -0.2182 -0.1570  0.4665
  778MPD2    C111475   3.915   1.296  15.035  0.2554 -0.2685  0.3621
  778MPD2    C211476   3.925   1.377  14.926 -0.0025  0.2129 -0.6218
  778MPD2    C311477   4.035   1.458  14.911 -0.1144  0.3168  0.0109
  778MPD2    C411478   4.142   1.436  14.994  0.5126 -0.4661  0.0595
  778MPD2    C511479   4.138   1.348  15.094  0.1315  0.2273 -0.2050
  778MPD2     H11480   3.831   1.389  14.872  1.2096  0.4970 -2.6801
  778MPD2    H111481   4.234   1.489  14.972 -0.3639  1.8361  2.0480
  778MPD2    H211482   4.028   1.213  15.203  0.0353 -1.9981 -1.0936
  778MPD2    H311483   4.226   1.345  15.158  0.7028  0.2355 -0.9902
  778MPD2     N11484   4.030   1.562  14.816 -0.6361  0.2654 -0.5177
  778MPD2    H511485   3.948   1.571  14.757  0.6921  0.3112 -2.3889
  778MPD2    N111486   3.796   1.224  15.057  0.0117 -0.1839 -0.2999
  778MPD2    H711487   3.728   1.244  14.984  0.0875  2.9576  0.4522
  779MPD2     C11488   3.839   0.139  14.226 -1.1263  0.5100 -0.2490
  779MPD2    C111489   3.947   0.178  14.149 -0.3726 -0.2884  0.0035
  779MPD2    C211490   3.959   0.306  14.118  0.4072  0.6688 -0.3496
  779MPD2    C311491   3.872   0.404  14.164 -0.6198 -0.1724 -0.2074
  779MPD2    C411492   3.775   0.358  14.249 -0.1588  0.3722  0.5115
  779MPD2    C511493   3.759   0.227  14.281 -0.9899 -0.2613 -0.0095
  779MPD2     H11494   4.029   0.325  14.038  0.5127  0.1300 -0.3835
  779MPD2    H111495   3.704   0.420  14.303 -0.3150 -0.9552  1.8135
  779MPD2    H211496   3.821   0.036  14.255 -0.0732  0.2710 -0.4488
  779MPD2    H311497   3.677   0.199  14.346  0.3654 -0.1638  1.7210
  779MPD2     N11498   3.882   0.538  14.119 -0.4557  0.2118 -0.4560
  779MPD2    H511499   3.964   0.552  14.061 -1.0538 -1.9455 -1.8208
  779MPD2    N111500   4.047   0.091  14.098  0.2123 -0.0942  0.0025
  779MPD2    H711501   4.129   0.132  14.055 -1.2129  1.3279 -1.3277
  780MPD2     C11502   2.402   0.234   0.739 -0.0641 -0.2255  0.2157
  780MPD2    C111503   2.537   0.222   0.771 -0.0320 -0.3813  0.0044
  780MPD2    C211504   2.623   0.266   0.667  0.4013 -0.5545  0.4615
  780MPD2    C311505   2.581   0.315   0.544  0.6579 -0.1434  0.2279
  780MPD2    C411506   2.446   0.318   0.515  0.4925  0.3514  0.6167
  780MPD2    C511507   2.360   0.276   0.617 -0.2780  0.6290  1.0316
  780MPD2     H11508   2.728   0.265   0.695  0.1864 -1.5693  1.2426
  780MPD2    H111509   2.408   0.327   0.414  1.1848  0.4919  0.3711
  780MPD2    H211510   2.330   0.199   0.812  0.8624 -1.8770  0.3387
  780MPD2    H311511   2.256   0.257   0.597  0.2998 -1.3606 -0.1045
  780MPD2     N11512   2.676   0.341   0.441  0.3658 -0.6536  0.2725
  780MPD2    H511513   2.771   0.353   0.474  0.9225 -1.4677 -1.0595
  780MPD2    N111514   2.580   0.168   0.897 -0.0681 -0.5180 -0.5639
  780MPD2    H711515   2.507   0.133   0.958  1.7427 -4.0017 -0.4238
  781MPD2     C11516   0.942   2.431  11.590 -0.4811 -0.4859 -0.2189
  781MPD2    C111517   0.892   2.310  11.632 -0.3688  0.5375  0.1953
  781MPD2    C211518   0.906   2.196  11.553 -0.2867  0.6696  0.4054
  781MPD2    C311519   0.965   2.204  11.429 -0.0495 -0.2895 -0.5152
  781MPD2    C411520   1.015   2.321  11.385  0.2684  0.3411  1.0159
  781MPD2    C511521   0.996   2.433  11.459 -0.1653 -0.0922 -0.3142
  781MPD2     H11522   0.891   2.097  11.593  0.5509  0.7981  1.0274
  781MPD2    H111523   1.079   2.320  11.297  0.7288 -1.5824  1.3782
  781MPD2    H211524   0.932   2.518  11.655  0.0701 -0.0981 -0.6514
  781MPD2    H311525   1.040   2.520  11.413 -0.2688  0.7893  1.2483
  781MPD2     N11526   1.005   2.089  11.351 -0.4607 -0.0196 -0.1310
  781MPD2    H511527   1.065   2.118  11.275 -0.7819 -2.4336 -1.3012
  781MPD2    N111528   0.835   2.301  11.760  0.2752 -0.0811 -0.2058
  781MPD2    H711529   0.836   2.385  11.818 -2.5199 -1.5778  2.0585
  782MPD2     C11530   3.027   2.835  10.095  0.4849  0.1263 -0.3193
  782MPD2    C111531   3.152   2.852  10.147  0.1467 -0.3657 -0.0161
  782MPD2    C211532   3.187   2.970  10.214 -0.1784  0.1140 -0.4841
  782MPD2    C311533   3.085   3.061  10.238  0.1778 -0.0639  0.2187
  782MPD2    C411534   2.958   3.044  10.192 -0.1828  0.1371  0.0743
  782MPD2    C511535   2.934   2.936  10.117  0.1084 -0.3168  0.0389
  782MPD2     H11536   3.285   2.985  10.256  0.9793 -0.7244 -2.8643
  782MPD2    H111537   2.874   3.111  10.206 -1.4135 -1.4469  0.2826
  782MPD2    H211538   2.999   2.753  10.030 -0.2066  0.3106 -0.2542
  782MPD2    H311539   2.837   2.928  10.068  0.5890  1.3207 -1.1838
  782MPD2     N11540   3.114   3.175  10.316  0.1858  0.4986  0.1928
  782MPD2    H511541   3.209   3.192  10.345 -0.0525  0.5163  0.9611
  782MPD2    N111542   3.250   2.755  10.146 -0.3782  0.1029  0.6691
  782MPD2    H711543   3.329   2.785  10.201  0.1616 -0.7775  0.3802
  783MPD2     C11544   3.127   2.283  10.835  0.5172  0.2039  0.7011
  783MPD2    C111545   3.083   2.395  10.774  0.1295 -0.2880 -0.0578
  783MPD2    C211546   3.132   2.424  10.644  0.4024 -0.3626 -0.3055
  783MPD2    C311547   3.236   2.348  10.591 -0.3138 -0.6342  0.0132
  783MPD2    C411548   3.271   2.237  10.657  0.2613  0.1514  0.3417
  783MPD2    C511549   3.219   2.202  10.779 -0.4847 -0.6072 -1.1666
  783MPD2     H11550   3.095   2.503  10.580  0.7233 -0.8641 -1.1080
  783MPD2    H111551   3.350   2.172  10.621  1.4848  2.5379 -1.2541
  783MPD2    H211552   3.081   2.245  10.926 -0.3444 -0.8552 -0.1721
  783MPD2    H311553   3.257   2.117  10.835 -0.4180 -0.9679 -1.7509
  783MPD2     N11554   3.279   2.376  10.461  0.7358 -1.1197  0.1922
  783MPD2    H511555   3.226   2.450  10.415  1.9415 -1.7968 -2.3033
  783MPD2    N111556   2.986   2.476  10.829  0.2300  0.2319  0.3903
  783MPD2    H711557   2.938   2.449  10.914  2.0381 -2.5441  0.5161
  784MPD2     C11558   0.921   3.903   0.887 -0.0504  0.0134  0.1098
  784MPD2    C111559   0.828   3.798   0.904 -0.5326  0.6509 -0.5467
  784MPD2    C211560   0.706   3.795   0.838 -0.0749  0.2815 -0.5112
  784MPD2    C311561   0.670   3.898   0.747  0.4902 -0.3337  0.0194
  784MPD2    C411562   0.765   3.999   0.731  0.1384 -0.4689  0.0776
  784MPD2    C511563   0.881   4.010   0.809  0.9047 -0.1691 -0.1900
  784MPD2     H11564   0.628   3.721   0.848  0.4432 -0.1843  0.0816
  784MPD2    H111565   0.743   4.089   0.675 -0.0752 -0.2146  0.5754
  784MPD2    H211566   1.021   3.896   0.928  0.2398  0.0339 -0.5918
  784MPD2    H311567   0.941   4.099   0.792  0.7616 -0.4518 -2.1246
  784MPD2     N11568   0.548   3.887   0.676  0.4039  0.7089  0.6003
  784MPD2    H511569   0.499   3.799   0.690 -3.1809  2.5274 -0.7001
  784MPD2    N111570   0.856   3.682   0.988 -0.2711 -0.5277 -0.2931
  784MPD2    H711571   0.775   3.625   1.010 -0.0038 -1.1987 -1.0412
  785MPD2     C11572   1.270   1.418  10.273 -0.1078 -0.1115 -0.1366
  785MPD2    C111573   1.209   1.492  10.377 -0.4900  0.3530 -0.2200
  785MPD2    C211574   1.088   1.447  10.430 -0.5214  0.0918 -0.1050
  785MPD2    C311575   1.021   1.335  10.383 -0.1871 -0.3432  0.5674
  785MPD2    C411576   1.075   1.267  10.274  0.1757  0.2163  0.7221
  785MPD2    C511577   1.198   1.307  10.225 -0.2637  0.4305  0.8973
  785MPD2     H11578   1.045   1.510  10.507 -0.1630  0.4657 -0.2077
  785MPD2    H111579   1.028   1.178  10.235  0.4938  0.1562  0.4734
  785MPD2    H211580   1.367   1.438  10.229 -0.0512  0.6632  0.3460
  785MPD2    H311581   1.246   1.252  10.145 -0.1944 -0.6681  1.6830
  785MPD2     N11582   0.905   1.300  10.454 -0.0045  0.0184 -0.3740
  785MPD2    H511583   0.886   1.367  10.528  0.6819  0.5168 -0.6569
  785MPD2    N111584   1.270   1.616  10.422 -0.1794 -0.0660  0.2358
  785MPD2    H711585   1.330   1.658  10.352 -1.2763  1.6872  0.3498
  786MPD2     C11586   4.113   4.303  14.262 -0.5449 -0.3578 -0.2127
  786MPD2    C111587   4.209   4.217  14.293  0.0438  0.2094 -0.3927
  786MPD2    C211588   4.306   4.254  14.380 -0.2066 -0.5424 -0.2938
  786MPD2    C311589   4.301   4.356  14.459  0.3145  0.2783  0.1636
  786MPD2    C411590   4.196   4.443  14.442 -0.1199  0.6149 -0.0492
  786MPD2    C511591   4.107   4.414  14.343  0.5802 -0.2234 -0.2463
  786MPD2     H11592   4.392   4.189  14.393  0.8818  0.8042 -0.8040
  786MPD2    H111593   4.185   4.528  14.508 -1.7491  1.0247 -0.8440
  786MPD2    H211594   4.039   4.282  14.186  1.1428 -2.0748 -1.4044
  786MPD2    H311595   4.015   4.470  14.333 -0.3864 -1.7659 -0.0611
  786MPD2     N11596   4.387   4.385  14.566 -0.2978 -0.3203 -0.7360
  786MPD2    H511597   4.381   4.464  14.629 -1.8853  0.2975 -1.6460
  786MPD2    N111598   4.216   4.088  14.239  0.7599  0.2031  0.0190
  786MPD2    H711599   4.291   4.029  14.273  2.2900  3.2177  1.8905
  787MPD2     C11600   4.393   3.696  14.643 -0.0485  0.2042  0.0469
  787MPD2    C111601   4.398   3.640  14.519  1.1529  0.6480  0.2488
  787MPD2    C211602   4.479   3.529  14.504  0.7549  0.0967  1.0234
  787MPD2    C311603   4.563   3.487  14.604 -0.0221  0.6030  0.3775
  787MPD2    C411604   4.557   3.548  14.730 -0.0230  0.2606 -0.1603
  787MPD2    C511605   4.472   3.654  14.745  0.1733  1.0680  0.1936
  787MPD2     H11606   4.495   3.473  14.412 -2.8598 -0.6072  0.8300
  787MPD2    H111607   4.615   3.506  14.810  0.4191  0.4161 -0.4008
  787MPD2    H211608   4.324   3.780  14.649 -1.5591 -1.1260  1.1611
  787MPD2    H311609   4.468   3.700  14.843 -0.8040  0.7941  0.2832
  787MPD2     N11610   4.654   3.386  14.572  0.1510 -1.0442 -0.2802
  787MPD2    H511611   4.667   3.369  14.473  0.4036 -2.7515  0.0448
  787MPD2    N111612   4.310   3.688  14.424  0.5602  0.1832  0.2248
  787MPD2    H711613   4.281   3.784  14.442 -0.6672 -0.0779 -0.3358
  788MPD2     C11614   2.103   2.243   1.196  0.0414  0.2744  0.3065
  788MPD2    C111615   1.982   2.298   1.160 -0.4612  0.3215  0.6899
  788MPD2    C211616   1.974   2.372   1.043  0.4429 -0.6060 -0.7780
  788MPD2    C311617   2.077   2.376   0.953 -0.3676  0.1653 -0.4723
  788MPD2    C411618   2.197   2.323   0.994  1.2290  0.0686  0.2489
  788MPD2    C511619   2.210   2.257   1.112 -0.4915 -0.6523 -1.1052
  788MPD2     H11620   1.884   2.427   1.016 -0.3646 -1.8179 -0.5292
  788MPD2    H111621   2.285   2.332   0.931  0.0288  0.0361 -1.4220
  788MPD2    H211622   2.112   2.187   1.289 -0.9248 -3.6324 -1.9363
  788MPD2    H311623   2.303   2.204   1.130 -0.2129  0.8820  1.8914
  788MPD2     N11624   2.064   2.417   0.814  0.7453 -0.5615 -0.1509
  788MPD2    H511625   2.144   2.396   0.756 -0.1258 -0.4261 -1.4058
  788MPD2    N111626   1.864   2.289   1.236  0.0137 -0.3751 -0.7354
  788MPD2    H711627   1.782   2.337   1.201 -0.7364 -1.6484 -0.7509
  789MPD2     C11628   2.136   2.509  15.813 -0.4715 -0.7642 -0.0814
  789MPD2    C111629   2.150   2.463  15.943  0.6654 -0.0811 -0.3149
  789MPD2    C211630   2.070   2.520  16.040 -0.3722  1.3206 -0.5321
  789MPD2    C311631   1.991   2.631  16.026  0.3396 -0.0084 -0.5703
  789MPD2    C411632   1.974   2.675  15.897 -0.0495 -0.1819 -0.0181
  789MPD2    C511633   2.051   2.617  15.799  0.0773  0.2793 -0.5806
  789MPD2     H11634   2.091   2.480  16.139 -1.1070  2.0671 -0.0762
  789MPD2    H111635   1.904   2.752  15.864 -2.1045 -2.0250  0.0322
  789MPD2    H211636   2.182   2.455  15.731 -2.0814  0.3107 -1.6864
  789MPD2    H311637   2.029   2.653  15.699 -0.2583  1.0940 -0.2139
  789MPD2     N11638   1.914   2.702  16.124 -0.4954  0.0647  0.1164
  789MPD2    H511639   1.868   2.787  16.094 -2.9511 -1.7846 -1.3639
  789MPD2    N111640   2.218   2.344  15.974 -0.4305  0.0556 -0.0169
  789MPD2    H711641   2.223   2.336  16.075  0.9035 -1.8253 -0.2366
  790MPD2     C11642   2.994   4.255  13.379 -0.0198 -0.3487  0.3208
  790MPD2    C111643   2.950   4.127  13.400 -0.6009  0.2428 -0.5610
  790MPD2    C211644   2.902   4.059  13.288  0.3675 -0.0804  0.1517
  790MPD2    C311645   2.899   4.116  13.162  0.5104 -0.0676  0.0540
  790MPD2    C411646   2.935   4.246  13.146 -0.6778  0.7211  0.0610
  790MPD2    C511647   2.996   4.312  13.252 -0.1925 -0.0588 -0.3669
  790MPD2     H11648   2.883   3.953  13.294 -1.1526  0.1895  0.0661
  790MPD2    H111649   2.950   4.283  13.045 -1.5909 -1.2407 -0.7944
  790MPD2    H211650   3.041   4.313  13.458  0.2385  1.0043 -0.8304
  790MPD2    H311651   3.041   4.408  13.232 -1.8522  0.7655 -0.0446
  790MPD2     N11652   2.863   4.025  13.059 -0.0170 -0.1756 -0.0343
  790MPD2    H511653   2.844   3.930  13.091 -0.2656 -0.2688 -0.4659
  790MPD2    N111654   2.965   4.075  13.525  0.1116 -0.4185 -0.6380
  790MPD2    H711655   3.010   4.134  13.594 -0.6155 -0.0216 -0.5072
  791MPD2     C11656   2.672   4.097  12.278 -0.1995 -0.7376 -0.1682
  791MPD2    C111657   2.651   3.968  12.322 -0.0148  0.3904  0.3520
  791MPD2    C211658   2.578   3.876  12.245  0.6381  1.0138 -0.1020
  791MPD2    C311659   2.545   3.916  12.114  0.4603  0.3404  0.0313
  791MPD2    C411660   2.567   4.050  12.076 -0.2552 -0.6980  0.4231
  791MPD2    C511661   2.629   4.142  12.152  0.0067  0.5315 -0.4968
  791MPD2     H11662   2.551   3.778  12.284 -0.9642  1.5084  0.0346
  791MPD2    H111663   2.523   4.084  11.984  0.9539 -0.1729  0.0378
  791MPD2    H211664   2.709   4.166  12.354 -2.1693 -0.9138  0.9615
  791MPD2    H311665   2.628   4.249  12.135 -0.1133  0.5011 -0.6799
  791MPD2     N11666   2.470   3.833  12.021  0.0960 -0.2967 -0.3647
  791MPD2    H511667   2.443   3.741  12.055  0.1867 -0.4511 -0.7077
  791MPD2    N111668   2.710   3.949  12.454 -0.3063  0.4138  0.7258
  791MPD2    H711669   2.762   4.023  12.500 -1.7937  1.7431  0.2812
  792MPD2     C11670   3.137   3.811  11.347 -0.1587 -0.3374  1.4673
  792MPD2    C111671   3.094   3.880  11.241  0.4822  0.2671 -0.3665
  792MPD2    C211672   2.965   3.867  11.193 -0.1987 -0.3359  0.1660
  792MPD2    C311673   2.880   3.779  11.252  0.1792 -0.4060  0.0965
  792MPD2    C411674   2.929   3.705  11.354  0.4243 -0.3189 -0.1495
  792MPD2    C511675   3.057   3.721  11.399  0.3648 -0.1598 -0.1451
  792MPD2     H11676   2.936   3.912  11.099 -1.3847 -2.5784 -0.5629
  792MPD2    H111677   2.874   3.639  11.419 -0.8593 -2.9288 -3.9353
  792MPD2    H211678   3.233   3.825  11.397  1.4028  0.7280 -1.8226
  792MPD2    H311679   3.100   3.653  11.472 -0.5657 -1.6956 -1.0131
  792MPD2     N11680   2.744   3.751  11.216 -0.3083 -0.8471  0.2558
  792MPD2    H511681   2.691   3.682  11.269 -0.4669 -0.7666  0.2007
  792MPD2    N111682   3.189   3.969  11.181  0.6234  0.0606 -0.0631
  792MPD2    H711683   3.284   3.967  11.217  0.1952 -1.4696  1.0124
  793MPD2     C11684   2.658   3.885  10.221 -0.3005  0.5208 -0.6562
  793MPD2    C111685   2.709   3.763  10.265 -0.1984  0.5600 -0.7573
  793MPD2    C211686   2.678   3.720  10.392  0.5046 -0.4814 -0.0058
  793MPD2    C311687   2.603   3.797  10.478  0.4245  0.1250 -0.9816
  793MPD2    C411688   2.542   3.911  10.430  0.8374 -0.1285  0.0448
  793MPD2    C511689   2.580   3.960  10.309  0.1103  0.3345 -0.5380
  793MPD2     H11690   2.718   3.626  10.430  1.2629  0.5868  1.8623
  793MPD2    H111691   2.470   3.974  10.481 -0.8736 -1.3796 -0.8249
  793MPD2    H211692   2.684   3.928  10.125 -1.7432  0.5235 -1.0473
  793MPD2    H311693   2.543   4.057  10.279 -2.2511 -0.4466 -0.1246
  793MPD2     N11694   2.580   3.744  10.606  0.5004  0.0894  0.1536
  793MPD2    H511695   2.641   3.668  10.632  1.0193  1.1089  1.9387
  793MPD2    N111696   2.787   3.690  10.164 -0.3590 -0.4948 -0.3271
  793MPD2    H711697   2.811   3.747  10.084 -0.1102 -0.1477 -0.0079
  794MPD2     C11698   2.925   3.392  17.238  0.9924  0.0430 -0.0996
  794MPD2    C111699   2.862   3.278  17.199  0.3259 -0.3793 -0.3776
  794MPD2    C211700   2.759   3.283  17.109 -0.1157  0.0288  0.0009
  794MPD2    C311701   2.740   3.398  17.039  0.4956  0.1222 -0.2195
  794MPD2    C411702   2.803   3.515  17.080 -0.3603  0.0623  0.2123
  794MPD2    C511703   2.894   3.517  17.186 -0.1565 -0.9297  0.9940
  794MPD2     H11704   2.713   3.189  17.081 -0.7132 -0.3270  2.1580
  794MPD2    H111705   2.789   3.611  17.032 -0.2873 -0.2077 -0.3526
  794MPD2    H211706   3.010   3.393  17.306 -0.1845 -0.2625  1.3748
  794MPD2    H311707   2.941   3.607  17.221 -1.4849  0.6000 -1.1002
  794MPD2     N11708   2.653   3.408  16.930 -0.2791 -0.3112  0.2602
  794MPD2    H511709   2.631   3.502  16.898  1.9329 -0.7323 -2.4868
  794MPD2    N111710   2.884   3.156  17.267 -0.0142  0.1601  0.4740
  794MPD2    H711711   2.819   3.080  17.250  1.2116 -0.7298 -0.1940
  795MPD2     C11712   0.435   1.090  13.497 -0.1214  0.3919 -0.2423
  795MPD2    C111713   0.407   0.966  13.446 -0.2844  0.3943  0.3873
  795MPD2    C211714   0.498   0.865  13.458 -0.0628 -0.1458 -0.1258
  795MPD2    C311715   0.619   0.887  13.535 -0.6748 -0.0544  0.1856
  795MPD2    C411716   0.640   1.015  13.579  0.2193  0.5728  0.2366
  795MPD2    C511717   0.540   1.111  13.569  0.0319 -0.9377  0.3439
  795MPD2     H11718   0.480   0.791  13.380 -2.2328  0.6054 -0.3280
  795MPD2    H111719   0.729   1.051  13.630  0.3603  0.3003  0.1784
  795MPD2    H211720   0.377   1.180  13.482  2.1409  1.5095 -2.2539
  795MPD2    H311721   0.563   1.208  13.613 -0.0233 -0.1074 -1.4398
  795MPD2     N11722   0.722   0.792  13.555 -0.2830  0.2278 -0.1136
  795MPD2    H511723   0.810   0.820  13.597 -1.7147  2.5969  1.3396
  795MPD2    N111724   0.295   0.941  13.372 -0.0230 -0.1544  0.0025
  795MPD2    H711725   0.294   0.853  13.321 -2.5018 -1.5116  2.3804
  796MPD2     C11726   0.220   2.287  15.760  0.6195  0.6277 -0.4616
  796MPD2    C111727   0.264   2.361  15.869  0.4203  0.0482 -0.0338
  796MPD2    C211728   0.234   2.499  15.870  0.1960 -0.6329 -0.1568
  796MPD2    C311729   0.156   2.550  15.761 -0.4337 -0.1238  0.3737
  796MPD2    C411730   0.117   2.468  15.660 -0.0754  0.9189 -0.2240
  796MPD2    C511731   0.134   2.332  15.668  0.6243  0.2203 -0.0110
  796MPD2     H11732   0.271   2.569  15.945 -0.3458  0.3967 -0.8559
  796MPD2    H111733   0.061   2.508  15.577  3.2562  2.0554 -1.9070
  796MPD2    H211734   0.238   2.180  15.765 -1.3306  0.4118  2.1098
  796MPD2    H311735   0.101   2.265  15.589  2.0608 -1.0140  0.4450
  796MPD2     N11736   0.126   2.686  15.758  0.2289 -0.3288 -0.5913
  796MPD2    H511737   0.175   2.735  15.832 -0.9989  1.4440 -0.9619
  796MPD2    N111738   0.339   2.293  15.966  0.0083  0.2963  0.3789
  796MPD2    H711739   0.339   2.192  15.951 -0.7007  0.3831 -0.1780
  797MPD2     C11740   1.351   1.640  17.395  0.5066  0.0926  0.1854
  797MPD2    C111741   1.402   1.763  17.397 -0.0576  0.3899  0.1698
  797MPD2    C211742   1.328   1.873  17.369 -0.5091 -0.0368 -0.2547
  797MPD2    C311743   1.204   1.852  17.313 -0.0774  0.3389  0.0988
  797MPD2    C411744   1.148   1.726  17.298 -0.2240 -0.4592 -0.5070
  797MPD2    C511745   1.227   1.621  17.336 -0.6352 -0.3473  0.5468
  797MPD2     H11746   1.351   1.978  17.378  1.5774 -0.0749 -5.4364
  797MPD2    H111747   1.049   1.713  17.255 -0.1085 -1.7288 -0.3965
  797MPD2    H211748   1.403   1.548  17.419 -2.1995 -0.5177  3.7029
  797MPD2    H311749   1.182   1.523  17.344 -1.5692  0.1132  0.9051
  797MPD2     N11750   1.129   1.972  17.290 -0.5466 -0.2156 -0.1133
  797MPD2    H511751   1.166   2.059  17.327  2.4263 -1.7928  0.6509
  797MPD2    N111752   1.531   1.794  17.455  0.1595 -0.6942 -0.1378
  797MPD2    H711753   1.559   1.891  17.461 -1.2612 -0.2131 -1.2510
  798MPD2     C11754   1.465   2.568  17.439 -0.0267 -0.3762 -0.2714
  798MPD2    C111755   1.414   2.446  17.417 -0.3536 -0.0309  0.1419
  798MPD2    C211756   1.490   2.341  17.462 -0.4181 -0.4502  0.6500
  798MPD2    C311757   1.616   2.360  17.512 -0.0542 -0.0957 -0.1181
  798MPD2    C411758   1.663   2.487  17.541  0.2233  0.0011 -0.2996
  798MPD2    C511759   1.586   2.593  17.499  0.0729 -0.3521  0.2174
  798MPD2     H11760   1.456   2.239  17.448  0.9751 -0.2585 -4.0578
  798MPD2    H111761   1.754   2.504  17.598 -1.2776  2.6222  1.3041
  798MPD2    H211762   1.402   2.652  17.411 -0.6285 -0.5016  0.7310
  798MPD2    H311763   1.611   2.696  17.522  1.9325 -1.0499  1.3354
  798MPD2     N11764   1.698   2.252  17.554  0.6154 -0.2836 -0.1663
  798MPD2    H511765   1.791   2.264  17.592  0.6240  1.2060 -0.6709
  798MPD2    N111766   1.284   2.427  17.372 -1.0377  0.3066 -0.1295
  798MPD2    H711767   1.233   2.511  17.350 -1.3841  0.4061  1.0298
  799MPD2     C11768   4.504   2.965  14.534  0.8784  0.2157 -0.0159
  799MPD2    C111769   4.459   2.902  14.419 -0.5162 -0.7291  0.6203
  799MPD2    C211770   4.405   2.982  14.319 -0.0361 -0.6175  0.6334
  799MPD2    C311771   4.380   3.116  14.321 -0.1558  0.4770 -0.1976
  799MPD2    C411772   4.414   3.178  14.440 -0.3464  0.6411  0.9126
  799MPD2    C511773   4.465   3.100  14.542 -0.3487  0.2227  0.1479
  799MPD2     H11774   4.371   2.930  14.231 -0.7080  0.6699  0.1400
  799MPD2    H111775   4.387   3.282  14.453 -0.8233  0.6539 -0.1645
  799MPD2    H211776   4.559   2.913  14.612  2.5170  0.8895 -0.7257
  799MPD2    H311777   4.486   3.156  14.631  0.2764  0.0079  0.1324
  799MPD2     N11778   4.341   3.197  14.212  0.1252 -0.4783 -0.5509
  799MPD2    H511779   4.328   3.296  14.228 -0.5747 -0.7470  0.5261
  799MPD2    N111780   4.491   2.768  14.388  0.0586 -0.1290  0.2443
  799MPD2    H711781   4.447   2.740  14.301  0.4293  0.2368 -0.0620
  800MPD2     C11782   0.670   0.719  14.790  0.2686  0.3932 -0.2224
  800MPD2    C111783   0.754   0.644  14.711  0.0628  0.5864  0.1035
  800MPD2    C211784   0.701   0.555  14.623 -0.5211 -0.6241 -0.6874
  800MPD2    C311785   0.563   0.555  14.592  0.1950  0.6186  0.2489
  800MPD2    C411786   0.482   0.644  14.658  0.1940 -0.4439  1.0112
  800MPD2    C511787   0.535   0.712  14.764 -0.6187  0.0957  0.4740
  800MPD2     H11788   0.761   0.484  14.568 -0.1778 -0.4985 -0.4715
  800MPD2    H111789   0.375   0.638  14.640  0.4697 -0.6531 -0.5877
  800MPD2    H211790   0.700   0.798  14.859  0.3558  1.0806 -1.0512
  800MPD2    H311791   0.469   0.778  14.820  0.6416  0.4068  1.6240
  800MPD2     N11792   0.521   0.454  14.500 -0.0996  0.1965 -0.7778
  800MPD2    H511793   0.588   0.384  14.470  1.4947 -0.0722  3.3865
  800MPD2    N111794   0.892   0.675  14.716  0.1900  0.0950 -0.4193
  800MPD2    H711795   0.928   0.761  14.756 -0.5245  1.0928 -1.9288
  801MPD2     C11796   0.757   1.043  14.266 -0.0804 -0.0178  0.5775
  801MPD2    C111797   0.769   0.982  14.389 -0.3264 -0.5916  0.3441
  801MPD2    C211798   0.656   0.951  14.462 -0.2953 -0.4412 -0.9112
  801MPD2    C311799   0.524   0.972  14.410  0.2249  0.4135 -0.2524
  801MPD2    C411800   0.518   1.042  14.288  0.0871  0.4789  0.4794
  801MPD2    C511801   0.629   1.080  14.220 -0.2290  0.9990 -0.3929
  801MPD2     H11802   0.654   0.887  14.549 -2.1960 -0.9037 -1.2910
  801MPD2    H111803   0.420   1.058  14.243  0.5547  2.3608  0.1233
  801MPD2    H211804   0.844   1.075  14.210 -1.1522 -1.0853 -1.7039
  801MPD2    H311805   0.611   1.123  14.122 -2.2799  0.3021 -0.3289
  801MPD2     N11806   0.411   0.925  14.474 -0.8109  0.3712 -0.3291
  801MPD2    H511807   0.430   0.898  14.570  0.2280  0.5253 -0.4963
  801MPD2    N111808   0.894   0.940  14.448 -0.5863  0.0509 -1.0314
  801MPD2    H711809   0.876   0.886  14.532 -0.4350  0.4160 -0.7637
  802MPD2     C11810   3.878   0.298  17.077 -0.2118 -0.1393  0.8036
  802MPD2    C111811   3.946   0.375  17.180  0.3565  0.4144 -0.0355
  802MPD2    C211812   4.077   0.335  17.207 -0.3928  0.5831 -0.6453
  802MPD2    C311813   4.149   0.249  17.123 -0.1186 -0.0659  0.6526
  802MPD2    C411814   4.072   0.182  17.022 -0.0950  0.5053  0.2467
  802MPD2    C511815   3.940   0.195  17.015 -0.0947  0.5206 -0.0163
  802MPD2     H11816   4.130   0.383  17.289  0.3728  0.1353 -0.8726
  802MPD2    H111817   4.122   0.108  16.960 -0.8360 -0.4485  0.7913
  802MPD2    H211818   3.770   0.306  17.074 -0.0997  1.3888  0.7335
  802MPD2    H311819   3.887   0.124  16.953  1.9082 -2.1070  1.2687
  802MPD2     N11820   4.284   0.235  17.143  0.0468 -0.4495  0.4869
  802MPD2    H511821   4.316   0.269  17.233 -1.8942  0.8435  0.6760
  802MPD2    N111822   3.891   0.479  17.246 -0.3861 -0.1025 -0.1821
  802MPD2    H711823   3.939   0.525  17.323 -0.5920 -3.1363  1.7419
  803MPD2     C11824   1.611   4.041  11.682 -0.0538  0.2011  0.7611
  803MPD2    C111825   1.614   4.082  11.814 -0.1449 -0.1492  0.4620
  803MPD2    C211826   1.554   4.003  11.906 -0.4918 -0.2822  0.0473
  803MPD2    C311827   1.484   3.889  11.871  0.3450  0.0650 -0.8440
  803MPD2    C411828   1.482   3.846  11.739  0.3410  0.7148 -0.1511
  803MPD2    C511829   1.550   3.923  11.649  0.1244 -0.7529  0.0044
  803MPD2     H11830   1.557   4.049  12.003  0.4357 -0.2087 -0.0159
  803MPD2    H111831   1.433   3.753  11.714 -1.4596  0.9477  2.5277
  803MPD2    H211832   1.645   4.112  11.607  0.0110 -0.0748  0.5289
  803MPD2    H311833   1.557   3.888  11.547  1.2665  0.2796 -0.2784
  803MPD2     N11834   1.428   3.801  11.970 -0.1580 -0.0044 -0.6024
  803MPD2    H511835   1.395   3.712  11.934  1.1646 -0.6850 -0.1322
  803MPD2    N111836   1.683   4.201  11.847 -0.0595  0.2229 -0.1983
  803MPD2    H711837   1.684   4.213  11.948 -0.0278  0.2782 -0.2051
  804MPD2     C11838   0.305   0.691  16.774  0.2531  0.1874 -1.2461
  804MPD2    C111839   0.405   0.665  16.861  0.0864 -0.5994  0.0345
  804MPD2    C211840   0.490   0.765  16.907 -1.0441  0.3552  0.1859
  804MPD2    C311841   0.476   0.893  16.857 -0.2194  0.0419 -0.0685
  804MPD2    C411842   0.373   0.919  16.766 -0.9409 -0.1964  0.6014
  804MPD2    C511843   0.289   0.819  16.730  0.4812  0.1834 -0.2651
  804MPD2     H11844   0.564   0.742  16.982 -0.8934  0.5759  0.1071
  804MPD2    H111845   0.363   1.014  16.714  0.0620 -0.0329  0.7007
  804MPD2    H211846   0.227   0.627  16.735  1.1744 -0.9482 -1.2189
  804MPD2    H311847   0.215   0.847  16.656  1.7151  1.1265 -1.1440
  804MPD2     N11848   0.575   0.991  16.876  0.0563  0.3636 -0.3486
  804MPD2    H511849   0.550   1.090  16.872 -2.8698 -0.3682 -0.1696
  804MPD2    N111850   0.432   0.539  16.914 -0.2826 -0.1490  0.3196
  804MPD2    H711851   0.523   0.534  16.958  0.6719 -0.1997 -1.6628
  805MPD2     C11852   4.224   3.335  15.386  0.2726 -0.0664 -0.1112
  805MPD2    C111853   4.281   3.421  15.295  0.5546 -0.1040 -0.5431
  805MPD2    C211854   4.411   3.468  15.315 -0.5889 -0.0132 -0.2905
  805MPD2    C311855   4.491   3.410  15.410  0.1566  0.5202  0.2675
  805MPD2    C411856   4.434   3.321  15.492 -0.1326 -0.5223 -0.5603
  805MPD2    C511857   4.305   3.293  15.490  0.4214  0.3298 -0.2410
  805MPD2     H11858   4.450   3.550  15.256 -0.1930  1.6481  2.2460
  805MPD2    H111859   4.494   3.276  15.571 -0.1184 -1.2254 -0.9644
  805MPD2    H211860   4.118   3.313  15.375 -0.0262  0.2453  2.2830
  805MPD2    H311861   4.270   3.216  15.558 -3.0134  0.6537 -1.6647
  805MPD2     N11862   4.628   3.454  15.421 -0.3155 -0.6344  0.2799
  805MPD2    H511863   4.667   3.509  15.345 -2.3125 -0.8887 -0.9057
  805MPD2    N111864   4.216   3.490  15.184  0.8480  0.0555 -0.3781
  805MPD2    H711865   4.269   3.563  15.137 -1.5353  1.7478 -0.4686
  806MPD2     C11866   0.605   3.280   1.010  0.5035  0.0700 -0.5797
  806MPD2    C111867   0.741   3.308   0.988 -0.2885 -0.2448  0.3299
  806MPD2    C211868   0.771   3.377   0.872  0.0737 -0.2422  0.5004
  806MPD2    C311869   0.667   3.431   0.789 -0.0706  0.7336 -0.2377
  806MPD2    C411870   0.537   3.408   0.819 -0.2551  0.1513  0.0691
  806MPD2    C511871   0.511   3.326   0.925  0.2316 -0.7481  0.2275
  806MPD2     H11872   0.872   3.395   0.839 -0.7252 -1.3204 -2.6112
  806MPD2    H111873   0.467   3.444   0.744 -1.2747 -0.8028  0.5580
  806MPD2    H211874   0.579   3.213   1.091 -1.0524  2.3834  0.8198
  806MPD2    H311875   0.409   3.290   0.933 -0.2748  0.9635  1.4610
  806MPD2     N11876   0.709   3.501   0.675  0.1101 -0.0197 -0.8296
  806MPD2    H511877   0.810   3.505   0.665  0.3223 -0.8849  0.9902
  806MPD2    N111878   0.834   3.236   1.069 -0.5618  0.1520  0.5992
  806MPD2    H711879   0.787   3.170   1.130  1.7408 -0.2807  1.8941
  807MPD2     C11880   0.785   2.882   1.656 -0.2640  0.1029  0.1917
  807MPD2    C111881   0.745   2.882   1.525  0.1968 -0.1384 -0.0641
  807MPD2    C211882   0.617   2.844   1.494  0.8458 -0.4947  0.0871
  807MPD2    C311883   0.529   2.789   1.587 -0.6097  0.2851 -0.2783
  807MPD2    C411884   0.575   2.784   1.717  0.7215 -0.2126 -0.1582
  807MPD2    C511885   0.706   2.828   1.744  0.0515 -0.1560 -0.8167
  807MPD2     H11886   0.592   2.850   1.389 -3.2349 -2.2170  0.9873
  807MPD2    H111887   0.523   2.735   1.798  0.8395 -0.4907 -0.2496
  807MPD2    H211888   0.878   2.925   1.690  0.8584 -2.8963  0.9095
  807MPD2    H311889   0.738   2.805   1.845  0.4242 -1.2407 -1.1832
  807MPD2     N11890   0.402   2.729   1.555  0.3880  0.8709 -0.3477
  807MPD2    H511891   0.388   2.718   1.455 -0.5148  3.1176 -0.4745
  807MPD2    N111892   0.831   2.922   1.426 -0.2506 -0.6114 -0.6746
  807MPD2    H711893   0.799   2.956   1.335  1.3738 -0.7692 -1.3149
  808MPD2     C11894   0.360   4.139   9.682  0.2275 -0.3466  0.4809
  808MPD2    C111895   0.442   4.074   9.592 -0.2088 -0.5592 -0.1717
  808MPD2    C211896   0.555   4.131   9.544 -0.3176  0.6607 -0.0200
  808MPD2    C311897   0.592   4.256   9.580 -0.1118 -0.4731  0.0170
  808MPD2    C411898   0.521   4.318   9.679  0.3642 -0.2506 -0.1901
  808MPD2    C511899   0.406   4.262   9.728  0.8390 -0.2811  0.3971
  808MPD2     H11900   0.594   4.078   9.457  1.4891  0.0989  1.1422
  808MPD2    H111901   0.554   4.416   9.711 -0.2080 -0.4797  1.0976
  808MPD2    H211902   0.269   4.098   9.725  0.1240  0.0358  0.6260
  808MPD2    H311903   0.336   4.315   9.792  0.7979  0.0101  0.1088
  808MPD2     N11904   0.708   4.322   9.534 -0.3003  0.0157 -0.6193
  808MPD2    H511905   0.732   4.411   9.576  2.2592 -0.0484 -1.9669
  808MPD2    N111906   0.387   3.954   9.527  0.0343 -0.5906  0.2004
  808MPD2    H711907   0.421   3.924   9.436  0.9804 -0.5383  0.5388
  809MPD2     C11908   1.458   3.867   9.073 -0.1938  0.5970 -0.1512
  809MPD2    C111909   1.490   3.910   9.201  0.5692  0.4810  0.2420
  809MPD2    C211910   1.418   4.015   9.252 -0.2299 -0.1923 -0.0462
  809MPD2    C311911   1.318   4.080   9.182  0.4852 -0.5340  0.6920
  809MPD2    C411912   1.295   4.036   9.046  0.1839  0.0130 -0.0392
  809MPD2    C511913   1.363   3.932   8.997 -0.1515 -0.3762 -0.3435
  809MPD2     H11914   1.429   4.040   9.357  1.0756 -0.7133 -0.0572
  809MPD2    H111915   1.219   4.091   8.991  0.6210  0.5248 -0.1407
  809MPD2    H211916   1.503   3.784   9.020  0.8128  0.7139  0.5326
  809MPD2    H311917   1.337   3.905   8.896 -0.5329  2.1290 -0.9262
  809MPD2     N11918   1.239   4.186   9.230  0.1806  0.3561  0.1685
  809MPD2    H511919   1.164   4.221   9.171  1.1823  1.2347 -0.5735
  809MPD2    N111920   1.575   3.836   9.289  0.6082  0.0205 -0.3510
  809MPD2    H711921   1.564   3.844   9.390 -2.0551  0.1565 -0.6685
  810MPD2     C11922   0.350   4.009  10.038  0.6383 -0.7068 -0.8388
  810MPD2    C111923   0.276   3.903  10.087 -0.1221 -0.4084 -0.0930
  810MPD2    C211924   0.272   3.894  10.228 -0.5735  0.2434  0.0008
  810MPD2    C311925   0.345   3.969  10.313 -0.0387 -0.9060  1.2260
  810MPD2    C411926   0.420   4.070  10.258  0.0507  0.1044  0.6532
  810MPD2    C511927   0.415   4.092  10.126 -0.4572  0.2765 -0.3399
  810MPD2     H11928   0.221   3.808  10.270 -1.1913  0.9763  0.7541
  810MPD2    H111929   0.492   4.130  10.313 -0.4968  0.0554  1.4267
  810MPD2    H211930   0.361   4.026   9.931 -1.6616  1.5813 -0.7120
  810MPD2    H311931   0.479   4.169  10.086  2.1784 -0.3788  2.6122
  810MPD2     N11932   0.354   3.940  10.457 -0.1514 -0.3246  0.0888
  810MPD2    H511933   0.327   3.848  10.491  1.5775  0.3265  3.2361
  810MPD2    N111934   0.217   3.813   9.996  0.5114 -0.0681  0.1295
  810MPD2    H711935   0.235   3.826   9.897  0.5303 -0.5660  0.0676
  811MPD2     C11936   4.239   3.724   9.515 -0.0606  0.0073 -0.0463
  811MPD2    C111937   4.350   3.788   9.566  0.0759  0.2707 -0.0254
  811MPD2    C211938   4.366   3.921   9.525 -0.0029  0.3562 -0.6215
  811MPD2    C311939   4.288   3.987   9.432 -0.6717  0.5697  0.1553
  811MPD2    C411940   4.178   3.919   9.388  0.7453 -0.5267  0.7026
  811MPD2    C511941   4.160   3.795   9.428  0.5474 -0.1287  0.6810
  811MPD2     H11942   4.437   3.993   9.564 -0.9619  0.2531  1.3199
  811MPD2    H111943   4.107   3.961   9.318  0.6554 -0.5002  0.8097
  811MPD2    H211944   4.223   3.617   9.530  3.2875 -0.6342 -0.9684
  811MPD2    H311945   4.079   3.739   9.381  0.0348  0.2815  1.0806
  811MPD2     N11946   4.313   4.121   9.406  0.1443 -0.3366  0.3850
  811MPD2    H511947   4.395   4.151   9.457  0.3943  0.0159 -0.2278
  811MPD2    N111948   4.440   3.708   9.644  0.4855  0.0840  0.3128
  811MPD2    H711949   4.422   3.612   9.670  0.9763 -0.3031 -0.7691
  812MPD2     C11950   3.145   3.917  12.454  0.0323  0.5664 -0.1599
  812MPD2    C111951   3.281   3.909  12.458 -0.2827 -0.2494 -0.4131
  812MPD2    C211952   3.340   3.780  12.454 -0.2508 -0.1935 -0.1998
  812MPD2    C311953   3.256   3.672  12.456  0.3732  0.7347 -0.8549
  812MPD2    C411954   3.122   3.688  12.449 -0.0855  0.4575 -0.0957
  812MPD2    C511955   3.062   3.808  12.454 -0.2400 -0.3142 -0.1402
  812MPD2     H11956   3.446   3.780  12.474 -0.1072  2.5342 -1.0358
  812MPD2    H111957   3.058   3.600  12.456  1.0004 -0.3380 -0.1855
  812MPD2    H211958   3.098   4.014  12.453 -1.1642 -0.0176 -0.3314
  812MPD2    H311959   2.960   3.818  12.418 -0.2480 -2.0997 -0.6002
  812MPD2     N11960   3.325   3.550  12.471  0.3798  0.3339 -0.1162
  812MPD2    H511961   3.426   3.552  12.469  0.4632 -2.6600  0.8855
  812MPD2    N111962   3.349   4.031  12.440 -0.5981  0.4872 -0.6247
  812MPD2    H711963   3.287   4.112  12.436 -1.5179 -0.1417  0.6815
  813MPD2     C11964   3.004   1.243  12.628 -0.0610  0.1762  0.3825
  813MPD2    C111965   3.020   1.364  12.686  0.0683  0.2025  0.0320
  813MPD2    C211966   2.962   1.382  12.809  0.1280 -1.0544  0.3835
  813MPD2    C311967   2.902   1.281  12.876 -0.7835 -0.4194  0.9967
  813MPD2    C411968   2.883   1.161  12.815 -0.5779  0.6330  0.6963
  813MPD2    C511969   2.941   1.138  12.691  1.1264  0.3479 -0.4110
  813MPD2     H11970   2.973   1.476  12.861 -0.6440 -0.2292 -0.9319
  813MPD2    H111971   2.808   1.093  12.854 -1.1568  1.1603  0.5016
  813MPD2    H211972   3.055   1.211  12.537 -0.4955 -0.8176  0.4897
  813MPD2    H311973   2.916   1.048  12.636  0.2142  0.1379  0.3400
  813MPD2     N11974   2.858   1.322  13.007 -0.4955  0.1364  0.0676
  813MPD2    H511975   2.886   1.413  13.040  2.8721 -1.3921  1.4493
  813MPD2    N111976   3.086   1.471  12.629  0.1034 -0.2553  0.1521
  813MPD2    H711977   3.083   1.563  12.671  0.5133 -0.3439  0.3808
  814MPD2     C11978   3.055   2.334  12.094  0.2989  0.2979  0.2602
  814MPD2    C111979   3.128   2.375  11.985  0.3510 -0.2895  0.3264
  814MPD2    C211980   3.237   2.458  11.995  0.3294  0.4405 -0.4572
  814MPD2    C311981   3.264   2.509  12.125  0.4251 -0.1113 -0.3617
  814MPD2    C411982   3.193   2.469  12.228 -0.1432 -0.2581 -0.1361
  814MPD2    C511983   3.087   2.387  12.219  0.5491  0.3607  0.2164
  814MPD2     H11984   3.316   2.469  11.922  0.1256 -1.1265 -0.9339
  814MPD2    H111985   3.212   2.522  12.321  0.8622  1.1711 -1.1582
  814MPD2    H211986   2.969   2.269  12.086  0.3684  0.1120  0.9915
  814MPD2    H311987   3.025   2.357  12.302  1.1912 -0.3446  0.4405
  814MPD2     N11988   3.376   2.594  12.156  0.3125  0.6257 -0.2020
  814MPD2    H511989   3.403   2.602  12.253  2.2814 -2.8854 -0.4894
  814MPD2    N111990   3.100   2.323  11.854  0.4546 -0.0798  0.4730
  814MPD2    H711991   3.144   2.370  11.775 -0.3057  0.5368  0.4158
  815MPD2     C11992   3.875   0.927  11.871 -0.0593  0.4135 -0.5551
  815MPD2    C111993   3.858   0.792  11.869 -0.4798  0.7814  0.8634
  815MPD2    C211994   3.767   0.738  11.955  0.3420  0.5080 -0.1435
  815MPD2    C311995   3.688   0.819  12.033 -0.3113 -0.1374  0.3020
  815MPD2    C411996   3.698   0.958  12.024  0.2503 -0.4179  0.0153
  815MPD2    C511997   3.804   1.004  11.955  0.1133  0.1781 -0.8160
  815MPD2     H11998   3.747   0.631  11.961  0.6051  0.4331 -0.6496
  815MPD2    H111999   3.635   1.025  12.081  0.8857  0.3180 -0.1466
  815MPD2    H212000   3.962   0.970  11.822  0.0168 -1.0453 -1.7042
  815MPD2    H312001   3.809   1.112  11.952  0.3142  0.1651 -1.0037
  815MPD2     N12002   3.594   0.746  12.105  0.0084  0.2124  0.4729
  815MPD2    H512003   3.605   0.646  12.119 -1.2603  0.2929  2.0728
  815MPD2    N112004   3.957   0.716  11.794 -0.4639  0.3191 -0.4148
  815MPD2    H712005   4.022   0.770  11.737  2.0843 -0.3478  1.8374
  816MPD2     C12006   3.801   0.237  17.639 -0.2030  0.4303  0.0927
  816MPD2    C112007   3.759   0.217  17.507  0.8136  0.0349  0.0897
  816MPD2    C212008   3.851   0.152  17.427 -0.2536 -0.8297 -0.3332
  816MPD2    C312009   3.964   0.088  17.472  0.7229  0.9038 -1.1696
  816MPD2    C412010   4.003   0.112  17.601  0.6524  0.2490  0.5388
  816MPD2    C512011   3.922   0.186  17.685  0.3771  0.2239 -0.0030
  816MPD2     H12012   3.827   0.125  17.325  0.9149 -2.4221 -0.1859
  816MPD2    H112013   4.101   0.077  17.633  0.6382  1.2291  1.6305
  816MPD2    H212014   3.739   0.299   0.005  0.2446  0.4462  0.5118
  816MPD2    H312015   3.955   0.216   0.087  2.0410 -1.0756 -0.1658
  816MPD2     N12016   4.045   0.010  17.380 -0.3120 -0.2985  0.6007
  816MPD2    H512017   4.007   0.001  17.286  1.4492  2.5096 -0.3635
  816MPD2    N112018   3.636   0.273  17.469 -0.4183 -0.3934 -0.2943
  816MPD2    H712019   3.604   0.344  17.534 -0.5445 -0.4583 -0.2860
  817MPD2     C12020   3.028   1.365  10.168  0.8090  0.1083  0.8959
  817MPD2    C112021   3.098   1.413  10.058 -0.1706 -0.2031 -0.2948
  817MPD2    C212022   3.093   1.547  10.017 -0.3342  0.1875  0.5598
  817MPD2    C312023   3.008   1.633  10.086  1.0013 -0.1707  0.1400
  817MPD2    C412024   2.946   1.592  10.191  0.0890  0.5152  1.0233
  817MPD2    C512025   2.951   1.458  10.232  0.4436 -0.3226 -0.3200
  817MPD2     H12026   3.146   1.589   9.932  0.8654 -1.7508  0.3466
  817MPD2    H112027   2.885   1.658  10.252  0.0058  1.4210 -0.0370
  817MPD2    H212028   3.029   1.258  10.183 -2.2135  0.0072  0.2946
  817MPD2    H312029   2.892   1.423  10.315  0.2050  0.3560 -0.2036
  817MPD2     N12030   3.000   1.763  10.040 -1.0089  0.0364 -0.1031
  817MPD2    H512031   3.066   1.787   9.967  0.0396  0.0619  0.8579
  817MPD2    N112032   3.196   1.334   9.996  0.3494 -0.3436  0.5401
  817MPD2    H712033   3.252   1.382   9.927  1.0827 -0.4825  1.0434
  818MPD2     C12034   2.124   1.025  10.009  0.0845  0.0105  0.3715
  818MPD2    C112035   2.050   0.933  10.081  0.3638 -0.7186  0.6768
  818MPD2    C212036   2.105   0.812  10.116  0.3115  0.4184 -0.3562
  818MPD2    C312037   2.238   0.788  10.087  0.0723  0.1017  0.1904
  818MPD2    C412038   2.318   0.884  10.020  0.6673 -1.2528  0.3879
  818MPD2    C512039   2.260   1.007   9.996 -0.1963 -0.4187  0.2972
  818MPD2     H12040   2.039   0.739  10.163  0.9045 -0.5618 -1.0500
  818MPD2    H112041   2.425   0.882  10.004  1.1734 -0.9554  3.7208
  818MPD2    H212042   2.082   1.122   9.985  1.9129  0.4603 -0.9971
  818MPD2    H312043   2.317   1.090   9.956  2.9672 -1.5887  2.3482
  818MPD2     N12044   2.305   0.671  10.130  0.3533 -0.0423 -0.0356
  818MPD2    H512045   2.405   0.671  10.115  0.2774  1.5659 -0.4682
  818MPD2    N112046   1.914   0.950  10.117  0.0079 -0.1427  0.7362
  818MPD2    H712047   1.873   0.882  10.180 -0.5378  0.4383  1.0073
  819MPD2     C12048   0.308   3.302  15.330  0.0840 -0.6380  0.1861
  819MPD2    C112049   0.295   3.173  15.371 -0.0807 -0.7298 -0.6101
  819MPD2    C212050   0.407   3.125  15.437  0.2673  0.9398 -0.1500
  819MPD2    C312051   0.510   3.208  15.468 -0.1011  0.8476 -0.2017
  819MPD2    C412052   0.513   3.340  15.434  0.3415 -0.0486 -0.0950
  819MPD2    C512053   0.409   3.386  15.359  0.1240  0.1195  0.0263
  819MPD2     H12054   0.424   3.023  15.470  0.7657  1.0185 -0.1618
  819MPD2    H112055   0.606   3.395  15.440  0.6221 -0.7276  1.6499
  819MPD2    H212056   0.223   3.335  15.271 -0.6765  1.5928  2.5097
  819MPD2    H312057   0.401   3.489  15.328 -0.0471 -0.1437 -0.7888
  819MPD2     N12058   0.619   3.146  15.529 -0.0035  0.4164 -0.1326
  819MPD2    H512059   0.618   3.044  15.526 -0.4606  0.4830 -2.4769
  819MPD2    N112060   0.179   3.098  15.342 -0.1642 -0.2692 -0.5443
  819MPD2    H712061   0.118   3.144  15.275  0.5107  0.8853 -0.3632
  820MPD2     C12062   4.018   2.963  14.882  0.2012 -0.3689 -0.0845
  820MPD2    C112063   4.131   3.045  14.876  0.7227  0.3796 -0.2151
  820MPD2    C212064   4.240   3.008  14.954  0.3120 -0.3809 -0.2109
  820MPD2    C312065   4.247   2.889  15.025  0.1785 -0.2707  0.7103
  820MPD2    C412066   4.137   2.803  15.019  0.0083 -0.0145 -1.0054
  820MPD2    C512067   4.017   2.841  14.953 -0.6497 -0.2634 -0.4146
  820MPD2     H12068   4.318   3.082  14.966  0.7100 -0.4518 -2.3533
  820MPD2    H112069   4.128   2.712  15.077  0.2964  1.4489  1.3169
  820MPD2    H212070   3.925   2.999  14.840  0.0234 -1.0753 -0.2916
  820MPD2    H312071   3.932   2.775  14.965 -0.2944 -1.1630 -2.8079
  820MPD2     N12072   4.342   2.865  15.127  0.5419  0.2337  0.2982
  820MPD2    H512073   4.342   2.771  15.167  0.5935 -0.3643 -1.1059
  820MPD2    N112074   4.103   3.175  14.821  0.3491  0.0750  0.4974
  820MPD2    H712075   4.005   3.187  14.797  0.7110 -0.8351 -1.4564
  821MPD2     C12076   0.202   0.638  13.840 -0.3666  0.1725  0.5556
  821MPD2    C112077   0.218   0.497  13.854  0.1821  0.4812 -0.2293
  821MPD2    C212078   0.271   0.427  13.744 -0.2780 -0.0699  0.6578
  821MPD2    C312079   0.300   0.491  13.624  0.2529 -0.4273 -0.6134
  821MPD2    C412080   0.280   0.630  13.614 -0.0654  0.0680 -0.4628
  821MPD2    C512081   0.236   0.700  13.720  0.2337  0.2169  0.2344
  821MPD2     H12082   0.309   0.326  13.753  1.1286  0.3620 -0.3138
  821MPD2    H112083   0.312   0.679  13.522 -3.0020  1.2240 -0.8566
  821MPD2    H212084   0.168   0.705  13.918 -1.9992  1.4016 -1.2140
  821MPD2    H312085   0.233   0.809  13.722  2.9742  0.2816  0.8462
  821MPD2     N12086   0.382   0.434  13.518  0.8706 -0.4483 -0.3639
  821MPD2    H512087   0.424   0.500  13.453 -0.3546 -0.6850 -1.3842
  821MPD2    N112088   0.224   0.436  13.981 -0.0344 -0.2853 -0.0386
  821MPD2    H712089   0.229   0.494  14.065  1.4071 -0.1195 -0.2367
  822MPD2     C12090   0.941   4.563  15.590 -0.2681 -0.2930 -0.0834
  822MPD2    C112091   1.052   4.583  15.673 -0.1065  0.4133 -0.5469
  822MPD2    C212092   1.041   4.688  15.765  0.1558  0.3468 -0.1862
  822MPD2    C312093   0.937   0.056  15.767  0.7743  0.0073  0.1791
  822MPD2    C412094   0.832   0.045  15.672 -0.4366 -0.0443 -0.0591
  822MPD2    C512095   0.835   4.662  15.588 -0.5063  0.2994 -0.1392
  822MPD2     H12096   1.130   4.712  15.822 -1.4798  2.0779  1.6311
  822MPD2    H112097   0.752   0.119  15.677 -1.4687 -1.2282  0.9664
  822MPD2    H212098   0.927   4.487  15.514 -1.1681  1.0277 -1.2410
  822MPD2    H312099   0.756   4.652  15.515 -0.0930 -0.3621 -0.4919
  822MPD2     N12100   0.939   0.153  15.872  0.2472  0.1891 -0.3683
  822MPD2    H512101   1.017   0.140  15.936  1.0053 -2.8135 -1.8760
  822MPD2    N112102   1.165   4.497  15.686  0.2563 -0.3791 -0.1387
  822MPD2    H712103   1.223   4.521  15.766 -0.6535  3.4568 -0.6490
  823MPD2     C12104   0.864   0.235  16.732  0.4518  0.6034  0.5265
  823MPD2    C112105   0.882   0.157  16.618  0.1857  0.0568 -0.4082
  823MPD2    C212106   0.883   0.016  16.619 -0.0773 -0.1398 -0.4592
  823MPD2    C312107   0.854   4.677  16.744  0.4120  0.3616  0.1343
  823MPD2    C412108   0.833   0.037  16.858  0.1539  0.7068 -0.1369
  823MPD2    C512109   0.852   0.172  16.851 -0.3090 -0.2000  0.1378
  823MPD2     H12110   0.891   4.684  16.527 -2.6411  0.5169 -1.0804
  823MPD2    H112111   0.816   4.714  16.954 -0.2409  0.1455 -0.4819
  823MPD2    H212112   0.863   0.343  16.731  2.5725  0.6156  0.8943
  823MPD2    H312113   0.841   0.229  16.943 -1.1066  0.0763 -0.1302
  823MPD2     N12114   0.835   4.538  16.751 -0.0479  0.2690  0.0959
  823MPD2    H512115   0.804   4.487  16.833  2.4633 -0.5117  0.5615
  823MPD2    N112116   0.885   0.226  16.488 -0.2489 -0.1918  0.6260
  823MPD2    H712117   0.877   0.326  16.498  4.8865  0.2135  0.7744
  824MPD2     C12118   1.360   3.653  15.678  0.4989  0.0812 -1.0967
  824MPD2    C112119   1.484   3.727  15.691  0.4750  0.2440  0.5457
  824MPD2    C212120   1.605   3.675  15.649 -0.5590 -0.2349 -0.4164
  824MPD2    C312121   1.608   3.546  15.601  0.1851  0.6128 -1.2148
  824MPD2    C412122   1.496   3.471  15.589  0.1082  0.2789  0.5784
  824MPD2    C512123   1.376   3.524  15.638  0.4489 -0.4073 -0.3361
  824MPD2     H12124   1.701   3.722  15.668 -1.0342  0.7657 -0.5020
  824MPD2    H112125   1.490   3.374  15.541  0.1039  0.6796 -0.2296
  824MPD2    H212126   1.260   3.684  15.704  0.6324  0.1475 -0.6572
  824MPD2    H312127   1.285   3.466  15.625 -1.2542  2.0805  0.5409
  824MPD2     N12128   1.728   3.500  15.547  0.4578  0.4898  0.2727
  824MPD2    H512129   1.804   3.566  15.538  1.7651 -0.7335  2.4690
  824MPD2    N112130   1.475   3.869  15.722  0.4525 -0.1289  0.1464
  824MPD2    H712131   1.555   3.930  15.733  0.5361 -0.0843 -0.6996
  825MPD2     C12132   2.327   3.464  14.964  0.7839  0.3063  0.7585
  825MPD2    C112133   2.283   3.528  15.080 -0.0005  0.6546 -0.4114
  825MPD2    C212134   2.315   3.661  15.097  0.5779  0.8608 -0.3498
  825MPD2    C312135   2.385   3.727  15.004  0.0189  0.1305 -0.1885
  825MPD2    C412136   2.425   3.664  14.892 -0.1810  0.1716 -0.6193
  825MPD2    C512137   2.395   3.532  14.867  0.5234 -0.1317  0.0552
  825MPD2     H12138   2.280   3.709  15.188  0.9685  0.2723  0.1138
  825MPD2    H112139   2.490   3.724  14.830 -0.0024 -0.7430 -1.3214
  825MPD2    H212140   2.324   3.357  14.947  0.4937  0.6115 -1.2028
  825MPD2    H312141   2.437   3.477  14.783 -1.5871 -2.0539  0.2475
  825MPD2     N12142   2.416   3.869  15.007  0.4692  0.1381 -0.5064
  825MPD2    H512143   2.481   3.899  14.935 -0.1572  2.3126 -0.1514
  825MPD2    N112144   2.202   3.453  15.170  0.7109 -0.2069  0.0318
  825MPD2    H712145   2.197   3.352  15.165 -1.7388 -0.1830  2.2039
  826MPD2     C12146   1.856   3.781  13.623 -0.3976  0.1091  0.4927
  826MPD2    C112147   1.836   3.874  13.528 -0.1019 -0.2859  0.3619
  826MPD2    C212148   1.777   3.992  13.560  0.5895 -0.1285 -0.8213
  826MPD2    C312149   1.731   4.015  13.687  0.1112  0.1395 -0.1515
  826MPD2    C412150   1.729   3.911  13.784 -0.3215 -0.5019  0.1729
  826MPD2    C512151   1.799   3.796  13.750 -0.0073  0.4441  0.1246
  826MPD2     H12152   1.773   4.069  13.483 -1.2215  1.1517  0.5739
  826MPD2    H112153   1.705   3.926  13.889  2.3869  2.2666  0.3978
  826MPD2    H212154   1.902   3.686  13.597 -0.6486  1.1064 -3.6019
  826MPD2    H312155   1.798   3.715  13.822 -1.3487 -0.8309 -1.3130
  826MPD2     N12156   1.662   4.136  13.731  0.2550  0.1612  0.3380
  826MPD2    H512157   1.626   4.138  13.827 -2.8221 -0.1544 -0.7961
  826MPD2    N112158   1.886   3.855  13.404 -0.1041  0.4622 -0.9020
  826MPD2    H712159   1.945   3.774  13.391 -0.7452 -0.3198  1.1434
  827MPD2     C12160   2.803   0.365  10.101  0.4983  0.0134  0.8777
  827MPD2    C112161   2.811   0.233  10.132  0.8891 -0.1092 -0.5278
  827MPD2    C212162   2.716   0.147  10.088  1.2142  0.5717 -0.0551
  827MPD2    C312163   2.600   0.185  10.029  0.9711  0.8359 -0.2724
  827MPD2    C412164   2.589   0.322  10.003 -0.6909 -0.2742 -0.0782
  827MPD2    C512165   2.691   0.402  10.039 -0.2945  0.0206  0.8041
  827MPD2     H12166   2.719   0.043  10.118 -0.4172 -0.4031 -3.2908
  827MPD2    H112167   2.502   0.369   9.958 -0.2386 -0.8761 -1.5952
  827MPD2    H212168   2.885   0.428  10.131 -0.0812  0.5740  1.2671
  827MPD2    H312169   2.694   0.506  10.009  2.3299 -0.1549  0.4285
  827MPD2     N12170   2.504   0.082  10.001  0.3836 -0.1069  0.2834
  827MPD2    H512171   2.523   4.708  10.018  0.2208 -0.0302  0.9153
  827MPD2    N112172   2.922   0.198  10.213  0.7370  0.8624 -0.1867
  827MPD2    H712173   2.995   0.262  10.245 -0.1784  1.3931  0.8640
  828MPD2     C12174   1.214   0.139  12.526 -0.0826  0.6793  0.2279
  828MPD2    C112175   1.188   0.118  12.392  0.2971 -0.1545  0.2232
  828MPD2    C212176   1.290   0.104  12.299 -0.4748 -0.4124  0.2572
  828MPD2    C312177   1.421   0.119  12.335  0.0529  0.3819 -1.0444
  828MPD2    C412178   1.446   0.144  12.468  0.3597 -0.3511  0.3068
  828MPD2    C512179   1.342   0.162  12.560  0.2765  0.4132  1.2124
  828MPD2     H12180   1.253   0.075  12.201 -1.4452 -1.0445  0.8025
  828MPD2    H112181   1.548   0.165  12.499 -0.2480  0.9671  1.4091
  828MPD2    H212182   1.134   0.177  12.589  0.6560  1.5275  0.6542
  828MPD2    H312183   1.367   0.191  12.661  2.3850  0.9556  0.5510
  828MPD2     N12184   1.532   0.122  12.247 -0.7233  0.2533  0.1294
  828MPD2    H512185   1.622   0.150  12.287 -0.5999 -0.1924  0.1652
  828MPD2    N112186   1.059   0.094  12.349  0.2839 -0.5223  0.3585
  828MPD2    H712187   1.052   0.098  12.247  0.6598 -1.2813  0.3097
  829MPD2     C12188   0.757   0.563  11.723 -0.7597  0.3725 -0.2958
  829MPD2    C112189   0.636   0.515  11.754 -0.3024 -0.4267 -0.6383
  829MPD2    C212190   0.623   0.446  11.874 -0.4785  0.4759  0.3707
  829MPD2    C312191   0.739   0.404  11.942 -0.5282  0.6767 -0.1885
  829MPD2    C412192   0.863   0.439  11.894  0.0586 -0.5960 -0.3576
  829MPD2    C512193   0.870   0.521  11.784 -0.1528 -0.0209 -0.3034
  829MPD2     H12194   0.527   0.427  11.920 -1.5535 -0.2256 -2.1419
  829MPD2    H112195   0.951   0.400  11.944 -1.1367 -0.9584  1.4458
  829MPD2    H212196   0.783   0.630  11.642 -0.9773  2.3060  1.2322
  829MPD2    H312197   0.969   0.557  11.758 -0.3649  1.5838  1.1136
  829MPD2     N12198   0.732   0.315  12.048 -0.1848 -0.4558 -0.7378
  829MPD2    H512199   0.822   0.277  12.076 -1.8503 -1.7436  2.8234
  829MPD2    N112200   0.528   0.555  11.671  0.7948  0.0601  0.0692
  829MPD2    H712201   0.562   0.596  11.584 -1.2386  0.6144 -0.4586
  830MPD2     C12202   1.409   2.764  15.526  0.5970  0.2631 -0.1455
  830MPD2    C112203   1.306   2.848  15.489  0.3584 -0.1291  0.3811
  830MPD2    C212204   1.336   2.944  15.392  0.6143  0.1048 -0.6109
  830MPD2    C312205   1.464   2.956  15.340  0.8655  0.1373  0.4773
  830MPD2    C412206   1.564   2.867  15.372  0.0418 -0.1511 -0.2673
  830MPD2    C512207   1.526   2.767  15.458 -0.1908 -0.3923  0.6528
  830MPD2     H12208   1.264   3.025  15.378 -0.1144 -0.8924 -2.5053
  830MPD2    H112209   1.659   2.866  15.320 -0.0235  3.1062 -0.4878
  830MPD2    H212210   1.395   2.674  15.586 -1.9411 -0.1468 -1.3352
  830MPD2    H312211   1.595   2.686  15.476  0.0090 -0.6924 -1.5489
  830MPD2     N12212   1.470   3.064  15.244 -0.3568  0.0330 -0.0115
  830MPD2    H512213   1.387   3.111  15.209 -0.4072 -0.5774 -0.7129
  830MPD2    N112214   1.187   2.841  15.568 -0.2403  0.1692 -0.0272
  830MPD2    H712215   1.186   2.803  15.662  1.5450 -0.8659 -0.4397
  831MPD2     C12216   1.429   4.676  16.292 -0.0453  0.6632 -0.2369
  831MPD2    C112217   1.399   4.640  16.158  0.1103  0.2572 -0.5858
  831MPD2    C212218   1.268   4.595  16.129  0.3215  0.0582 -0.0424
  831MPD2    C312219   1.174   4.587  16.230 -0.2774  0.2754 -0.0781
  831MPD2    C412220   1.203   4.633  16.355  0.2774 -0.0781 -0.2332
  831MPD2    C512221   1.328   4.675  16.385 -0.1622  0.7266  0.4682
  831MPD2     H12222   1.248   4.571  16.025 -2.6901  0.4396  0.4458
  831MPD2    H112223   1.122   4.649  16.424  0.1612 -0.9098 -0.1770
  831MPD2    H212224   1.530   4.706  16.320  0.0630  1.0987 -1.1044
  831MPD2    H312225   1.348   4.720  16.481  0.1025 -2.2831  1.8517
  831MPD2     N12226   1.039   4.544  16.207 -0.0632 -0.3121 -0.4065
  831MPD2    H512227   0.972   4.556  16.283 -1.4446  1.4129 -1.9079
  831MPD2    N112228   1.502   4.659  16.065 -0.1194  0.2119 -0.4477
  831MPD2    H712229   1.598   4.661  16.098 -0.2664  1.2324 -0.1077
  832MPD2     C12230   4.547   1.060  17.295 -0.4891 -0.4086  0.5764
  832MPD2    C112231   4.533   1.186  17.233  0.3220 -0.4643  0.0143
  832MPD2    C212232   4.444   1.197  17.130 -0.9645  0.2894 -0.0461
  832MPD2    C312233   4.349   1.104  17.107  0.2390 -0.5756  0.7927
  832MPD2    C412234   4.348   0.983  17.181 -0.2514 -0.3901 -0.1402
  832MPD2    C512235   4.463   0.956  17.259  0.7729  0.0750 -0.0021
  832MPD2     H12236   4.435   1.292  17.079 -1.1387  0.6703  0.6858
  832MPD2    H112237   4.267   0.912  17.189 -1.1475  0.4680 -1.6220
  832MPD2    H212238   4.630   1.049  17.365 -0.1601  3.1238  0.7242
  832MPD2    H312239   4.475   0.865  17.316 -0.2480 -1.5125 -2.3256
  832MPD2     N12240   4.250   1.122  17.007 -1.0344 -0.5216 -0.2287
  832MPD2    H512241   4.208   1.035  16.975  0.4178 -0.8401 -1.3001
  832MPD2    N112242   4.611   1.293  17.288  0.3484 -0.2789  0.3130
  832MPD2    H712243   4.670   1.273  17.369  0.3476  0.3886  0.4756
  833MPD2     C12244   1.617   2.501  12.505 -0.6089 -0.5396  0.2111
  833MPD2    C112245   1.634   2.512  12.368  0.1563  0.3851 -0.4397
  833MPD2    C212246   1.595   2.412  12.290 -0.0157 -0.3067  0.1602
  833MPD2    C312247   1.554   2.290  12.341 -0.1805  0.3910  0.8541
  833MPD2    C412248   1.536   2.275  12.475 -0.1765  0.2508  0.7479
  833MPD2    C512249   1.565   2.385  12.555  0.8606 -0.1364  0.4111
  833MPD2     H12250   1.607   2.411  12.183 -1.5927  0.6547 -0.0336
  833MPD2    H112251   1.498   2.186  12.524 -0.5514 -0.1070 -0.1831
  833MPD2    H212252   1.649   2.577  12.575 -1.5603  0.4273 -0.4003
  833MPD2    H312253   1.538   2.374  12.660  2.9164 -1.8139  0.7534
  833MPD2     N12254   1.535   2.188  12.240  0.2486  0.2700  0.6096
  833MPD2    H512255   1.570   2.208  12.147 -2.1035 -2.9494 -0.9722
  833MPD2    N112256   1.670   2.638  12.309 -0.5254 -0.5018  0.1247
  833MPD2    H712257   1.668   2.645  12.208 -0.5309  1.8832  0.2827
  834MPD2     C12258   1.091   1.566  11.513 -0.0492  0.2681  0.0732
  834MPD2    C112259   1.228   1.567  11.523 -0.2844 -0.2543  0.7132
  834MPD2    C212260   1.290   1.645  11.616  0.1295  0.4337 -0.0548
  834MPD2    C312261   1.223   1.734  11.698  0.3680  0.2277 -0.3238
  834MPD2    C412262   1.085   1.750  11.677 -0.2853 -0.3151 -0.2555
  834MPD2    C512263   1.019   1.666  11.587  0.7189 -0.1577  0.7200
  834MPD2     H12264   1.396   1.634  11.636  0.1680  0.6040 -0.1623
  834MPD2    H112265   1.029   1.827  11.727 -0.4366 -0.1998 -0.5999
  834MPD2    H212266   1.045   1.495  11.445 -0.4917 -1.4866  2.2024
  834MPD2    H312267   0.913   1.674  11.566  0.9085  0.0507 -0.1609
  834MPD2     N12268   1.300   1.814  11.783 -0.5029 -0.2699 -0.2163
  834MPD2    H512269   1.401   1.816  11.781 -0.5832  3.1102 -1.1429
  834MPD2    N112270   1.302   1.472  11.445  0.0232  0.2480 -0.0518
  834MPD2    H712271   1.246   1.424  11.376 -1.9654  3.1635 -0.4722
  835MPD2     C12272   0.906   0.678  10.970  0.1570  0.1341 -0.2766
  835MPD2    C112273   1.019   0.652  11.044  0.5499  0.4972 -0.9383
  835MPD2    C212274   1.023   0.684  11.180  0.0107 -0.4954  0.1859
  835MPD2    C312275   0.912   0.745  11.242 -0.2158  0.0184 -0.0463
  835MPD2    C412276   0.805   0.789  11.157  0.6539  0.2057  0.1667
  835MPD2    C512277   0.801   0.752  11.025 -0.3739 -0.4957 -0.3436
  835MPD2     H12278   1.115   0.666  11.235 -0.1203 -0.2200  0.5005
  835MPD2    H112279   0.723   0.842  11.203 -0.8907 -0.7055 -1.5488
  835MPD2    H212280   0.901   0.644  10.867  1.9376  0.3179 -0.4220
  835MPD2    H312281   0.727   0.786  10.954  0.3594  2.5719  0.3379
  835MPD2     N12282   0.918   0.783  11.374  0.1396 -0.1512 -0.3637
  835MPD2    H512283   0.839   0.833  11.415 -0.5523  0.6677 -2.7380
  835MPD2    N112284   1.133   0.595  10.984  0.3598 -0.3166 -0.1040
  835MPD2    H712285   1.140   0.601  10.883  0.5260  1.5545  0.0154
  836MPD2     C12286   0.487   1.144  11.757  0.3707  0.3813 -0.2058
  836MPD2    C112287   0.561   1.055  11.833  0.7569  0.3006 -0.6016
  836MPD2    C212288   0.511   1.035  11.959 -0.3600  0.6643  0.1577
  836MPD2    C312289   0.414   1.106  12.021 -0.1640 -0.0305  0.3934
  836MPD2    C412290   0.360   1.205  11.945  0.4853  0.5346 -0.1569
  836MPD2    C512291   0.387   1.215  11.810 -0.2401  0.4404  0.0764
  836MPD2     H12292   0.545   0.950  12.018  2.8098  0.7931 -1.4830
  836MPD2    H112293   0.269   1.256  11.975 -0.5405 -2.2382  1.4378
  836MPD2    H212294   0.512   1.156  11.652 -0.9622  1.8205 -0.3573
  836MPD2    H312295   0.338   1.289  11.747 -1.3074 -0.1750  0.1737
  836MPD2     N12296   0.353   1.074  12.149  0.4947 -0.2161  0.3983
  836MPD2    H512297   0.280   1.138  12.179  0.0760 -0.1450 -0.7523
  836MPD2    N112298   0.680   0.992  11.772 -0.0483  0.1674  0.3231
  836MPD2    H712299   0.715   1.011  11.679  1.7160 -0.6715  0.8110
  837MPD2     C12300   4.483   0.005   9.845  0.1388  0.3952 -0.5816
  837MPD2    C112301   4.437   0.060   9.724  0.6014 -0.1660  0.8622
  837MPD2    C212302   4.395   0.185   9.733 -0.1346  0.1126 -0.1143
  837MPD2    C312303   4.371   0.255   9.852 -0.9158  0.5065 -0.4948
  837MPD2    C412304   4.416   0.204   9.972 -0.0897  0.0344  0.3626
  837MPD2    C512305   4.475   0.073   9.964  0.6662  0.2400  0.8098
  837MPD2     H12306   4.351   0.226   9.643 -0.4946 -2.2846 -1.0109
  837MPD2    H112307   4.383   0.249  10.065 -0.2824 -2.3598  1.4715
  837MPD2    H212308   4.531   4.632   9.843 -2.7768 -1.0877  0.7603
  837MPD2    H312309   4.500   0.031  10.061 -0.2876 -1.9567  0.0997
  837MPD2     N12310   4.314   0.388   9.849 -0.7926 -0.5894  0.3486
  837MPD2    H512311   4.304   0.428   9.756 -1.3111 -0.1350  0.6022
  837MPD2    N112312   4.422   4.713   9.603  0.4675  0.4641  0.2922
  837MPD2    H712313   4.389   0.047   9.526 -0.2988 -2.5107 -1.6377
  838MPD2     C12314   2.662   3.052  11.831  0.8011 -0.0327 -0.2434
  838MPD2    C112315   2.673   2.996  11.703 -0.1053 -0.1946 -1.0418
  838MPD2    C212316   2.571   2.910  11.657  0.3484 -0.1446  0.6329
  838MPD2    C312317   2.459   2.882  11.734  0.2957  0.2600  0.5841
  838MPD2    C412318   2.456   2.939  11.859 -0.5299 -0.4956 -0.1332
  838MPD2    C512319   2.557   3.017  11.908 -0.3014 -0.3102 -0.2820
  838MPD2     H12320   2.573   2.867  11.557  0.0327  0.0388  0.5508
  838MPD2    H112321   2.382   2.908  11.933  1.5186  0.4532  2.3282
  838MPD2    H212322   2.742   3.106  11.880  0.7398  0.7721 -1.0200
  838MPD2    H312323   2.560   3.054  12.009 -1.6240  0.7694 -0.6398
  838MPD2     N12324   2.351   2.791  11.702  0.2601 -0.2610  0.1466
  838MPD2    H512325   2.294   2.769  11.783  0.1106 -3.6220 -0.8895
  838MPD2    N112326   2.792   3.012  11.631 -0.4755  0.1279 -0.8898
  838MPD2    H712327   2.801   2.959  11.545  2.1679 -1.8439  0.6375
  839MPD2     C12328   2.666   2.394  11.661  0.1387  0.0822  0.3452
  839MPD2    C112329   2.685   2.419  11.534  0.3027  0.4756  0.3689
  839MPD2    C212330   2.788   2.506  11.505 -0.3510 -0.5325 -0.8720
  839MPD2    C312331   2.872   2.555  11.603  0.7863  0.2170  1.1707
  839MPD2    C412332   2.851   2.513  11.735 -0.1002 -0.3783  0.6939
  839MPD2    C512333   2.756   2.424  11.759  0.0164 -0.3502  0.1509
  839MPD2     H12334   2.799   2.529  11.399 -2.0310  0.8238 -0.7596
  839MPD2    H112335   2.917   2.552  11.812 -0.8001 -2.4149  2.3230
  839MPD2    H212336   2.584   2.333  11.700 -0.1725 -0.8146 -1.7053
  839MPD2    H312337   2.746   2.380  11.857  0.8534 -1.3010 -0.1912
  839MPD2     N12338   2.981   2.648  11.580  0.0868 -0.5626  0.4721
  839MPD2    H512339   3.043   2.670  11.656 -0.4025 -0.7820  0.9331
  839MPD2    N112340   2.605   2.371  11.424  0.3454 -0.1037  0.0829
  839MPD2    H712341   2.642   2.383  11.330 -0.8217  1.5560 -0.1644
  840MPD2     C12342   3.424   0.505  10.261 -0.0568  0.1104  0.2157
  840MPD2    C112343   3.429   0.433  10.376 -0.2962 -0.0752 -0.3350
  840MPD2    C212344   3.503   0.484  10.487 -0.4236  0.4209  0.8479
  840MPD2    C312345   3.559   0.605  10.482  0.3829 -0.3738 -0.3211
  840MPD2    C412346   3.536   0.685  10.371  0.5022 -0.1074 -0.3202
  840MPD2    C512347   3.470   0.634  10.259 -0.0133 -0.1898 -1.0776
  840MPD2     H12348   3.510   0.421  10.575 -0.0495  0.3386  0.7606
  840MPD2    H112349   3.572   0.786  10.356 -0.4121  0.4805  1.3658
  840MPD2    H212350   3.369   0.471  10.174 -0.0663  1.7893 -0.4389
  840MPD2    H312351   3.440   0.696  10.175  1.8528  0.4006 -1.3051
  840MPD2     N12352   3.645   0.657  10.584  0.3493  0.3904 -0.2808
  840MPD2    H512353   3.682   0.748  10.557  0.3894 -0.0465 -1.7049
  840MPD2    N112354   3.356   0.315  10.375  0.1321  0.3522 -0.1525
  840MPD2    H712355   3.296   0.298  10.294  1.4960  1.0050 -1.3090
  841MPD2     C12356   2.644   4.556  14.846  0.0782  0.1052  0.3519
  841MPD2    C112357   2.717   4.573  14.729  0.3511  0.3044 -0.3626
  841MPD2    C212358   2.711   4.687  14.672 -0.1997  0.1536  0.2516
  841MPD2    C312359   2.651   0.076  14.729  0.3691  0.0543  0.3743
  841MPD2    C412360   2.587   0.061  14.849 -0.0343  0.2458  0.1993
  841MPD2    C512361   2.584   4.661  14.901  0.2251 -0.0201 -0.3879
  841MPD2     H12362   2.763   4.699  14.577  1.8306  0.8933  1.4496
  841MPD2    H112363   2.548   0.149  14.899 -1.8113 -1.2279  1.4131
  841MPD2    H212364   2.639   4.462  14.899  2.5749 -1.8850 -2.9421
  841MPD2    H312365   2.548   4.660  15.004  0.9964  2.6418 -0.0741
  841MPD2     N12366   2.673   0.195  14.665  0.0394 -0.2022  0.5367
  841MPD2    H512367   2.737   0.185  14.587 -0.2789 -2.0889  0.5224
  841MPD2    N112368   2.784   4.469  14.673  0.5665  0.4892  0.2660
  841MPD2    H712369   2.831   4.492  14.586  0.9745  3.0774  1.1928
  842MPD2     C12370   3.704   1.408  16.368 -0.6185 -0.3472  0.1947
  842MPD2    C112371   3.579   1.351  16.338  0.1939 -0.1575  0.0577
  842MPD2    C212372   3.487   1.327  16.438 -0.2179  0.1787 -0.4087
  842MPD2    C312373   3.498   1.403  16.553 -0.7095  0.4203  0.9951
  842MPD2    C412374   3.610   1.471  16.571  0.0935  0.2673  0.5549
  842MPD2    C512375   3.717   1.480  16.485 -0.1467  0.9174 -1.0348
  842MPD2     H12376   3.392   1.275  16.426 -0.5334  0.7919 -0.6068
  842MPD2    H112377   3.621   1.521  16.667 -2.3274 -1.0158  1.5027
  842MPD2    H212378   3.779   1.415  16.290 -1.9775 -0.3721 -1.1262
  842MPD2    H312379   3.806   1.542  16.490 -0.4065  1.2720 -0.8583
  842MPD2     N12380   3.402   1.394  16.661 -0.8362 -0.7280 -0.0234
  842MPD2    H512381   3.414   1.456  16.740  2.3399 -0.3704 -0.7642
  842MPD2    N112382   3.564   1.312  16.205  0.0065 -0.5337  0.3695
  842MPD2    H712383   3.643   1.309  16.142 -0.7573 -2.2110 -0.5065
  843MPD2     C12384   0.409   1.874   0.272 -0.2659  0.5333  0.4882
  843MPD2    C112385   0.459   1.780   0.183 -0.4467  0.2406 -0.2242
  843MPD2    C212386   0.588   1.803   0.131  0.0763  0.0145  0.7404
  843MPD2    C312387   0.660   1.915   0.163  0.2010 -0.4218 -0.5789
  843MPD2    C412388   0.602   2.011   0.239  0.5539  0.2064 -0.0780
  843MPD2    C512389   0.485   1.990   0.295 -0.4670 -0.6754  0.0785
  843MPD2     H12390   0.623   1.723   0.067  0.3800  0.9480 -0.2562
  843MPD2    H112391   0.656   2.102   0.263  0.6550  0.4980 -1.4379
  843MPD2    H212392   0.314   1.862   0.323 -0.4559  1.4320  0.3404
  843MPD2    H312393   0.446   2.069   0.359  0.0781 -0.9592  0.7545
  843MPD2     N12394   0.792   1.945   0.119  0.0410  0.9408 -0.2568
  843MPD2    H512395   0.829   2.036   0.145 -0.4272  1.3175 -0.8887
  843MPD2    N112396   0.379   1.670   0.153  0.1142  0.1328 -0.1035
  843MPD2    H712397   0.297   1.647   0.207  0.3911 -1.1280 -0.2090
  844MPD2     C12398   4.170   0.812  16.335 -0.3136  0.4277 -0.5578
  844MPD2    C112399   4.255   0.726  16.405 -0.6894  0.0843  0.5767
  844MPD2    C212400   4.329   0.775  16.504  0.3246 -0.6336 -0.2487
  844MPD2    C312401   4.355   0.905  16.527 -0.0358  0.4892 -0.2830
  844MPD2    C412402   4.270   0.991  16.464  0.1862 -0.1576 -0.8229
  844MPD2    C512403   4.182   0.944  16.372 -0.1734 -0.3697  0.0496
  844MPD2     H12404   4.381   0.707  16.571  3.9760 -0.7954 -3.2819
  844MPD2    H112405   4.265   1.098  16.481  2.0619 -0.4713  1.7083
  844MPD2    H212406   4.106   0.787  16.251 -0.4831 -1.0174 -0.0028
  844MPD2    H312407   4.115   1.020  16.334  0.0404  0.6575  1.7302
  844MPD2     N12408   4.450   0.937  16.630  0.1701 -0.2618 -0.5035
  844MPD2    H512409   4.522   0.866  16.639 -0.3181 -0.9824 -2.2559
  844MPD2    N112410   4.277   0.584  16.380  0.3041 -0.1523  0.0118
  844MPD2    H712411   4.335   0.536  16.448 -1.6596 -3.4487 -0.6569
  845MPD2     C12412   0.169   1.818  16.879  0.0910 -0.2073 -0.0085
  845MPD2    C112413   0.038   1.788  16.922  0.1470  0.0297 -0.3939
  845MPD2    C212414   4.717   1.660  16.916  0.4691 -0.7646 -0.1733
  845MPD2    C312415   0.080   1.555  16.890  0.3854  1.0602 -1.1012
  845MPD2    C412416   0.208   1.586  16.847 -0.5954  0.5034 -0.6324
  845MPD2    C512417   0.251   1.718  16.834  0.2521  0.4454  0.8601
  845MPD2     H12418   4.615   1.635  16.944 -0.0950  1.0984 -0.4999
  845MPD2    H112419   0.271   1.506  16.808 -0.9637 -0.2470  0.3140
  845MPD2    H212420   0.217   1.915  16.881  0.5597 -0.4369 -0.2165
  845MPD2    H312421   0.355   1.731  16.805 -0.4218  0.4122 -1.5490
  845MPD2     N12422   0.023   1.428  16.892 -0.1111  0.0407 -0.5837
  845MPD2    H512423   4.646   1.428  16.900 -0.1712  0.9019 -1.3856
  845MPD2    N112424   4.681   1.886  16.986 -0.0253 -0.1013 -0.5351
  845MPD2    H712425   4.588   1.855  17.013  0.9388 -2.0442  0.5777
  846MPD2     C12426   1.142   2.212  13.316 -0.0013  0.0236  0.1899
  846MPD2    C112427   1.028   2.281  13.349  1.0144 -0.2979  0.8561
  846MPD2    C212428   0.985   2.269  13.476  0.2792  0.3983  0.5700
  846MPD2    C312429   1.046   2.199  13.575  0.0310  0.3911 -0.1639
  846MPD2    C412430   1.167   2.140  13.544  0.3035 -0.2943 -1.0060
  846MPD2    C512431   1.209   2.150  13.417  0.4380 -0.0877  0.3303
  846MPD2     H12432   0.897   2.325  13.507  0.0008  0.0487  0.4244
  846MPD2    H112433   1.219   2.084  13.621 -0.6292 -3.7272 -2.8449
  846MPD2    H212434   1.185   2.219  13.217  1.1784 -0.6605  0.6478
  846MPD2    H312435   1.305   2.103  13.395 -0.4843 -0.7373 -2.3905
  846MPD2     N12436   0.987   2.201  13.704 -0.1083  0.0923  0.4905
  846MPD2    H512437   0.892   2.235  13.696 -0.2325 -0.1037  1.1791
  846MPD2    N112438   0.961   2.365  13.265 -0.5905  0.4331  0.1108
  846MPD2    H712439   0.882   2.413  13.308 -0.1677  0.2302  1.1076
  847MPD2     C12440   1.134   3.026  13.907  0.4856 -0.4077  0.6822
  847MPD2    C112441   1.203   3.099  14.005 -0.8013 -0.0541 -0.2930
  847MPD2    C212442   1.282   3.027  14.093 -0.1009 -0.3585 -0.5112
  847MPD2    C312443   1.289   2.888  14.090  0.1409 -0.5404 -0.2835
  847MPD2    C412444   1.212   2.821  14.003 -0.5021 -0.6588  0.1061
  847MPD2    C512445   1.131   2.889  13.915  0.3763  0.3434 -0.4328
  847MPD2     H12446   1.331   3.084  14.171  0.5650 -0.4304 -0.8763
  847MPD2    H112447   1.206   2.712  14.002 -2.0227 -0.5716 -0.7052
  847MPD2    H212448   1.076   3.081  13.834  0.4669 -1.3558 -0.0141
  847MPD2    H312449   1.072   2.824  13.851  1.2789 -0.5425 -0.3515
  847MPD2     N12450   1.363   2.812  14.182  0.1435  0.0073 -0.1231
  847MPD2    H512451   1.326   2.719  14.196  0.4650 -0.1836 -0.5270
  847MPD2    N112452   1.207   3.242  14.019 -0.5328  0.8737  0.1651
  847MPD2    H712453   1.253   3.290  14.096 -0.1092  0.4427  0.1817
  848MPD2     C12454   4.111   1.387  16.238  0.7864  0.1195  0.1026
  848MPD2    C112455   4.092   1.461  16.358  0.1664 -0.7205 -0.0757
  848MPD2    C212456   4.114   1.595  16.369  0.0749  0.5551 -0.2790
  848MPD2    C312457   4.160   1.657  16.249  1.0129 -0.1251 -0.4972
  848MPD2    C412458   4.169   1.593  16.128 -0.0385  0.2817  0.3392
  848MPD2    C512459   4.143   1.456  16.125 -0.0863  0.7576  0.1281
  848MPD2     H12460   4.120   1.643  16.466 -1.5561  0.0066  0.0872
  848MPD2    H112461   4.192   1.642  16.034  1.1380 -2.1739 -0.6645
  848MPD2    H212462   4.092   1.281  16.228  0.0523  0.1001  1.6269
  848MPD2    H312463   4.143   1.403  16.030  2.9985  0.9172  0.0241
  848MPD2     N12464   4.184   1.798  16.237  0.0358 -0.5973  0.0592
  848MPD2    H512465   4.210   1.827  16.143  2.5540 -1.7482  0.4118
  848MPD2    N112466   4.059   1.393  16.481 -0.8090 -0.2196 -0.3912
  848MPD2    H712467   4.071   1.454  16.561 -0.3351 -1.1427  0.2359
  849MPD2     C12468   3.141   1.233  13.608 -0.5017  0.7633  0.4987
  849MPD2    C112469   3.241   1.138  13.611  0.4080  0.5953  1.1223
  849MPD2    C212470   3.233   1.029  13.696 -0.2523  0.0163 -0.2016
  849MPD2    C312471   3.115   1.004  13.762  0.5532 -0.1817 -0.1490
  849MPD2    C412472   3.016   1.091  13.758  0.3508 -0.0568 -0.1185
  849MPD2    C512473   3.029   1.202  13.684 -0.2378 -0.0429  0.1762
  849MPD2     H12474   3.319   0.962  13.700 -1.0890 -1.0355  0.3190
  849MPD2    H112475   2.923   1.071  13.810 -0.3407  2.5542 -0.3329
  849MPD2    H212476   3.135   1.320  13.545 -0.6109 -0.2767 -0.9173
  849MPD2    H312477   2.947   1.273  13.683 -0.8263 -0.7500 -2.2011
  849MPD2     N12478   3.112   0.884  13.836  0.4217  0.4015 -0.9233
  849MPD2    H512479   3.193   0.826  13.819  0.9501  0.7297  0.4800
  849MPD2    N112480   3.366   1.150  13.537 -0.1363 -0.1956  1.0982
  849MPD2    H712481   3.440   1.084  13.558 -0.3374 -1.0835 -0.9806
  850MPD2     C12482   0.906   3.543  14.548 -0.4821 -0.8364  0.2446
  850MPD2    C112483   0.899   3.667  14.621 -0.0976 -0.1218 -0.1645
  850MPD2    C212484   1.011   3.732  14.672  0.5237  0.2358  0.4038
  850MPD2    C312485   1.138   3.671  14.665  0.7407 -0.6599 -0.8840
  850MPD2    C412486   1.145   3.546  14.597 -0.2720 -0.9103  0.3292
  850MPD2    C512487   1.032   3.486  14.544 -0.2092  0.4468 -0.2168
  850MPD2     H12488   0.995   3.831  14.712 -0.0546  0.2161  0.2292
  850MPD2    H112489   1.237   3.491  14.578 -1.0657 -1.8196 -0.8893
  850MPD2    H212490   0.823   3.485  14.508  1.2575 -1.5377 -2.3615
  850MPD2    H312491   1.048   3.388  14.500  0.5135 -0.2678  1.6259
  850MPD2     N12492   1.254   3.724  14.726 -0.2011 -0.4205  0.3572
  850MPD2    H512493   1.337   3.668  14.710  0.0292  0.0677 -0.1494
  850MPD2    N112494   0.769   3.726  14.618 -0.1585  0.2902  0.0939
  850MPD2    H712495   0.710   3.684  14.547 -0.0363  2.1234 -1.0859
  851MPD2     C12496   1.242   3.879  15.312  0.2836  0.2114 -0.6515
  851MPD2    C112497   1.185   3.796  15.217 -0.5626 -0.4979 -0.5745
  851MPD2    C212498   1.267   3.711  15.152  0.1604  0.2411 -0.9965
  851MPD2    C312499   1.394   3.683  15.198 -0.0948  0.1782  0.3464
  851MPD2    C412500   1.449   3.749  15.309  0.4243  0.5709 -0.8278
  851MPD2    C512501   1.368   3.854  15.357 -0.3971  0.1263 -0.3537
  851MPD2     H12502   1.226   3.660  15.065  1.7521 -1.9434 -0.4755
  851MPD2    H112503   1.551   3.732  15.342  0.9762  1.6714 -1.9443
  851MPD2    H212504   1.185   3.958  15.361  0.6775  1.2047 -1.7731
  851MPD2    H312505   1.405   3.914  15.439  0.7933  0.9798 -1.5128
  851MPD2     N12506   1.466   3.577  15.137  0.3081  0.2438  0.1880
  851MPD2    H512507   1.417   3.530  15.061 -0.5081  1.9983 -0.3506
  851MPD2    N112508   1.050   3.811  15.178  0.0257 -0.0000  0.3077
  851MPD2    H712509   1.000   3.891  15.216 -1.9577 -1.4203  0.6686
  852MPD2     C12510   0.237   1.520  10.224 -0.0753 -0.2435  0.8957
  852MPD2    C112511   0.357   1.572  10.264  0.6606  0.5679 -0.1834
  852MPD2    C212512   0.412   1.687  10.209  0.3363  0.3334  0.2477
  852MPD2    C312513   0.346   1.756  10.112  0.4197 -0.4341  0.3349
  852MPD2    C412514   0.226   1.704  10.065 -0.2932 -0.1803 -0.7480
  852MPD2    C512515   0.169   1.593  10.127 -0.0120  0.0792  0.1793
  852MPD2     H12516   0.502   1.728  10.253  0.2464 -0.7779  1.4656
  852MPD2    H112517   0.168   1.751   9.986 -2.0976  1.5103  1.5823
  852MPD2    H212518   0.190   1.439  10.279 -1.1818 -0.1210  0.1285
  852MPD2    H312519   0.070   1.564  10.095  0.0453  0.2949 -0.1969
  852MPD2     N12520   0.395   1.881  10.061 -0.2666  0.2135  0.4764
  852MPD2    H512521   0.467   1.920  10.120 -0.7509 -0.2425  1.3681
  852MPD2    N112522   0.439   1.498  10.352  0.2117 -0.3246 -0.1074
  852MPD2    H712523   0.537   1.522  10.364 -0.7799  3.1284  1.1161
  853MPD2     C12524   2.744   1.513  12.366 -0.3739  0.1048 -0.0451
  853MPD2    C112525   2.701   1.608  12.278  0.6998 -0.0996  0.2565
  853MPD2    C212526   2.693   1.566  12.144  0.4910  0.3906  0.2369
  853MPD2    C312527   2.738   1.442  12.101 -0.1965  0.2134  0.4636
  853MPD2    C412528   2.788   1.354  12.194  0.3570 -0.2809 -0.0673
  853MPD2    C512529   2.799   1.391  12.330  0.7908  0.6223 -0.8268
  853MPD2     H12530   2.656   1.626  12.061 -0.6626  0.6287  0.9216
  853MPD2    H112531   2.827   1.256  12.171 -1.2967 -0.5795 -1.5935
  853MPD2    H212532   2.752   1.528  12.473 -1.7974  0.6834 -0.0209
  853MPD2    H312533   2.832   1.316  12.400  1.4240  1.5263 -0.1592
  853MPD2     N12534   2.731   1.404  11.963 -0.6434 -0.1738 -0.3517
  853MPD2    H512535   2.758   1.308  11.944  1.1072  0.4323 -0.9511
  853MPD2    N112536   2.649   1.724  12.333 -0.1228  0.5791 -0.1362
  853MPD2    H712537   2.668   1.733  12.432  0.3508  2.3329 -0.3944
  854MPD2     C12538   4.056   2.092  12.620  0.3543  0.1720  0.0843
  854MPD2    C112539   4.087   2.026  12.493  0.1145  0.5337 -0.5588
  854MPD2    C212540   4.188   1.928  12.497 -0.3765  0.4180 -0.1990
  854MPD2    C312541   4.277   1.915  12.605  0.1399  0.2465 -1.1819
  854MPD2    C412542   4.248   1.986  12.721  1.0019  0.2713  0.1291
  854MPD2    C512543   4.134   2.064  12.734 -0.5575 -0.4485  0.1023
  854MPD2     H12544   4.208   1.868  12.409  1.3294 -0.0826  0.5408
  854MPD2    H112545   4.311   1.981  12.809  0.9736  3.0968  0.2978
  854MPD2    H212546   3.972   2.160  12.630  0.6487  0.2013  2.2943
  854MPD2    H312547   4.102   2.117  12.823  1.5895 -0.8585  1.1156
  854MPD2     N12548   4.393   1.830  12.606  0.2366 -0.2958  0.4028
  854MPD2    H512549   4.443   1.818  12.694 -0.4591  1.0743  0.9806
  854MPD2    N112550   4.013   2.069  12.381 -0.0121 -0.1273 -0.2140
  854MPD2    H712551   3.937   2.131  12.407 -1.5450 -1.2762 -1.9394
  855MPD2     C12552   0.377   1.464  13.194 -0.5822  0.6441 -0.2722
  855MPD2    C112553   0.239   1.480  13.200 -0.1026  0.3214 -0.1315
  855MPD2    C212554   0.157   1.486  13.088  0.1042 -0.2727  1.0582
  855MPD2    C312555   0.210   1.494  12.965  0.2379 -0.3614  0.1514
  855MPD2    C412556   0.345   1.474  12.963  0.2275 -0.5839 -0.6367
  855MPD2    C512557   0.427   1.455  13.069  0.4647  0.3887  0.4029
  855MPD2     H12558   0.052   1.503  13.105  0.2877  0.4118  1.5579
  855MPD2    H112559   0.390   1.474  12.864 -1.3656 -1.2470 -1.3546
  855MPD2    H212560   0.440   1.436  13.278 -0.3174  0.1448 -0.6401
  855MPD2    H312561   0.526   1.412  13.057 -0.0878 -0.7975  0.0695
  855MPD2     N12562   0.140   1.508  12.845  0.6384 -0.2561  0.1607
  855MPD2    H512563   0.199   1.507  12.762  3.2256 -3.3319  2.0083
  855MPD2    N112564   0.171   1.481  13.322 -0.1605 -0.5038  0.6792
  855MPD2    H712565   0.074   1.511  13.317 -1.2288 -3.9689  0.7338
  856MPD2     C12566   1.997   2.490  13.566 -0.7121 -0.2453  0.4507
  856MPD2    C112567   2.026   2.573  13.676  0.5351  0.4425  0.2296
  856MPD2    C212568   1.933   2.669  13.723  0.8855 -0.8372  0.6318
  856MPD2    C312569   1.805   2.674  13.666 -0.3159 -0.3873 -0.2397
  856MPD2    C412570   1.781   2.594  13.554 -0.2587 -0.0516  0.0649
  856MPD2    C512571   1.871   2.502  13.509  0.3090 -0.0562  0.0370
  856MPD2     H12572   1.950   2.711  13.821  0.7279 -1.4028  0.9024
  856MPD2    H112573   1.693   2.610  13.492  0.1149 -1.9845 -0.9518
  856MPD2    H212574   2.060   2.407  13.535  0.7635  1.6413 -1.5466
  856MPD2    H312575   1.852   2.451  13.415 -1.0870 -0.3087  0.4698
  856MPD2     N12576   1.709   2.769  13.718  0.5154  0.1601 -0.7435
  856MPD2    H512577   1.619   2.773  13.671 -0.4977 -1.5551  1.0200
  856MPD2    N112578   2.152   2.544  13.735  0.0109  0.1694  0.0908
  856MPD2    H712579   2.193   2.456  13.704  2.2041  1.0140  0.5919
  857MPD2     C12580   3.563   4.444  12.790  0.5635 -0.1068  0.4755
  857MPD2    C112581   3.687   4.425  12.728  0.3290  0.3122  0.4713
  857MPD2    C212582   3.768   4.539  12.717  0.1977 -0.0059 -0.7412
  857MPD2    C312583   3.720   4.661  12.736 -1.0098 -0.5902 -1.1857
  857MPD2    C412584   3.589   4.683  12.770  0.6139 -0.0192  0.2250
  857MPD2    C512585   3.516   4.572  12.806  0.2716  0.0214 -0.2981
  857MPD2     H12586   3.869   4.526  12.680  0.8385 -1.1744  1.4218
  857MPD2    H112587   3.544   0.055  12.793 -1.7527 -1.0641  0.0440
  857MPD2    H212588   3.486   4.370  12.806 -0.3797  1.2504  2.1640
  857MPD2    H312589   3.416   4.594  12.843  1.0830 -0.1023  1.9974
  857MPD2     N12590   3.814   0.040  12.719  0.5481  0.0840 -0.0864
  857MPD2    H512591   3.907   0.011  12.690 -0.9144 -1.0523 -3.6810
  857MPD2    N112592   3.729   4.294  12.702 -0.2369  0.7304 -0.0137
  857MPD2    H712593   3.666   4.215  12.712  0.4701  0.1468 -0.1992
  858MPD2     C12594   4.431   3.826  16.239  0.3730 -0.9800  0.1895
  858MPD2    C112595   4.412   3.722  16.322 -0.0435 -0.2852 -1.2026
  858MPD2    C212596   4.337   3.733  16.434 -0.3317 -0.6442 -0.0442
  858MPD2    C312597   4.302   3.858  16.477  0.7330 -0.0313 -0.4152
  858MPD2    C412598   4.313   3.964  16.382 -0.9253 -0.0518 -0.2448
  858MPD2    C512599   4.378   3.952  16.267 -0.3453 -0.5645 -0.3577
  858MPD2     H12600   4.310   3.651  16.499  0.4957 -0.7799  0.1211
  858MPD2    H112601   4.255   4.054  16.401  0.0987  0.1210  2.0044
  858MPD2    H212602   4.476   3.805  16.143  0.5199 -0.7355  0.2023
  858MPD2    H312603   4.387   4.037  16.200 -0.6028  0.2908  0.6919
  858MPD2     N12604   4.254   3.888  16.612  0.2511  0.3729  0.0442
  858MPD2    H512605   4.235   3.986  16.633 -0.3901  0.1665  0.4118
  858MPD2    N112606   4.479   3.603  16.288  0.4341  0.1633  0.4037
  858MPD2    H712607   4.553   3.606  16.217 -1.1938  0.3868 -1.2880
  859MPD2     C12608   2.567   0.375  15.205 -0.2170 -0.1063 -0.4018
  859MPD2    C112609   2.682   0.417  15.141  0.1185 -0.4826  0.1960
  859MPD2    C212610   2.774   0.325  15.091 -0.2619 -0.2264 -0.2297
  859MPD2    C312611   2.754   0.192  15.113 -0.1934  0.2641  0.2826
  859MPD2    C412612   2.631   0.152  15.180  0.1698  0.1480 -0.1106
  859MPD2    C512613   2.539   0.242  15.221 -0.5499 -0.0120 -0.6296
  859MPD2     H12614   2.854   0.362  15.028 -0.0241  1.6379  1.1646
  859MPD2    H112615   2.614   0.047  15.201 -1.0072  0.5952  1.1315
  859MPD2    H212616   2.490   0.449  15.224 -0.4219 -0.6899  1.0594
  859MPD2    H312617   2.455   0.208  15.280  0.0744 -1.3882 -0.5373
  859MPD2     N12618   2.837   0.080  15.072  0.8000 -0.6400 -0.0877
  859MPD2    H512619   2.802   4.713  15.097  2.1307 -1.1685 -0.1485
  859MPD2    N112620   2.695   0.555  15.127  0.2299 -0.0430 -0.1058
  859MPD2    H712621   2.616   0.619  15.138  1.1368  1.2934 -1.3277
  860MPD2     C12622   0.677   1.267  11.415  0.0435 -0.3721  0.3108
  860MPD2    C112623   0.644   1.348  11.516 -0.7199  0.6342  0.5307
  860MPD2    C212624   0.532   1.434  11.504 -0.0505  1.1447 -0.4781
  860MPD2    C312625   0.444   1.413  11.396  0.3010  1.0125  0.0520
  860MPD2    C412626   0.478   1.318  11.306 -0.0095 -0.3362 -0.1572
  860MPD2    C512627   0.599   1.248  11.307 -0.4701  0.1530 -0.2000
  860MPD2     H12628   0.515   1.502  11.586 -1.0985  0.6519 -0.2892
  860MPD2    H112629   0.413   1.299  11.221  1.9173 -3.8384 -0.8570
  860MPD2    H212630   0.764   1.203  11.414  1.1776  1.2495 -1.6388
  860MPD2    H312631   0.617   1.182  11.223 -1.2342  0.1956 -0.4027
  860MPD2     N12632   0.326   1.489  11.389  0.0213 -0.4799  0.2333
  860MPD2    H512633   0.318   1.563  11.458 -0.5561 -0.5694  0.2579
  860MPD2    N112634   0.727   1.375  11.628 -0.0645  0.5713  0.2903
  860MPD2    H712635   0.698   1.450  11.691  1.1782  0.0692  1.4655
  861MPD2     C12636   3.922   4.148  10.961  0.4188  0.2844  1.2816
  861MPD2    C112637   3.988   4.258  11.009 -0.0471  0.4111  0.0842
  861MPD2    C212638   3.973   4.383  10.953  0.1292 -0.2572  0.0999
  861MPD2    C312639   3.892   4.405  10.842 -0.4916 -0.3504 -0.0140
  861MPD2    C412640   3.831   4.290  10.796  0.5522 -0.0372  0.3619
  861MPD2    C512641   3.853   4.163  10.840 -0.0185  1.1961 -0.1676
  861MPD2     H12642   4.017   4.475  10.991 -0.9611  1.3591 -2.5360
  861MPD2    H112643   3.756   4.300  10.718  0.3639  3.2725  0.9292
  861MPD2    H212644   3.921   4.050  11.008  1.7407 -0.0185  0.7099
  861MPD2    H312645   3.797   4.079  10.801  0.5069  0.9484 -0.3884
  861MPD2     N12646   3.854   4.534  10.801  0.5281 -0.3956  0.0835
  861MPD2    H512647   3.799   4.544  10.716 -2.7811  3.2891  2.6770
  861MPD2    N112648   4.061   4.250  11.129  0.0044 -0.1258  1.0064
  861MPD2    H712649   4.105   4.331  11.171 -1.8566  1.0216  0.7076
  862MPD2     C12650   3.680   0.221  10.233  0.1589 -0.3923 -0.4447
  862MPD2    C112651   3.738   0.108  10.288  0.4924  0.9079  0.1887
  862MPD2    C212652   3.737   4.717  10.214 -0.3997  0.5907 -0.6212
  862MPD2    C312653   3.687   4.704  10.083 -0.2507 -0.2444 -0.6982
  862MPD2    C412654   3.624   0.090  10.035 -0.4059 -0.6110  0.2374
  862MPD2    C512655   3.622   0.210  10.109 -0.1185 -1.4409 -0.3513
  862MPD2     H12656   3.779   4.633  10.268  0.1628  2.0628  1.2313
  862MPD2    H112657   3.566   0.099   9.944 -0.2999  0.3697  0.2680
  862MPD2    H212658   3.673   0.315  10.287  0.7522 -1.0534  0.7828
  862MPD2    H312659   3.581   0.303  10.073  1.3377 -0.2530  1.0978
  862MPD2     N12660   3.716   4.592   9.995 -0.3515  0.4521 -0.2852
  862MPD2    H512661   3.677   4.603   9.901 -1.2310  1.8188  0.2371
  862MPD2    N112662   3.800   0.117  10.414  0.0830 -0.3372 -0.8216
  862MPD2    H712663   3.839   0.031  10.451 -0.0230 -0.5106 -1.1193
  863MPD2     C12664   2.488   2.376  16.620 -0.2733  0.2284 -0.2535
  863MPD2    C112665   2.548   2.503  16.606 -0.3591 -0.2466  0.0900
  863MPD2    C212666   2.625   2.552  16.712  0.1129  0.3823 -0.7816
  863MPD2    C312667   2.636   2.477  16.827 -0.2632 -1.1272 -1.2323
  863MPD2    C412668   2.561   2.360  16.844 -0.3866 -0.2387  0.0822
  863MPD2    C512669   2.482   2.318  16.740  0.0822  0.0153 -0.0725
  863MPD2     H12670   2.675   2.645  16.692  0.3765  0.4315  0.1199
  863MPD2    H112671   2.547   2.308  16.938 -2.0376 -0.2831 -0.1807
  863MPD2    H212672   2.426   2.340  16.538 -2.9090  1.7439  1.0589
  863MPD2    H312673   2.421   2.228  16.745 -0.5097  0.3525 -1.3682
  863MPD2     N12674   2.717   2.511  16.939  0.8280  0.2527  0.1539
  863MPD2    H512675   2.736   2.443  17.012  0.3271 -1.0110 -0.8952
  863MPD2    N112676   2.529   2.580  16.485  0.5244 -0.7620 -0.6240
  863MPD2    H712677   2.554   2.679  16.490 -3.1145  0.1034  0.0989
  864MPD2     C12678   2.902   3.973  16.574 -0.3900  0.0501 -0.1165
  864MPD2    C112679   2.990   3.975  16.679  0.0019  0.5916  0.3221
  864MPD2    C212680   3.065   4.087  16.696 -0.1860  0.4694  0.3634
  864MPD2    C312681   3.059   4.189  16.598 -0.4241  0.5618  1.5122
  864MPD2    C412682   2.965   4.186  16.494 -0.4857 -0.4906 -0.0411
  864MPD2    C512683   2.881   4.077  16.487 -0.5658  0.3712 -0.4355
  864MPD2     H12684   3.130   4.095  16.782 -0.3957  0.3819  0.5290
  864MPD2    H112685   2.943   4.270  16.428  0.8309  0.7880  1.1575
  864MPD2    H212686   2.848   3.885  16.541 -1.5996  0.4174  0.9181
  864MPD2    H312687   2.826   4.063  16.394 -1.2816 -1.5736  0.2740
  864MPD2     N12688   3.150   4.300  16.590 -0.4549 -0.5983 -0.1311
  864MPD2    H512689   3.125   4.371  16.523  0.8171  0.0367  0.0847
  864MPD2    N112690   3.007   3.859  16.757 -0.2894  0.3043 -0.3404
  864MPD2    H712691   2.962   3.772  16.729  0.7024 -0.3606  0.1480
  865MPD2     C12692   3.296   4.166  15.845 -0.6673  0.6020  0.4756
  865MPD2    C112693   3.332   4.065  15.928  0.0074 -0.9175 -0.0210
  865MPD2    C212694   3.376   4.106  16.053 -0.0927 -0.1098 -0.4227
  865MPD2    C312695   3.377   4.245  16.087 -0.4971  0.5263 -0.6190
  865MPD2    C412696   3.329   4.335  16.004  0.9563  0.9802  0.0148
  865MPD2    C512697   3.293   4.298  15.879  0.3069 -0.3264 -0.6408
  865MPD2     H12698   3.398   4.038  16.135  1.1767  0.9346  0.1126
  865MPD2    H112699   3.320   4.441  16.026 -2.3060  1.2039 -2.3487
  865MPD2    H212700   3.257   4.141  15.746  0.3272  1.7328 -0.1932
  865MPD2    H312701   3.255   4.371  15.809  0.1626 -3.3851 -3.7517
  865MPD2     N12702   3.412   4.292  16.209 -0.0122  0.1878 -0.3412
  865MPD2    H512703   3.402   4.392  16.226  0.4212  0.1494  0.1445
  865MPD2    N112704   3.337   3.930  15.883  0.1846 -0.2332 -0.3577
  865MPD2    H712705   3.314   3.921  15.784 -1.4367  1.6053 -0.1656
  866MPD2     C12706   0.182   0.210  11.633 -0.3794  0.0495 -0.7557
  866MPD2    C112707   0.179   0.154  11.504 -0.4251 -0.8435 -0.1523
  866MPD2    C212708   0.055   0.145  11.438  0.4553 -0.8724  0.0891
  866MPD2    C312709   4.664   0.178  11.507 -0.4168  0.1827 -0.8780
  866MPD2    C412710   4.664   0.220  11.636 -0.1158 -0.2877  0.8548
  866MPD2    C512711   0.059   0.235  11.698  1.0517  0.2898  0.2192
  866MPD2     H12712   0.058   0.093  11.343  1.6140 -2.6918  1.1137
  866MPD2    H112713   4.575   0.251  11.689 -1.6951 -0.3056 -1.7690
  866MPD2    H212714   0.270   0.214  11.696 -1.0335  1.2019  0.0947
  866MPD2    H312715   0.061   0.266  11.802  0.6218 -2.2911  0.9900
  866MPD2     N12716   4.540   0.179  11.443  0.0896 -0.2005 -0.4333
  866MPD2    H512717   4.456   0.162  11.497  0.5790  3.6004  1.5190
  866MPD2    N112718   0.309   0.111  11.454 -0.3353 -0.0281  0.1465
  866MPD2    H712719   0.391   0.119  11.513 -1.8447  3.1949  1.8541
  867MPD2     C12720   2.055   3.824  16.540  0.3325 -0.0440  0.0437
  867MPD2    C112721   2.159   3.819  16.632 -0.4810 -0.7026  0.1843
  867MPD2    C212722   2.175   3.914  16.729  0.9169  0.4092  0.3655
  867MPD2    C312723   2.107   4.029  16.714 -0.0437 -0.2567 -0.1409
  867MPD2    C412724   2.003   4.033  16.621 -0.9228 -0.6327 -0.6225
  867MPD2    C512725   1.984   3.936  16.536 -0.0699  0.0381  0.2742
  867MPD2     H12726   2.253   3.907  16.804  0.4654  0.6522  0.8554
  867MPD2    H112727   1.952   4.128  16.610 -0.4180 -0.0783  1.9258
  867MPD2    H212728   2.043   3.744  16.468  0.5510 -0.0451  0.0084
  867MPD2    H312729   1.903   3.934  16.464 -0.5415 -0.5103  0.8218
  867MPD2     N12730   2.134   4.145  16.795 -0.0699 -0.0399  0.3488
  867MPD2    H512731   2.095   4.236  16.771  0.9492  0.3572  0.2051
  867MPD2    N112732   2.238   3.702  16.624 -0.2190 -0.4913 -0.2504
  867MPD2    H712733   2.201   3.629  16.564 -0.7743 -1.4076  1.2263
  868MPD2     C12734   3.575   2.445  12.570 -0.5654  0.4602 -0.7285
  868MPD2    C112735   3.676   2.497  12.646  0.1167  0.0443 -0.1015
  868MPD2    C212736   3.646   2.539  12.774  0.0754  0.3046  0.0323
  868MPD2    C312737   3.520   2.557  12.821 -0.7775  0.0204 -0.3305
  868MPD2    C412738   3.420   2.515  12.744 -0.3871 -0.8483 -0.2324
  868MPD2    C512739   3.446   2.454  12.621 -0.3438 -0.4542 -0.5965
  868MPD2     H12740   3.731   2.573  12.832  1.3076 -2.2547 -0.2890
  868MPD2    H112741   3.318   2.517  12.779 -0.0352  0.7757  0.6713
  868MPD2    H212742   3.584   2.397  12.474  0.2299  0.5260 -0.6851
  868MPD2    H312743   3.360   2.432  12.559 -0.1826  0.0259 -0.9880
  868MPD2     N12744   3.503   2.621  12.947  0.6144  0.0776 -0.2469
  868MPD2    H512745   3.587   2.644  12.999  1.2562  0.5166 -1.4587
  868MPD2    N112746   3.815   2.485  12.615 -0.0896  0.3763  0.3449
  868MPD2    H712747   3.876   2.548  12.667 -1.6220  0.7562  1.7170
  869MPD2     C12748   0.554   0.833   1.458  0.2233  0.5076  0.2833
  869MPD2    C112749   0.424   0.775   1.470 -0.1655 -0.1177 -0.0982
  869MPD2    C212750   0.322   0.827   1.394 -0.1324  0.1246 -0.0810
  869MPD2    C312751   0.350   0.926   1.297  0.3167  0.5162  0.2968
  869MPD2    C412752   0.484   0.970   1.279 -0.4123  0.0948  0.1327
  869MPD2    C512753   0.581   0.924   1.356 -0.3328 -0.3013 -1.1704
  869MPD2     H12754   0.223   0.783   1.392  0.7721 -1.9024  0.0689
  869MPD2    H112755   0.516   1.033   1.197 -0.7508  1.9360  1.4014
  869MPD2    H212756   0.635   0.792   1.517 -0.4317  3.4578  3.2201
  869MPD2    H312757   0.685   0.947   1.335  0.1643 -0.3752  1.2215
  869MPD2     N12758   0.245   0.972   1.205 -0.7545 -0.0195 -0.0470
  869MPD2    H512759   0.276   1.048   1.145  0.5996  2.1194  3.3579
  869MPD2    N112760   0.405   0.674   1.569  0.4002  0.6068  0.1542
  869MPD2    H712761   0.487   0.644   1.621  1.0512  0.6492 -0.8468
  870MPD2     C12762   4.187   4.709   1.405 -0.0284 -0.6221  0.7935
  870MPD2    C112763   4.301   0.057   1.373 -0.0591  0.5361 -0.7313
  870MPD2    C212764   4.296   0.161   1.281  0.3794  0.2525  0.4978
  870MPD2    C312765   4.177   0.195   1.218  0.4960  0.2693  0.2169
  870MPD2    C412766   4.063   0.120   1.246  0.0860 -0.5578 -0.5460
  870MPD2    C512767   4.071   0.015   1.333 -0.0295  0.0245  0.3175
  870MPD2     H12768   4.385   0.214   1.250  0.5504 -2.2889 -3.3104
  870MPD2    H112769   3.964   0.130   1.202  0.0497 -0.0305 -0.3451
  870MPD2    H212770   4.184   4.624   1.471  0.2202 -0.6856  0.7232
  870MPD2    H312771   3.988   4.676   1.363 -0.7348  1.3163  1.0814
  870MPD2     N12772   4.189   0.297   1.119 -0.9605  0.4695 -0.2714
  870MPD2    H512773   4.278   0.340   1.095 -0.8245  0.0571 -0.5212
  870MPD2    N112774   4.417   0.019   1.439  0.1432 -0.8566 -0.0482
  870MPD2    H712775   4.394   4.668   1.502 -0.0429 -1.5493 -0.9496
  871MPD2     C12776   0.738   4.035  16.155 -0.2066 -0.6126  0.0408
  871MPD2    C112777   0.787   3.974  16.269 -0.7116 -0.1948  0.7116
  871MPD2    C212778   0.875   3.869  16.247 -0.0713  0.1953 -0.2282
  871MPD2    C312779   0.903   3.819  16.122  0.4986  0.3777 -0.5816
  871MPD2    C412780   0.837   3.868  16.015 -0.3710  1.2053  0.2997
  871MPD2    C512781   0.770   3.982  16.031  1.0945 -0.2546 -0.5495
  871MPD2     H12782   0.918   3.816  16.331  0.5581  2.7283  1.0739
  871MPD2    H112783   0.844   3.848  15.909  1.3561  3.2712  0.0245
  871MPD2    H212784   0.685   4.129  16.170 -2.7224 -1.8379 -1.2019
  871MPD2    H312785   0.726   4.019  15.940  1.7559  2.0037  0.0506
  871MPD2     N12786   0.997   3.720  16.108  0.0161  0.4903 -0.2526
  871MPD2    H512787   1.038   3.679  16.192 -2.6503 -0.6789  0.4926
  871MPD2    N112788   0.769   4.040  16.392  0.5770  0.2055  0.1874
  871MPD2    H712789   0.702   4.117  16.386  0.4277  0.0129 -0.6113
  872MPD2     C12790   1.631   2.269  13.470  0.1431 -0.0200  0.3891
  872MPD2    C112791   1.716   2.172  13.522  0.6588 -0.2897  0.4449
  872MPD2    C212792   1.669   2.093  13.632  0.8635 -0.8596  0.4033
  872MPD2    C312793   1.546   2.133  13.695  0.7726  0.6512  0.0875
  872MPD2    C412794   1.470   2.230  13.633 -0.0988 -0.0112  0.3420
  872MPD2    C512795   1.509   2.295  13.522 -0.0477 -0.0248  0.3260
  872MPD2     H12796   1.723   2.003  13.658 -0.6090 -1.7517  0.3513
  872MPD2    H112797   1.373   2.257  13.671 -0.5110 -2.7694  1.2234
  872MPD2    H212798   1.649   2.330  13.383  0.8417  2.6511  2.3973
  872MPD2    H312799   1.450   2.375  13.478  0.0838 -0.7297 -1.1420
  872MPD2     N12800   1.482   2.066  13.800  0.0367 -0.5491  0.2992
  872MPD2    H512801   1.387   2.094  13.821 -0.3924 -2.0372  0.3159
  872MPD2    N112802   1.838   2.150  13.449 -0.2940 -0.0812  0.5031
  872MPD2    H712803   1.865   2.208  13.370  1.3040 -1.0704  0.3384
  873MPD2     C12804   4.058   1.599   0.670 -0.0337  0.0291 -0.7500
  873MPD2    C112805   3.925   1.558   0.685  0.0765 -0.1264  0.4604
  873MPD2    C212806   3.884   1.435   0.637 -0.5512  0.1232 -0.2642
  873MPD2    C312807   3.975   1.353   0.568  0.1336 -0.1072 -0.0051
  873MPD2    C412808   4.100   1.403   0.544  0.2401  0.9236  0.7503
  873MPD2    C512809   4.148   1.516   0.608  0.2908  0.5338 -0.6559
  873MPD2     H12810   3.784   1.397   0.648 -1.6699  2.7165 -1.5363
  873MPD2    H112811   4.169   1.341   0.486  1.8699  1.3574  2.2247
  873MPD2    H212812   4.089   1.698   0.698 -1.5872  0.1474  0.5447
  873MPD2    H312813   4.249   1.555   0.603  0.9147 -0.6535  2.3920
  873MPD2     N12814   3.947   1.222   0.529  0.2542  0.1953 -0.5087
  873MPD2    H512815   4.014   1.172   0.471  1.9548  0.0696  1.5936
  873MPD2    N112816   3.842   1.654   0.742 -0.3029 -0.0125  0.2597
  873MPD2    H712817   3.897   1.739   0.751  1.3330 -0.7772 -2.6398
  874MPD2     C12818   3.424   1.893  15.908 -0.4290 -0.0349  0.6632
  874MPD2    C112819   3.541   1.823  15.901  0.7267  0.5448  0.6330
  874MPD2    C212820   3.655   1.886  15.939  0.3600  0.2728 -0.5379
  874MPD2    C312821   3.655   2.016  15.979  0.4813 -0.1403 -0.1925
  874MPD2    C412822   3.544   2.090  15.965 -0.3994  0.3074  0.2139
  874MPD2    C512823   3.427   2.028  15.936 -0.7505 -0.1711 -0.2005
  874MPD2     H12824   3.747   1.829  15.941  0.7209  0.9756  2.7975
  874MPD2    H112825   3.548   2.196  15.984  1.0754  0.2501  0.2663
  874MPD2    H212826   3.325   1.853  15.887 -0.6417  1.0308 -0.3648
  874MPD2    H312827   3.330   2.076  15.923 -0.7143 -0.0026  0.1625
  874MPD2     N12828   3.772   2.087  16.025 -0.8760  0.2831  0.2786
  874MPD2    H512829   3.762   2.187  16.045 -0.2996  0.2971  0.5148
  874MPD2    N112830   3.546   1.681  15.887  0.1378  0.1941 -0.2980
  874MPD2    H712831   3.635   1.640  15.911 -1.7272 -3.7366 -0.0134
  875MPD2     C12832   4.681   4.631  14.408 -0.5682 -0.1350 -0.0850
  875MPD2    C112833   4.555   4.682  14.395 -0.1666  1.1835  0.4412
  875MPD2    C212834   4.510   0.044  14.494 -0.3752 -0.0654  0.9122
  875MPD2    C312835   4.581   0.067  14.609 -0.2316 -0.4220  0.5424
  875MPD2    C412836   4.695   4.717  14.633  0.2138 -0.3820 -0.8924
  875MPD2    C512837   0.021   4.645  14.530 -0.6458  0.5453 -0.1857
  875MPD2     H12838   4.410   0.086  14.495 -0.9116 -1.3064 -0.4906
  875MPD2    H112839   0.048   0.014  14.707 -1.0224  1.7438 -0.2033
  875MPD2    H212840   0.009   4.574  14.332  1.5638  2.2460 -0.4137
  875MPD2    H312841   0.122   4.605  14.534 -1.2167 -0.5904  2.2560
  875MPD2     N12842   4.523   0.157  14.696 -0.4523  0.2214 -0.2544
  875MPD2    H512843   4.439   0.210  14.672 -0.3304  0.9211  0.8796
  875MPD2    N112844   4.470   4.669  14.283  0.2479  0.2957  0.2709
  875MPD2    H712845   4.381   4.717  14.276 -0.2444 -1.1570 -3.6432
  876MPD2     C12846   3.803   1.350  15.905  0.0106  0.2132 -0.3426
  876MPD2    C112847   3.751   1.273  15.801  0.5436 -0.4808 -0.1665
  876MPD2    C212848   3.693   1.152  15.829  0.0884 -0.0900 -0.4065
  876MPD2    C312849   3.711   1.098  15.961  0.4128  0.4912  0.0232
  876MPD2    C412850   3.789   1.171  16.053 -0.1052 -0.6330  0.0589
  876MPD2    C512851   3.820   1.304  16.032  0.8072  0.3300 -0.3490
  876MPD2     H12852   3.643   1.095  15.752 -1.5376 -2.4026  2.3393
  876MPD2    H112853   3.819   1.118  16.143 -0.9398  0.5967  1.0562
  876MPD2    H212854   3.842   1.450  15.884 -0.7248  0.0540 -2.4325
  876MPD2    H312855   3.867   1.364  16.109 -1.6048 -0.7517  1.9554
  876MPD2     N12856   3.655   0.975  15.990  0.3402  0.0767  0.1880
  876MPD2    H512857   3.602   0.936  15.913  0.0899 -0.3728  0.5848
  876MPD2    N112858   3.729   1.338  15.677 -0.0276  0.2808  0.3254
  876MPD2    H712859   3.738   1.438  15.685 -0.6512  0.3523  0.1336
  877MPD2     C12860   3.848   1.828  15.032 -0.0263  0.4497 -0.4832
  877MPD2    C112861   3.773   1.718  15.010  0.0049 -0.0429 -0.2682
  877MPD2    C212862   3.714   1.704  14.885 -0.0228  0.8646  0.0139
  877MPD2    C312863   3.740   1.795  14.789 -0.0123 -0.0548 -0.1879
  877MPD2    C412864   3.817   1.903  14.809 -0.3334  0.1991 -0.0850
  877MPD2    C512865   3.864   1.925  14.938  0.3022  0.1407 -0.5130
  877MPD2     H12866   3.654   1.614  14.875  0.9304 -0.1576  3.7330
  877MPD2    H112867   3.849   1.973  14.733 -3.9283  0.8552 -0.9904
  877MPD2    H212868   3.895   1.843  15.128 -0.7272  0.7655 -0.1961
  877MPD2    H312869   3.917   2.015  14.968  0.5998 -0.6837  1.4067
  877MPD2     N12870   3.707   1.763  14.650  0.3023 -0.6144  0.2243
  877MPD2    H512871   3.709   1.846  14.592 -0.3056 -0.6463  0.1606
  877MPD2    N112872   3.743   1.616  15.102 -0.7364  0.6785 -0.0546
  877MPD2    H712873   3.694   1.538  15.060  2.6326 -0.3890 -2.0649
  878MPD2     C12874   3.684   1.229  12.613  0.3367  0.2208  0.5940
  878MPD2    C112875   3.653   1.346  12.685 -0.7590 -0.1124  0.8550
  878MPD2    C212876   3.651   1.338  12.821 -0.2494  0.4357 -0.0157
  878MPD2    C312877   3.691   1.219  12.885  0.5592  0.4376 -0.4445
  878MPD2    C412878   3.731   1.105  12.809  0.1804 -0.2983  0.4543
  878MPD2    C512879   3.729   1.113  12.675  0.0650  0.2857 -0.4592
  878MPD2     H12880   3.609   1.417  12.881 -2.7942 -1.3188  0.5135
  878MPD2    H112881   3.776   1.013  12.845  1.1006  0.2531  0.7102
  878MPD2    H212882   3.700   1.229  12.505 -2.2085  1.5512  0.2310
  878MPD2    H312883   3.778   1.029  12.628 -0.5464  1.2003 -2.7534
  878MPD2     N12884   3.662   1.210  13.027 -0.2402 -0.0251 -0.3108
  878MPD2    H512885   3.644   1.303  13.063  0.6828  0.6536 -1.6189
  878MPD2    N112886   3.603   1.445  12.609 -0.4652 -1.3380 -0.3240
  878MPD2    H712887   3.591   1.424  12.510 -0.5526  1.4481 -0.9066
  879MPD2     C12888   3.253   2.863  16.777  0.7257 -0.1790 -0.1013
  879MPD2    C112889   3.263   2.733  16.809  0.2149  0.3038  0.3732
  879MPD2    C212890   3.161   2.645  16.757 -0.0037 -0.5712 -0.4095
  879MPD2    C312891   3.070   2.695  16.667  0.1522 -0.8807  0.4823
  879MPD2    C412892   3.067   2.825  16.639 -0.1862 -0.5218 -0.1170
  879MPD2    C512893   3.162   2.911  16.693  0.1364  0.6245 -0.2569
  879MPD2     H12894   3.172   2.539  16.773  2.6371 -0.4035 -1.0924
  879MPD2    H112895   3.000   2.855  16.559 -0.4368 -2.3055 -0.5758
  879MPD2    H212896   3.327   2.935  16.808  1.5837 -1.5218  0.9458
  879MPD2    H312897   3.150   3.019  16.686  0.4848  0.6885  0.1320
  879MPD2     N12898   2.982   2.613  16.588  0.2061 -0.2620 -0.5093
  879MPD2    H512899   2.914   2.666  16.535  1.3331  0.1975 -1.4901
  879MPD2    N112900   3.378   2.688  16.878 -0.1355 -0.3142 -0.3743
  879MPD2    H712901   3.446   2.750  16.922 -0.9906  0.5134 -0.2011
  880MPD2     C12902   4.674   4.624   0.435 -0.1691  0.6763  0.3849
  880MPD2    C112903   0.089   4.616   0.447 -1.2588  0.0604  0.6150
  880MPD2    C212904   0.145   4.488   0.460 -0.4342  0.3139 -0.0873
  880MPD2    C312905   0.068   4.370   0.450  0.5535 -0.0928  0.1890
  880MPD2    C412906   4.652   4.380   0.461 -0.2454  0.8800  0.8856
  880MPD2    C512907   4.601   4.507   0.456 -0.3722  0.7145 -0.0735
  880MPD2     H12908   0.252   4.487   0.471 -0.5228  0.0140  0.7202
  880MPD2    H112909   4.591   4.293   0.479 -0.4177  1.0887  1.3151
  880MPD2    H212910   4.630   4.722   0.415 -0.0814  0.0358 -3.0548
  880MPD2    H312911   4.493   4.510   0.449 -0.3701 -0.6812 -0.8789
  880MPD2     N12912   0.131   4.250   0.451  0.4274 -0.1345  1.0075
  880MPD2    H512913   0.228   4.265   0.477  0.9321 -0.0411 -0.9255
  880MPD2    N112914   0.166   0.008   0.438  0.1548 -0.2916 -0.1452
  880MPD2    H712915   0.125   0.100   0.423 -0.4985 -0.1102  2.8132
  881MPD2     C12916   0.680   0.567  17.453  0.3713 -0.4320 -0.9516
  881MPD2    C112917   0.636   0.439  17.459  0.9766  0.3350  0.4714
  881MPD2    C212918   0.566   0.404  17.569 -0.3002 -0.1221 -1.2292
  881MPD2    C312919   0.524   0.493  17.669 -0.4927 -1.0708  0.0347
  881MPD2    C412920   0.571   0.626  17.660  0.3239  0.3751 -0.6247
  881MPD2    C512921   0.643   0.666  17.547 -0.1122 -0.5251  1.3996
  881MPD2     H12922   0.550   0.297  17.577 -2.2906  0.0073 -3.5642
  881MPD2    H112923   0.545   0.698   0.039  1.3961  1.2234 -1.0630
  881MPD2    H212924   0.733   0.602  17.365  1.8641  0.4320  0.2854
  881MPD2    H312925   0.676   0.769  17.542  1.2701 -1.1334 -1.8190
  881MPD2     N12926   0.459   0.456   0.087  0.0926 -0.0408  0.1212
  881MPD2    H512927   0.419   0.532   0.142 -0.5809  0.2987 -0.8480
  881MPD2    N112928   0.615   0.385  17.329 -0.7345  0.3385 -0.1509
  881MPD2    H712929   0.640   0.440  17.247  3.1826 -2.0374 -0.5427
  882MPD2     C12930   3.251   2.082  14.312 -0.8411 -0.3732 -0.4005
  882MPD2    C112931   3.236   1.948  14.300  0.1318  0.7418 -0.3434
  882MPD2    C212932   3.107   1.894  14.275 -0.9290 -0.3212  0.4810
  882MPD2    C312933   2.999   1.977  14.288  0.3424  0.2179  0.4210
  882MPD2    C412934   3.023   2.114  14.315 -1.2512 -0.3194 -0.6893
  882MPD2    C512935   3.149   2.170  14.316  0.0086 -0.3575  0.1007
  882MPD2     H12936   3.092   1.786  14.269  0.6765 -0.4251 -1.5400
  882MPD2    H112937   2.945   2.184  14.340  0.1202  1.1727 -0.6489
  882MPD2    H212938   3.352   2.121  14.318 -1.1596  0.8012 -2.6107
  882MPD2    H312939   3.160   2.277  14.334 -1.3431 -0.4041  1.2132
  882MPD2     N12940   2.866   1.928  14.271 -0.0765 -0.4688  0.0941
  882MPD2    H512941   2.790   1.988  14.300 -0.8328 -1.0327 -0.7125
  882MPD2    N112942   3.352   1.866  14.294  0.0428  0.3015 -0.3644
  882MPD2    H712943   3.441   1.916  14.293  1.1182 -1.5663  1.3639
  883MPD2     C12944   0.697   1.853  16.487 -0.4579  0.1616  0.2327
  883MPD2    C112945   0.757   1.897  16.369 -0.5396  0.2104  0.0093
  883MPD2    C212946   0.876   1.969  16.383 -0.1757 -0.7801  0.0567
  883MPD2    C312947   0.940   1.984  16.499 -0.0722  0.1627 -0.1476
  883MPD2    C412948   0.885   1.931  16.612 -0.5690 -0.3598 -0.3890
  883MPD2    C512949   0.761   1.877  16.613 -0.0931  0.0947  0.8064
  883MPD2     H12950   0.929   2.005  16.295 -1.3160  2.5986  0.7848
  883MPD2    H112951   0.940   1.948  16.704 -1.1768  2.3935 -0.5408
  883MPD2    H212952   0.605   1.796  16.490  0.2003 -0.8097  2.0485
  883MPD2    H312953   0.718   1.835  16.702 -0.5341  0.9939  1.0171
  883MPD2     N12954   1.067   2.046  16.497 -0.3714  0.4604 -0.6113
  883MPD2    H512955   1.102   2.093  16.414 -1.9040 -1.8650 -2.5516
  883MPD2    N112956   0.704   1.881  16.237 -0.1840  0.6511  0.6440
  883MPD2    H712957   0.763   1.920  16.165  0.2644 -0.8076  0.2283
  884MPD2     C12958   1.957   1.925  15.253 -0.6962  0.0973  0.2693
  884MPD2    C112959   2.005   1.997  15.145 -0.8522 -0.3832  0.3126
  884MPD2    C212960   1.953   2.122  15.124 -0.6010  0.7332 -0.1703
  884MPD2    C312961   1.854   2.174  15.202  0.3973  0.2956  0.1526
  884MPD2    C412962   1.794   2.098  15.298  0.3386 -0.6465 -0.1976
  884MPD2    C512963   1.853   1.974  15.327 -0.6445  0.2493  0.0287
  884MPD2     H12964   1.995   2.180  15.042 -0.2139  1.3294  0.4532
  884MPD2    H112965   1.726   2.137  15.373  0.2089  1.0621 -1.2157
  884MPD2    H212966   2.007   1.836  15.292 -2.1789 -1.8679 -2.3183
  884MPD2    H312967   1.814   1.913  15.407 -1.0251  2.9585  1.9068
  884MPD2     N12968   1.801   2.301  15.190 -0.3293  0.0684 -0.1730
  884MPD2    H512969   1.716   2.311  15.245  0.7620  1.3868  1.2406
  884MPD2    N112970   2.113   1.946  15.069 -0.2349 -0.1184  0.3751
  884MPD2    H712971   2.131   1.996  14.983 -0.0585 -0.2757  0.3202
  885MPD2     C12972   0.842   2.747   0.274 -0.0455  0.1328 -0.3057
  885MPD2    C112973   0.963   2.770   0.217 -0.4212 -0.0977 -0.8383
  885MPD2    C212974   0.973   2.806   0.087  0.0502 -0.4112  0.0067
  885MPD2    C312975   0.865   2.805   0.002  0.1424  0.1500  0.2427
  885MPD2    C412976   0.741   2.784   0.058 -0.2105 -0.3760  0.2402
  885MPD2    C512977   0.728   2.758   0.194 -0.4816 -0.4328 -0.4503
  885MPD2     H12978   1.072   2.830   0.049 -0.5322  1.7321 -0.1225
  885MPD2    H112979   0.656   2.775  17.690 -1.5550 -0.3077  1.9772
  885MPD2    H212980   0.826   2.722   0.378 -1.1960  1.3041 -0.1956
  885MPD2    H312981   0.629   2.734   0.231 -0.6652  0.5168 -0.3131
  885MPD2     N12982   0.893   2.820  17.566  0.2160  0.1037  0.1627
  885MPD2    H512983   0.989   2.818  17.533  0.1176  0.4511 -0.1482
  885MPD2    N112984   1.071   2.756   0.306 -0.3716  0.7805 -0.1291
  885MPD2    H712985   1.051   2.715   0.396  0.1070  0.6878 -0.0628
  886MPD2     C12986   1.868   1.135  15.558 -0.0246 -0.0710  0.5131
  886MPD2    C112987   1.902   1.103  15.424 -0.6283  0.3303 -0.3751
  886MPD2    C212988   1.891   1.199  15.323 -0.3339  0.7067 -0.3314
  886MPD2    C312989   1.844   1.324  15.352 -0.7345  0.8218 -0.3036
  886MPD2    C412990   1.805   1.360  15.479 -0.2467  0.1950  0.1324
  886MPD2    C512991   1.814   1.264  15.582 -0.0732 -0.0948 -0.2825
  886MPD2     H12992   1.938   1.176  15.228 -1.3775 -2.4906 -0.0864
  886MPD2    H112993   1.758   1.456  15.492 -1.4099 -0.3575  0.0009
  886MPD2    H212994   1.883   1.066  15.640 -0.1196  3.0932  3.2189
  886MPD2    H312995   1.774   1.293  15.679  1.6953  2.7461 -0.3982
  886MPD2     N12996   1.831   1.409  15.241 -0.2066  0.4331 -0.4460
  886MPD2    H512997   1.868   1.370  15.155  1.9400  2.1966 -0.3145
  886MPD2    N112998   1.972   0.982  15.397 -0.1086  0.1879  0.3182
  886MPD2    H712999   2.005   0.966  15.302  0.1630  0.1581  0.4178
  887MPD2     C13000   2.615   0.884  15.280  0.3311  0.6721  0.1649
  887MPD2    C113001   2.504   0.953  15.244 -0.4866 -0.0837 -0.2298
  887MPD2    C213002   2.511   1.092  15.239 -0.7355 -0.2114 -0.0157
  887MPD2    C313003   2.618   1.156  15.295 -0.2105 -0.2130  0.5691
  887MPD2    C413004   2.724   1.083  15.352  0.0264 -0.7768 -0.3421
  887MPD2    C513005   2.719   0.949  15.337  0.4035 -0.0337  0.3464
  887MPD2     H13006   2.424   1.153  15.222  0.4627  1.7974  1.0310
  887MPD2    H113007   2.810   1.132  15.394  0.4691 -1.3819 -0.5487
  887MPD2    H213008   2.626   0.776  15.280 -1.2090  0.5082  1.0940
  887MPD2    H313009   2.811   0.897  15.362  0.4731  0.6090  1.3931
  887MPD2     N13010   2.611   1.301  15.309 -0.5575  0.3802 -0.2042
  887MPD2    H513011   2.532   1.343  15.262 -0.8152 -0.0611 -0.1685
  887MPD2    N113012   2.387   0.894  15.193 -0.4747  0.1211 -0.0876
  887MPD2    H713013   2.316   0.962  15.165 -1.1812  0.5980  2.8561
  888MPD2     C13014   4.240   1.425  14.400 -0.4665  0.3558  0.4780
  888MPD2    C113015   4.282   1.438  14.537  0.0103  0.8119  0.0624
  888MPD2    C213016   4.335   1.557  14.583  0.1199 -0.3163 -0.5191
  888MPD2    C313017   4.364   1.665  14.506 -0.1628  0.5238 -0.0110
  888MPD2    C413018   4.336   1.646  14.368  0.0549 -0.8363 -0.4817
  888MPD2    C513019   4.282   1.528  14.318 -0.1073  0.1769  0.6465
  888MPD2     H13020   4.363   1.569  14.687  0.4501 -2.4085 -0.3689
  888MPD2    H113021   4.360   1.723  14.297  0.7589 -1.2629 -0.7091
  888MPD2    H213022   4.209   1.331  14.354  0.3452  1.4573 -2.3511
  888MPD2    H313023   4.276   1.528  14.209  1.8256  0.0160  0.5512
  888MPD2     N13024   4.425   1.776  14.559 -0.4507  0.3979  0.5156
  888MPD2    H513025   4.444   1.764  14.658  1.7437  0.1819  0.0736
  888MPD2    N113026   4.250   1.334  14.629  0.5739 -0.5434  0.4398
  888MPD2    H713027   4.292   1.339  14.721  0.1872 -1.1790  0.6486
  889MPD2     C13028   4.035   0.734  12.213  0.1478 -0.7793 -0.0033
  889MPD2    C113029   4.038   0.729  12.354  0.1655 -0.4246 -0.2538
  889MPD2    C213030   4.080   0.848  12.415  0.5418  0.5664  1.0348
  889MPD2    C313031   4.086   0.971  12.351 -0.4071 -0.1238  0.0735
  889MPD2    C413032   4.065   0.975  12.215  0.8314 -1.2332  1.0882
  889MPD2    C513033   4.053   0.852  12.151  0.1509  0.0830 -0.2327
  889MPD2     H13034   4.086   0.845  12.524  0.5708  0.2320  1.0248
  889MPD2    H113035   4.073   1.067  12.158  1.7107 -1.4888  0.7949
  889MPD2    H213036   4.033   0.639  12.160  0.4710 -0.0689 -1.2973
  889MPD2    H313037   4.044   0.845  12.043 -0.8393  0.4781 -0.1795
  889MPD2     N13038   4.099   1.086  12.430 -0.0673  0.6565  0.3557
  889MPD2    H513039   4.106   1.067  12.529  2.4446  1.5944  0.3582
  889MPD2    N113040   4.049   0.614  12.431 -0.2552  0.1996 -0.1375
  889MPD2    H713041   4.081   0.618  12.527 -1.7310 -1.5906  0.4236
  890MPD2     C13042   3.406   2.078  14.690 -1.0707  0.2856 -0.7515
  890MPD2    C113043   3.444   2.172  14.780 -0.0034 -0.6287 -1.2493
  890MPD2    C213044   3.482   2.126  14.912 -0.5690 -0.4066  0.7751
  890MPD2    C313045   3.466   1.990  14.947 -0.0136 -0.1152 -0.5783
  890MPD2    C413046   3.414   1.900  14.856 -0.0747  0.3547  0.8403
  890MPD2    C513047   3.403   1.945  14.727 -0.1550 -0.0614 -0.4495
  890MPD2     H13048   3.518   2.189  14.992 -2.5341  0.8723  0.6484
  890MPD2    H113049   3.395   1.797  14.885 -1.5663  0.3517 -0.1504
  890MPD2    H213050   3.384   2.116  14.591 -0.5188 -0.5536 -1.2017
  890MPD2    H313051   3.375   1.874  14.651  2.7010 -1.1213 -0.5268
  890MPD2     N13052   3.504   1.967  15.081 -0.0655  0.4103  0.3219
  890MPD2    H513053   3.542   2.047  15.131 -0.5126  2.0365 -1.9282
  890MPD2    N113054   3.411   2.308  14.751  0.0811  0.4262  0.1897
  890MPD2    H713055   3.359   2.321  14.665 -1.9254 -0.0870  1.3138
  891MPD2     C13056   1.571   1.389  16.215 -0.8869  0.2189 -0.1369
  891MPD2    C113057   1.481   1.386  16.321 -0.2876  0.0491  0.0852
  891MPD2    C213058   1.524   1.335  16.447  0.2748 -0.5445 -0.5333
  891MPD2    C313059   1.656   1.291  16.458 -0.0389 -0.6326  0.8383
  891MPD2    C413060   1.748   1.313  16.351  0.9514  0.6117  0.2623
  891MPD2    C513061   1.705   1.361  16.237 -0.1214  0.5200 -0.2927
  891MPD2     H13062   1.461   1.328  16.535  1.1153 -3.7264 -0.2173
  891MPD2    H113063   1.856   1.302  16.358  0.7786  0.2559  2.4138
  891MPD2    H213064   1.549   1.429  16.117  1.9096 -0.1780 -0.9341
  891MPD2    H313065   1.775   1.381  16.156  0.8515  1.2672  0.7324
  891MPD2     N13066   1.701   1.241  16.582  0.8375  0.2498 -0.5787
  891MPD2    H513067   1.639   1.264  16.658  1.0440  2.9941 -1.2352
  891MPD2    N113068   1.345   1.423  16.291 -0.2384  0.1802  0.0399
  891MPD2    H713069   1.324   1.456  16.197  1.7344 -0.2631 -0.5471
  892MPD2     C13070   2.274   2.325  14.624 -0.4576 -0.7362  0.1319
  892MPD2    C113071   2.212   2.205  14.652 -0.2589 -0.4956 -0.4582
  892MPD2    C213072   2.285   2.092  14.612  0.7770  0.0938  0.0329
  892MPD2    C313073   2.412   2.097  14.551  0.2293 -0.0428  0.7725
  892MPD2    C413074   2.463   2.221  14.517  0.2831  0.3746  0.4822
  892MPD2    C513075   2.392   2.334  14.554  0.6164 -0.0680  0.2130
  892MPD2     H13076   2.229   2.001  14.632 -2.1532  1.5893 -1.3929
  892MPD2    H113077   2.559   2.230  14.468  0.0385  0.8220  0.0939
  892MPD2    H213078   2.225   2.414  14.663 -0.8437  0.7758 -3.7202
  892MPD2    H313079   2.438   2.430  14.534 -1.8177  1.1837  0.6703
  892MPD2     N13080   2.488   1.989  14.522 -0.1470  0.2253 -0.1334
  892MPD2    H513081   2.579   2.004  14.481  1.1787 -2.7138  1.6869
  892MPD2    N113082   2.080   2.207  14.693 -0.1379  0.0545 -0.0343
  892MPD2    H713083   2.029   2.292  14.669  0.7927  0.6329  0.0485
  893MPD2     C13084   3.635   0.253   1.111  0.2399 -0.0698  0.0588
  893MPD2    C113085   3.651   0.265   1.250 -0.9317 -0.6706  0.4262
  893MPD2    C213086   3.547   0.237   1.340 -0.3162  0.1104 -0.4758
  893MPD2    C313087   3.426   0.204   1.282  0.1322 -0.2186 -0.0927
  893MPD2    C413088   3.409   0.197   1.149  0.3269 -0.1028 -0.1630
  893MPD2    C513089   3.511   0.224   1.068 -0.1263 -0.2355 -0.4540
  893MPD2     H13090   3.554   0.229   1.448 -0.3663 -0.8327 -0.5435
  893MPD2    H113091   3.314   0.171   1.104  0.8756 -2.0605 -0.1964
  893MPD2    H213092   3.712   0.262   1.036 -1.2437 -0.6460 -1.5331
  893MPD2    H313093   3.488   0.229   0.962  1.0359 -0.4879 -0.7159
  893MPD2     N13094   3.305   0.176   1.347  0.0087 -0.1499 -0.5258
  893MPD2    H513095   3.238   0.141   1.280 -0.4895  0.1079 -0.1676
  893MPD2    N113096   3.785   0.311   1.296  0.7945 -0.3872  0.4636
  893MPD2    H713097   3.854   0.315   1.222  0.7292  0.0885  0.4280
  894MPD2     C13098   1.980   3.137   1.004 -0.8778  0.1756  0.5858
  894MPD2    C113099   2.062   3.100   1.110 -1.1345  0.4347  0.4939
  894MPD2    C213100   2.196   3.075   1.081 -0.6355 -0.5166  0.2846
  894MPD2    C313101   2.249   3.082   0.947  0.5293 -0.3398  0.7549
  894MPD2    C413102   2.160   3.108   0.842  0.4567 -0.3058 -0.5050
  894MPD2    C513103   2.030   3.140   0.875 -0.4142 -0.3607 -0.0191
  894MPD2     H13104   2.264   3.058   1.164 -0.2794 -1.9508 -0.3020
  894MPD2    H113105   2.189   3.112   0.738  1.7630 -0.3061 -0.1422
  894MPD2    H213106   1.875   3.158   1.018 -1.0675 -1.9801  2.3935
  894MPD2    H313107   1.964   3.166   0.793  0.8979  1.7229 -0.4210
  894MPD2     N13108   2.383   3.049   0.928 -0.5126  0.4210 -0.4864
  894MPD2    H513109   2.437   3.044   1.013 -0.3155  0.4330 -0.6125
  894MPD2    N113110   2.016   3.092   1.250 -0.4128 -0.5531 -0.1318
  894MPD2    H713111   2.082   3.053   1.317  0.0508  0.8679  0.2406
  895MPD2     C13112   1.741   1.636  13.508 -0.1757 -0.1308  0.7279
  895MPD2    C113113   1.654   1.546  13.446 -0.6382 -0.3744 -0.1180
  895MPD2    C213114   1.691   1.414  13.434  0.0721  0.9768  0.4116
  895MPD2    C313115   1.809   1.368  13.478 -0.2216 -0.0590  0.4411
  895MPD2    C413116   1.893   1.460  13.546 -0.3491  0.0802  0.5107
  895MPD2    C513117   1.864   1.592  13.559  0.3540  0.0276 -0.6173
  895MPD2     H13118   1.629   1.355  13.367  0.5540  0.0989  0.7481
  895MPD2    H113119   1.990   1.422  13.572  0.7846  0.2613 -3.3934
  895MPD2    H213120   1.715   1.741  13.515 -0.2190 -0.0890 -0.0925
  895MPD2    H313121   1.943   1.662  13.579 -0.1028  1.0299 -2.2715
  895MPD2     N13122   1.843   1.243  13.433 -0.4430  0.0013  0.4720
  895MPD2    H513123   1.767   1.198  13.383 -0.4284  0.4522  0.0400
  895MPD2    N113124   1.532   1.587  13.380  0.0877  0.3677 -0.3715
  895MPD2    H713125   1.492   1.513  13.324 -0.3358 -1.3116  2.1660
  896MPD2     C13126   4.272   3.345   1.455 -0.6726 -0.2579 -0.8939
  896MPD2    C113127   4.253   3.398   1.328  0.3669 -0.8199  0.1507
  896MPD2    C213128   4.125   3.361   1.280  0.4072 -0.3068 -0.6658
  896MPD2    C313129   4.037   3.272   1.335  0.4088 -0.2407  0.0063
  896MPD2    C413130   4.069   3.218   1.458  0.0539  0.0704  0.0280
  896MPD2    C513131   4.190   3.251   1.507  0.4873 -0.1035 -0.3134
  896MPD2     H13132   4.094   3.403   1.184 -3.9898  0.0974  0.9391
  896MPD2    H113133   4.004   3.147   1.508 -0.5055  0.6021  0.0606
  896MPD2    H213134   4.370   3.352   1.502 -0.8406 -0.6862 -0.4779
  896MPD2    H313135   4.218   3.210   1.604 -0.8780  0.5795  0.3580
  896MPD2     N13136   3.918   3.253   1.264 -0.6129 -0.1989  0.0760
  896MPD2    H513137   3.905   3.281   1.167 -1.3589 -1.5532 -0.2191
  896MPD2    N113138   4.334   3.494   1.269 -0.5394  0.1143 -0.2457
  896MPD2    H713139   4.408   3.531   1.327 -2.4745  0.5425  1.9436
  897MPD2     C13140   4.684   0.623   9.718  0.5279 -0.1354 -0.1748
  897MPD2    C113141   4.606   0.684   9.814 -0.6308  0.2535 -0.3104
  897MPD2    C213142   4.570   0.616   9.927 -0.0991 -0.0788 -0.0697
  897MPD2    C313143   4.612   0.487   9.952  0.1415  0.0434  0.4605
  897MPD2    C413144   4.658   0.417   9.839 -0.4754 -0.1460 -0.7415
  897MPD2    C513145   4.699   0.485   9.727 -0.4071  0.3457  0.0649
  897MPD2     H13146   4.532   0.668  10.015  0.3571 -2.8528  1.7622
  897MPD2    H113147   4.685   0.312   9.845 -1.7820 -0.3807  1.4600
  897MPD2    H213148   4.711   0.673   9.626  3.3950  1.9136  1.7787
  897MPD2    H313149   0.017   0.437   9.640  0.2040  0.2556  0.4090
  897MPD2     N13150   4.601   0.448  10.087  0.3145  0.0782  0.2753
  897MPD2    H513151   4.568   0.523  10.147 -2.0492 -1.4526  0.9095
  897MPD2    N113152   4.582   0.818   9.788 -0.3907 -0.4357  0.7229
  897MPD2    H713153   4.605   0.865   9.701 -1.0721  1.0050  1.3167
  898MPD2     C13154   2.563   1.321  16.852 -0.1174 -0.0033  0.2173
  898MPD2    C113155   2.508   1.358  16.979  0.0030 -0.3649  0.8480
  898MPD2    C213156   2.386   1.424  16.985  0.5952 -0.5888  0.0597
  898MPD2    C313157   2.311   1.435  16.870  0.2703 -0.5835 -0.4355
  898MPD2    C413158   2.351   1.378  16.746  0.3002 -0.2306 -0.0943
  898MPD2    C513159   2.476   1.326  16.745  0.3419  0.1468 -0.6112
  898MPD2     H13160   2.345   1.463  17.078  2.0449 -0.9783  0.8626
  898MPD2    H113161   2.301   1.384  16.650 -0.1689  1.2587  0.2464
  898MPD2    H213162   2.659   1.282  16.821 -1.0225 -1.7581 -0.4070
  898MPD2    H313163   2.517   1.284  16.654 -1.8087 -0.2847 -1.3882
  898MPD2     N13164   2.193   1.506  16.891  0.2159  0.1215 -0.0167
  898MPD2    H513165   2.187   1.557  16.979  0.5292  0.0813  0.0287
  898MPD2    N113166   2.595   1.338  17.095 -0.1763  0.7231 -0.0321
  898MPD2    H713167   2.687   1.299  17.075 -1.5034 -2.4426  0.0239
  899MPD2     C13168   2.746   2.105  17.331 -0.9433  0.1455 -0.4330
  899MPD2    C113169   2.801   2.207  17.404 -0.1326  0.4962  0.3929
  899MPD2    C213170   2.794   2.190  17.542 -0.0600  1.4263  0.3961
  899MPD2    C313171   2.756   2.067  17.599 -0.2536  0.2548  0.4124
  899MPD2    C413172   2.696   1.971  17.519 -1.0331 -0.2953  0.0577
  899MPD2    C513173   2.696   1.993  17.384 -0.3006 -0.5784  0.0499
  899MPD2     H13174   2.840   2.262  17.609  1.7534 -0.2277  0.9214
  899MPD2    H113175   2.656   1.877  17.557  1.2957 -0.8799  1.0424
  899MPD2    H213176   2.743   2.110  17.222  0.3473  0.6468 -0.4446
  899MPD2    H313177   2.652   1.924  17.314 -1.5756 -0.3209  0.6059
  899MPD2     N13178   2.757   2.031   0.045  0.5338  0.4240 -0.4434
  899MPD2    H513179   2.709   1.944   0.060  0.5841  0.5939  0.7023
  899MPD2    N113180   2.831   2.330  17.337  0.0460  0.0242  0.3260
  899MPD2    H713181   2.817   2.324  17.237 -0.9322  0.8412  0.4167
  900MPD2     C13182   3.164   4.116  12.010 -0.4959  0.5207  0.1803
  900MPD2    C113183   3.048   4.045  12.009  0.1214  0.2879  0.0481
  900MPD2    C213184   2.933   4.109  11.955 -0.3637  0.5562  0.1971
  900MPD2    C313185   2.946   4.236  11.899 -0.2423 -0.1528 -0.1142
  900MPD2    C413186   3.065   4.308  11.908  0.1627  0.0421  0.1329
  900MPD2    C513187   3.170   4.240  11.959  0.4894 -0.1808 -0.1757
  900MPD2     H13188   2.833   4.068  11.970  0.0286 -0.8713 -1.1014
  900MPD2    H113189   3.071   4.412  11.881  0.0482  0.0479  0.1294
  900MPD2    H213190   3.261   4.079  12.040 -0.9319  1.8897  3.2310
  900MPD2    H313191   3.259   4.301  11.955 -1.2975  2.5329  1.8117
  900MPD2     N13192   2.837   4.302  11.844 -0.3991 -0.3542  0.2650
  900MPD2    H513193   2.846   4.401  11.822 -3.0654 -0.2769 -0.4745
  900MPD2    N113194   3.044   3.912  12.062  0.1266 -0.0880  0.2194
  900MPD2    H713195   3.129   3.866  12.093  1.0636  2.4466  1.3669
  901MPD2     C13196   2.466   2.997  12.268 -0.4312 -0.1857  0.8569
  901MPD2    C113197   2.596   2.965  12.300 -0.0211 -0.1371 -0.0881
  901MPD2    C213198   2.693   3.068  12.282 -0.4316 -0.4718 -0.7304
  901MPD2    C313199   2.667   3.194  12.248 -0.4686 -0.1209 -0.4161
  901MPD2    C413200   2.537   3.219  12.217  0.8154  0.4330  0.1106
  901MPD2    C513201   2.437   3.123  12.226 -0.0495 -0.2827 -0.5299
  901MPD2     H13202   2.793   3.045  12.318 -0.4317 -2.1524 -1.7921
  901MPD2    H113203   2.504   3.317  12.185  1.1873  0.2418 -0.8546
  901MPD2    H213204   2.390   2.920  12.276  0.7243 -1.2690  1.3275
  901MPD2    H313205   2.333   3.139  12.201 -0.1781  1.1107  0.8523
  901MPD2     N13206   2.763   3.298  12.273 -0.5349  0.2377  0.1069
  901MPD2    H513207   2.857   3.266  12.293 -0.1376  0.4394 -1.3860
  901MPD2    N113208   2.628   2.835  12.362  0.3376  0.2672  0.1246
  901MPD2    H713209   2.552   2.779  12.400  1.4457 -2.6931 -2.0269
  902MPD2     C13210   1.522   2.023  13.119 -0.0876 -0.0162  0.0384
  902MPD2    C113211   1.463   1.987  12.996  0.4760  0.0440 -0.4241
  902MPD2    C213212   1.528   1.882  12.924 -0.5243 -0.1910 -0.2769
  902MPD2    C313213   1.642   1.820  12.973  0.1256 -0.0035 -0.4106
  902MPD2    C413214   1.700   1.873  13.082  0.1318  0.9441  0.1173
  902MPD2    C513215   1.635   1.964  13.161  0.1743  0.5954  0.3839
  902MPD2     H13216   1.492   1.851  12.827 -2.5721  2.3482 -0.3302
  902MPD2    H113217   1.800   1.847  13.116 -0.0421  0.5043  0.2959
  902MPD2    H213218   1.477   2.097  13.183 -0.6256  0.0259 -0.3851
  902MPD2    H313219   1.690   2.003  13.246  1.0043  2.0899 -0.8306
  902MPD2     N13220   1.696   1.704  12.915  0.3844 -0.1852 -0.3365
  902MPD2    H513221   1.793   1.683  12.934  1.2404  0.4470 -4.0327
  902MPD2    N113222   1.351   2.061  12.953 -0.4211  0.1028  0.9309
  902MPD2    H713223   1.313   2.129  13.017  1.6509  1.4587  0.7152
  903MPD2     C13224   1.715   1.369  12.058  0.0067 -0.1604 -0.0203
  903MPD2    C113225   1.628   1.393  12.158  0.8210  0.4998 -0.0674
  903MPD2    C213226   1.488   1.399  12.129 -0.9176 -0.1449 -0.4256
  903MPD2    C313227   1.441   1.390  12.000  0.2833 -0.0953  0.1052
  903MPD2    C413228   1.533   1.373  11.901  0.3415  1.0273  0.0180
  903MPD2    C513229   1.668   1.363  11.936 -0.7678 -0.0285 -0.4486
  903MPD2     H13230   1.411   1.422  12.202  0.4897 -0.4068  1.1597
  903MPD2    H113231   1.504   1.359  11.798 -3.3666  0.0352  1.2046
  903MPD2    H213232   1.822   1.370  12.073 -0.1591 -0.2029  1.1145
  903MPD2    H313233   1.733   1.348  11.850 -0.5706  0.2256 -0.3455
  903MPD2     N13234   1.303   1.398  11.980  0.1334 -0.4069 -0.3757
  903MPD2    H513235   1.242   1.437  12.051  0.6415 -1.9139  0.8920
  903MPD2    N113236   1.685   1.409  12.286 -0.1457 -0.3408 -0.2000
  903MPD2    H713237   1.785   1.392  12.292 -0.2422 -1.7732 -2.7815
  904MPD2     C13238   1.146   0.904  13.861  0.1590 -0.4579 -0.1983
  904MPD2    C113239   1.191   1.020  13.804 -0.7162 -0.5249  0.7704
  904MPD2    C213240   1.323   1.064  13.820 -0.4414 -0.0081 -0.2761
  904MPD2    C313241   1.416   0.989  13.890  0.7703  0.2610 -0.0908
  904MPD2    C413242   1.364   0.879  13.964  0.1024  0.0465 -0.8581
  904MPD2    C513243   1.231   0.840  13.947 -0.3107  0.8331 -0.4141
  904MPD2     H13244   1.348   1.157  13.771  0.5607 -0.5687 -0.8482
  904MPD2    H113245   1.429   0.827  14.033 -0.6016  0.7506  0.3371
  904MPD2    H213246   1.046   0.865  13.853 -0.1533  0.1170  0.9234
  904MPD2    H313247   1.200   0.744  13.988  0.2782  1.3255  1.1917
  904MPD2     N13248   1.541   1.044  13.894 -0.1564  0.0169 -0.0643
  904MPD2    H513249   1.559   1.134  13.852  4.6431 -0.6392  0.5606
  904MPD2    N113250   1.122   1.093  13.702  0.3465  0.3289 -0.7620
  904MPD2    H713251   1.163   1.184  13.683 -0.5465  0.6002 -1.4182
  905MPD2     C13252   1.192   0.813  13.115 -0.3874  0.0950 -0.0947
  905MPD2    C113253   1.239   0.927  13.174  0.6123 -0.4721  0.2444
  905MPD2    C213254   1.373   0.939  13.192 -0.3038  0.3838  0.4904
  905MPD2    C313255   1.462   0.844  13.149 -0.2327  0.1088  0.0582
  905MPD2    C413256   1.408   0.737  13.087 -0.1075  0.5166  0.0873
  905MPD2    C513257   1.274   0.727  13.057 -0.0614  0.2690 -0.1141
  905MPD2     H13258   1.407   1.016  13.261  1.1186 -0.9873  1.3066
  905MPD2    H113259   1.469   0.654  13.054 -0.8103  0.9718 -2.3492
  905MPD2    H213260   1.086   0.797  13.095  0.0077 -1.2760 -1.0331
  905MPD2    H313261   1.244   0.638  13.003 -2.0405  0.4492  0.7042
  905MPD2     N13262   1.597   0.851  13.178 -0.0538 -0.4692 -0.1573
  905MPD2    H513263   1.654   0.768  13.166 -0.5280 -0.3615 -3.1820
  905MPD2    N113264   1.139   1.014  13.225  0.4380  0.4030  0.2046
  905MPD2    H713265   1.042   0.983  13.223  0.6657 -0.5067  3.9763
  906MPD2     C13266   3.733   0.741  11.415  0.4313  0.0406 -0.6292
  906MPD2    C113267   3.729   0.639  11.322 -0.6438 -0.6981 -0.2102
  906MPD2    C213268   3.687   0.511  11.361  0.2630 -0.6824 -0.7315
  906MPD2    C313269   3.676   0.475  11.489 -0.2946 -0.2161 -0.0762
  906MPD2    C413270   3.674   0.583  11.583 -0.3868 -0.3149  0.2788
  906MPD2    C513271   3.699   0.712  11.544 -0.1630  0.0119  0.1490
  906MPD2     H13272   3.681   0.442  11.277  1.7417 -0.3061 -1.1380
  906MPD2    H113273   3.651   0.566  11.687  1.1199 -1.2399  0.4541
  906MPD2    H213274   3.740   0.846  11.390 -0.0392  0.8069  2.4367
  906MPD2    H313275   3.695   0.784  11.626  3.1721  1.5498 -1.0670
  906MPD2     N13276   3.642   0.344  11.527  0.3200 -0.1645  0.3412
  906MPD2    H513277   3.614   0.327  11.623  0.4297 -0.5903  0.2969
  906MPD2    N113278   3.760   0.665  11.185 -0.0339 -0.0431 -0.1520
  906MPD2    H713279   3.742   0.589  11.121 -0.3204  1.5591 -1.9808
  907MPD2     C13280   2.441   4.621  15.397 -0.0821  0.3374  1.0912
  907MPD2    C113281   2.435   4.485  15.409  0.7011  0.1681  0.8825
  907MPD2    C213282   2.469   4.435  15.533  0.9712  0.2851  0.2184
  907MPD2    C313283   2.508   4.516  15.637  0.3097 -0.1237  0.0356
  907MPD2    C413284   2.522   4.652  15.619 -0.0104 -0.0513  0.5213
  907MPD2    C513285   2.490   4.702  15.497  0.2221 -0.0579 -0.2219
  907MPD2     H13286   2.468   4.329  15.551  0.9443  0.2462 -0.0061
  907MPD2    H113287   2.559   0.001  15.689 -0.2171 -0.6442  1.2462
  907MPD2    H213288   2.399   4.667  15.308  2.8133 -0.2172 -0.5398
  907MPD2    H313289   2.498   0.084  15.473 -1.6857  0.5304  1.7440
  907MPD2     N13290   2.560   4.455  15.753 -0.0944 -0.1449 -0.3030
  907MPD2    H513291   2.583   4.356  15.749  0.6094  0.0830 -2.1957
  907MPD2    N113292   2.403   4.403  15.300  0.2639  0.3992 -0.1712
  907MPD2    H713293   2.410   4.305  15.325  0.5043 -0.3393 -3.0708
  908MPD2     C13294   4.408   1.112   9.009  0.5256  0.0057  0.3348
  908MPD2    C113295   4.320   1.051   9.088 -1.0900 -0.7187 -0.1604
  908MPD2    C213296   4.332   1.047   9.226 -0.1917 -0.0445 -0.0195
  908MPD2    C313297   4.441   1.111   9.282 -0.6291  0.1739  0.5483
  908MPD2    C413298   4.533   1.170   9.207 -0.3493  0.8833 -0.1812
  908MPD2    C513299   4.514   1.173   9.069 -0.2371  0.5801  0.6175
  908MPD2     H13300   4.262   0.999   9.293 -2.1611  1.0293 -1.2786
  908MPD2    H113301   4.613   1.227   9.252 -0.4196  1.3035 -0.5940
  908MPD2    H213302   4.410   1.110   8.900  0.9530  1.5170  0.3188
  908MPD2    H313303   4.594   1.217   9.012 -2.0383  1.0802 -1.5332
  908MPD2     N13304   4.447   1.128   9.423 -0.5076 -0.2939 -0.0095
  908MPD2    H513305   4.368   1.085   9.469 -1.2251  0.2295 -0.7730
  908MPD2    N113306   4.203   0.989   9.033 -0.4288 -0.3207 -0.4995
  908MPD2    H713307   4.130   0.960   9.098 -2.7370  0.4631 -2.7578
  909MPD2     C13308   0.740   3.179  11.990  0.3016  0.3570 -0.0275
  909MPD2    C113309   0.743   3.303  11.930 -0.1808  0.7106  0.2624
  909MPD2    C213310   0.646   3.398  11.956 -0.3718  0.4119  0.6047
  909MPD2    C313311   0.532   3.362  12.031 -0.0724  0.0271  0.5183
  909MPD2    C413312   0.533   3.237  12.091 -0.3603 -0.4277 -0.2775
  909MPD2    C513313   0.634   3.144  12.072  0.4476  0.5012 -0.1506
  909MPD2     H13314   0.639   3.492  11.903 -0.2178  0.1217  0.0721
  909MPD2    H113315   0.456   3.211  12.163  0.1344 -0.8696  0.1018
  909MPD2    H213316   0.826   3.115  11.980  2.2204  2.9790 -0.4487
  909MPD2    H313317   0.631   3.051  12.129 -0.2405  0.3516 -0.4366
  909MPD2     N13318   0.419   3.450  12.049 -0.4391  0.0806  0.1464
  909MPD2    H513319   0.422   3.532  11.990 -0.6671  1.0825  1.5264
  909MPD2    N113320   0.837   3.351  11.844  0.1964 -0.4254 -0.2296
  909MPD2    H713321   0.826   3.449  11.820 -2.1476  0.0772  2.8656
  910MPD2     C13322   1.336   0.332  15.750 -0.2564  0.3037 -0.2774
  910MPD2    C113323   1.431   0.361  15.651  0.2244 -0.3768 -0.7354
  910MPD2    C213324   1.382   0.388  15.527 -0.0763 -0.0675  0.1240
  910MPD2    C313325   1.252   0.413  15.502 -0.4617 -0.3463  0.1173
  910MPD2    C413326   1.164   0.409  15.601 -0.6857 -0.4231 -0.1342
  910MPD2    C513327   1.212   0.367  15.727  0.2435 -0.2872 -0.4573
  910MPD2     H13328   1.461   0.408  15.455  1.2644 -0.5543  1.4413
  910MPD2    H113329   1.060   0.436  15.589 -0.9918 -1.5198  0.0478
  910MPD2    H213330   1.368   0.297  15.847 -0.9969  1.6665  0.4563
  910MPD2    H313331   1.137   0.352  15.803 -0.5354  3.1078 -0.5792
  910MPD2     N13332   1.200   0.464  15.380  0.6396  0.0860  0.0685
  910MPD2    H513333   1.109   0.508  15.379  0.3477 -0.4968  0.7411
  910MPD2    N113334   1.572   0.347  15.662 -0.4465  0.9568  0.1191
  910MPD2    H713335   1.635   0.361  15.584 -0.8642  0.9115 -0.2257
  911MPD2     C13336   4.547   0.597  16.035 -0.0936  0.5880 -0.5742
  911MPD2    C113337   4.578   0.712  16.104 -0.1843  1.0490  0.1325
  911MPD2    C213338   4.485   0.815  16.113 -0.0724  0.6378 -0.3629
  911MPD2    C313339   4.364   0.804  16.047 -0.1982  0.8428  0.7141
  911MPD2    C413340   4.342   0.691  15.971  0.0287 -0.0430 -0.3148
  911MPD2    C513341   4.431   0.589  15.962  0.6863 -0.1693 -0.9318
  911MPD2     H13342   4.507   0.902  16.173 -0.7696  0.7252 -0.2249
  911MPD2    H113343   4.265   0.671  15.896 -0.7679 -0.0223  0.5007
  911MPD2    H213344   4.618   0.515  16.026  0.6905  1.1554  0.4679
  911MPD2    H313345   4.413   0.502  15.901  1.2120  1.0552 -2.8343
  911MPD2     N13346   4.276   0.912  16.032  0.0164 -0.3560 -0.2549
  911MPD2    H513347   4.188   0.880  15.993 -1.0177  0.5372  1.3347
  911MPD2    N113348   4.704   0.713  16.172  0.3672 -0.5680  0.0463
  911MPD2    H713349   0.036   0.631  16.152  2.1317  0.3205  1.3611
  912MPD2     C13350   3.957   0.601  15.652 -0.1960 -0.1341  0.5415
  912MPD2    C113351   3.989   0.659  15.769 -0.3681  0.1372 -0.2115
  912MPD2    C213352   4.023   0.581  15.877  0.2515  0.7449  0.4704
  912MPD2    C313353   4.034   0.450  15.863  0.5206  0.4556 -0.2675
  912MPD2    C413354   3.984   0.379  15.753 -0.1678  0.5307 -0.3540
  912MPD2    C513355   3.943   0.464  15.643  0.0755 -0.0291 -0.2033
  912MPD2     H13356   4.063   0.629  15.965 -0.1940 -0.3132  1.2562
  912MPD2    H113357   3.968   0.273  15.740 -0.8328  0.1904  3.3292
  912MPD2    H213358   3.926   0.664  15.570 -0.0600  0.3574  0.8645
  912MPD2    H313359   3.894   0.424  15.555  1.1723 -1.7186 -0.0458
  912MPD2     N13360   4.079   0.391  15.983  0.4212  0.3592 -0.1216
  912MPD2    H513361   4.103   0.451  16.062  2.2810  0.7586 -0.9634
  912MPD2    N113362   3.970   0.798  15.772  0.2652  0.0842  0.3076
  912MPD2    H713363   3.951   0.850  15.687  1.8678 -2.9636 -1.9059
  913MPD2     C13364   4.470   2.341  10.250  0.5769 -0.6082 -0.0217
  913MPD2    C113365   4.571   2.426  10.273 -0.5412 -0.1559  0.0872
  913MPD2    C213366   4.597   2.534  10.193 -0.2650 -0.2781  0.6142
  913MPD2    C313367   4.528   2.544  10.072  0.2838  0.7347 -0.7148
  913MPD2    C413368   4.435   2.447  10.049 -0.2922  0.6459  0.8618
  913MPD2    C513369   4.392   2.356  10.142  0.1214  0.2386 -0.0001
  913MPD2     H13370   4.673   2.606  10.220 -1.1512  1.5248 -1.7666
  913MPD2    H113371   4.381   2.452   9.954 -0.9078  2.1284  1.2955
  913MPD2    H213372   4.445   2.267  10.325 -0.4053 -1.0867 -0.8258
  913MPD2    H313373   4.306   2.292  10.122  1.6017 -1.4383 -0.9264
  913MPD2     N13374   4.567   2.631   9.968 -0.6531  0.3859 -0.5074
  913MPD2    H513375   4.523   2.610   9.879  1.7536 -1.2824 -1.2859
  913MPD2    N113376   4.640   2.396  10.393 -0.4215  0.3556 -0.8413
  913MPD2    H713377   4.621   2.305  10.433 -1.5285  0.0858 -1.9753
  914MPD2     C13378   2.505   2.167  11.898 -0.4891 -0.1947 -0.1975
  914MPD2    C113379   2.436   2.272  11.939  0.8386 -0.2506  0.0736
  914MPD2    C213380   2.468   2.338  12.058 -0.1742 -0.0020  1.0746
  914MPD2    C313381   2.575   2.293  12.135  0.0402  0.8118 -1.3689
  914MPD2    C413382   2.648   2.186  12.090 -0.6059  0.2183 -0.3404
  914MPD2    C513383   2.612   2.122  11.973  0.2988 -0.1348 -0.3627
  914MPD2     H13384   2.417   2.429  12.086 -0.2761  0.1686  0.3277
  914MPD2    H113385   2.733   2.137  12.136  0.4110  1.4863 -0.8669
  914MPD2    H213386   2.461   2.109  11.817 -3.4920 -0.3571  1.5546
  914MPD2    H313387   2.663   2.030  11.951  1.0806  0.2708 -0.2445
  914MPD2     N13388   2.603   2.363  12.256  0.7128  0.5515 -0.1531
  914MPD2    H513389   2.529   2.428  12.281  0.7056  0.2898  0.4971
  914MPD2    N113390   2.328   2.315  11.853  0.5193 -0.4467  0.1931
  914MPD2    H713391   2.311   2.262  11.768  1.8189 -1.3036  0.4658
  915MPD2     C13392   1.129   2.419  15.303 -0.6474  0.5448 -0.1575
  915MPD2    C113393   0.993   2.406  15.284  0.7062 -0.1250 -0.2748
  915MPD2    C213394   0.899   2.462  15.378 -0.2278  0.1134 -0.8180
  915MPD2    C313395   0.946   2.517  15.493  0.6598  0.4960  0.3423
  915MPD2    C413396   1.083   2.520  15.518  0.3304  0.1394 -0.0166
  915MPD2    C513397   1.173   2.484  15.417 -0.2522 -0.6504  0.3937
  915MPD2     H13398   0.793   2.443  15.370 -0.0762 -0.7938 -0.7616
  915MPD2    H113399   1.126   2.562  15.608  1.1170  2.5496 -1.5185
  915MPD2    H213400   1.208   2.398  15.233  0.3752  0.8379  0.9054
  915MPD2    H313401   1.279   2.492  15.437 -0.2382  0.8596 -0.3080
  915MPD2     N13402   0.850   2.556  15.593  0.4803 -0.0027  0.5158
  915MPD2    H513403   0.750   2.555  15.576  0.3946 -1.9376  1.1092
  915MPD2    N113404   0.948   2.327  15.176 -0.0141  0.0774  0.0031
  915MPD2    H713405   1.011   2.264  15.128  0.3586 -1.4335  2.4483
  916MPD2     C13406   3.632   0.676  15.465 -0.2221 -0.4265 -0.0179
  916MPD2    C113407   3.610   0.572  15.559  0.4894 -0.7359  0.4466
  916MPD2    C213408   3.632   0.438  15.519  0.0602 -0.5694  0.5267
  916MPD2    C313409   3.681   0.409  15.392  0.0423 -0.3372  0.6659
  916MPD2    C413410   3.701   0.514  15.308 -0.6543 -0.0258 -0.6281
  916MPD2    C513411   3.671   0.639  15.338  0.0833 -0.4629 -0.4038
  916MPD2     H13412   3.610   0.355  15.586  0.1738  0.1528  1.4557
  916MPD2    H113413   3.738   0.496  15.208 -0.8290  0.5573 -0.8007
  916MPD2    H213414   3.622   0.779  15.497 -0.5966 -0.3818 -0.2908
  916MPD2    H313415   3.678   0.708  15.254 -1.5406  0.3145  0.1079
  916MPD2     N13416   3.715   0.272  15.354  0.3416  0.4217 -0.2142
  916MPD2    H513417   3.700   0.198  15.422 -0.7611  0.2793 -0.6298
  916MPD2    N113418   3.577   0.607  15.693 -0.0619 -0.2692  0.0504
  916MPD2    H713419   3.570   0.706  15.714  1.1780  0.2714 -2.1000
  917MPD2     C13420   3.539   3.273  10.865 -0.0508  0.4329  0.2360
  917MPD2    C113421   3.592   3.329  10.976  0.3200  0.1457  1.2936
  917MPD2    C213422   3.677   3.436  10.960 -0.0740 -0.0217 -0.2393
  917MPD2    C313423   3.699   3.487  10.836  0.1269 -0.2935  0.3254
  917MPD2    C413424   3.639   3.432  10.726 -0.0529  0.1437 -0.2981
  917MPD2    C513425   3.556   3.329  10.742  0.2672 -0.0202  0.9447
  917MPD2     H13426   3.715   3.489  11.047 -0.6260  0.7238 -0.4525
  917MPD2    H113427   3.668   3.457  10.624 -1.8000  0.8173 -0.6297
  917MPD2    H213428   3.462   3.197  10.871 -0.1535  0.4347 -0.9857
  917MPD2    H313429   3.510   3.284  10.654 -0.5785 -0.3979  1.5817
  917MPD2     N13430   3.795   3.586  10.809  0.3092  0.1141 -0.0159
  917MPD2    H513431   3.818   3.595  10.710 -0.7802 -1.9939 -0.4619
  917MPD2    N113432   3.566   3.267  11.097 -0.0562  0.2231  0.1496
  917MPD2    H713433   3.521   3.176  11.088  0.3638 -0.0862  1.1923
  918MPD2     C13434   4.068   3.447  11.845 -0.1357 -0.3970  0.3415
  918MPD2    C113435   4.066   3.313  11.830 -0.7133  0.0433  0.4133
  918MPD2    C213436   3.951   3.254  11.789 -0.2165 -0.1365  0.0733
  918MPD2    C313437   3.838   3.333  11.761  0.3959 -0.1691 -0.1538
  918MPD2    C413438   3.846   3.470  11.773 -0.4674 -0.5074 -0.4124
  918MPD2    C513439   3.957   3.526  11.817 -0.3005 -0.3799  0.4628
  918MPD2     H13440   3.956   3.152  11.753  2.2899 -0.1215  0.4202
  918MPD2    H113441   3.759   3.535  11.766 -2.4405 -2.8834  2.0095
  918MPD2    H213442   4.154   3.497  11.888  0.2020  1.6517 -2.6732
  918MPD2    H313443   3.960   3.634  11.834  2.4095 -0.8235  2.9514
  918MPD2     N13444   3.725   3.291  11.695 -0.2515 -0.4779 -0.4864
  918MPD2    H513445   3.661   3.360  11.657  0.1951  1.2192  1.8743
  918MPD2    N113446   4.183   3.233  11.838  0.3974  0.1626 -0.3074
  918MPD2    H713447   4.166   3.134  11.853 -1.1683  1.0656  3.6765
  919MPD2     C13448   4.406   1.869  11.580  0.0359 -0.1063  0.2903
  919MPD2    C113449   4.407   1.761  11.492  0.3065 -0.1922 -0.3719
  919MPD2    C213450   4.478   1.759  11.377  0.3733  0.6642  0.4039
  919MPD2    C313451   4.555   1.866  11.339 -0.2742  0.4044 -0.1086
  919MPD2    C413452   4.568   1.970  11.427  0.6640 -0.7328 -0.3055
  919MPD2    C513453   4.497   1.970  11.546  0.5020  0.1275  0.6139
  919MPD2     H13454   4.470   1.670  11.316 -0.2705  1.3251 -0.4879
  919MPD2    H113455   4.633   2.056  11.414 -2.0433  1.6606  1.9439
  919MPD2    H213456   4.349   1.883  11.671 -1.7593  0.3257 -0.8958
  919MPD2    H313457   4.503   2.059  11.607 -3.3766  1.1974 -0.5607
  919MPD2     N13458   4.595   1.890  11.206 -0.2557  0.3027  0.7819
  919MPD2    H513459   4.641   1.979  11.185 -1.1994  0.3859 -0.9425
  919MPD2    N113460   4.330   1.643  11.511 -0.3589  0.0167 -0.6775
  919MPD2    H713461   4.331   1.566  11.445  1.2754 -3.6014  3.5078
  920MPD2     C13462   4.427   2.641  10.587 -0.1036 -0.5829  0.0988
  920MPD2    C113463   4.349   2.539  10.530 -0.1867  0.3422 -0.0225
  920MPD2    C213464   4.352   2.410  10.583 -0.2030 -0.7561 -0.4358
  920MPD2    C313465   4.432   2.386  10.698 -0.5746 -0.1510  0.1479
  920MPD2    C413466   4.506   2.481  10.748 -0.1338 -0.2141  0.4771
  920MPD2    C513467   4.496   2.606  10.697  0.5838  0.4161  0.0478
  920MPD2     H13468   4.298   2.327  10.540 -0.5441 -0.0443 -1.3684
  920MPD2    H113469   4.565   2.467  10.838 -0.3267  2.8788  1.0873
  920MPD2    H213470   4.426   2.742  10.548 -2.7224  0.0612  1.8112
  920MPD2    H313471   4.544   2.689  10.748  0.1984 -0.9093  2.5951
  920MPD2     N13472   4.435   2.246  10.739 -0.2400  0.8170 -0.2398
  920MPD2    H513473   4.375   2.180  10.690 -1.0514  1.4240 -0.0676
  920MPD2    N113474   4.265   2.557  10.418 -0.1296  0.3433 -0.1939
  920MPD2    H713475   4.226   2.474  10.374  0.3743  0.5793 -1.1010
  921MPD2     C13476   0.434   1.523  16.485  0.5948 -0.6620  0.3189
  921MPD2    C113477   0.530   1.431  16.449 -0.3495  0.2971  0.2812
  921MPD2    C213478   0.503   1.290  16.443  0.4855  0.0710 -0.6485
  921MPD2    C313479   0.381   1.250  16.481 -0.3634  0.1991 -0.2841
  921MPD2    C413480   0.286   1.343  16.524 -0.6762  0.1423 -0.2662
  921MPD2    C513481   0.313   1.476  16.537 -0.4223 -0.5902 -0.6981
  921MPD2     H13482   0.577   1.216  16.413 -0.3036 -1.1009  0.2934
  921MPD2    H113483   0.184   1.320  16.550 -0.3363 -1.0515  0.0120
  921MPD2    H213484   0.458   1.629  16.487  0.2839 -0.6219  1.5642
  921MPD2    H313485   0.239   1.549  16.567  2.4020  1.5394  0.9263
  921MPD2     N13486   0.343   1.118  16.460  0.2022  0.2559 -0.1451
  921MPD2    H513487   0.242   1.106  16.450  0.0526  0.7741  0.7309
  921MPD2    N113488   0.659   1.476  16.417  0.0723  0.1040  0.5205
  921MPD2    H713489   0.673   1.575  16.403 -1.3642 -0.1556 -2.8336
  922MPD2     C13490   1.764   3.807  16.805 -0.1305  0.0434 -0.2251
  922MPD2    C113491   1.740   3.806  16.942 -0.7810  0.0699 -0.4231
  922MPD2    C213492   1.692   3.686  17.001  0.1340  0.2524  0.4621
  922MPD2    C313493   1.643   3.583  16.925  0.4669  0.7074 -0.1144
  922MPD2    C413494   1.665   3.590  16.788  0.1714  0.0536 -0.2345
  922MPD2    C513495   1.729   3.701  16.732 -0.0009  0.1944  0.3005
  922MPD2     H13496   1.672   3.691  17.107  0.5859  0.9809  0.5146
  922MPD2    H113497   1.633   3.513  16.719 -0.6301  0.4467 -0.2965
  922MPD2    H213498   1.800   3.894  16.751 -0.4041  1.6533  2.2023
  922MPD2    H313499   1.727   3.702  16.624  1.2510  0.2088  0.2748
  922MPD2     N13500   1.568   3.477  16.991 -0.3760  0.7323 -0.1427
  922MPD2    H513501   1.545   3.484  17.090 -0.9148 -0.9442 -0.1469
  922MPD2    N113502   1.764   3.917  17.016 -0.4670  0.2712 -0.7037
  922MPD2    H713503   1.749   3.910  17.117 -2.6361 -2.6440 -1.2514
  923MPD2     C13504   2.245   0.547   9.388  0.0407 -0.3432 -0.1951
  923MPD2    C113505   2.281   0.426   9.339  0.7720 -0.3887  0.4763
  923MPD2    C213506   2.413   0.384   9.364 -0.6638  0.3191 -0.3902
  923MPD2    C313507   2.499   0.467   9.429 -0.3261 -0.3718  0.0920
  923MPD2    C413508   2.461   0.593   9.465 -0.3582 -0.4700 -0.2922
  923MPD2    C513509   2.329   0.631   9.444  0.7672  0.3271 -0.2523
  923MPD2     H13510   2.444   0.281   9.358  2.1147  1.1606 -0.3602
  923MPD2    H113511   2.523   0.666   9.517  0.6749 -0.5463 -1.4038
  923MPD2    H213512   2.138   0.563   9.387 -0.1405 -1.6083 -1.3649
  923MPD2    H313513   2.295   0.731   9.470 -1.2352  0.0810 -1.8905
  923MPD2     N13514   2.638   0.433   9.445 -0.3347  0.4318 -0.3085
  923MPD2    H513515   2.687   0.502   9.502  0.6900  0.2053 -0.9169
  923MPD2    N113516   2.182   0.340   9.284 -0.8255 -0.8745  0.8192
  923MPD2    H713517   2.086   0.373   9.283 -1.2066 -2.0709 -2.1254
  924MPD2     C13518   2.437   3.662  15.871 -0.7386 -0.0879  0.0643
  924MPD2    C113519   2.402   3.734  15.986 -0.7707  0.0334 -0.1328
  924MPD2    C213520   2.472   3.850  16.026 -0.7915  0.0680  0.0053
  924MPD2    C313521   2.559   3.914  15.942  0.1707 -0.3391  0.3142
  924MPD2    C413522   2.585   3.846  15.819  0.1986 -0.4821  0.3415
  924MPD2    C513523   2.530   3.727  15.796  0.1875  0.2627  0.5416
  924MPD2     H13524   2.451   3.891  16.124  1.7742 -0.4668  0.7838
  924MPD2    H113525   2.652   3.881  15.741  0.0401 -0.4388  0.2237
  924MPD2    H213526   2.395   3.563  15.862 -0.1460 -0.4372  1.1110
  924MPD2    H313527   2.562   3.686  15.701 -1.8104 -0.0885  0.0350
  924MPD2     N13528   2.619   4.041  15.964  0.0515 -0.1682  0.0985
  924MPD2    H513529   2.650   4.089  15.881  1.9131 -0.0541  0.8472
  924MPD2    N113530   2.303   3.673  16.067  0.1359 -0.4109 -0.1957
  924MPD2    H713531   2.289   3.573  16.065  1.1329 -0.4707 -3.5245
  925MPD2     C13532   1.610   1.507  14.484 -0.1659 -0.5200  0.4568
  925MPD2    C113533   1.496   1.584  14.472  0.5397 -0.4031 -0.4526
  925MPD2    C213534   1.419   1.602  14.583 -1.0479  0.8688  0.8764
  925MPD2    C313535   1.447   1.536  14.701 -0.3206 -0.1461  0.1815
  925MPD2    C413536   1.559   1.461  14.708  0.0658  0.1361 -0.2480
  925MPD2    C513537   1.633   1.437  14.601 -0.3825  0.4849 -0.1690
  925MPD2     H13538   1.328   1.662  14.578 -3.2585 -2.6639 -1.0992
  925MPD2    H113539   1.583   1.404  14.797 -0.5003 -0.2210 -0.3249
  925MPD2    H213540   1.674   1.500  14.397 -0.5260 -1.9610  0.3056
  925MPD2    H313541   1.702   1.353  14.605  0.3023  1.0584  0.2877
  925MPD2     N13542   1.369   1.544  14.814  0.3827  0.4187  0.1390
  925MPD2    H513543   1.407   1.506  14.900 -1.8388 -0.8591  0.5679
  925MPD2    N113544   1.456   1.653  14.348 -0.5258 -0.1715  0.5889
  925MPD2    H713545   1.363   1.694  14.349  0.7629  2.8396 -3.4141
  926MPD2     C13546   0.135   0.100  13.299  0.4630 -0.8391  0.6720
  926MPD2    C113547   0.115   0.231  13.288 -0.5270  0.2794 -0.3035
  926MPD2    C213548   0.181   0.298  13.185  0.2634 -0.0807  0.7275
  926MPD2    C313549   0.258   0.238  13.093 -0.0333 -0.2660  0.8906
  926MPD2    C413550   0.288   0.105  13.107  0.1639  0.1431 -0.4121
  926MPD2    C513551   0.216   0.036  13.210 -0.0442 -0.3411 -0.6881
  926MPD2     H13552   0.172   0.406  13.179 -1.5939 -0.1207  3.0235
  926MPD2    H113553   0.352   0.053  13.036  0.5557  1.9820 -1.3941
  926MPD2    H213554   0.079   0.044  13.373 -2.7284  0.6512 -0.6080
  926MPD2    H313555   0.213   4.652  13.200  0.2606 -0.4515  0.4202
  926MPD2     N13556   0.319   0.301  12.980 -0.2029 -0.0243  0.2357
  926MPD2    H513557   0.372   0.245  12.914 -1.4196 -0.2193 -0.5536
  926MPD2    N113558   0.021   0.296  13.369  0.0834 -0.0043  0.4873
  926MPD2    H713559   4.710   0.389  13.346  1.1745  0.4933  0.8446
  927MPD2     C13560   0.606   2.374   0.260  0.2030  0.2457  0.4826
  927MPD2    C113561   0.486   2.338   0.198  0.4526 -0.3871  1.1869
  927MPD2    C213562   0.478   2.347   0.056 -0.0119  0.1176 -0.2774
  927MPD2    C313563   0.585   2.388  17.680  0.8048 -0.4776  0.2477
  927MPD2    C413564   0.697   2.429   0.048  0.2567 -0.1968 -0.5407
  927MPD2    C513565   0.712   2.419   0.185 -0.2713 -0.2858  0.8677
  927MPD2     H13566   0.393   2.318  17.692 -0.8939 -0.2316  1.1145
  927MPD2    H113567   0.783   2.464  17.690 -0.6778 -1.8576 -3.0526
  927MPD2    H213568   0.623   2.369   0.367 -0.1806 -0.0597  0.5307
  927MPD2    H313569   0.809   2.442   0.229 -0.0646 -1.1024  0.8282
  927MPD2     N13570   0.576   2.394  17.544  0.2451 -0.0899 -0.1687
  927MPD2    H513571   0.498   2.344  17.502 -0.5334  0.2973  0.8246
  927MPD2    N113572   0.379   2.314   0.284 -0.2159 -0.0128  0.0487
  927MPD2    H713573   0.400   2.311   0.383 -0.8079 -0.5457  0.1571
  928MPD2     C13574   2.436   0.621   0.546  0.2654  0.9386  0.1564
  928MPD2    C113575   2.542   0.656   0.631 -0.5101 -0.1522  0.3010
  928MPD2    C213576   2.654   0.722   0.580 -0.0009  0.5971 -0.4054
  928MPD2    C313577   2.666   0.747   0.444  0.6263  0.0197  0.4082
  928MPD2    C413578   2.568   0.697   0.363  0.7272 -0.2309 -0.3904
  928MPD2    C513579   2.456   0.645   0.415 -0.4244 -0.5870 -0.3817
  928MPD2     H13580   2.725   0.776   0.643  1.4513 -1.8658  0.0870
  928MPD2    H113581   2.571   0.713   0.256 -0.0696 -0.9245 -0.5117
  928MPD2    H213582   2.345   0.576   0.583  1.4646 -2.2972 -0.8530
  928MPD2    H313583   2.376   0.632   0.342  0.2105 -0.5377 -1.0792
  928MPD2     N13584   2.773   0.814   0.381  0.4187  0.3330 -0.1700
  928MPD2    H513585   2.777   0.810   0.279  0.1433 -1.6981 -0.0917
  928MPD2    N113586   2.526   0.630   0.768  0.0376  0.7300  0.1087
  928MPD2    H713587   2.438   0.604   0.811 -0.0780  0.3525 -0.3486
  929MPD2     C13588   3.081   0.748  10.403 -0.1838  0.2888 -0.1834
  929MPD2    C113589   3.046   0.637  10.484 -0.5907  0.5943 -0.4235
  929MPD2    C213590   2.918   0.583  10.471 -0.2386  0.4732 -0.0413
  929MPD2    C313591   2.830   0.635  10.382  0.5640  0.1423  0.0467
  929MPD2    C413592   2.861   0.742  10.305  0.0654 -0.0522  0.8618
  929MPD2    C513593   2.986   0.793  10.312  0.2364 -0.0400  0.0349
  929MPD2     H13594   2.891   0.505  10.541 -0.7687  1.9667  1.4203
  929MPD2    H113595   2.781   0.787  10.248 -2.0406 -2.7048  1.6878
  929MPD2    H213596   3.176   0.798  10.417 -0.7678  1.4190 -0.2321
  929MPD2    H313597   3.010   0.881  10.253 -1.3893  0.3209 -0.0886
  929MPD2     N13598   2.694   0.581  10.373 -0.4037 -0.1351 -0.7110
  929MPD2    H513599   2.637   0.621  10.300 -2.8613 -2.2235  0.0639
  929MPD2    N113600   3.130   0.584  10.584  0.2915  0.0451  0.4039
  929MPD2    H713601   3.198   0.644  10.630  1.4403 -0.4392 -0.6563
  930MPD2     C13602   4.369   2.800  13.826  0.2585 -0.1793 -0.2760
  930MPD2    C113603   4.428   2.876  13.729  0.0932  0.0572 -0.6224
  930MPD2    C213604   4.400   2.838  13.598  0.2530  0.2090  0.1791
  930MPD2    C313605   4.324   2.728  13.558  0.7163  0.5712 -0.2290
  930MPD2    C413606   4.267   2.654  13.658 -0.9887 -0.1815 -0.2363
  930MPD2    C513607   4.287   2.696  13.790  0.2606  0.7312  0.7051
  930MPD2     H13608   4.436   2.909  13.525 -0.7137  1.7036  1.1634
  930MPD2    H113609   4.200   2.569  13.648 -1.1806  0.0244 -0.6971
  930MPD2    H213610   4.388   2.805  13.933 -0.4748 -0.0737 -0.1518
  930MPD2    H313611   4.231   2.638  13.863 -0.4408 -0.6009 -0.8889
  930MPD2     N13612   4.303   2.712  13.423  0.6194  0.0433 -0.2012
  930MPD2    H513613   4.359   2.781  13.373  2.2845 -0.5559  0.8104
  930MPD2    N113614   4.520   2.984  13.757  0.1975  0.2223  0.1211
  930MPD2    H713615   4.499   3.038  13.840  2.1944  0.3889  0.5055
  931MPD2     C13616   0.397   2.087   0.863 -0.2717  0.0744 -0.1536
  931MPD2    C113617   0.289   2.171   0.849  0.0487  0.7706 -0.7355
  931MPD2    C213618   0.229   2.211   0.966 -0.1725 -0.2747  0.1521
  931MPD2    C313619   0.280   2.175   1.091  0.0211 -0.5930 -0.3476
  931MPD2    C413620   0.396   2.105   1.102  0.3187 -0.2272  0.3553
  931MPD2    C513621   0.455   2.060   0.986 -0.4353  0.2278 -0.4981
  931MPD2     H13622   0.134   2.263   0.965  0.9835  1.8352 -0.8165
  931MPD2    H113623   0.447   2.086   1.196 -1.1225  0.7329  1.3333
  931MPD2    H213624   0.450   2.057   0.773  0.0624 -2.5288  0.9167
  931MPD2    H313625   0.547   2.002   0.985 -1.2211 -1.1073  3.9177
  931MPD2     N13626   0.209   2.171   1.207 -0.3610  0.0415  0.0106
  931MPD2    H513627   0.262   2.139   1.287 -0.2789 -0.5826 -0.2949
  931MPD2    N113628   0.227   2.184   0.726 -0.0567  0.5937 -0.0579
  931MPD2    H713629   0.283   2.142   0.652 -0.7090 -0.6154  0.1312
  932MPD2     C13630   1.896   0.769  11.352  0.1326  0.4489  0.0410
  932MPD2    C113631   1.891   0.892  11.417  0.3620  0.0785 -0.5659
  932MPD2    C213632   1.984   0.921  11.517 -0.1584  0.0340 -0.3219
  932MPD2    C313633   2.076   0.827  11.554 -0.7910 -0.5955  0.1338
  932MPD2    C413634   2.088   0.707  11.481  1.3567  0.4539  0.0905
  932MPD2    C513635   1.993   0.682  11.387  0.5467 -0.1085 -0.7204
  932MPD2     H13636   1.973   1.009  11.580  1.3268 -1.6512  2.3046
  932MPD2    H113637   2.150   0.627  11.520  0.6896  0.8788  2.0386
  932MPD2    H213638   1.817   0.746  11.281  1.5934 -0.7772 -1.1943
  932MPD2    H313639   2.013   0.602  11.317  1.6249  0.2321 -0.8090
  932MPD2     N13640   2.161   0.843  11.665 -0.1048 -0.3271 -0.4038
  932MPD2    H513641   2.205   0.757  11.696 -0.4285  0.2325  1.6161
  932MPD2    N113642   1.791   0.982  11.373 -0.0726 -0.2611  0.1104
  932MPD2    H713643   1.717   0.950  11.312  0.5708  0.0796 -0.8551
  933MPD2     C13644   2.274   0.736   1.614 -0.3120 -0.2238 -0.4372
  933MPD2    C113645   2.271   0.797   1.492  0.6853 -0.8724  0.3804
  933MPD2    C213646   2.202   0.917   1.471 -0.0148 -0.0096  0.0875
  933MPD2    C313647   2.136   0.979   1.576 -0.1589  0.3546  0.3104
  933MPD2    C413648   2.135   0.915   1.699  0.3075 -0.1487  0.2558
  933MPD2    C513649   2.201   0.794   1.714  0.1450 -0.2787  0.6532
  933MPD2     H13650   2.216   0.979   1.383 -0.0474  1.1035  0.8577
  933MPD2    H113651   2.068   0.949   1.777  0.1569 -1.7690  0.8249
  933MPD2    H213652   2.311   0.636   1.630  0.5044  0.4189  1.7221
  933MPD2    H313653   2.205   0.736   1.805 -1.7281 -1.0637  0.2391
  933MPD2     N13654   2.076   1.106   1.556  0.1282 -0.3437 -0.2463
  933MPD2    H513655   2.071   1.130   1.457 -1.6936 -0.6558 -0.2308
  933MPD2    N113656   2.352   0.734   1.391  0.0593 -0.0836  0.2898
  933MPD2    H713657   2.399   0.650   1.425 -0.1393 -0.5912 -0.6919
  934MPD2     C13658   4.028   2.709   1.827 -0.2280  0.3439  0.2566
  934MPD2    C113659   4.114   2.746   1.724  0.2128  0.1187  0.1015
  934MPD2    C213660   4.067   2.761   1.594 -0.0548 -0.4574 -0.1449
  934MPD2    C313661   3.935   2.742   1.571 -0.2727  0.1477 -0.5437
  934MPD2    C413662   3.846   2.715   1.672  0.5432 -0.2225 -0.6697
  934MPD2    C513663   3.898   2.702   1.801  0.1204  0.7734 -0.0337
  934MPD2     H13664   4.138   2.791   1.518 -1.1512  0.5648 -0.7873
  934MPD2    H113665   3.739   2.706   1.659  0.6687 -2.1442 -0.3575
  934MPD2    H213666   4.054   2.695   1.932 -0.1453  0.2493  0.2241
  934MPD2    H313667   3.834   2.679   1.885  1.0977 -0.3070  0.4065
  934MPD2     N13668   3.873   2.757   1.448  0.0354  0.3562 -1.0021
  934MPD2    H513669   3.773   2.739   1.447  0.1447 -0.2725 -0.5266
  934MPD2    N113670   4.249   2.779   1.741  0.3299  0.1163 -0.1544
  934MPD2    H713671   4.299   2.795   1.654 -0.5604 -1.5053 -0.9598
  935MPD2     C13672   4.182   2.291   0.792 -0.5873  0.0486 -0.4939
  935MPD2    C113673   4.049   2.325   0.771  0.3672  0.8505  0.1236
  935MPD2    C213674   4.000   2.450   0.797  0.2588 -0.4023  0.3212
  935MPD2    C313675   4.087   2.550   0.844 -0.3690 -0.2450 -0.3972
  935MPD2    C413676   4.219   2.525   0.863  1.0538  0.3254  0.0776
  935MPD2    C513677   4.267   2.397   0.838 -0.5775 -0.7055  0.5198
  935MPD2     H13678   3.894   2.470   0.781 -0.1786 -1.9484  1.2210
  935MPD2    H113679   4.300   2.582   0.907  0.2563  0.4675  1.3356
  935MPD2    H213680   4.232   2.197   0.774 -0.8370 -0.0801 -0.5229
  935MPD2    H313681   4.369   2.377   0.869 -0.0857  1.1831  0.0980
  935MPD2     N13682   4.037   2.671   0.901  0.1278  0.2291 -0.1825
  935MPD2    H513683   4.098   2.733   0.954  0.5794 -1.1426  0.9022
  935MPD2    N113684   3.954   2.230   0.726 -0.1813 -0.0829  0.0232
  935MPD2    H713685   3.860   2.266   0.714 -0.0695  0.2438  0.1147
  936MPD2     C13686   1.823   0.054  12.650  0.2855 -1.1883 -0.5646
  936MPD2    C113687   1.877   0.083  12.769 -0.2588 -0.2100 -0.1983
  936MPD2    C213688   2.016   0.092  12.774  0.1652 -0.4312  0.3311
  936MPD2    C313689   2.099   0.079  12.666  0.2473 -0.0413  0.4133
  936MPD2    C413690   2.046   0.046  12.547 -0.6336 -0.1462  0.2162
  936MPD2    C513691   1.907   0.031  12.541  0.1657 -0.7085 -0.0637
  936MPD2     H13692   2.053   0.108  12.875  2.0355 -0.2324 -0.3906
  936MPD2    H113693   2.110   0.046  12.459 -1.2158 -1.8141 -0.1937
  936MPD2    H213694   1.716   0.051  12.635 -0.1620  0.0426  2.5042
  936MPD2    H313695   1.863   0.012  12.444  0.5578 -0.7635 -0.2339
  936MPD2     N13696   2.240   0.096  12.681  0.0383 -0.4778 -0.0422
  936MPD2    H513697   2.302   0.085  12.602 -2.4681  0.9027 -2.1882
  936MPD2    N113698   1.812   0.066  12.892 -0.3081  0.1127 -0.4711
  936MPD2    H713699   1.857   0.092  12.980  2.9171  0.1872 -2.1612
  937MPD2     C13700   4.460   0.982  11.383  0.3199 -0.3123 -0.0524
  937MPD2    C113701   4.437   1.110  11.335 -0.1223 -0.3917  0.1000
  937MPD2    C213702   4.534   1.167  11.248  0.1191  0.3298  0.3204
  937MPD2    C313703   4.629   1.085  11.190 -0.2715  0.6067  0.6803
  937MPD2    C413704   4.641   0.952  11.223 -0.0939  0.2230 -0.3751
  937MPD2    C513705   4.562   0.906  11.322  0.2552 -0.1624 -0.6661
  937MPD2     H13706   4.543   1.274  11.235 -0.0386  0.0759 -1.9662
  937MPD2    H113707   4.710   0.881  11.179 -0.0525 -0.8870  1.4877
  937MPD2    H213708   4.393   0.927  11.449  0.6915 -0.4493  0.2052
  937MPD2    H313709   4.574   0.803  11.353  0.7782  1.0931  3.2697
  937MPD2     N13710   4.717   1.150  11.097 -0.0506 -0.2406  0.5319
  937MPD2    H513711   4.696   1.247  11.078  1.6836 -0.0322 -0.3234
  937MPD2    N113712   4.349   1.196  11.395 -0.9415 -0.4400 -0.0280
  937MPD2    H713713   4.348   1.293  11.364  0.8235 -0.0582  1.1163
  938MPD2     C13714   2.411   2.841   0.344  0.3632 -0.0230  0.7803
  938MPD2    C113715   2.516   2.844   0.433  0.2285 -0.0333  0.1896
  938MPD2    C213716   2.496   2.795   0.561  0.1778 -0.6740 -0.3827
  938MPD2    C313717   2.366   2.757   0.599 -0.5614 -0.5012 -0.5744
  938MPD2    C413718   2.264   2.746   0.511 -0.5546  0.1861 -0.2154
  938MPD2    C513719   2.286   2.789   0.384 -0.4985  0.5827  0.2357
  938MPD2     H13720   2.570   2.787   0.639 -1.8992 -1.2703  1.5379
  938MPD2    H113721   2.164   2.716   0.539 -0.6930 -0.7594 -1.7624
  938MPD2    H213722   2.421   2.866   0.239  0.7346  0.3068  0.8933
  938MPD2    H313723   2.208   2.779   0.310  1.3963 -1.2934 -1.5280
  938MPD2     N13724   2.338   2.714   0.733 -0.1852 -0.2035  0.1757
  938MPD2    H513725   2.241   2.687   0.746 -0.3431 -0.4015 -1.4397
  938MPD2    N113726   2.646   2.896   0.394  0.2901 -0.3021 -0.5290
  938MPD2    H713727   2.725   2.859   0.445 -0.4966 -1.2658 -0.0295
  939MPD2     C13728   4.032   3.973   1.182  0.3300 -0.7577  0.3291
  939MPD2    C113729   3.996   4.083   1.109 -0.6778 -0.5676 -0.0946
  939MPD2    C213730   4.005   4.078   0.972 -0.4128 -0.6293  0.6301
  939MPD2    C313731   4.042   3.963   0.902 -0.2973  0.0476 -0.0761
  939MPD2    C413732   4.082   3.855   0.977 -0.0907 -0.8859  1.2362
  939MPD2    C513733   4.075   3.863   1.113  0.1342 -0.1697 -0.1575
  939MPD2     H13734   3.974   4.165   0.916  3.1017  0.8332  1.0218
  939MPD2    H113735   4.106   3.762   0.927  1.1301  0.2911 -0.3866
  939MPD2    H213736   4.025   3.971   1.290 -1.5542  0.4307  0.2104
  939MPD2    H313737   4.084   3.770   1.169 -1.0742 -0.0981  0.1648
  939MPD2     N13738   4.034   3.964   0.762  0.7323 -0.0367  0.1001
  939MPD2    H513739   4.013   4.056   0.725  2.4884  1.2983  2.3581
  939MPD2    N113740   3.957   4.202   1.182  0.0277 -0.5040  0.1603
  939MPD2    H713741   3.959   4.197   1.283 -0.2492  0.1853  0.1963
  940MPD2     C13742   2.427   4.292  12.905 -0.3741  0.1239  0.2395
  940MPD2    C113743   2.556   4.349  12.945  0.5005  0.9120  0.3115
  940MPD2    C213744   2.628   4.414  12.844  0.1619  0.3209  0.4439
  940MPD2    C313745   2.586   4.415  12.712 -0.7422 -0.7936 -0.7893
  940MPD2    C413746   2.465   4.361  12.684  0.8979 -0.3605 -0.4134
  940MPD2    C513747   2.388   4.306  12.778 -0.0911 -0.6193 -0.5491
  940MPD2     H13748   2.720   4.462  12.877 -0.0583  0.2184  1.2204
  940MPD2    H113749   2.426   4.353  12.583  1.6823  1.1296 -0.8387
  940MPD2    H213750   2.366   4.247  12.982 -0.8606 -1.3496 -0.9930
  940MPD2    H313751   2.290   4.264  12.758  0.6866 -1.5407 -2.4687
  940MPD2     N13752   2.661   4.478  12.608 -0.8926 -0.6101  0.0307
  940MPD2    H513753   2.623   4.476  12.514 -0.8131  1.7711 -0.0426
  940MPD2    N113754   2.606   4.363  13.076 -0.2610 -0.0721 -0.0897
  940MPD2    H713755   2.688   4.421  13.093 -0.5123  0.6129 -1.2407
  941MPD2     C13756   2.176   3.577   9.889 -0.2411 -0.5297  0.5735
  941MPD2    C113757   2.209   3.461   9.829 -0.7091 -0.1175 -0.2703
  941MPD2    C213758   2.116   3.361   9.833  0.3106  0.4667  0.2789
  941MPD2    C313759   1.988   3.374   9.878 -0.2623  0.5536 -0.1117
  941MPD2    C413760   1.962   3.500   9.921 -1.2450 -0.5129 -0.2562
  941MPD2    C513761   2.051   3.606   9.924  0.4884  0.0841  0.3381
  941MPD2     H13762   2.151   3.265   9.795 -0.3604 -0.3543  1.7387
  941MPD2    H113763   1.866   3.527   9.962 -0.2311  4.0027 -0.8158
  941MPD2    H213764   2.241   3.660   9.913 -0.7714  0.4292 -1.2719
  941MPD2    H313765   2.033   3.706   9.962  1.7493  0.6111 -0.4597
  941MPD2     N13766   1.889   3.276   9.893 -0.6839 -0.2447 -0.1925
  941MPD2    H513767   1.800   3.304   9.934 -0.7551  1.8672 -1.7960
  941MPD2    N113768   2.332   3.421   9.788  0.5540 -0.1654  0.0425
  941MPD2    H713769   2.347   3.323   9.767  1.7095 -0.0446  0.3006
  942MPD2     C13770   1.317   4.617   9.182  0.1216  0.2583  0.7935
  942MPD2    C113771   1.366   4.715   9.268 -0.4051  0.1292 -0.3412
  942MPD2    C213772   1.489   4.692   9.325 -0.1872 -0.4243 -0.0410
  942MPD2    C313773   1.563   4.575   9.308  0.7771  0.6682  0.8722
  942MPD2    C413774   1.511   4.475   9.223 -0.1638  0.3471 -0.0700
  942MPD2    C513775   1.391   4.505   9.158  0.9609 -0.1201  0.7639
  942MPD2     H13776   1.524   0.049   9.389 -0.5907 -0.4406  0.1974
  942MPD2    H113777   1.569   4.385   9.205  2.5514  2.2122 -0.6715
  942MPD2    H213778   1.232   4.627   9.115 -0.0989 -2.8464  0.5826
  942MPD2    H313779   1.364   4.443   9.073 -0.3644  0.9957  0.3777
  942MPD2     N13780   1.693   4.552   9.358 -0.6068 -0.9157 -0.1993
  942MPD2    H513781   1.720   4.454   9.352 -0.5916 -1.0939  2.9146
  942MPD2    N113782   1.293   0.106   9.310  0.1298 -0.2418 -0.0910
  942MPD2    H713783   1.344   0.177   9.361 -1.1206  1.5149 -1.2533
  943MPD2     C13784   0.729   4.071   9.874 -0.2033 -0.2746 -0.5149
  943MPD2    C113785   0.708   3.940   9.886 -0.3509 -0.1209 -0.5425
  943MPD2    C213786   0.697   3.889  10.012  0.0032 -0.5013  0.3367
  943MPD2    C313787   0.738   3.962  10.123  0.1154  0.4848 -0.1613
  943MPD2    C413788   0.782   4.089  10.100  0.3588  0.0733 -0.4371
  943MPD2    C513789   0.762   4.148   9.974  0.5133 -0.1815 -0.5436
  943MPD2     H13790   0.654   3.790  10.026 -2.1011  0.1238 -1.7812
  943MPD2    H113791   0.822   4.160  10.171 -1.4476 -0.2713  0.9246
  943MPD2    H213792   0.713   4.123   9.780  1.2717  3.3401  1.2386
  943MPD2    H313793   0.771   4.255   9.962 -1.4477 -0.0110 -0.4094
  943MPD2     N13794   0.753   3.909  10.248  0.4552 -0.8913  0.7141
  943MPD2    H513795   0.796   3.970  10.317 -1.4972 -0.8587  1.8957
  943MPD2    N113796   0.675   3.856   9.778  0.3180 -0.4401 -0.7560
  943MPD2    H713797   0.657   3.910   9.695  1.6280  2.0402  0.5944
  944MPD2     C13798   1.031   3.211  10.880 -0.1177  0.0445 -0.1719
  944MPD2    C113799   0.953   3.098  10.867  0.0649  0.1424  0.5242
  944MPD2    C213800   0.892   3.047  10.982  0.1848  0.5786 -0.5447
  944MPD2    C313801   0.911   3.107  11.101  1.3815 -0.5565  0.2844
  944MPD2    C413802   0.991   3.217  11.113  0.3454 -0.5243  0.0553
  944MPD2    C513803   1.057   3.266  10.999 -0.0358 -0.0943  0.4955
  944MPD2     H13804   0.841   2.952  10.976 -0.2253  0.7144  0.6743
  944MPD2    H113805   1.011   3.269  11.206  0.0276  1.0144 -0.7426
  944MPD2    H213806   1.085   3.256  10.798  1.2931  1.7990  1.7458
  944MPD2    H313807   1.120   3.354  11.006 -0.4445  0.3100 -0.9103
  944MPD2     N13808   0.837   3.047  11.209  0.8326 -0.0141  0.5770
  944MPD2    H513809   0.773   2.971  11.185  0.5908  0.3734  0.0145
  944MPD2    N113810   0.925   3.051  10.734 -0.1415  0.2980 -0.6195
  944MPD2    H713811   0.973   3.100  10.659  0.5358 -0.9996 -1.0330
    1TCq1    O113812   3.704   3.199  14.230  0.1724  0.1330  0.0831
    1TCq1    C113813   3.732   3.314  14.302 -0.2976 -0.6021 -1.0430
    1TCq1    O213814   3.836   3.377  14.301 -0.1771  0.1370 -0.1408
    1TCq1    C213815   3.607   3.384  14.339  0.1673  0.0252  0.1710
    1TCq1    C313816   3.488   3.339  14.282 -0.6875 -0.4660  0.0730
    1TCq1    C413817   3.381   3.420  14.283 -0.4566  0.6388 -0.6325
    1TCq1    C513818   3.382   3.534  14.353  0.6063  0.7290 -0.1454
    1TCq1    C613819   3.494   3.579  14.409  0.3709  0.4822  0.1428
    1TCq1    C713820   3.610   3.508  14.400  0.6601  0.0575  0.3793
    1TCq1    C813821   3.496   3.706  14.479  0.3210  0.1079  0.8724
    1TCq1    O413822   3.581   3.722  14.563  0.1677 -0.0166  0.3011
    1TCq1    C913823   3.258   3.386  14.216 -0.9405 -0.7829  0.9969
    1TCq1    O513824   3.249   3.274  14.161  0.5137  0.1134 -0.3574
    1TCq1    O613825   3.160   3.467  14.213  0.3627  0.4202 -0.1386
    1TCq1    H113826   3.619   3.157  14.254  1.7386 -2.3395  1.3747
    1TCq1    H213827   3.482   3.243  14.232 -0.2299 -1.1251  1.2611
    1TCq1    H313828   3.290   3.589  14.367  0.0468 -0.0446 -0.8344
    1TCq1    H413829   3.704   3.551  14.432 -0.2853  1.6365  1.0473
    2MPD2     C13830   3.327   4.179  14.529  0.0968 -0.3407 -0.6033
    2MPD2    C113831   3.276   4.123  14.411  0.1987 -0.0277 -0.0426
    2MPD2    C213832   3.308   3.993  14.383  0.0826  0.7803  0.2187
    2MPD2    C313833   3.386   3.921  14.470  0.7163  0.2351 -0.3790
    2MPD2    C413834   3.449   3.977  14.578  0.3064 -0.5515  0.0394
    2MPD2    C513835   3.419   4.111  14.603  0.1436 -0.0821  0.3211
    2MPD2     H13836   3.274   3.951  14.289  1.0018 -0.3238  0.3779
    2MPD2    H113837   3.523   3.934  14.644  0.2237 -0.2677  0.3167
    2MPD2    H213838   3.289   4.279  14.545 -1.2109 -0.9233 -0.0967
    2MPD2    H313839   3.463   4.162  14.688 -0.3839 -1.0205  1.1496
    2MPD2     N13840   3.408   3.792  14.425  0.6161 -0.7050  0.1416
    2MPD2    H513841   3.361   3.764  14.339  0.7805 -2.4129  0.6028
    2MPD2    N113842   3.186   4.196  14.336 -0.1628  0.4419 -0.1820
    2MPD2    H713843   3.185   4.294  14.364  1.2648  0.1069  1.0947
    3TMC2    C113844   3.097   4.268  14.128  0.3143  0.3088  0.1339
    3TMC2    C213845   3.069   4.229  13.997 -0.7775  0.5802  0.9928
    3TMC2    C313846   3.057   4.333  13.908  0.4225  0.6571 -0.0088
    3TMC2    C413847   3.123   4.394  14.171  0.5691 -0.3670  0.6240
    3TMC2    C513848   3.125   4.487  14.070 -0.0844 -0.0488  0.9343
    3TMC2    C613849   3.088   4.461  13.940  0.6161 -0.0020 -0.4339
    3TMC2     C13850   3.131   4.159  14.214  0.8971  0.5900 -0.2969
    3TMC2     O13851   3.111   4.045  14.178 -0.1708  0.0175 -0.3064
    3TMC2     H13852   3.056   4.128  13.960 -2.1932  0.7012  1.1799
    3TMC2    H113853   3.177   4.417  14.262  0.1224 -0.4409  0.9076
    3TMC2    H213854   3.076   4.532  13.860 -3.0209 -1.4530 -1.1596
    3TMC2    C713855   3.242   4.582  14.088  0.7428  0.1219  0.7528
    3TMC2    C813856   3.010   4.300  13.778 -0.3004 -0.2893  0.1136
    3TMC2    O113857   3.302   4.590  14.196  0.2850  0.3373 -0.5966
    3TMC2    O213858   2.900   4.247  13.778  0.1180 -0.1618 -0.6471
    3TMC2    O513859   3.117   4.272  13.701 -0.5913  0.0886 -0.0010
    3TMC2    H513860   3.190   4.327  13.734  0.8133 -0.4705 -2.1721
    4MPD2     C13861   3.185   0.920  12.996  0.1098 -0.1459  0.2246
    4MPD2    C113862   3.122   0.816  13.049 -0.0961  0.8113  0.3354
    4MPD2    C213863   3.184   0.725  13.141 -0.1933 -0.2631 -0.1072
    4MPD2    C313864   3.309   0.752  13.179 -1.5999  0.8045 -0.0346
    4MPD2    C413865   3.362   0.877  13.142  0.0088 -0.6680 -0.4249
    4MPD2    C513866   3.301   0.961  13.043 -1.3176  0.5002  0.6075
    4MPD2     H13867   3.129   0.647  13.192 -1.0187  0.0107 -0.5950
    4MPD2    H113868   3.449   0.921  13.189 -0.6163 -0.4147  0.4935
    4MPD2    H213869   3.137   0.962  12.908  0.7330 -1.9025 -0.9553
    4MPD2    H313870   3.362   1.041  13.004 -1.8069 -0.1977 -1.5640
    4MPD2     N13871   3.374   0.665  13.268  0.2850 -0.1132 -0.8037
    4MPD2    H513872   3.326   0.581  13.299  1.0935  0.0238  0.8152
    4MPD2    N113873   2.984   0.798  13.004 -0.4511  0.0909  0.8895
    4MPD2    H713874   2.951   0.859  12.930  0.5831  1.3239  1.4439
    5TCq2    C113875   3.511   0.672  13.305 -0.7326 -0.7656  0.1592
    5TCq2    O213876   3.584   0.764  13.281  0.3284  0.0762 -0.3995
    5TCq2    C213877   3.569   0.557  13.376 -0.3958 -0.1146 -0.3724
    5TCq2    C313878   3.707   0.541  13.364 -0.1492  0.2992  0.4058
    5TCq2    C413879   3.763   0.430  13.421  0.6113  0.5207  0.1765
    5TCq2    C513880   3.686   0.345  13.492  0.6275  0.0755  0.8470
    5TCq2    C613881   3.554   0.375  13.518 -0.5105  0.6485 -0.0392
    5TCq2    C713882   3.492   0.484  13.459  0.4514 -0.3818 -0.1906
    5TCq2    C813883   3.479   0.296  13.615  0.2775  0.2524 -0.1800
    5TCq2    O413884   3.359   0.285  13.588 -0.0900 -0.1937  0.2374
    5TCq2    C913885   3.899   0.393  13.396 -1.1893 -0.2979  0.5049
    5TCq2    O513886   3.944   0.293  13.458 -0.4777  0.8392 -0.0402
    5TCq2    O613887   3.962   0.473  13.323 -0.0222 -0.2570 -0.3450
    5TCq2    H213888   3.764   0.611  13.303 -0.6822  1.6432  1.4462
    5TCq2    H313889   3.741   0.265  13.541 -2.3908 -4.1665 -2.8128
    5TCq2    H413890   3.394   0.522  13.483  0.1596 -0.2089 -1.7118
    6MPD1     C13891   1.810   2.135  12.641  0.0701 -0.1829 -0.0979
    6MPD1    C113892   1.882   2.117  12.529  0.4983 -0.4891  0.3148
    6MPD1    C213893   1.980   2.021  12.526 -0.2496 -0.3754 -0.7637
    6MPD1    C313894   1.984   1.925  12.626  0.5528 -0.5118  1.1124
    6MPD1    C413895   1.909   1.951  12.738 -0.6324 -0.0077 -0.2434
    6MPD1    C513896   1.825   2.058  12.743 -0.4154 -0.4181 -0.0164
    6MPD1     H13897   2.052   2.024  12.445 -1.4950 -1.3625 -1.9098
    6MPD1    H113898   1.904   1.887  12.826 -0.8376  1.5380  0.8836
    6MPD1    H213899   1.741   2.218  12.644 -0.0138 -0.3332  2.3709
    6MPD1    H313900   1.765   2.073  12.832  1.0785 -0.1953  0.9563
    6MPD1     N13901   2.077   1.820  12.627  0.0061 -0.0893  0.3073
    6MPD1    H513902   2.077   1.765  12.712  1.0020 -1.5839 -0.6578
    6MPD1    N113903   1.881   2.221  12.440  0.0112 -0.2794 -0.0280
    6MPD1    H613904   1.785   2.255  12.435  0.0813 -0.1441 -0.4682
    6MPD1    H713905   1.917   2.204  12.347 -1.7965 -0.3696 -0.7202
    7MPD2     C13906   2.264   1.275  13.103  0.5345  0.3814 -0.1636
    7MPD2    C113907   2.358   1.265  13.001  0.1224  0.3389 -0.4313
    7MPD2    C213908   2.427   1.153  12.979 -0.5695  0.0772  0.4355
    7MPD2    C313909   2.397   1.041  13.056 -0.1992  0.1553 -0.6072
    7MPD2    C413910   2.316   1.052  13.162  0.1458 -0.6481 -0.3035
    7MPD2    C513911   2.253   1.170  13.190 -0.1029  0.4493 -0.4888
    7MPD2     H13912   2.504   1.152  12.903 -0.8275  1.0914  0.1634
    7MPD2    H113913   2.299   0.973  13.234 -1.3740  0.3484  0.4188
    7MPD2    H213914   2.211   1.369  13.112 -0.8358 -0.2906 -1.2072
    7MPD2    H313915   2.191   1.161  13.279  0.1826  0.6593 -0.2702
    7MPD2     N13916   2.458   0.919  13.005 -0.5511 -0.5702  0.3943
    7MPD2    H513917   2.511   0.934  12.919 -0.8479  3.4542  0.8833
    7MPD2    N113918   2.385   1.370  12.905 -0.0476  0.6180  0.0442
    7MPD2    H713919   2.461   1.347  12.841  0.9136  0.5527  1.2144
    8TMC3    C113920   2.556   0.712  12.981 -0.4699 -0.8139  0.1594
    8TMC3    C213921   2.678   0.688  13.044 -0.0926  0.2999  0.3795
    8TMC3    C313922   2.792   0.677  12.967 -0.1851  0.7198 -0.0082
    8TMC3    C413923   2.559   0.748  12.849  0.0443  0.4026  0.4137
    8TMC3    C513924   2.676   0.750  12.772  0.7027  0.2005  0.0194
    8TMC3    C613925   2.795   0.713  12.831 -0.4814 -0.1260 -1.0824
    8TMC3     C13926   2.459   0.788  13.055  0.1834  0.1094  0.0891
    8TMC3     O13927   2.404   0.749  13.158 -0.2058  0.3568 -0.2004
    8TMC3     H13928   2.691   0.686  13.152 -0.2102  0.1808  0.3916
    8TMC3    H113929   2.465   0.756  12.795  1.5006  3.3332 -1.7065
    8TMC3    H213930   2.891   0.712  12.781 -0.4119 -0.5392 -0.9414
    8TMC3    C713931   2.679   0.881  12.713  0.1750  0.4831  0.4615
    8TMC3    C813932   2.904   0.695  13.051 -0.1518 -0.5080 -0.6975
    8TMC3    O113933   2.607   0.950  12.785 -0.1122 -0.2610 -0.2736
    8TMC3    O213934   2.916   0.608  13.137 -0.4451  0.0114 -0.3034
    9TMC3    C113935   2.256   1.678  12.584 -0.0335  0.3574  0.5789
    9TMC3    C213936   2.306   1.602  12.478 -0.3832  0.0664 -0.3555
    9TMC3    C313937   2.360   1.484  12.518 -0.7679 -0.1754  0.2062
    9TMC3    C413938   2.238   1.637  12.712  0.1558 -0.2473 -0.0339
    9TMC3    C513939   2.317   1.526  12.738  0.8293  0.4279  0.1715
    9TMC3    C613940   2.368   1.440  12.648  0.0752 -0.1259 -0.4596
    9TMC3     C13941   2.170   1.783  12.529 -0.2551 -0.8493  0.5310
    9TMC3     O13942   2.181   1.812  12.413  0.4494  0.4937  0.3891
    9TMC3     H13943   2.304   1.628  12.373  0.5582 -2.0104 -0.8998
    9TMC3    H113944   2.212   1.696  12.799 -2.6830  0.7334 -1.5691
    9TMC3    H213945   2.357   1.334  12.665  0.6121  0.2206  2.0401
    9TMC3    C713946   2.300   1.476  12.877  0.6674  0.0419 -0.0177
    9TMC3    C813947   2.400   1.382  12.423 -0.1265  0.3463 -0.5382
    9TMC3    O113948   2.211   1.524  12.949  0.2472  0.2599 -0.4490
    9TMC3    O213949   2.364   1.383  12.305 -0.4676 -0.1152  0.0491
   10MPD2     C13950   2.639   0.943  12.345  0.4090 -0.3181  0.0453
   10MPD2    C113951   2.655   0.969  12.481 -0.3129 -0.5659 -0.3290
   10MPD2    C213952   2.607   1.097  12.525  0.3698 -1.1096 -0.9910
   10MPD2    C313953   2.545   1.184  12.439 -0.4653 -0.4953 -0.6860
   10MPD2    C413954   2.547   1.160  12.302 -0.2181 -0.6341  0.1318
   10MPD2    C513955   2.593   1.043  12.252 -0.4439 -0.2990  0.4816
   10MPD2     H13956   2.595   1.122  12.630 -0.5494  0.3201 -1.4379
   10MPD2    H113957   2.499   1.227  12.231 -2.4325  1.6606  3.8020
   10MPD2    H213958   2.662   0.848  12.298 -0.0667 -0.1286 -0.5915
   10MPD2    H313959   2.589   1.023  12.146  0.8909  0.8093  0.2187
   10MPD2     N13960   2.490   1.300  12.491 -0.9490  0.4993  0.0883
   10MPD2    H513961   2.497   1.324  12.589 -0.3992 -1.2370  0.4686
   10MPD2    N113962   2.705   0.876  12.580  0.1160 -0.5168 -0.2729
   10MPD2    H713963   2.740   0.785  12.550 -0.8758 -0.4847 -1.5156
   11MPD2     C13964   3.506   4.688  14.024 -0.3519  0.1543  0.0873
   11MPD2    C113965   3.394   4.719  13.946  0.4163 -0.1311  0.4232
   11MPD2    C213966   3.410   0.087  13.838 -0.3345  0.2567 -0.6594
   11MPD2    C313967   3.525   0.150  13.812  0.1571  0.0383  0.4638
   11MPD2    C413968   3.628   0.120  13.893  0.2858  0.1676  0.7708
   11MPD2    C513969   3.625   0.030  13.994  0.7629 -0.3304 -0.3107
   11MPD2     H13970   3.333   0.105  13.763  0.0515 -0.3848 -1.2114
   11MPD2    H113971   3.729   0.157  13.883 -0.0188  1.4542  2.5114
   11MPD2    H213972   3.517   4.620  14.108 -2.0587  0.0866  0.2474
   11MPD2    H313973   3.717   0.024  14.052  1.7673  1.9490 -1.6514
   11MPD2     N13974   3.563   0.245  13.713  0.3533 -0.4115  0.2432
   11MPD2    H513975   3.663   0.264  13.719  0.6505 -2.0264  0.2978
   11MPD2    N113976   3.275   4.654  13.972  0.1937 -0.2535 -0.3076
   11MPD2    H713977   3.201   4.656  13.903  0.2468 -2.2829 -0.4172
    1MPD1     C13978   0.576   1.366  17.080 -0.4782 -0.1502 -0.4588
    1MPD1    C113979   0.581   1.376  16.946  0.3344 -0.2333 -0.5874
    1MPD1    C213980   0.694   1.433  16.888 -0.0603 -0.7892 -0.9484
    1MPD1    C313981   0.788   1.491  16.966  1.0333 -0.1801  0.0346
    1MPD1    C413982   0.776   1.488  17.102 -0.0980  0.1711 -0.6159
    1MPD1    C513983   0.667   1.427  17.164  0.1026  0.4798  0.4594
    1MPD1     H13984   0.704   1.426  16.780  0.9077  1.7899 -1.0265
    1MPD1    H113985   0.860   1.525  17.159 -0.6470  1.7634 -0.8440
    1MPD1    H213986   0.494   1.320  17.133 -1.2749  2.1713  0.3403
    1MPD1    H313987   0.663   1.418  17.272  1.6868  0.9320  0.5449
    1MPD1     N13988   0.898   1.565  16.922  0.0558  0.4446  0.0585
    1MPD1    H513989   0.945   1.615  16.996  0.6943  0.3268 -0.2672
    1MPD1    N113990   0.490   1.305  16.867  0.3726  0.5568  0.0679
    1MPD1    H613991   0.399   1.293  16.910  0.7527  0.9094  0.9866
    1MPD1    H713992   0.478   1.340  16.773  1.0406 -0.2892 -0.3334
    2MPD1     C13993   1.495   2.279  17.093 -0.9975  0.7040 -1.0219
    2MPD1    C113994   1.394   2.289  17.001 -0.3773 -0.1340 -0.3673
    2MPD1    C213995   1.332   2.176  16.953 -0.0061 -0.8161 -0.0194
    2MPD1    C313996   1.369   2.050  17.009 -0.9441  0.2396 -0.3357
    2MPD1    C413997   1.468   2.039  17.103  0.4252 -0.6327  0.1813
    2MPD1    C513998   1.529   2.156  17.138  0.3209 -0.5936  0.5152
    2MPD1     H13999   1.255   2.185  16.878 -0.5963 -0.3762  0.6377
    2MPD1    H114000   1.501   1.943  17.140 -0.6992 -1.2557 -0.4236
    2MPD1    H214001   1.561   2.363  17.112 -1.2768  0.6528  0.1535
    2MPD1    H314002   1.616   2.151  17.203  1.7218  0.4017 -1.2863
    2MPD1     N14003   1.299   1.932  16.961  0.3482 -0.2219 -0.2657
    2MPD1    H514004   1.238   1.950  16.882 -1.2221  1.6112  1.3766
    2MPD1    N114005   1.374   2.410  16.933 -0.2763 -0.0143 -0.2227
    2MPD1    H614006   1.416   2.484  16.989  0.3218 -0.1701 -0.4718
    2MPD1    H714007   1.276   2.440  16.929 -0.0775  0.5369 -0.8766
    3TMC3    C114008   1.277   1.718  16.887  0.8774 -0.5212  0.0266
    3TMC3    C214009   1.339   1.713  16.768  0.1122 -0.6823  0.0748
    3TMC3    C314010   1.264   1.671  16.663 -1.0744 -0.1872 -0.3267
    3TMC3    C414011   1.143   1.683  16.901 -0.3797 -0.1369 -0.4543
    3TMC3    C514012   1.069   1.648  16.790  0.1709 -0.2308  0.5898
    3TMC3    C614013   1.130   1.649  16.672  0.4033  0.3540  0.2951
    3TMC3     C14014   1.339   1.807  16.986  0.2821  0.6492  0.6006
    3TMC3     O14015   1.426   1.750  17.050  0.3414 -0.5147 -0.4558
    3TMC3     H14016   1.447   1.721  16.766 -0.0783  1.9877  0.6989
    3TMC3    H114017   1.096   1.684  16.999  2.0377  4.4018  0.6513
    3TMC3    H214018   1.063   1.636  16.588  0.1735  1.0915  0.3601
    3TMC3    C714019   0.948   1.564  16.794  0.0257 -0.2401  0.3299
    3TMC3    C814020   1.315   1.684  16.525  0.5844 -0.0492  0.4258
    3TMC3    O114021   0.917   1.496  16.696  0.3434  0.3503 -0.5703
    3TMC3    O214022   1.236   1.715  16.435  0.3720 -0.0368  0.3830
    4MPD1     C14023   1.708   1.842  16.229 -0.8192 -0.4491 -0.8351
    4MPD1    C114024   1.750   1.740  16.313  0.2994 -0.1376  0.0063
    4MPD1    C214025   1.663   1.694  16.408  0.2872  0.2591 -0.1727
    4MPD1    C314026   1.531   1.729  16.416 -0.1805 -0.3968 -0.0819
    4MPD1    C414027   1.495   1.832  16.339 -0.7249 -0.2535 -0.2094
    4MPD1    C514028   1.577   1.889  16.251  0.4701 -0.5500 -0.5101
    4MPD1     H14029   1.701   1.622  16.480 -2.5976 -1.0956  0.0175
    4MPD1    H114030   1.394   1.870  16.353 -0.2597  0.7630  0.3969
    4MPD1    H214031   1.773   1.883  16.153 -3.4551 -0.2337 -2.9841
    4MPD1    H314032   1.539   1.983  16.212  0.8006 -0.4613 -0.6182
    4MPD1     N14033   1.456   1.677  16.521  0.3705 -0.4126  0.2612
    4MPD1    H514034   1.490   1.601  16.579 -0.7346 -0.8200  0.3815
    4MPD1    N114035   1.885   1.705  16.311  0.1149 -0.3091  0.1561
    4MPD1    H614036   1.904   1.626  16.373 -0.5143 -0.6530 -0.0865
    4MPD1    H714037   1.951   1.779  16.335  0.4919 -0.6975  0.3199
    1TCq1    O114038   2.764   0.541  12.165 -0.3374 -0.1666 -0.3161
    1TCq1    C114039   2.880   0.593  12.214 -0.1502  0.3018 -0.2690
    1TCq1    O214040   2.961   0.545  12.289  0.0175  0.4829 -0.0781
    1TCq1    C214041   2.888   0.741  12.198  0.9114 -0.3894  0.1097
    1TCq1    C314042   2.977   0.799  12.285  0.2606  0.1766  0.0439
    1TCq1    C414043   3.030   0.921  12.243  0.0300  0.1848  0.4713
    1TCq1    C514044   2.974   0.998  12.138 -0.0740 -0.4852 -0.2944
    1TCq1    C614045   2.887   0.930  12.054 -0.1733 -0.0842 -0.3637
    1TCq1    C714046   2.847   0.801  12.087  0.9865  0.0236 -0.6101
    1TCq1    C814047   2.813   1.002  11.959 -0.5773 -0.5703  0.8187
    1TCq1    O414048   2.826   1.126  11.963 -0.0132  0.4616  0.1789
    1TCq1    C914049   3.126   0.993  12.328  0.4195  0.5045  1.0529
    1TCq1    O514050   3.148   0.939  12.438  0.3669  0.0251 -0.0107
    1TCq1    O614051   3.173   1.109  12.293 -0.2637 -0.1367 -0.2410
    1TCq1    H114052   2.706   0.612  12.132 -0.9420 -0.5524 -0.1001
    1TCq1    H214053   3.028   0.742  12.361 -0.2033  0.1942  0.3642
    1TCq1    H314054   2.998   1.101  12.117 -1.2469  0.0671  1.0987
    1TCq1    H414055   2.779   0.749  12.021  1.5168 -0.1076 -1.0565
    2MPD1     C14056   2.472   1.013  11.590 -0.2242  0.2214 -0.3047
    2MPD1    C114057   2.558   0.911  11.561 -0.4018 -0.2965 -1.0585
    2MPD1    C214058   2.658   0.879  11.649  0.3731 -0.7495  0.3683
    2MPD1    C314059   2.683   0.958  11.757  0.3657 -0.0789 -0.1654
    2MPD1    C414060   2.601   1.061  11.778 -0.8857 -0.1138 -0.6378
    2MPD1    C514061   2.502   1.089  11.701  0.1492 -0.4002  0.2851
    2MPD1     H14062   2.715   0.789  11.630  0.4838 -0.6589  0.2720
    2MPD1    H114063   2.611   1.122  11.868 -0.2994 -1.5880  0.2951
    2MPD1    H214064   2.380   1.024  11.534 -1.2695  0.3103  1.4153
    2MPD1    H314065   2.449   1.179  11.732 -0.6193 -0.4115 -1.0004
    2MPD1     N14066   2.777   0.919  11.860 -1.1194  0.2235  0.1262
    2MPD1    H514067   2.799   0.820  11.867  0.8336  0.7001  0.6964
    2MPD1    N114068   2.520   0.826  11.452  0.4112  0.1322  0.3686
    2MPD1    H614069   2.603   0.797  11.401 -0.4547 -0.5145 -0.6647
    2MPD1    H714070   2.467   0.870  11.377  2.6880  1.4191 -0.4767
    1TCq1    O114071   3.621   1.834  17.526  0.1348  0.4626  0.1259
    1TCq1    C114072   3.694   1.894  17.434  0.2242  0.4521 -0.5372
    1TCq1    O214073   3.676   1.888  17.314  0.5876 -0.1826  0.0824
    1TCq1    C214074   3.822   1.935  17.495  0.0217  0.4003  0.0686
    1TCq1    C314075   3.880   1.876  17.609 -0.8422  0.1132  0.1412
    1TCq1    C414076   3.991   1.926  17.658 -0.2232 -0.5763 -0.4631
    1TCq1    C514077   4.065   2.016  17.590 -0.3123 -0.0227 -0.4750
    1TCq1    C614078   4.011   2.075  17.480 -0.1123 -0.2994  0.3379
    1TCq1    C714079   3.893   2.032  17.420  0.0372 -0.7855  0.6599
    1TCq1    C814080   4.075   2.176  17.409  0.9911  0.3468  0.0389
    1TCq1    O414081   4.037   2.199  17.292  0.0569  0.3001 -0.0608
    1TCq1    C914082   4.067   1.842   0.054 -0.6954 -0.2082 -0.2078
    1TCq1    O514083   4.017   1.732   0.087 -0.2205  0.1536  0.0523
    1TCq1    O614084   4.157   1.900   0.125 -0.3272  0.2958  0.0681
    1TCq1    H114085   3.654   1.852  17.617 -1.7650  0.1853  0.8763
    1TCq1    H214086   3.848   1.774  17.629 -0.3747  0.4338  2.5163
    1TCq1    H314087   4.168   2.035  17.620 -2.2695  5.3536  2.7755
    1TCq1    H414088   3.845   2.080  17.336 -0.4255 -3.3337 -0.5258
    2MPD1     C14089   4.459   2.466  17.253  0.0152  0.1702 -0.2553
    2MPD1    C114090   4.503   2.377  17.350  0.3395  0.3149  0.2188
    2MPD1    C214091   4.411   2.309  17.426 -0.3236 -0.6644  0.2529
    2MPD1    C314092   4.275   2.312  17.397  0.0557  0.1782 -0.6993
    2MPD1    C414093   4.233   2.393  17.290 -0.7206 -0.1265 -0.1071
    2MPD1    C514094   4.327   2.477  17.224 -1.0493  0.7755 -0.2488
    2MPD1     H14095   4.443   2.250  17.512 -1.4298 -1.6811 -0.0357
    2MPD1    H114096   4.131   2.393  17.255 -0.7607  2.4504 -0.0186
    2MPD1    H214097   4.539   2.522  17.205 -0.4244  0.5972 -0.4807
    2MPD1    H314098   4.294   2.550  17.152 -1.8174  1.4270  0.7595
    2MPD1     N14099   4.192   2.223  17.467 -0.0218 -0.4374  0.1935
    2MPD1    H514100   4.234   2.182  17.550 -1.5065  0.5958  1.4838
    2MPD1    N114101   4.641   2.369  17.371 -0.3410  0.2389 -0.0360
    2MPD1    H614102   4.702   2.434  17.321 -1.1560  2.2581  1.5748
    2MPD1    H714103   4.680   2.277  17.391  0.0036  0.5638  0.7594
    1MPD1     C14104   3.412   0.938  10.585 -0.3767  0.5342 -0.5905
    1MPD1    C114105   3.351   0.924  10.712  0.0299 -0.1343 -0.1169
    1MPD1    C214106   3.427   0.966  10.815  0.7324 -0.0384  0.5308
    1MPD1    C314107   3.549   1.023  10.800 -0.5512 -0.3549  1.0079
    1MPD1    C414108   3.608   1.028  10.677 -0.1236 -0.0186  0.1163
    1MPD1    C514109   3.534   0.991  10.566  0.1845 -0.1970 -0.2129
    1MPD1     H14110   3.379   0.959  10.912 -1.7747 -0.8479 -0.7714
    1MPD1    H114111   3.707   1.070  10.663 -1.1860  1.5011 -2.8743
    1MPD1    H214112   3.365   0.889  10.500  0.4872 -1.7273  0.2343
    1MPD1    H314113   3.570   0.995  10.464 -0.5024 -3.2823 -0.5933
    1MPD1     N14114   3.612   1.067  10.920  0.1897  0.0446 -0.7340
    1MPD1    H514115   3.561   1.049  11.006  1.7764 -0.2012  0.1555
    1MPD1    N114116   3.234   0.855  10.716 -0.1553  0.2703  0.1155
    1MPD1    H614117   3.200   0.869  10.811  1.0619 -3.0858  1.0487
    1MPD1    H714118   3.158   0.889  10.658 -0.3298  0.8356  0.6680
    2MPD1     C14119   3.624   1.505  10.951  0.0722  0.5554 -0.6289
    2MPD1    C114120   3.601   1.469  10.818 -0.4873 -0.1448 -0.3959
    2MPD1    C214121   3.674   1.531  10.718  0.5315 -0.6371  0.3996
    2MPD1    C314122   3.762   1.628  10.752  0.5495  0.0613  0.4079
    2MPD1    C414123   3.783   1.671  10.881  0.7521 -1.2994 -0.3915
    2MPD1    C514124   3.713   1.605  10.980 -0.9588 -0.6074  0.1016
    2MPD1     H14125   3.664   1.498  10.616 -0.4431 -1.1978  0.6794
    2MPD1    H114126   3.857   1.743  10.912 -0.1878 -0.2873 -0.5137
    2MPD1    H214127   3.575   1.461  11.038 -0.4972 -0.7145 -1.5852
    2MPD1    H314128   3.739   1.642  11.078 -0.6602 -1.3248  0.2904
    2MPD1     N14129   3.832   1.709  10.662 -0.2742 -0.7522  0.7381
    2MPD1    H514130   3.889   1.781  10.704 -1.3777  0.9106 -0.6238
    2MPD1    N114131   3.485   1.396  10.778  0.0574 -0.3966 -0.2181
    2MPD1    H614132   3.490   1.351  10.687 -0.6734 -1.4920  0.2912
    2MPD1    H714133   3.456   1.335  10.854 -1.3136  0.8099  0.2387
    3MPD1     C14134   4.480   1.823   9.812 -0.0428  0.0314 -0.1683
    3MPD1    C114135   4.540   1.874   9.925  0.2970  0.0086 -0.3052
    3MPD1    C214136   4.459   1.879  10.034  0.1376  0.0431 -0.1307
    3MPD1    C314137   4.326   1.841  10.042 -0.0077  0.2169 -0.0586
    3MPD1    C414138   4.269   1.796   9.926 -0.6804 -0.3379 -0.3505
    3MPD1    C514139   4.346   1.789   9.808  0.4178 -0.1409 -0.1306
    3MPD1     H14140   4.504   1.913  10.126 -0.4994  1.7501 -0.4504
    3MPD1    H114141   4.169   1.754   9.922 -0.8360  0.0676 -0.7022
    3MPD1    H214142   4.535   1.797   9.723 -0.1511 -2.2339  0.4104
    3MPD1    H314143   4.314   1.731   9.723  0.0235  0.6244 -0.5051
    3MPD1     N14144   4.247   1.847  10.160 -0.1856 -0.1010 -0.1811
    3MPD1    H514145   4.287   1.908  10.231 -1.9799  2.0316 -1.0489
    3MPD1    N114146   4.683   1.872   9.933  0.2183  0.3825 -0.0407
    3MPD1    H614147   4.716   1.935  10.006 -1.3955  0.7195  0.4143
    3MPD1    H714148   0.001   1.901   9.845  1.6498  0.2245  0.5898
    4MPD2     C14149   3.553   1.672  11.354 -0.0309 -0.3712 -0.2188
    4MPD2    C114150   3.680   1.616  11.354 -0.1352 -0.3083  0.0947
    4MPD2    C214151   3.784   1.709  11.353 -0.8329  0.3267 -0.9549
    4MPD2    C314152   3.763   1.849  11.354 -0.5706  0.5509  0.2617
    4MPD2    C414153   3.635   1.894  11.355  0.3034  0.1337 -0.2837
    4MPD2    C514154   3.529   1.805  11.357  0.1037  0.0720 -0.8729
    4MPD2     H14155   3.886   1.672  11.347 -0.3436  1.5044 -0.1616
    4MPD2    H114156   3.609   2.000  11.351  1.2540  0.4798  2.6948
    4MPD2    H214157   3.466   1.608  11.359 -1.5881  1.7807  0.1474
    4MPD2    H314158   3.428   1.844  11.353 -1.0940 -2.7897  0.7819
    4MPD2     N14159   3.875   1.929  11.355  0.3695  0.0285  0.0457
    4MPD2    H514160   3.962   1.881  11.375  0.7162  1.2293  1.4399
    4MPD2    N114161   3.718   1.484  11.336 -0.2123  0.1696 -0.3685
    4MPD2    H714162   3.817   1.465  11.325 -0.3886  0.7682 -2.9142
    5TMC3    C114163   3.713   1.261  11.282 -0.0702  0.7703  0.1731
    5TMC3    C214164   3.680   1.195  11.164 -0.0577  0.0655  0.6285
    5TMC3    C314165   3.778   1.157  11.076 -0.7625 -0.0762 -0.2885
    5TMC3    C414166   3.846   1.277  11.318 -0.1909  0.4771 -0.0590
    5TMC3    C514167   3.943   1.241  11.221 -0.1434  0.2325 -0.2575
    5TMC3    C614168   3.909   1.189  11.094  0.5108 -0.0444  0.0034
    5TMC3     C14169   3.637   1.379  11.306  0.2992  0.2016 -0.7741
    5TMC3     O14170   3.519   1.384  11.269  0.1959 -0.1854 -0.4014
    5TMC3     H14171   3.578   1.193  11.128  0.2156  3.7148 -0.3983
    5TMC3    H114172   3.883   1.324  11.408 -0.1945 -1.2332  0.8316
    5TMC3    H214173   3.980   1.143  11.027  0.8222 -1.1743  1.1350
    5TMC3    C714174   4.035   1.347  11.207 -0.4722 -0.7156  0.0362
    5TMC3    C814175   3.744   1.124  10.937 -0.5634 -0.1858 -0.0637
    5TMC3    O114176   4.064   1.406  11.311  0.1674 -0.0001 -0.4115
    5TMC3    O214177   3.826   1.139  10.850 -0.0168 -0.2433  0.1247
    6TMC3    C114178   3.905   1.805  10.456  0.2689 -0.0652  0.4153
    6TMC3    C214179   3.963   1.771  10.341 -0.1354  0.1928  0.0590
    6TMC3    C314180   4.056   1.852  10.288  0.5517  0.2348 -0.6080
    6TMC3    C414181   3.938   1.925  10.510  0.2908  0.1242 -0.3232
    6TMC3    C514182   4.041   2.000  10.457 -0.2740  0.8486  0.0916
    6TMC3    C614183   4.102   1.968  10.342 -0.3768 -0.3251 -0.2654
    6TMC3     C14184   3.814   1.707  10.529 -0.5651  0.3804 -0.1549
    6TMC3     O14185   3.750   1.630  10.456  0.0274  0.3613 -0.5786
    6TMC3     H14186   3.937   1.679  10.290  1.5125  0.1551 -0.7225
    6TMC3    H114187   3.885   1.960  10.598  0.5490 -3.1096  1.1310
    6TMC3    H214188   4.168   2.038  10.292  1.5232 -1.2010  0.9961
    6TMC3    C714189   4.100   2.111  10.533  0.5067  0.5415  0.0343
    6TMC3    C814190   4.121   1.799  10.174  0.0956  0.0407  0.4313
    6TMC3    O114191   4.215   2.092  10.573  0.3028  0.2633 -0.4538
    6TMC3    O214192   4.063   1.709  10.112 -0.4442 -0.1099  0.1661
    7MPD2     C14193   4.189   1.754  10.933 -0.6951  0.3466  0.6208
    7MPD2    C114194   4.157   1.739  11.064  0.0786 -0.2050 -0.1505
    7MPD2    C214195   4.106   1.617  11.111  0.3068 -0.2548 -0.1671
    7MPD2    C314196   4.086   1.509  11.029  0.5274  0.0690 -0.1258
    7MPD2    C414197   4.099   1.532  10.892  0.4230 -0.2185  0.0890
    7MPD2    C514198   4.146   1.652  10.852  0.7371  0.7242  0.6051
    7MPD2     H14199   4.103   1.605  11.218  1.1557  2.5793  0.1938
    7MPD2    H114200   4.076   1.458  10.815 -0.1640  0.4998 -0.4373
    7MPD2    H214201   4.230   1.846  10.894  1.5905  0.5411  3.4493
    7MPD2    H314202   4.161   1.665  10.745  1.0027  1.9174  0.7838
    7MPD2     N14203   4.033   1.384  11.075 -0.2150 -0.9522  0.3416
    7MPD2    H514204   4.006   1.314  11.006  0.1349  0.9186 -1.6813
    7MPD2    N114205   4.195   1.845  11.152 -0.0357  0.2832 -0.1618
    7MPD2    H714206   4.232   1.926  11.102 -0.2474  1.1501  1.0838
    8TMC3    C114207   4.200   1.988  11.333 -0.4495  0.0977 -0.6885
    8TMC3    C214208   4.240   2.063  11.230  0.3129 -0.3453 -0.4296
    8TMC3    C314209   4.176   2.180  11.197  0.1015  0.2158  0.4312
    8TMC3    C414210   4.100   2.034  11.406  0.6350  0.7610  0.4603
    8TMC3    C514211   4.015   2.119  11.351 -0.1944 -0.1008  0.1830
    8TMC3    C614212   4.058   2.204  11.255  0.3247 -0.1075 -0.0843
    8TMC3     C14213   4.168   1.858  11.285 -0.1872  0.0247  0.2391
    8TMC3     O14214   4.101   1.786  11.356 -0.1319  0.1199 -0.1923
    8TMC3     H14215   4.328   2.034  11.173 -0.0986  1.1958 -1.8611
    8TMC3    H114216   4.065   1.978  11.491 -0.3134 -1.2828 -1.2775
    8TMC3    H214217   3.992   2.280  11.215  0.6730  1.0637  1.5803
    8TMC3    C714218   3.881   2.068  11.348 -0.8343 -0.1147  0.0650
    8TMC3    C814219   4.170   2.202  11.051  0.2296  0.0377 -0.4443
    8TMC3    O114220   3.794   2.146  11.323  0.5488 -0.0717  0.2963
    8TMC3    O214221   4.208   2.112  10.980  0.2739  0.0605  0.1854
    9MPD2     C14222   4.000   2.486  10.878 -0.2929 -0.3442 -0.4923
    9MPD2    C114223   4.064   2.365  10.890 -0.0030 -0.1972 -0.3110
    9MPD2    C214224   4.076   2.280  10.776 -0.0351  0.6594 -0.7382
    9MPD2    C314225   4.024   2.310  10.651  0.4957 -0.6163  0.0493
    9MPD2    C414226   3.952   2.429  10.640 -0.7569  0.1621  0.4590
    9MPD2    C514227   3.941   2.510  10.753  0.1148  0.1976  0.1126
    9MPD2     H14228   4.130   2.187  10.785  0.5055  1.0631  0.1354
    9MPD2    H114229   3.890   2.449  10.554 -1.3729 -0.2905  0.7993
    9MPD2    H214230   3.983   2.543  10.968 -1.8211 -0.2261 -0.8501
    9MPD2    H314231   3.905   2.611  10.736 -1.6163 -0.6645 -1.3335
    9MPD2     N14232   4.024   2.223  10.542 -0.1740 -0.5202 -0.1877
    9MPD2    H514233   3.942   2.232  10.482  0.2198  1.7539 -0.3671
    9MPD2    N114234   4.098   2.321  11.018  0.3662  0.3941  0.5557
    9MPD2    H714235   4.080   2.385  11.096 -2.8986 -0.2784  0.3641
    1MPD1     C14236   4.004   0.601  16.664 -0.3603  0.4815 -0.2651
    1MPD1    C114237   3.998   0.483  16.730 -0.1234  0.5942 -0.4838
    1MPD1    C214238   3.882   0.410  16.716 -0.1008 -0.3956  0.4567
    1MPD1    C314239   3.786   0.440  16.620 -0.1847 -0.5176 -0.2626
    1MPD1    C414240   3.812   0.549  16.534 -0.1057 -0.0253  0.2481
    1MPD1    C514241   3.922   0.628  16.558  0.1645  0.7429 -0.2078
    1MPD1     H14242   3.866   0.330  16.788  2.4426 -1.7185 -0.4463
    1MPD1    H114243   3.739   0.582  16.461 -0.0176  0.2558  0.2878
    1MPD1    H214244   4.082   0.676  16.671 -0.2998  0.2195  1.7485
    1MPD1    H314245   3.942   0.714  16.495  0.4734  3.2504  3.3058
    1MPD1     N14246   3.677   0.357  16.588 -0.4431  0.2596  0.6982
    1MPD1    H514247   3.630   0.383  16.501  0.8134 -1.5607 -0.5168
    1MPD1    N114248   4.093   0.454  16.827 -0.5366  0.1661  0.8778
    1MPD1    H614249   4.095   0.366  16.879  0.7027  0.1964  0.8936
    1MPD1    H714250   4.187   0.487  16.803 -1.8775  2.9651 -0.5218
    2MPD1     C14251   3.790   4.509  15.890 -0.5413 -0.0572  0.1945
    2MPD1    C114252   3.859   4.616  15.942  0.0181  0.7710 -0.3106
    2MPD1    C214253   3.808   4.675  16.059  0.0738 -0.2355  0.4873
    2MPD1    C314254   3.684   4.643  16.116  0.0593  1.7228 -0.1036
    2MPD1    C414255   3.613   4.541  16.048  0.2327 -0.9292 -0.1787
    2MPD1    C514256   3.671   4.477  15.941 -0.2061  0.2520  0.2803
    2MPD1     H14257   3.862   0.037  16.096  0.0904 -1.1839  2.6333
    2MPD1    H114258   3.514   4.513  16.081 -0.2203  1.9946  0.9096
    2MPD1    H214259   3.826   4.450  15.807 -1.8725  1.4556 -1.4620
    2MPD1    H314260   3.618   4.398  15.888  0.5108  0.1279 -0.2554
    2MPD1     N14261   3.641   4.710  16.233 -0.6328  0.1701  0.0182
    2MPD1    H514262   3.699   0.063  16.266  0.9026 -0.7232 -0.6164
    2MPD1    N114263   3.991   4.642  15.899 -0.6375 -0.0579  0.5209
    2MPD1    H614264   4.004   4.615  15.802  0.3874  0.0123  0.6309
    2MPD1    H714265   4.022   0.015  15.905  0.3410 -0.3217 -0.3153
    3TCq2    C114266   3.530   4.671  16.305  0.0983  0.1918 -0.0524
    3TCq2    O214267   3.460   4.574  16.284  0.1722 -0.2179  0.4717
    3TCq2    C214268   3.487   0.033  16.421 -0.1528 -0.4985 -0.1067
    3TCq2    C314269   3.376   4.711  16.498  0.2711  0.3071 -0.0166
    3TCq2    C414270   3.346   0.034  16.616 -0.6058 -0.1036  0.0357
    3TCq2    C514271   3.428   0.125  16.665 -0.5547  0.2764  0.2153
    3TCq2    C614272   3.533   0.175  16.593  0.4673  0.3771  0.2012
    3TCq2    C714273   3.558   0.146  16.460 -0.7187 -0.6407  0.5398
    3TCq2    C814274   3.626   0.257  16.671  0.3112  0.3449  0.1349
    3TCq2    O414275   3.654   0.228  16.787 -0.1723  0.0410  0.1606
    3TCq2    C914276   3.226   4.702  16.681 -0.3215  0.7000  0.8269
    3TCq2    O514277   3.174   4.599  16.631 -0.1160  0.0512 -0.3588
    3TCq2    O614278   3.197   0.014  16.800  0.3149  0.6007 -0.0688
    3TCq2    H214279   3.316   4.633  16.452  0.1322 -1.3656  3.0193
    3TCq2    H314280   3.407   0.174  16.760  3.2835 -0.5991  1.5211
    3TCq2    H414281   3.653   0.175  16.416 -0.6613 -1.3671  0.1869
    1TCq1    O114282   1.063   4.156  13.456  0.3378  0.2781 -0.4733
    1TCq1    C114283   1.184   4.215  13.444  0.0504 -0.1456  0.4776
    1TCq1    O214284   1.263   4.230  13.533  0.3379 -0.3275 -0.1241
    1TCq1    C214285   1.169   4.303  13.331  0.9183  0.4521  0.0884
    1TCq1    C314286   1.046   4.362  13.304  0.0349  0.2656  0.3440
    1TCq1    C414287   1.035   4.446  13.195 -0.7436  0.6025  0.6506
    1TCq1    C514288   1.143   4.463  13.116 -0.3623 -0.2144 -0.3033
    1TCq1    C614289   1.264   4.394  13.137 -0.3180  0.2163  0.0504
    1TCq1    C714290   1.275   4.313  13.248 -0.0539  0.4787  0.0562
    1TCq1    C814291   1.380   4.412  13.051 -0.4040 -0.5296  0.2026
    1TCq1    O414292   1.371   4.449  12.933  0.6223 -0.3107 -0.2131
    1TCq1    C914293   0.908   4.507  13.172 -0.2639  0.5037  0.0230
    1TCq1    O514294   0.809   4.475  13.242  0.9691  0.8859 -0.1898
    1TCq1    O614295   0.896   4.558  13.056  0.5178  0.2775  0.1712
    1TCq1    H114296   1.013   4.147  13.371  0.8904 -3.0886 -0.4255
    1TCq1    H214297   0.960   4.358  13.370 -0.4249  0.6096 -0.2302
    1TCq1    H314298   1.144   4.525  13.027 -1.4336 -1.1328 -0.9631
    1TCq1    H414299   1.358   4.247  13.273 -0.4236 -0.3770 -0.9703
    2MPD2     C14300   1.667   4.422  12.956 -0.2101 -0.4324  1.0665
    2MPD2    C114301   1.621   4.385  13.078  0.8541 -0.5049 -0.3339
    2MPD2    C214302   1.711   4.332  13.170  0.1363 -0.4303 -0.5277
    2MPD2    C314303   1.847   4.322  13.137 -0.0814  0.0636  0.1463
    2MPD2    C414304   1.894   4.355  13.017 -0.3780  0.1713 -0.1805
    2MPD2    C514305   1.801   4.412  12.930  0.3241  0.5285  0.3446
    2MPD2     H14306   1.681   4.282  13.261 -0.3674 -1.3185 -1.1799
    2MPD2    H114307   1.998   4.362  12.989 -0.0830 -1.0489  0.5928
    2MPD2    H214308   1.609   4.463  12.875  1.3898  0.3926  0.3321
    2MPD2    H314309   1.840   4.438  12.832  2.0429 -0.5152  0.7410
    2MPD2     N14310   1.927   4.271  13.241  0.4048 -0.2325  0.5357
    2MPD2    H514311   1.890   4.256  13.334  1.2218 -0.9389  0.7414
    2MPD2    N114312   1.488   4.380  13.121 -0.4548  0.1440  0.3662
    2MPD2    H714313   1.471   4.367  13.220 -0.8877  1.0185  0.4101
    3TCq1    O114314   2.190   4.230  13.769 -0.2626  0.3891  0.0925
    3TCq1    C114315   2.069   4.219  13.715 -0.2862  0.0266 -0.0130
    3TCq1    O214316   1.986   4.308  13.734  0.6047 -0.2366  0.0883
    3TCq1    C214317   2.085   4.147  13.588 -0.0849 -0.4603 -0.4956
    3TCq1    C314318   2.176   4.042  13.590  0.4612  0.1546  0.1552
    3TCq1    C414319   2.224   3.996  13.468  0.4842 -0.7527 -0.2751
    3TCq1    C514320   2.194   4.056  13.347  0.9371 -0.2198 -0.0124
    3TCq1    C614321   2.104   4.158  13.350  0.1463  0.6541  0.2986
    3TCq1    C714322   2.048   4.201  13.470  0.5917  0.3524 -0.6023
    3TCq1    C814323   2.056   4.225  13.228 -0.4552 -0.8181  0.1727
    3TCq1    O414324   2.124   4.217  13.125 -0.1512  0.3831 -0.3201
    3TCq1    C914325   2.308   3.885  13.464  0.4049 -0.5863 -0.5789
    3TCq1    O514326   2.316   3.821  13.569 -0.3614 -0.2394 -0.3475
    3TCq1    O614327   2.346   3.847  13.351 -0.4646 -0.0717 -0.3222
    3TCq1    H114328   2.255   4.191  13.706 -0.9587 -1.3989  0.4846
    3TCq1    H214329   2.216   4.000  13.681  1.0820  0.6449  0.1083
    3TCq1    H314330   2.245   4.024  13.257  0.7713 -1.5858  0.3934
    3TCq1    H414331   1.981   4.286  13.473  0.8708  0.5015  1.2588
    1MPD2     C14332   1.237   0.253  14.690 -0.1075  0.1718 -0.1402
    1MPD2    C114333   1.175   0.137  14.647 -0.9787 -0.1878  0.7341
    1MPD2    C214334   1.248   0.050  14.560  0.0391  0.5045  0.6868
    1MPD2    C314335   1.383   0.076  14.535  0.0764  0.0917  0.0680
    1MPD2    C414336   1.442   0.193  14.577  0.4434 -0.5304 -0.4017
    1MPD2    C514337   1.365   0.281  14.652 -0.1919  0.9654  0.4681
    1MPD2     H14338   1.216   4.678  14.521  0.4173 -0.0010  1.6241
    1MPD2    H114339   1.547   0.213  14.562  0.2750  1.8186  1.5424
    1MPD2    H214340   1.179   0.320  14.751 -0.1788 -1.5818  1.7126
    1MPD2    H314341   1.408   0.372  14.690  1.7709  0.2576 -0.0849
    1MPD2     N14342   1.453   4.699  14.463 -0.7808 -0.4226 -0.1520
    1MPD2    H514343   1.403   4.614  14.436  0.6116 -1.5205  0.7028
    1MPD2    N114344   1.045   0.102  14.696  0.2712 -0.2302  0.3839
    1MPD2    H714345   0.995   0.172  14.750 -0.0572 -0.9466  1.0155
    2TMC3    C114346   0.863   4.669  14.754  0.7442  0.4267  0.8464
    2TMC3    C214347   0.864   4.534  14.763 -0.3025  0.1374  0.8570
    2TMC3    C314348   0.759   4.468  14.711 -0.4292 -0.3334 -0.0111
    2TMC3    C414349   0.749   0.012  14.710  0.7023 -0.8555 -0.6769
    2TMC3    C514350   0.641   4.655  14.665  0.0884  0.8639  0.0580
    2TMC3    C614351   0.642   4.519  14.664 -0.4097  0.1043  0.2275
    2TMC3     C14352   0.996   4.695  14.683  0.0337  0.0670 -0.0378
    2TMC3     O14353   1.040   4.597  14.623  0.1902  0.1885 -0.3475
    2TMC3     H14354   0.956   4.490  14.797 -0.7456 -0.5898  1.1074
    2TMC3    H114355   0.744   0.120  14.705 -0.8561 -0.9820 -2.1369
    2TMC3    H214356   0.560   4.461  14.622 -0.9132  0.5116  0.6482
    2TMC3    C714357   0.512   4.714  14.654  0.0860  0.0619  0.7431
    2TMC3    C814358   0.784   4.345  14.640 -0.4974  0.2070 -0.2437
    2TMC3    O114359   0.418   4.645  14.611  0.1999 -0.3243 -0.4362
    2TMC3    O214360   0.711   4.249  14.662 -0.1326  0.1359  0.4165
    3TCq1    O114361   4.529   0.552  15.399  0.2361 -0.0851  0.4275
    3TCq1    C114362   4.627   0.482  15.456 -0.2141 -0.3297 -0.5635
    3TCq1    O214363   4.620   0.455  15.576 -0.2573 -0.2357  0.5830
    3TCq1    C214364   0.026   0.482  15.371 -0.0981  0.4837 -0.6707
    3TCq1    C314365   0.149   0.505  15.434  0.3046  0.0631  0.4482
    3TCq1    C414366   0.261   0.527  15.350  0.6272  0.0634  0.0047
    3TCq1    C514367   0.252   0.534  15.214 -0.1045 -0.0672 -0.2133
    3TCq1    C614368   0.122   0.513  15.164 -0.2956 -0.2906 -0.1892
    3TCq1    C714369   0.008   0.490  15.234 -0.3404 -0.3152 -0.6120
    3TCq1    C814370   0.120   0.465  15.033 -0.2351  0.0813  0.1098
    3TCq1    O414371   0.010   0.474  14.982  0.3336  1.3072  0.2201
    3TCq1    C914372   0.395   0.537  15.412 -0.1619  0.1797 -0.8783
    3TCq1    O514373   0.401   0.540  15.538 -0.2475 -0.3395 -0.0345
    3TCq1    O614374   0.485   0.538  15.328  0.2285 -0.3989  0.1639
    3TCq1    H114375   4.537   0.587  15.307  0.1227 -0.2221  0.3644
    3TCq1    H214376   0.154   0.517  15.541 -0.5404 -0.6617  0.5638
    3TCq1    H314377   0.339   0.562  15.155  1.4273 -1.8577  1.1994
    3TCq1    H414378   4.638   0.466  15.186  0.7064 -3.5037 -1.0846
    4MPD2     C14379   0.155   0.325  14.771 -0.2670 -0.7672  0.5200
    4MPD2    C114380   0.244   0.321  14.877 -0.0679 -0.5326  0.0732
    4MPD2    C214381   0.353   0.237  14.863 -0.0705 -0.3829  0.3808
    4MPD2    C314382   0.369   0.168  14.748 -0.7930  0.2482  0.0704
    4MPD2    C414383   0.278   0.167  14.648 -0.1156  0.5520  0.3857
    4MPD2    C514384   0.169   0.243  14.663  0.3436 -0.5790 -0.1242
    4MPD2     H14385   0.423   0.216  14.943  1.3087  3.0959  0.1095
    4MPD2    H114386   0.282   0.104  14.560 -0.1156  1.4651 -0.2715
    4MPD2    H214387   0.059   0.374  14.768  0.9893  1.6885  1.2436
    4MPD2    H314388   0.091   0.224  14.590  0.9231 -1.2376 -0.5745
    4MPD2     N14389   0.494   0.109  14.728 -0.3753  0.7094 -0.0355
    4MPD2    H514390   0.564   0.117  14.801  1.3813 -0.4558 -1.5981
    4MPD2    N114391   0.230   0.389  15.001 -0.3271 -0.7997 -0.2941
    4MPD2    H714392   0.301   0.375  15.073  0.5253 -1.7845 -1.3333
    5TMC2    C114393   1.504   4.374  14.333 -0.1235  0.5114 -0.6535
    5TMC2    C214394   1.598   4.303  14.409  0.8388  0.0377  0.0813
    5TMC2    C314395   1.707   4.366  14.458 -0.0068 -0.3067 -0.8910
    5TMC2    C414396   1.520   4.509  14.314 -0.0262 -0.0941  0.1852
    5TMC2    C514397   1.627   4.576  14.372 -0.0900 -0.2127 -0.3966
    5TMC2    C614398   1.731   4.506  14.438 -0.2856  0.0841 -0.1815
    5TMC2     C14399   1.365   4.353  14.376  0.2248  0.0080  0.7014
    5TMC2     O14400   1.312   4.455  14.418 -0.3584 -0.5925 -0.4653
    5TMC2     H14401   1.599   4.194  14.412 -0.7840 -0.0537 -2.2195
    5TMC2    H114402   1.451   4.559  14.247 -0.6811  0.0791  0.9797
    5TMC2    H214403   1.802   4.564  14.496 -0.3148  0.3351 -0.3953
    5TMC2    C714404   1.590   4.702  14.437 -0.4304 -0.3648 -0.1003
    5TMC2    C814405   1.814   4.275  14.486 -0.8783 -0.2948  0.6703
    5TMC2    O114406   1.677   0.051  14.477  0.2904  0.0569 -0.5761
    5TMC2    O214407   1.804   4.150  14.483 -0.3029 -0.2541  0.2015
    5TMC2    O514408   1.929   4.339  14.452 -0.2391  0.0550 -0.5572
    5TMC2    H514409   1.924   4.431  14.417 -0.3180  0.3841  0.3142
    6MPD2     C14410   0.940   4.107  14.515  0.1897  0.2038 -0.2734
    6MPD2    C114411   0.979   4.241  14.525  0.3390  0.4112  0.6954
    6MPD2    C214412   1.102   4.277  14.486 -0.0478  0.1474 -0.7113
    6MPD2    C314413   1.187   4.186  14.431 -0.1975  0.3420  0.1018
    6MPD2    C414414   1.153   4.053  14.441 -0.0053  0.1477  0.4515
    6MPD2    C514415   1.029   4.017  14.471 -0.3641 -0.2749 -0.2175
    6MPD2     H14416   1.123   4.382  14.505  2.9852 -0.4674 -0.5509
    6MPD2    H114417   1.231   3.979  14.429  0.2697  0.8129 -1.9131
    6MPD2    H214418   0.838   4.077  14.535  0.3984 -0.1040  0.3338
    6MPD2    H314419   0.996   3.914  14.465 -0.6810 -0.2650  1.3327
    6MPD2     N14420   1.319   4.225  14.395  0.1955  0.3277  0.1851
    6MPD2    H514421   1.385   4.152  14.374  1.2453  0.9882  1.1999
    6MPD2    N114422   0.908   4.343  14.582 -0.2211  0.4534  0.2352
    6MPD2    H714423   0.947   4.437  14.581  1.7397 -0.3837 -1.4526
  945NH3     N114424   3.863   0.359   0.548 -0.1547  0.1308 -0.2261
  945NH3     H214425   3.770   0.322   0.563 -1.3949  2.2629 -2.5207
  945NH3     H314426   3.842   0.428   0.476 -0.6370  1.2099  0.9460
  945NH3     H414427   3.896   0.275   0.503 -2.6567 -0.9625 -0.0170
  946SOD     NA14428   0.938   3.439  13.689 -0.3105 -0.1311  0.0913
  947SOD     NA14429   3.059   2.889  12.336  0.0069  0.3284 -0.0841
  948SOD     NA14430   4.358   1.702   2.383  0.2915  0.2151  0.4243
  949SOD     NA14431   1.898   4.487   4.074  0.2116 -0.2075 -0.3443
  950SOD     NA14432   1.670   0.092   1.383  0.0300  0.1921 -0.0708
  951SOD     NA14433   1.054   4.317  15.093 -0.0049  0.3790  0.1663
  952SOD     NA14434   3.436   1.558  11.890 -0.1656  0.3998  0.4692
  953SOD     NA14435   1.297   3.681   0.363 -0.1554 -0.4200 -0.5597
  954SOD     NA14436   0.110   2.885  14.902 -0.0983  0.3149 -0.3953
  955SOD     NA14437   3.419   0.199  14.759  0.1326  0.1447 -0.1863
  956SOD     NA14438   3.047   4.318  15.329  0.5440  0.2212  0.0881
  957SOD     NA14439   1.024   1.113  12.256 -0.3576 -0.0992  0.2077
  958SOD     NA14440   4.491   2.084   8.583  0.1659  0.1945  0.0633
  959SOD     NA14441   3.268   1.196  14.226  0.4242 -0.4002  0.2110
  960SOD     NA14442   3.284   1.135  12.477 -0.3630 -0.0290 -0.0266
  961SOD     NA14443   3.063   4.686   8.189  0.0950  0.2991  0.2789
  962SOD     NA14444   2.741   3.897  11.809  0.0348 -0.0334 -0.0543
  963SOD     NA14445   1.812   3.099   9.272 -0.3693  0.0078 -0.0239
  964SOD     NA14446   2.630   3.124   5.894 -0.1616 -0.4120  0.2017
  965SOD     NA14447   3.851   1.643   0.175 -0.3554  0.6730  0.1118
  966SOD     NA14448   0.941   1.291   1.344  0.0110  0.0255 -0.2133
  967SOD     NA14449   2.604   0.877   9.112 -0.0459 -0.5759  0.4324
  968SOD     NA14450   0.944   1.966   2.421  0.2016 -0.2495  0.2642
  969SOD     NA14451   4.055   3.619  11.442 -0.2954  0.0239 -0.0570
  970SOD     NA14452   4.479   4.265  10.828  0.4857 -0.2215 -0.1592
  971SOD     NA14453   2.464   3.687  13.650  0.2413 -0.5146  0.0456
  972SOD     NA14454   2.158   0.305  11.433 -0.2772  0.4656  0.0165
  973SOD     NA14455   2.039   0.802   7.597 -0.1709 -0.8239  0.3930
  974SOD     NA14456   2.977   3.556  14.244  0.3756 -0.2632  0.4027
  975SOD     NA14457   0.684   3.599  11.033 -0.6480 -0.2706  0.0752
  976SOD     NA14458   2.129   0.656  13.724 -0.0135 -0.4712 -0.0461
  977SOD     NA14459   2.517   0.217  11.825  0.8209  0.0205 -0.3622
  978SOD     NA14460   4.150   1.736   0.265  0.1810 -0.0486  0.1037
  979SOD     NA14461   0.701   4.475  13.016 -0.7538 -0.0354 -0.3288
  980SOD     NA14462   4.526   4.166  13.428 -0.3093 -0.1340 -0.0550
  981SOD     NA14463   1.518   2.745   2.750  0.3120 -0.4802  0.2471
  982SOD     NA14464   4.101   3.448   0.327  0.1514 -0.0202  0.0502
  983SOD     NA14465   2.367   2.268  15.567 -0.2574 -0.2488 -0.2993
  984SOD     NA14466   0.241   1.969  13.185 -0.4777  0.0001 -0.0440
  985SOD     NA14467   2.957   2.504   2.835  0.2549 -0.1279  0.2311
  986SOD     NA14468   4.493   4.217  16.706 -0.1590  0.0495  0.1797
  987SOD     NA14469   0.038   2.810   1.036 -0.0588 -0.3525 -0.3181
  988SOD     NA14470   0.764   4.026   9.205  1.1772 -0.0146 -0.0411
  989SOD     NA14471   0.960   4.542   1.232 -0.1778  0.0724  0.6624
  990SOD     NA14472   3.321   3.259  17.342  0.1071  0.0158  0.0260
  991SOD     NA14473   3.741   4.291  14.981 -0.4867 -0.2489 -0.4283
  992SOD     NA14474   0.634   0.682  15.270 -0.1178 -0.4099 -0.4629
  993SOD     NA14475   1.343   3.054  10.546  0.0451 -0.1166  0.4598
  994SOD     NA14476   2.473   4.245  11.076  0.4306  0.2227  0.3182
  995SOD     NA14477   3.052   3.363  14.063 -0.5166  0.1196  0.2897
  996SOD     NA14478   1.219   2.871  10.021 -0.4149 -0.3766  0.2875
  997SOD     NA14479   1.214   3.912  10.774 -0.3980 -0.3421  0.2933
  998SOD     NA14480   4.046   4.661   3.760  0.1019 -0.4470  0.0716
  999SOD     NA14481   2.157   1.412  16.156  0.5462  0.2405 -0.2532
 1000SOD     NA14482   4.031   3.514   0.637  0.3592 -0.3807 -0.3569
 1001SOD     NA14483   1.345   2.780  10.339 -0.0805  0.2869 -0.1312
 1002SOD     NA14484   0.020   4.674  13.650 -0.1380 -0.0370  0.2658
 1003SOD     NA14485   2.227   0.120  11.697 -0.0862  0.3414  0.0541
 1004SOD     NA14486   1.355   3.106  10.236 -0.0169  0.0716  0.0485
 1005SOD     NA14487   0.871   0.037  13.025 -0.8828  0.3469  0.5225
 1006SOD     NA14488   4.092   0.680   2.279  0.2539 -0.2178 -0.3002
 1007SOD     NA14489   0.930   3.846  10.987  0.4824 -0.3156 -0.2645
 1008SOD     NA14490   1.743   2.169  16.889 -0.2813 -0.1222 -0.1074
 1009SOD     NA14491   2.998   3.630  14.658  0.2963 -0.2672 -0.3216
 1010SOD     NA14492   1.331   4.632   9.932  0.0798  0.1910 -0.0533
 1011SOD     NA14493   2.171   3.289  10.415  0.4285  0.0094 -0.3640
 1012SOL     OW14494   0.701   1.829   8.269  0.4603  0.1977  0.4018
 1012SOL    HW114495   0.795   1.809   8.271 -0.0392 -2.4298 -2.0865
 1012SOL    HW214496   0.669   1.749   8.311 -0.5380 -0.8272 -2.3477
 1013SOL     OW14497   3.074   1.232   8.908  0.1379  0.0323 -0.0836
 1013SOL    HW114498   3.008   1.280   8.958  0.8216  1.7995 -0.8592
 1013SOL    HW214499   3.144   1.210   8.969  1.0938  0.1668 -1.1187
 1014SOL     OW14500   4.283   4.044   9.041 -0.0128  0.1871  0.1814
 1014SOL    HW114501   4.242   4.109   9.098  0.2295  1.0758 -0.6696
 1014SOL    HW214502   4.296   3.976   9.108 -2.7027 -1.5985 -1.1028
 1015SOL     OW14503   1.517   3.817   1.096  0.0850  0.1930 -0.3015
 1015SOL    HW114504   1.564   3.744   1.054  2.9780  0.5080  2.3772
 1015SOL    HW214505   1.445   3.767   1.134 -0.5603 -0.4897 -2.4033
 1016SOL     OW14506   3.258   3.863   8.949 -0.5063  0.5573 -0.0130
 1016SOL    HW114507   3.349   3.869   8.978 -0.9426  1.1361  1.2548
 1016SOL    HW214508   3.216   3.886   9.032 -1.5718  0.2148 -0.4615
 1017SOL     OW14509   2.210   1.760   5.790  0.5665  0.1443  0.6245
 1017SOL    HW114510   2.282   1.730   5.845  2.5855 -0.3206 -2.2880
 1017SOL    HW214511   2.256   1.755   5.706 -0.9514 -0.0340 -0.1999
 1018SOL     OW14512   1.986   3.256  15.763  0.0893 -0.0732  0.2676
 1018SOL    HW114513   1.988   3.289  15.853  2.0404  1.5713 -0.3936
 1018SOL    HW214514   2.061   3.308  15.735  0.2104  0.6379  1.8713
 1019SOL     OW14515   0.567   3.292   3.563  0.1858 -0.5485  0.0368
 1019SOL    HW114516   0.622   3.369   3.576  2.7751 -2.1960 -1.2832
 1019SOL    HW214517   0.509   3.333   3.498 -0.1074 -2.5691 -0.9704
 1020SOL     OW14518   1.819   1.522   4.510  0.6031 -0.2520  0.2602
 1020SOL    HW114519   1.729   1.532   4.541  0.7844  1.6959  0.1191
 1020SOL    HW214520   1.849   1.611   4.524  1.2082 -0.0797 -2.1913
 1021SOL     OW14521   0.427   2.093  14.515 -0.2062 -0.1620 -0.2069
 1021SOL    HW114522   0.464   2.149  14.583  2.2464 -0.7319 -1.0586
 1021SOL    HW214523   0.338   2.129  14.515  0.4345  1.4416 -2.9891
 1022SOL     OW14524   2.419   4.057   3.467  0.3520  0.1831 -0.6132
 1022SOL    HW114525   2.402   4.147   3.495 -0.5941  0.0211 -0.6488
 1022SOL    HW214526   2.386   4.051   3.378  0.2833 -3.3327 -0.3798
 1023SOL     OW14527   1.191   4.592   8.663 -0.4144  0.7302 -0.0035
 1023SOL    HW114528   1.159   4.659   8.723 -3.0010  1.2655 -1.9681
 1023SOL    HW214529   1.239   4.636   8.593 -0.7882  0.7276 -0.2614
 1024SOL     OW14530   3.866   1.517   1.879  0.6203  0.1741 -0.1363
 1024SOL    HW114531   3.892   1.560   1.798  0.9222 -1.4235 -0.9068
 1024SOL    HW214532   3.859   1.590   1.940 -0.2263 -1.7701  2.1161
 1025SOL     OW14533   1.370   3.960   4.549  0.3460 -0.0003  0.0839
 1025SOL    HW114534   1.312   4.028   4.513 -0.5873 -0.2050  1.2052
 1025SOL    HW214535   1.300   3.895   4.550  0.0731  0.3025  0.6196
 1026SOL     OW14536   2.349   0.368   5.136 -0.0258  0.1512  0.1379
 1026SOL    HW114537   2.295   0.447   5.130  0.1684  0.3176  0.6158
 1026SOL    HW214538   2.383   0.369   5.225  0.2904 -0.8423  0.0265
 1027SOL     OW14539   2.098   0.681  15.734 -0.3423  0.5170  0.3711
 1027SOL    HW114540   2.036   0.746  15.700 -1.3565  0.2594  1.7521
 1027SOL    HW214541   2.178   0.733  15.727  0.5901 -1.0042 -0.3149
 1028SOL     OW14542   2.997   3.808   3.747 -0.2571  0.2738 -0.0726
 1028SOL    HW114543   3.028   3.768   3.666 -0.4963  0.9218 -0.4819
 1028SOL    HW214544   3.059   3.771   3.810 -1.7150  0.1051  1.2506
 1029SOL     OW14545   2.312   2.852  13.108  0.2147 -0.5277 -0.0483
 1029SOL    HW114546   2.332   2.821  13.197 -2.5397  0.4465  0.8996
 1029SOL    HW214547   2.379   2.921  13.109 -1.6703  1.3228 -1.0737
 1030SOL     OW14548   0.712   2.961   7.137 -0.1373  0.2009 -0.1509
 1030SOL    HW114549   0.757   2.996   7.214  0.0385  2.9113 -1.4739
 1030SOL    HW214550   0.648   2.901   7.176  1.9644 -1.5344  0.6164
 1031SOL     OW14551   1.931   3.911   4.484 -0.3817 -0.2653  0.2718
 1031SOL    HW114552   1.950   4.000   4.515  1.2693 -0.4156 -0.3089
 1031SOL    HW214553   1.929   3.867   4.569  1.6705 -0.2800  0.3129
 1032SOL     OW14554   1.799   2.043   4.634 -0.0063  0.0046  0.2064
 1032SOL    HW114555   1.709   2.014   4.625 -1.2132  3.9425 -0.2310
 1032SOL    HW214556   1.795   2.088   4.719  0.1697  1.2227 -0.4394
 1033SOL     OW14557   3.547   1.833   7.037  0.2760 -0.0380 -0.4511
 1033SOL    HW114558   3.597   1.915   7.037  0.8129 -0.3593 -0.0359
 1033SOL    HW214559   3.477   1.874   7.088  0.4255 -0.8330  0.3867
 1034SOL     OW14560   3.760   3.707  13.706 -0.0353  0.0136 -0.0726
 1034SOL    HW114561   3.695   3.701  13.776  0.3407 -0.2610  0.2561
 1034SOL    HW214562   3.837   3.692  13.762 -0.1990  0.1641  0.1905
 1035SOL     OW14563   1.215   1.287   3.279  0.0903 -0.1147 -0.0247
 1035SOL    HW114564   1.245   1.201   3.252 -0.3331 -0.0372 -0.7339
 1035SOL    HW214565   1.187   1.284   3.371 -1.4106 -1.9591 -0.5599
 1036SOL     OW14566   3.223   1.235   4.677 -0.1886  0.2361  0.1946
 1036SOL    HW114567   3.250   1.304   4.738  0.8480  0.6322 -0.7083
 1036SOL    HW214568   3.154   1.186   4.720  1.2077 -0.0749  2.1080
 1037SOL     OW14569   4.282   1.117   6.003 -0.5202 -0.1875  0.9783
 1037SOL    HW114570   4.311   1.156   5.921 -1.2466 -2.9256 -0.5737
 1037SOL    HW214571   4.358   1.064   6.026  0.3209  0.0556 -1.2638
 1038SOL     OW14572   2.348   0.173  11.516  0.5620  0.2158  0.1005
 1038SOL    HW114573   2.436   0.211  11.524  1.2162 -0.7890 -2.3181
 1038SOL    HW214574   2.367   0.081  11.502 -0.4123  0.1556 -0.8407
 1039SOL     OW14575   0.876   2.151   6.913 -0.2264 -0.5057  0.7354
 1039SOL    HW114576   0.866   2.226   6.855  1.1334  0.3777  1.6347
 1039SOL    HW214577   0.790   2.109   6.903 -0.7694  0.4368  1.4531
 1040SOL     OW14578   3.504   3.453   4.535  0.3129  0.3036  0.0748
 1040SOL    HW114579   3.582   3.429   4.485  1.7542 -0.9928  2.9788
 1040SOL    HW214580   3.524   3.416   4.621 -0.6863 -0.0873  0.1458
 1041SOL     OW14581   1.406   2.650   3.012 -0.1146  0.6611  0.1964
 1041SOL    HW114582   1.413   2.569   3.063  0.7914  1.1969  0.9200
 1041SOL    HW214583   1.327   2.632   2.962 -0.8417  3.3651  0.3554
 1042SOL     OW14584   1.011   0.809   8.413  0.0617  0.1695  0.3285
 1042SOL    HW114585   0.947   0.867   8.373  0.4014  0.1161 -0.2939
 1042SOL    HW214586   1.087   0.868   8.415  0.8484 -0.7978 -0.8602
 1043SOL     OW14587   4.546   3.027   8.894  0.0156 -0.0311  0.0948
 1043SOL    HW114588   4.503   3.004   8.977  0.6673 -2.2414 -0.1678
 1043SOL    HW214589   4.637   3.002   8.913 -0.1426 -0.9928 -0.4122
 1044SOL     OW14590   1.706   1.470   3.568 -0.6115  0.7960 -0.3116
 1044SOL    HW114591   1.701   1.457   3.473  1.0018 -1.9591 -0.0150
 1044SOL    HW214592   1.743   1.558   3.565 -0.1996  0.6515  0.4640
 1045SOL     OW14593   0.289   1.081   8.060  0.3460  0.0415  0.0284
 1045SOL    HW114594   0.284   1.029   7.980  1.3730 -2.8422  1.8814
 1045SOL    HW214595   0.382   1.099   8.050  0.6344 -1.3358  0.3698
 1046SOL     OW14596   2.325   1.786   2.938  0.4115 -0.2871  0.0787
 1046SOL    HW114597   2.386   1.845   2.894 -0.6661  0.4178 -0.4508
 1046SOL    HW214598   2.398   1.739   2.980  1.5771  1.0393 -0.4671
 1047SOL     OW14599   3.494   0.143   0.651  1.3118 -0.0398 -0.2887
 1047SOL    HW114600   3.532   0.227   0.626 -0.5460  0.5340 -1.2429
 1047SOL    HW214601   3.407   0.156   0.689  1.9573 -2.5209  2.0998
 1048SOL     OW14602   3.438   1.315  14.607 -0.2570  0.0815 -0.0481
 1048SOL    HW114603   3.401   1.249  14.549  0.3225 -0.1238 -0.1763
 1048SOL    HW214604   3.419   1.282  14.695  2.4251 -0.9040  0.1352
 1049SOL     OW14605   2.654   3.712  14.150 -0.1185 -0.6077  0.0296
 1049SOL    HW114606   2.729   3.682  14.099 -0.6142 -0.6291 -0.6881
 1049SOL    HW214607   2.691   3.707  14.238  1.1100 -1.4921 -0.5302
 1050SOL     OW14608   2.065   2.473  12.934 -0.6781  0.3629  0.2730
 1050SOL    HW114609   2.080   2.561  12.899  0.8628 -0.8724 -2.1475
 1050SOL    HW214610   2.133   2.473  13.001 -0.1377 -2.8480 -0.2728
 1051SOL     OW14611   1.353   0.718   1.935  0.0423 -0.3840  0.5750
 1051SOL    HW114612   1.419   0.741   1.869  1.3792 -1.9202  1.3830
 1051SOL    HW214613   1.314   0.801   1.960 -0.8796 -0.1141 -1.7304
 1052SOL     OW14614   1.879   3.211   7.043 -0.6618 -0.2154 -0.4995
 1052SOL    HW114615   1.816   3.149   7.006  1.6578 -2.7632 -0.1912
 1052SOL    HW214616   1.820   3.241   7.112 -1.3285 -1.7173 -0.4237
 1053SOL     OW14617   4.547   0.107  17.535  0.2091  0.5212 -0.2069
 1053SOL    HW114618   4.637   0.090  17.509  0.1055  2.3789 -1.7317
 1053SOL    HW214619   4.547   0.081  17.627 -0.9511  1.1040 -0.0395
 1054SOL     OW14620   4.277   3.178   4.799  0.1223 -0.2946 -0.0553
 1054SOL    HW114621   4.330   3.107   4.761  0.8970 -0.2603  0.9682
 1054SOL    HW214622   4.186   3.150   4.787  0.9402 -2.1447 -1.9918
 1055SOL     OW14623   2.503   0.464   0.027 -0.5091 -0.1530  0.3624
 1055SOL    HW114624   2.525   0.399   0.094  1.4399  0.3560  0.2143
 1055SOL    HW214625   2.570   0.527   0.054 -1.3926  1.4411 -1.1979
 1056SOL     OW14626   0.764   1.035  16.589 -0.1191 -0.6587  0.7846
 1056SOL    HW114627   0.704   1.010  16.518  1.5215  0.7308 -1.1078
 1056SOL    HW214628   0.779   1.125  16.562 -0.2553 -0.3463  1.7585
 1057SOL     OW14629   4.001   3.422   3.234 -0.9434  0.3490 -0.2512
 1057SOL    HW114630   3.922   3.412   3.180 -0.6011  1.5835 -0.9851
 1057SOL    HW214631   3.995   3.517   3.232  2.0225  0.5875  2.2100
 1058SOL     OW14632   3.617   3.083   5.003  0.1350 -0.9572 -0.3689
 1058SOL    HW114633   3.711   3.071   4.988  0.4528 -0.4617  1.2083
 1058SOL    HW214634   3.599   3.006   5.057 -3.9238  0.4376  0.2471
 1059SOL     OW14635   1.321   2.395  10.503 -0.3714  0.2974 -0.0398
 1059SOL    HW114636   1.397   2.398  10.445 -0.2215  0.5804  0.1722
 1059SOL    HW214637   1.300   2.487  10.487  2.4892  1.1766  1.2551
 1060SOL     OW14638   2.741   1.186   9.258  0.5895 -0.0698 -0.3008
 1060SOL    HW114639   2.780   1.261   9.303  1.8983 -0.6170 -0.5293
 1060SOL    HW214640   2.813   1.128   9.234  0.5193 -1.3804  2.5923
 1061SOL     OW14641   1.779   1.761   5.201 -0.8608 -0.5968 -0.1553
 1061SOL    HW114642   1.756   1.704   5.274 -1.1498 -0.0155  0.2098
 1061SOL    HW214643   1.873   1.758   5.223 -0.1929 -0.5787 -2.9906
 1062SOL     OW14644   3.035   1.866   6.816  0.5114 -0.0898 -0.3003
 1062SOL    HW114645   3.020   1.830   6.903 -0.6528 -0.6508 -0.7308
 1062SOL    HW214646   2.988   1.801   6.764 -0.2253  0.9418 -0.9209
 1063SOL     OW14647   1.917   1.120   1.302  0.2474  0.1827 -0.4120
 1063SOL    HW114648   1.970   1.060   1.250  1.3826  0.7298  0.1119
 1063SOL    HW214649   1.937   1.207   1.267 -0.9688  0.3772 -0.6150
 1064SOL     OW14650   3.598   1.278   6.544  0.2718 -0.0592  0.2850
 1064SOL    HW114651   3.592   1.369   6.515 -1.5979 -0.1249  0.4726
 1064SOL    HW214652   3.661   1.277   6.616 -2.5512  1.1149  2.7956
 1065SOL     OW14653   2.043   1.231   6.071  0.3837 -0.1950 -0.2191
 1065SOL    HW114654   1.987   1.295   6.116 -0.1450 -0.1175 -0.9803
 1065SOL    HW214655   1.979   1.160   6.071 -1.0831  1.1202  1.8721
 1066SOL     OW14656   1.043   3.819   2.518  0.2843 -0.1381 -0.3801
 1066SOL    HW114657   1.107   3.850   2.455  1.7333  0.5870  1.4495
 1066SOL    HW214658   1.020   3.733   2.483  0.0855  0.9062 -2.7661
 1067SOL     OW14659   0.881   0.908   7.490  0.0782  0.4284 -0.0429
 1067SOL    HW114660   0.949   0.902   7.424 -0.5152  0.6837 -0.6761
 1067SOL    HW214661   0.820   0.850   7.445  0.5091 -1.4642  1.8077
 1068SOL     OW14662   2.352   1.675  13.964 -0.3281 -0.1095  0.1408
 1068SOL    HW114663   2.358   1.768  13.944  0.7149 -0.0863  0.5818
 1068SOL    HW214664   2.274   1.687  14.017  0.7004  1.1154  1.3776
 1069SOL     OW14665   3.020   4.475   8.097 -0.0557 -0.1882  0.4092
 1069SOL    HW114666   3.090   4.410   8.095  1.2545  1.2371 -0.7881
 1069SOL    HW214667   2.937   4.431   8.113  0.8132 -1.4703  1.3157
 1070SOL     OW14668   2.533   0.354   8.348  0.2521 -0.5270 -0.2973
 1070SOL    HW114669   2.499   0.394   8.428 -1.3432  0.3767 -1.4217
 1070SOL    HW214670   2.618   0.395   8.329 -0.3443  0.5581 -0.6410
 1071SOL     OW14671   3.467   3.924  11.232 -0.1468 -0.3430 -0.1339
 1071SOL    HW114672   3.515   4.007  11.230 -2.4710  1.0335  0.3618
 1071SOL    HW214673   3.532   3.855  11.222  1.8314  1.6502 -1.1026
 1072SOL     OW14674   0.165   4.269   6.074 -0.3325  0.4896 -0.1628
 1072SOL    HW114675   0.256   4.283   6.098 -0.2812  0.8244 -0.5448
 1072SOL    HW214676   0.161   4.306   5.986 -0.7668 -1.2529 -0.8717
 1073SOL     OW14677   1.191   0.181  16.023 -0.0615  0.2702  0.1027
 1073SOL    HW114678   1.275   0.138  16.036  0.4088  1.7007  1.6583
 1073SOL    HW214679   1.193   0.247  16.092  0.3720  0.0378  0.3105
 1074SOL     OW14680   1.459   1.436   4.673  0.2460  0.6515 -0.1538
 1074SOL    HW114681   1.527   1.504   4.673  0.3826  0.5223 -0.8530
 1074SOL    HW214682   1.388   1.476   4.623  0.6550 -0.0346 -1.2956
 1075SOL     OW14683   4.359   1.227   5.752  1.0604  0.2125  0.2459
 1075SOL    HW114684   4.338   1.314   5.718 -1.5581 -0.5445 -0.0540
 1075SOL    HW214685   4.394   1.202   5.666 -1.2792  0.7807 -0.8642
 1076SOL     OW14686   2.763   3.156   3.349  0.3411 -0.2946 -0.5099
 1076SOL    HW114687   2.842   3.173   3.298  2.2008 -2.1020  1.7742
 1076SOL    HW214688   2.787   3.219   3.417  0.2417  0.9890 -1.6539
 1077SOL     OW14689   0.484   0.832   6.921  0.7739 -0.1498  0.7283
 1077SOL    HW114690   0.414   0.777   6.956 -0.2738  0.5403 -0.2910
 1077SOL    HW214691   0.482   0.798   6.832 -1.3691  1.0928  0.3084
 1078SOL     OW14692   3.890   0.655  16.203 -0.2234  0.0547 -0.0422
 1078SOL    HW114693   3.917   0.708  16.128 -0.3575 -2.5630 -1.9342
 1078SOL    HW214694   3.969   0.605  16.220 -0.0853 -1.1372 -4.1084
 1079SOL     OW14695   1.438   4.244  17.030  0.1220 -0.2846  0.1760
 1079SOL    HW114696   1.453   4.236  17.124 -0.6422  0.9965  0.4009
 1079SOL    HW214697   1.345   4.224  17.023  0.1875 -0.5678  0.1081
 1080SOL     OW14698   0.305   3.496  16.888  0.0767  0.2168 -0.0822
 1080SOL    HW114699   0.230   3.437  16.877 -0.3555  0.5547  1.1067
 1080SOL    HW214700   0.274   3.573  16.935 -4.1150 -1.5120  0.0510
 1081SOL     OW14701   3.528   3.775  13.109 -0.0755  0.6920  0.0140
 1081SOL    HW114702   3.550   3.708  13.044 -1.7094 -0.6106  0.8157
 1081SOL    HW214703   3.548   3.731  13.192 -1.9767 -0.6021 -0.2070
 1082SOL     OW14704   0.061   0.644  17.572  0.0524  0.4656  0.0275
 1082SOL    HW114705   0.090   0.674  17.486 -1.0815  0.3350 -0.3967
 1082SOL    HW214706   4.693   0.672  17.579 -0.2776 -0.8432  1.0032
 1083SOL     OW14707   1.628   3.022  15.631  0.5861 -0.1728  0.3941
 1083SOL    HW114708   1.593   2.965  15.562  0.4035  2.2566 -1.4924
 1083SOL    HW214709   1.628   3.113  15.601 -0.8554 -0.6448 -1.0206
 1084SOL     OW14710   4.595   2.199   5.869 -0.4044 -0.0948  1.1198
 1084SOL    HW114711   4.557   2.122   5.829 -0.1499  0.9004 -1.0219
 1084SOL    HW214712   4.690   2.187   5.858 -0.6593 -1.5748  0.6779
 1085SOL     OW14713   4.619   0.116   3.128 -0.4692 -0.3217  0.2542
 1085SOL    HW114714   4.554   0.120   3.198 -0.5920  0.8905  0.0755
 1085SOL    HW214715   4.631   0.204   3.091 -0.7615 -1.2298 -2.0370
 1086SOL     OW14716   0.253   1.086  17.231 -0.5840 -0.2906  0.3693
 1086SOL    HW114717   0.339   1.049  17.251  1.4852  3.5074 -1.5004
 1086SOL    HW214718   0.247   1.161  17.290 -0.6508 -0.9041  1.1370
 1087SOL     OW14719   1.836   1.605  10.756 -0.1536 -0.4468 -0.0519
 1087SOL    HW114720   1.858   1.556  10.834 -1.8610  1.3588  1.5645
 1087SOL    HW214721   1.760   1.659  10.777 -0.5648 -0.8442 -0.5024
 1088SOL     OW14722   4.635   0.503   6.847  0.4859  0.2258  0.3362
 1088SOL    HW114723   4.558   0.493   6.792  0.4899  0.0728  0.3594
 1088SOL    HW214724   4.688   0.427   6.824  0.5680  0.7033 -1.0443
 1089SOL     OW14725   3.314   3.298   3.328 -0.1548 -0.0474 -0.4614
 1089SOL    HW114726   3.371   3.344   3.267  0.6536 -0.8783 -0.3269
 1089SOL    HW214727   3.303   3.220   3.273 -0.9826  0.6361 -1.2730
 1090SOL     OW14728   4.423   0.302  15.736  0.6518 -0.5421  0.2840
 1090SOL    HW114729   4.348   0.331  15.683 -0.6650 -0.9240  1.9212
 1090SOL    HW214730   4.492   0.342  15.683  0.2150  1.6902  1.4366
 1091SOL     OW14731   4.318   4.464  11.188 -0.0844 -0.0636  0.3224
 1091SOL    HW114732   4.386   4.422  11.242 -1.7848  1.0948  3.3516
 1091SOL    HW214733   4.368   4.493  11.111  0.9238  0.0812  1.0246
 1092SOL     OW14734   0.341   1.606   3.434 -0.4905 -0.4017  0.1048
 1092SOL    HW114735   0.333   1.617   3.529 -0.7396  0.4084 -0.0124
 1092SOL    HW214736   0.272   1.542   3.414 -0.7487  0.7184 -2.6401
 1093SOL     OW14737   0.368   3.240  12.515  0.1482  0.5529 -0.1514
 1093SOL    HW114738   0.278   3.240  12.546 -0.0531 -1.2308 -0.6912
 1093SOL    HW214739   0.374   3.310  12.451 -0.8278  0.9320  0.1808
 1094SOL     OW14740   2.361   3.705   4.099  0.6561 -0.3349 -0.0692
 1094SOL    HW114741   2.419   3.776   4.073 -0.0040  0.1440 -0.2314
 1094SOL    HW214742   2.381   3.639   4.032  0.8940 -0.3731  0.0405
 1095SOL     OW14743   1.465   1.131   5.915  0.7317 -0.4162 -0.0425
 1095SOL    HW114744   1.404   1.088   5.974  1.2727 -2.2252 -0.8116
 1095SOL    HW214745   1.470   1.058   5.853  2.0226 -0.6334  0.3086
 1096SOL     OW14746   4.000   1.807   1.088  0.4729  0.4961  0.0423
 1096SOL    HW114747   4.008   1.712   1.093  0.6670  0.4529 -1.0468
 1096SOL    HW214748   4.053   1.824   1.010 -0.3707  4.0315  0.2410
 1097SOL     OW14749   0.768   0.609   9.886 -0.5792  0.7849 -0.0712
 1097SOL    HW114750   0.716   0.662   9.947  1.6011  1.6585  1.0058
 1097SOL    HW214751   0.697   0.549   9.860 -0.8815  1.6173 -1.1616
 1098SOL     OW14752   3.805   2.142   7.779 -0.6269  0.6310  0.1993
 1098SOL    HW114753   3.827   2.089   7.702  1.0932 -0.3874  1.3834
 1098SOL    HW214754   3.709   2.148   7.780 -0.8181 -2.0674 -0.7433
 1099SOL     OW14755   2.702   2.966  13.175 -0.2298  0.3327 -0.2224
 1099SOL    HW114756   2.741   3.048  13.145 -1.1037  1.4516  1.7230
 1099SOL    HW214757   2.612   2.995  13.162 -0.0666 -0.3995 -3.1050
 1100SOL     OW14758   0.306   3.480   2.863  0.2763  0.1330 -0.1953
 1100SOL    HW114759   0.365   3.407   2.885 -0.8769 -0.8620 -0.4263
 1100SOL    HW214760   0.236   3.437   2.814 -0.0729  2.6352 -1.8549
 1101SOL     OW14761   3.083   0.661   0.999 -0.0741 -0.1090 -0.4605
 1101SOL    HW114762   3.122   0.670   0.912  0.6897  2.3271  0.1407
 1101SOL    HW214763   2.990   0.657   0.978 -0.4256 -0.2632  1.1361
 1102SOL     OW14764   1.783   1.586  11.578  0.2144  0.0806  0.0079
 1102SOL    HW114765   1.694   1.555  11.563  0.0118  0.2554  0.8333
 1102SOL    HW214766   1.768   1.643  11.653  0.0538 -2.5578  1.9803
 1103SOL     OW14767   3.296   2.978   4.479  0.0004  0.5379 -0.5304
 1103SOL    HW114768   3.203   2.985   4.501  0.3751  1.7930  0.6753
 1103SOL    HW214769   3.295   2.914   4.408  0.4956 -0.2633  0.1851
 1104SOL     OW14770   0.432   1.802   6.771 -0.3033  0.0215 -0.0432
 1104SOL    HW114771   0.366   1.747   6.813  0.8112  0.9343  2.9020
 1104SOL    HW214772   0.487   1.733   6.734 -2.4224 -1.4066 -0.5012
 1105SOL     OW14773   1.930   1.045  12.975 -0.0810  0.1701  0.1668
 1105SOL    HW114774   1.837   1.037  12.952  0.3247 -0.0296 -1.4186
 1105SOL    HW214775   1.948   1.129  12.933  2.1050  0.0663  0.9098
 1106SOL     OW14776   1.130   3.523   6.541  0.0449  0.2776 -0.0543
 1106SOL    HW114777   1.092   3.510   6.454 -0.9197  0.3595  0.3477
 1106SOL    HW214778   1.188   3.447   6.542  0.8118  0.8665 -0.5860
 1107SOL     OW14779   1.979   1.314  17.566  0.4794 -0.2411 -0.3276
 1107SOL    HW114780   1.939   1.264  17.495  2.6449 -2.1385 -0.2041
 1107SOL    HW214781   1.899   1.317  17.619  0.2196  1.2461 -0.7850
 1108SOL     OW14782   1.685   0.355   5.046  0.5695  0.2102 -0.2558
 1108SOL    HW114783   1.719   0.286   4.989 -1.9263 -2.5149  1.5284
 1108SOL    HW214784   1.714   0.429   4.993  0.5545  0.7553  0.4867
 1109SOL     OW14785   1.542   1.859  15.774 -0.4784  0.1353 -0.4612
 1109SOL    HW114786   1.487   1.783  15.794 -0.9032  0.7134  0.5900
 1109SOL    HW214787   1.591   1.837  15.695  0.4289 -0.1137  0.1610
 1110SOL     OW14788   0.979   2.442   8.845 -0.4531  0.6443 -0.1066
 1110SOL    HW114789   0.989   2.348   8.826 -1.2234  0.3743  0.8388
 1110SOL    HW214790   0.979   2.450   8.941 -1.8317 -2.0407  0.1116
 1111SOL     OW14791   1.739   0.798   2.225  0.2707  0.0183  0.0939
 1111SOL    HW114792   1.785   0.850   2.159 -0.7297 -0.8672 -1.3000
 1111SOL    HW214793   1.815   0.778   2.279  1.9068  3.2885 -1.0206
 1112SOL     OW14794   2.770   3.787  15.413  0.2149  0.4077  0.1773
 1112SOL    HW114795   2.698   3.744  15.366  0.1653  1.7191 -0.9349
 1112SOL    HW214796   2.787   3.716  15.475 -0.8804  0.4122  0.4784
 1113SOL     OW14797   3.162   2.841   2.000  0.3375 -0.2010 -0.3103
 1113SOL    HW114798   3.091   2.839   2.064 -1.1690 -3.0349 -2.0516
 1113SOL    HW214799   3.119   2.789   1.931 -0.6094 -1.0521  0.9140
 1114SOL     OW14800   3.269   3.593  13.640 -0.5894  0.1644  0.1234
 1114SOL    HW114801   3.268   3.671  13.584  1.8374 -0.3818 -0.6576
 1114SOL    HW214802   3.243   3.530  13.572 -1.4362 -2.5232  2.9473
 1115SOL     OW14803   2.967   2.545  14.506 -0.3573  0.1160  0.1513
 1115SOL    HW114804   2.892   2.493  14.537 -1.3662  1.3343 -0.2466
 1115SOL    HW214805   2.976   2.524  14.413 -0.0194  3.6004 -0.5992
 1116SOL     OW14806   3.233   2.565   9.055  0.3994 -0.2623  0.4774
 1116SOL    HW114807   3.165   2.631   9.069  0.0278 -1.1393  2.9748
 1116SOL    HW214808   3.291   2.615   8.998  1.2077 -3.3796 -1.4374
 1117SOL     OW14809   0.965   1.788   8.044 -0.3860  0.0752 -0.0195
 1117SOL    HW114810   0.883   1.827   8.078  0.9379  0.0377  3.2668
 1117SOL    HW214811   1.030   1.828   8.102 -2.1240  1.3733  1.0446
 1118SOL     OW14812   3.900   1.877  16.596 -0.0763  0.6870  0.0355
 1118SOL    HW114813   3.952   1.916  16.666  1.6806 -0.2302 -0.7701
 1118SOL    HW214814   3.813   1.898  16.631  0.2127  1.0195  0.5424
 1119SOL     OW14815   3.944   2.713   8.758 -0.2294  0.5142  0.5369
 1119SOL    HW114816   3.994   2.790   8.728  1.4551 -0.9103 -0.3027
 1119SOL    HW214817   3.927   2.735   8.849 -1.3155 -0.1891  0.5149
 1120SOL     OW14818   0.903   0.342   7.898  0.2897  0.3041 -0.3182
 1120SOL    HW114819   0.851   0.366   7.821  1.2664  0.8597 -0.7961
 1120SOL    HW214820   0.884   0.252   7.922 -2.7570  1.2823  0.9587
 1121SOL     OW14821   0.171   2.848   7.949  0.1328  0.6075 -0.1950
 1121SOL    HW114822   0.156   2.781   8.016  2.4929  0.7513  0.4486
 1121SOL    HW214823   0.082   2.870   7.920 -0.7590 -0.9477  1.3864
 1122SOL     OW14824   2.943   0.038   3.380 -0.1468  0.1960 -0.1010
 1122SOL    HW114825   2.885   0.114   3.384 -1.8733 -1.1973  1.1410
 1122SOL    HW214826   3.020   0.083   3.345 -1.1661  2.3976  0.4621
 1123SOL     OW14827   2.487   3.909   4.511  0.3315 -0.2247 -0.2059
 1123SOL    HW114828   2.438   3.878   4.587 -3.2117  1.8122 -1.6825
 1123SOL    HW214829   2.462   3.837   4.452 -2.1955  1.9967 -1.8390
 1124SOL     OW14830   3.525   0.767   4.888 -0.5167  0.1962  0.1027
 1124SOL    HW114831   3.577   0.688   4.877 -0.0743  0.6317 -0.9390
 1124SOL    HW214832   3.506   0.770   4.982  2.5105  0.3618  0.7306
 1125SOL     OW14833   2.962   2.421   4.721  0.0271 -0.0957 -0.4651
 1125SOL    HW114834   2.972   2.373   4.638  3.1523 -0.5610  0.1691
 1125SOL    HW214835   3.018   2.495   4.698  1.8846 -1.3528  0.0222
 1126SOL     OW14836   2.484   0.505   6.989 -0.3808 -0.2709 -0.0847
 1126SOL    HW114837   2.480   0.579   6.929  0.6092 -1.8535 -2.0943
 1126SOL    HW214838   2.389   0.502   7.004 -0.1746 -2.4472  0.7949
 1127SOL     OW14839   2.581   1.152  16.084 -0.4005  0.1440 -0.3734
 1127SOL    HW114840   2.650   1.207  16.120  1.0707 -0.8706 -1.5986
 1127SOL    HW214841   2.600   1.070  16.130 -2.6323 -1.0240 -1.5183
 1128SOL     OW14842   3.144   1.639  14.579  0.3799  0.2389 -0.5765
 1128SOL    HW114843   3.171   1.609  14.493 -0.8209 -1.0945 -0.4948
 1128SOL    HW214844   3.094   1.719  14.561 -0.8350 -0.4329 -0.2116
 1129SOL     OW14845   0.325   2.440   4.109 -0.5656  0.3257  0.2220
 1129SOL    HW114846   0.382   2.515   4.128 -0.5056 -0.5998  3.5825
 1129SOL    HW214847   0.341   2.414   4.018  1.5068 -2.2098  1.3168
 1130SOL     OW14848   0.394   0.697   6.697 -0.3109 -0.4306  0.3166
 1130SOL    HW114849   0.453   0.626   6.672  1.9931  0.1345  4.1930
 1130SOL    HW214850   0.322   0.642   6.727 -0.0348  0.1737  2.0860
 1131SOL     OW14851   0.168   3.280   0.827  0.3197 -0.1866  0.2578
 1131SOL    HW114852   0.234   3.261   0.760  0.9486  1.1401  0.5056
 1131SOL    HW214853   0.093   3.325   0.786 -1.0384 -3.0504 -0.4180
 1132SOL     OW14854   2.504   1.789   7.653  0.6072 -0.7054  0.2435
 1132SOL    HW114855   2.574   1.855   7.655  0.2172 -0.2503 -0.9941
 1132SOL    HW214856   2.525   1.755   7.740  1.4359  1.9624  1.0937
 1133SOL     OW14857   0.942   0.052   1.135 -0.5050  0.3768  0.0676
 1133SOL    HW114858   1.001   0.127   1.129 -0.1514 -0.1048 -2.5736
 1133SOL    HW214859   0.888   0.084   1.063 -0.8250  0.2786  0.2665
 1134SOL     OW14860   0.846   2.895   3.371 -0.3677  0.6515  0.2359
 1134SOL    HW114861   0.875   2.822   3.426 -0.7682  1.3933  1.4279
 1134SOL    HW214862   0.845   2.975   3.423 -1.0817  1.6736 -1.3858
 1135SOL     OW14863   1.155   3.518   5.520 -0.0871 -0.6169  0.3527
 1135SOL    HW114864   1.156   3.562   5.605 -0.1784  0.5310 -0.2395
 1135SOL    HW214865   1.066   3.546   5.496  0.8313  0.6000 -1.6377
 1136SOL     OW14866   1.859   0.085   3.472  0.5812 -0.7160  0.1677
 1136SOL    HW114867   1.945   0.117   3.500  0.6405  1.3765 -2.3138
 1136SOL    HW214868   1.816   0.170   3.461  2.4438 -0.1132 -2.5628
 1137SOL     OW14869   1.253   0.593   9.818  0.0837 -0.5146  0.2503
 1137SOL    HW114870   1.253   0.605   9.723 -1.0508  1.8216  0.5604
 1137SOL    HW214871   1.234   0.684   9.840 -1.9504 -1.0064  0.5407
 1138SOL     OW14872   2.777   0.770  16.001 -0.4857 -0.4205 -0.1682
 1138SOL    HW114873   2.725   0.847  16.023  0.3223 -0.0042  0.3011
 1138SOL    HW214874   2.845   0.772  16.069 -1.1830  0.9261  0.5027
 1139SOL     OW14875   3.421   2.173   8.671  0.0362  0.1833  0.1529
 1139SOL    HW114876   3.411   2.246   8.610 -0.3112  1.0267  1.2169
 1139SOL    HW214877   3.503   2.137   8.637  1.1496  1.5574  1.4131
 1140SOL     OW14878   0.547   0.245   4.791  0.0725  0.1554 -0.0678
 1140SOL    HW114879   0.519   0.324   4.837 -0.2844 -0.3936  0.6681
 1140SOL    HW214880   0.622   0.205   4.834  0.5946  1.2241  0.0114
 1141SOL     OW14881   2.677   4.519   9.897 -0.2034  0.4525  0.0482
 1141SOL    HW114882   2.740   4.500   9.966 -1.6245 -0.4057  1.1104
 1141SOL    HW214883   2.720   4.585   9.843 -2.8692  0.6327 -1.8863
 1142SOL     OW14884   3.777   1.853   7.472  0.0406 -0.1090 -0.2071
 1142SOL    HW114885   3.704   1.904   7.438 -2.2006 -3.7700 -0.9611
 1142SOL    HW214886   3.760   1.769   7.428  0.8018  0.0133 -0.7391
 1143SOL     OW14887   3.507   0.884   6.095 -0.2791 -0.6986 -0.0303
 1143SOL    HW114888   3.533   0.792   6.088 -3.1228 -1.4073 -1.2888
 1143SOL    HW214889   3.594   0.922   6.104 -1.0217  0.5158  1.9755
 1144SOL     OW14890   0.893   1.325   1.118 -0.5675  0.3669  0.0519
 1144SOL    HW114891   0.807   1.289   1.098  0.0017 -0.4700 -0.9399
 1144SOL    HW214892   0.945   1.282   1.049 -0.8486  0.9665 -0.5303
 1145SOL     OW14893   2.010   0.932   7.770 -0.2471 -0.3559  0.8688
 1145SOL    HW114894   2.019   0.906   7.861 -2.3333 -0.9074  0.9017
 1145SOL    HW214895   1.941   0.999   7.765 -1.6129 -1.7788  0.7955
 1146SOL     OW14896   2.382   4.700  11.042  0.1852  0.4210 -0.1561
 1146SOL    HW114897   2.303   4.654  11.014  1.1872 -0.4506 -1.5222
 1146SOL    HW214898   2.447   4.631  11.051 -0.1695  0.4762  2.8704
 1147SOL     OW14899   0.907   1.113   4.569 -0.6031 -0.4596 -0.1034
 1147SOL    HW114900   0.815   1.102   4.593 -0.3091 -0.5991  0.9698
 1147SOL    HW214901   0.925   1.019   4.573 -0.8792 -0.4432  1.7474
 1148SOL     OW14902   2.225   3.015   4.816  0.3007  0.1350 -0.5261
 1148SOL    HW114903   2.237   2.946   4.882  0.2998  0.7584  0.1268
 1148SOL    HW214904   2.317   3.038   4.802  0.5448  0.2792  1.2918
 1149SOL     OW14905   4.418   0.177   5.115  0.1628 -0.3206 -0.4050
 1149SOL    HW114906   4.478   0.138   5.051  0.9939  1.2797 -0.6006
 1149SOL    HW214907   4.356   0.105   5.132  0.3965 -0.0357  1.5812
 1150SOL     OW14908   3.588   2.256   5.381 -0.3335  0.3652 -0.3228
 1150SOL    HW114909   3.664   2.266   5.324 -0.2760 -0.4907 -0.3976
 1150SOL    HW214910   3.512   2.285   5.330 -2.2530 -0.3346  2.1350
 1151SOL     OW14911   0.277   1.575   2.418  0.2891  0.3871  0.3077
 1151SOL    HW114912   0.262   1.552   2.510 -1.6187 -0.0439 -0.1040
 1151SOL    HW214913   0.353   1.633   2.422  1.0311 -0.5631 -0.2297
 1152SOL     OW14914   2.881   0.016  17.058 -0.1862 -0.3836  0.3383
 1152SOL    HW114915   2.862   4.692  16.978 -0.4873 -0.5359  0.5017
 1152SOL    HW214916   2.792   0.018  17.094  0.0988  0.9531  0.9764
 1153SOL     OW14917   1.566   2.114   6.643  0.1367 -0.4206  0.2226
 1153SOL    HW114918   1.574   2.025   6.677  4.3450  0.2773  1.1142
 1153SOL    HW214919   1.587   2.104   6.550 -0.4986 -1.6478  0.2182
 1154SOL     OW14920   3.312   2.768   0.739  0.0614  0.0557 -0.2655
 1154SOL    HW114921   3.395   2.751   0.694 -0.5483 -0.7288 -1.0819
 1154SOL    HW214922   3.351   2.799   0.821 -0.4452 -1.1523  0.4298
 1155SOL     OW14923   1.905   3.189   3.615 -0.5824 -0.3899  0.4930
 1155SOL    HW114924   1.962   3.239   3.557 -2.8087 -1.3740 -2.4994
 1155SOL    HW214925   1.823   3.235   3.597  0.2306  1.2676  0.9582
 1156SOL     OW14926   3.539   3.055   2.615 -0.2650 -0.6814  0.3405
 1156SOL    HW114927   3.479   3.066   2.689 -2.7928 -1.0085 -1.6849
 1156SOL    HW214928   3.516   3.129   2.559  0.0074  0.3984  1.6441
 1157SOL     OW14929   3.124   0.876   1.470 -0.0787  0.2434 -0.1120
 1157SOL    HW114930   3.110   0.783   1.452 -0.6118 -0.0068  1.6006
 1157SOL    HW214931   3.218   0.889   1.456  0.4106 -1.5185  1.5582
 1158SOL     OW14932   2.225   4.052   2.212  0.3201  0.7200 -0.2470
 1158SOL    HW114933   2.240   4.067   2.119  2.1769 -0.3005 -0.1107
 1158SOL    HW214934   2.312   4.069   2.248  0.4295  0.4689 -0.3940
 1159SOL     OW14935   1.599   3.007   3.922 -0.5144 -0.0089  0.0753
 1159SOL    HW114936   1.585   2.981   4.013 -0.0226 -0.5951 -0.0220
 1159SOL    HW214937   1.542   2.944   3.879 -2.6281  2.4669 -0.7787
 1160SOL     OW14938   3.651   3.017   1.601 -0.3948 -0.0019 -0.5369
 1160SOL    HW114939   3.727   3.056   1.557 -2.1700  1.5287 -2.2157
 1160SOL    HW214940   3.595   3.092   1.619  0.5590  0.5829  0.0423
 1161SOL     OW14941   1.941   1.146  17.353  0.3043  0.1560  0.4675
 1161SOL    HW114942   1.930   1.057  17.321 -0.8005  0.1735  0.8198
 1161SOL    HW214943   1.892   1.187  17.282 -0.1416 -0.3315  0.4916
 1162SOL     OW14944   1.905   3.441   1.504  0.5921  0.2608 -0.6904
 1162SOL    HW114945   1.899   3.497   1.581  3.1889 -0.0797 -0.2456
 1162SOL    HW214946   1.996   3.451   1.477  1.0200 -0.2276  0.5584
 1163SOL     OW14947   3.215   1.011   3.491  0.3312 -0.1649  0.2811
 1163SOL    HW114948   3.198   1.086   3.435 -1.5677  1.2647  2.7885
 1163SOL    HW214949   3.153   1.008   3.564  0.6994 -0.9021  0.5711
 1164SOL     OW14950   1.369   2.357   9.680 -0.2702  0.2378  0.8340
 1164SOL    HW114951   1.319   2.361   9.762 -1.4635 -1.1931  0.1847
 1164SOL    HW214952   1.319   2.403   9.613 -0.6638 -3.8077 -1.6214
 1165SOL     OW14953   1.329   4.187   5.392  0.0672  0.2454 -0.2848
 1165SOL    HW114954   1.328   4.103   5.437  1.4419  2.3644  3.6590
 1165SOL    HW214955   1.246   4.184   5.344 -0.8830  1.2902  1.3048
 1166SOL     OW14956   1.638   3.590   0.968 -0.3089  0.4625 -0.5814
 1166SOL    HW114957   1.704   3.571   1.034 -1.8130 -2.1518  0.1737
 1166SOL    HW214958   1.696   3.593   0.893 -2.2080  2.7490 -1.9806
 1167SOL     OW14959   1.404   3.311   7.267  0.4401  0.3235 -0.6472
 1167SOL    HW114960   1.364   3.396   7.285  0.1001  0.3125 -1.3418
 1167SOL    HW214961   1.329   3.278   7.217 -0.8596 -1.1939  2.3551
 1168SOL     OW14962   3.697   3.910   9.353  0.1854 -0.1757 -0.2407
 1168SOL    HW114963   3.765   3.922   9.287 -2.0937  2.9384 -2.0307
 1168SOL    HW214964   3.627   3.956   9.306  0.3844 -1.9841 -2.3347
 1169SOL     OW14965   3.299   0.354  14.908 -0.0738 -0.2300 -0.0326
 1169SOL    HW114966   3.333   0.350  14.997  0.1777 -1.9355 -0.1963
 1169SOL    HW214967   3.222   0.408  14.924  0.9698  0.9805  0.8985
 1170SOL     OW14968   0.137   3.876  11.987  0.4666  0.0045  0.0855
 1170SOL    HW114969   0.144   3.819  11.911  0.1067  1.2906 -0.9201
 1170SOL    HW214970   0.204   3.941  11.964 -1.1718  1.4157 -0.7041
 1171SOL     OW14971   0.085   3.064  12.008  0.3039  0.5896 -0.2053
 1171SOL    HW114972   0.144   3.109  11.947 -1.0403  0.8060 -1.3416
 1171SOL    HW214973   0.140   3.070  12.086  1.1502  1.3915 -0.8594
 1172SOL     OW14974   1.852   3.564   5.775 -0.2004  0.8523 -0.0154
 1172SOL    HW114975   1.865   3.488   5.832 -1.9687  1.0405  0.6388
 1172SOL    HW214976   1.862   3.521   5.690 -2.2683 -1.3086  0.8329
 1173SOL     OW14977   0.122   1.826  13.068  0.0590  0.2191 -0.0857
 1173SOL    HW114978   0.036   1.784  13.055 -0.6769  1.7112 -0.0123
 1173SOL    HW214979   0.155   1.795  12.984 -1.8396  0.0689 -0.7987
 1174SOL     OW14980   1.888   4.362   3.877 -0.5595 -0.1510  0.5318
 1174SOL    HW114981   1.924   4.277   3.854 -1.0029 -0.4176  0.8038
 1174SOL    HW214982   1.896   4.416   3.798 -0.5178  0.9399  1.2722
 1175SOL     OW14983   2.661   0.310   2.879 -0.2713  0.0656  0.5876
 1175SOL    HW114984   2.708   0.340   2.957  0.3132 -0.3638  0.3949
 1175SOL    HW214985   2.623   0.226   2.907 -0.1495 -0.4512 -0.8349
 1176SOL     OW14986   2.663   2.841   7.972 -0.1930 -0.2832 -0.0857
 1176SOL    HW114987   2.752   2.822   7.941 -0.5055 -0.9005 -0.6171
 1176SOL    HW214988   2.670   2.931   8.001  1.1333  0.2946 -2.2030
 1177SOL     OW14989   4.045   3.163   2.722 -0.0229 -0.6079  1.2497
 1177SOL    HW114990   4.005   3.224   2.661  0.6502 -0.5578  0.8549
 1177SOL    HW214991   4.059   3.219   2.798 -1.6075 -0.4972  1.4595
 1178SOL     OW14992   3.214   2.406   5.542 -0.6188  0.1580 -0.5390
 1178SOL    HW114993   3.276   2.394   5.470  0.4480 -5.0808  1.2095
 1178SOL    HW214994   3.221   2.324   5.592 -0.5731  0.1039 -0.6340
 1179SOL     OW14995   2.254   2.440  10.555 -0.0341  0.3481 -0.2069
 1179SOL    HW114996   2.327   2.482  10.600 -0.1836 -1.5733  1.8230
 1179SOL    HW214997   2.178   2.468  10.605 -0.3729 -0.5032 -0.2360
 1180SOL     OW14998   2.725   2.550  11.189 -0.8643 -0.1714 -0.3216
 1180SOL    HW114999   2.750   2.629  11.142  0.6859 -1.2228 -1.2525
 1180SOL    HW215000   2.796   2.494  11.157 -0.3795 -0.0606  0.5426
 1181SOL     OW15001   2.013   1.957  15.956 -0.3233 -0.2799  0.4447
 1181SOL    HW115002   1.960   1.943  15.877  1.3387  1.9332 -1.0636
 1181SOL    HW215003   2.049   1.869  15.959  0.0860 -0.0396  2.8227
 1182SOL     OW15004   2.568   1.313   9.577  0.3953 -0.3820 -0.2398
 1182SOL    HW115005   2.561   1.382   9.511 -1.3150  0.3598  0.7129
 1182SOL    HW215006   2.558   1.364   9.658 -0.5807 -0.1155 -0.5349
 1183SOL     OW15007   0.724   4.100   5.218 -0.7873 -0.4853 -0.4838
 1183SOL    HW115008   0.715   4.018   5.267  0.5530 -0.2709  0.1021
 1183SOL    HW215009   0.803   4.138   5.255 -1.6842  1.3386 -0.4111
 1184SOL     OW15010   0.180   1.615   5.869  0.1601 -0.5463  0.1443
 1184SOL    HW115011   0.199   1.625   5.963 -0.4149 -3.0977  0.5337
 1184SOL    HW215012   0.214   1.528   5.847 -0.5309 -0.8066  0.1319
 1185SOL     OW15013   4.718   2.445   7.714 -0.4100 -0.4101 -0.0288
 1185SOL    HW115014   0.062   2.427   7.779  0.7057 -0.7444 -1.2794
 1185SOL    HW215015   4.635   2.442   7.762 -1.0856  0.3468 -1.1512
 1186SOL     OW15016   3.208   4.636  13.195 -0.5102 -0.1813  0.5742
 1186SOL    HW115017   3.258   4.606  13.271  0.4471 -0.5568 -0.1946
 1186SOL    HW215018   3.215   4.554  13.145 -0.3357  1.1078 -1.4728
 1187SOL     OW15019   1.816   0.587   2.991 -0.1404 -0.1926  0.6924
 1187SOL    HW115020   1.909   0.604   2.977 -0.7964 -0.5349 -3.8892
 1187SOL    HW215021   1.774   0.616   2.910  0.4225 -1.2480  0.0174
 1188SOL     OW15022   0.056   4.320  16.403  0.0861 -0.0983 -0.3280
 1188SOL    HW115023   0.093   4.408  16.418 -1.9806  0.5449  0.9823
 1188SOL    HW215024   0.078   4.303  16.312 -0.6053  1.2045 -0.7413
 1189SOL     OW15025   2.241   3.791   2.357 -0.0183 -0.3739  0.3012
 1189SOL    HW115026   2.320   3.754   2.318 -1.2079 -0.9900 -1.5604
 1189SOL    HW215027   2.239   3.866   2.298  1.2508 -1.1220 -0.7180
 1190SOL     OW15028   2.750   1.769   0.513  0.3357  0.3678 -1.0482
 1190SOL    HW115029   2.835   1.814   0.513  0.3767  0.2351  3.7996
 1190SOL    HW215030   2.766   1.703   0.580  1.0676  0.3096 -1.2780
 1191SOL     OW15031   4.580   1.961  12.772 -0.0891 -0.1470  0.0688
 1191SOL    HW115032   4.658   2.009  12.744  0.1102 -0.4785  0.0685
 1191SOL    HW215033   4.554   2.012  12.849 -0.9188  0.6307 -0.7170
 1192SOL     OW15034   4.056   4.421   6.082 -0.7004  0.2136 -0.1328
 1192SOL    HW115035   4.137   4.374   6.061 -0.2598  0.9852 -0.1700
 1192SOL    HW215036   3.987   4.361   6.054  1.2772 -2.5852  0.9592
 1193SOL     OW15037   3.077   4.162   4.524  0.2281 -0.0532 -0.2775
 1193SOL    HW115038   3.144   4.221   4.557 -0.1935 -0.3271  1.0807
 1193SOL    HW215039   3.118   4.158   4.437 -0.2309  1.8650 -0.5933
 1194SOL     OW15040   3.133   1.537   2.069 -0.4471 -0.3146  0.2910
 1194SOL    HW115041   3.174   1.535   2.155  0.2786 -0.1016 -0.0475
 1194SOL    HW215042   3.195   1.602   2.036  0.5718 -0.7695  1.3292
 1195SOL     OW15043   3.525   1.467   3.286  0.2243 -0.3290 -0.3057
 1195SOL    HW115044   3.459   1.449   3.353 -0.0566 -1.4084 -0.8734
 1195SOL    HW215045   3.588   1.527   3.325 -1.3115  0.7202  0.5563
 1196SOL     OW15046   0.732   2.724   6.403  0.4521  0.2426  0.0298
 1196SOL    HW115047   0.642   2.741   6.430  0.7543  1.6159  0.1612
 1196SOL    HW215048   0.778   2.745   6.484  0.5717 -0.7004  0.2085
 1197SOL     OW15049   4.639   2.684   9.171  0.4113 -0.0823 -0.1978
 1197SOL    HW115050   4.572   2.745   9.204 -0.9688 -1.8262  0.2039
 1197SOL    HW215051   4.597   2.604   9.140  1.5718 -0.8230  0.1744
 1198SOL     OW15052   1.373   2.662  10.138  0.1730 -0.3033  0.6371
 1198SOL    HW115053   1.329   2.619  10.065 -0.5184 -4.2933  3.4081
 1198SOL    HW215054   1.464   2.644  10.112 -0.0797  0.0059 -0.4483
 1199SOL     OW15055   3.687   2.407   4.060  0.0517  0.0702 -0.4282
 1199SOL    HW115056   3.618   2.468   4.034  0.8707 -0.2316 -3.2466
 1199SOL    HW215057   3.762   2.445   4.014 -0.9897  0.8819 -1.4796
 1200SOL     OW15058   0.495   2.435   5.301  0.5890  0.1928 -0.2826
 1200SOL    HW115059   0.549   2.357   5.312  0.7684  0.1649 -1.3497
 1200SOL    HW215060   0.537   2.495   5.363  1.1743 -0.0004 -0.4932
 1201SOL     OW15061   3.365   4.653  15.724  0.2297 -0.4798 -0.5355
 1201SOL    HW115062   3.275   4.668  15.754  0.7210  1.6288 -0.1480
 1201SOL    HW215063   3.411   0.003  15.762 -1.0496 -0.7809  1.6725
 1202SOL     OW15064   2.521   4.518  12.101  0.0938  0.0867  0.1274
 1202SOL    HW115065   2.437   4.559  12.085  0.7552  0.9535 -1.1428
 1202SOL    HW215066   2.558   4.523  12.013  1.1160 -0.1882  0.5309
 1203SOL     OW15067   1.578   4.112   9.959  0.4786  0.3679  0.0017
 1203SOL    HW115068   1.647   4.046   9.958 -0.8837 -1.1013  0.9546
 1203SOL    HW215069   1.513   4.074   9.900  0.5671  2.0381 -1.1612
 1204SOL     OW15070   1.054   4.140   9.787 -0.1349 -0.2659 -0.0999
 1204SOL    HW115071   1.014   4.226   9.795  1.3216  0.6712 -2.8354
 1204SOL    HW215072   1.137   4.166   9.746  0.7966 -1.8847  0.7410
 1205SOL     OW15073   0.286   4.325   7.068  0.1375  0.1318  0.2107
 1205SOL    HW115074   0.315   4.414   7.050  0.3182 -0.2450 -1.3051
 1205SOL    HW215075   0.227   4.307   6.996 -0.1669 -0.5160  0.6218
 1206SOL     OW15076   0.327   1.894   5.380 -0.2690  0.0888  0.0247
 1206SOL    HW115077   0.417   1.917   5.404 -1.8160  4.0686  2.1146
 1206SOL    HW215078   0.351   1.803   5.360 -3.0502 -0.4741 -0.6888
 1207SOL     OW15079   1.976   3.804   5.759  0.0135 -0.0118  0.2943
 1207SOL    HW115080   2.003   3.793   5.668 -1.5145 -1.2523 -0.0077
 1207SOL    HW215081   1.929   3.724   5.784 -1.4205  0.8649  0.4206
 1208SOL     OW15082   0.428   2.774   5.962 -0.6649  0.1829  0.4219
 1208SOL    HW115083   0.351   2.789   6.018 -2.4069 -2.7035 -1.2216
 1208SOL    HW215084   0.408   2.834   5.890 -1.5077 -0.9210 -0.2619
 1209SOL     OW15085   2.189   0.675   3.751 -0.4314 -0.1764 -0.4573
 1209SOL    HW115086   2.232   0.737   3.693 -2.9030  2.1923  0.2358
 1209SOL    HW215087   2.142   0.731   3.813  0.2212 -0.9056  0.6915
 1210SOL     OW15088   2.538   0.835   6.368  0.2658 -0.2504 -0.8173
 1210SOL    HW115089   2.531   0.882   6.285  0.5326  0.0543 -0.6683
 1210SOL    HW215090   2.447   0.806   6.378  0.1073  0.1308 -1.1564
 1211SOL     OW15091   2.592   3.311   1.729 -0.1246  0.0650 -0.2171
 1211SOL    HW115092   2.652   3.385   1.726  0.5176 -0.4679 -0.8584
 1211SOL    HW215093   2.651   3.240   1.703 -0.0738 -0.1281  0.4235
 1212SOL     OW15094   1.667   0.841   0.081 -0.4027  0.2078  0.2337
 1212SOL    HW115095   1.660   0.842  17.684  0.4000  1.4034  0.1821
 1212SOL    HW215096   1.749   0.889   0.088  0.3108 -1.0330  0.2731
 1213SOL     OW15097   1.966   1.271   2.885 -0.6175  0.2532 -0.7164
 1213SOL    HW115098   1.998   1.305   2.801 -0.7288  1.0902 -0.4148
 1213SOL    HW215099   1.883   1.314   2.904 -1.3733 -0.5610 -2.1648
 1214SOL     OW15100   0.759   3.044   8.159 -0.2755  0.6175  0.2513
 1214SOL    HW115101   0.806   3.091   8.228  1.5078  1.7840 -1.7537
 1214SOL    HW215102   0.719   2.969   8.204 -2.0766  1.0805 -0.5805
 1215SOL     OW15103   3.883   2.293  14.568 -0.0639  0.3343 -0.0496
 1215SOL    HW115104   3.810   2.302  14.629 -0.7903  2.5365 -1.2653
 1215SOL    HW215105   3.940   2.361  14.605  1.5285 -2.0423  1.8580
 1216SOL     OW15106   4.096   2.159   9.548 -0.6396  0.3538  0.2575
 1216SOL    HW115107   4.187   2.129   9.544 -0.3107  1.4822 -0.7688
 1216SOL    HW215108   4.052   2.077   9.526 -0.4811  0.3386 -0.0107
 1217SOL     OW15109   3.691   1.844   9.629 -0.7283  0.0350 -0.4253
 1217SOL    HW115110   3.631   1.870   9.699 -0.3249 -0.1074 -0.0265
 1217SOL    HW215111   3.730   1.762   9.661 -1.9065  0.8107  3.0121
 1218SOL     OW15112   3.144   0.929   7.586  0.1788 -0.0380  0.3319
 1218SOL    HW115113   3.098   0.959   7.508 -0.3581 -0.1621  0.6033
 1218SOL    HW215114   3.157   1.012   7.631  0.8041  0.3857 -0.6233
 1219SOL     OW15115   1.002   4.378   4.174 -0.0834 -0.2816 -0.4218
 1219SOL    HW115116   0.943   4.330   4.233 -1.1117  1.3381 -0.1354
 1219SOL    HW215117   0.955   4.456   4.144  0.9013 -0.6421 -2.8749
 1220SOL     OW15118   4.438   0.619   9.175 -0.1234  0.4682 -0.2235
 1220SOL    HW115119   4.352   0.648   9.206 -0.5921 -1.0688 -0.0451
 1220SOL    HW215120   4.426   0.616   9.080 -3.3897  1.9164  0.1472
 1221SOL     OW15121   2.011   2.298   7.188  0.0300  0.2399  0.5389
 1221SOL    HW115122   1.931   2.338   7.223 -0.2425 -0.0770  0.2818
 1221SOL    HW215123   2.069   2.373   7.200  0.7740 -0.6354  2.3332
 1222SOL     OW15124   0.020   1.628   2.137  0.3422  0.0024 -0.0677
 1222SOL    HW115125   0.024   1.563   2.208  4.2373 -0.3376 -0.6116
 1222SOL    HW215126   0.112   1.630   2.112 -0.4793 -1.5801 -3.1208
 1223SOL     OW15127   3.424   4.341  13.313  0.2293 -0.1402 -0.3788
 1223SOL    HW115128   3.372   4.418  13.337 -0.4114  0.2322 -2.9399
 1223SOL    HW215129   3.473   4.314  13.390  1.0291 -1.4087 -1.3456
 1224SOL     OW15130   2.210   0.273   8.278  0.3994  0.3256 -0.6506
 1224SOL    HW115131   2.225   0.339   8.346 -1.5408 -0.8519  0.9178
 1224SOL    HW215132   2.115   0.272   8.267  0.3679  0.4969 -0.3911
 1225SOL     OW15133   0.992   3.144   7.518  0.0403  0.2634 -0.3988
 1225SOL    HW115134   0.952   3.194   7.447 -0.2592 -0.2321 -0.5875
 1225SOL    HW215135   0.913   3.124   7.568 -1.5303  0.9859 -2.6049
 1226SOL     OW15136   0.738   1.148  10.033  0.2817 -0.2228 -0.6774
 1226SOL    HW115137   0.688   1.227  10.052 -1.6761 -1.4612 -0.6428
 1226SOL    HW215138   0.758   1.127  10.124  2.9738  1.7074 -0.8399
 1227SOL     OW15139   1.370   4.710   7.107  0.0380  0.0901  0.2435
 1227SOL    HW115140   1.451   4.658   7.103  0.2381  0.4199  0.0291
 1227SOL    HW215141   1.359   4.721   7.201 -2.2512  3.4947 -0.4119
 1228SOL     OW15142   0.098   3.094   3.612  0.2115  0.1771 -0.2944
 1228SOL    HW115143   0.021   3.149   3.597  0.2617  0.5399  0.7444
 1228SOL    HW215144   0.078   3.027   3.547 -1.3065 -1.5147  1.9449
 1229SOL     OW15145   2.331   2.886   3.016  0.5456 -1.1619  0.4310
 1229SOL    HW115146   2.251   2.882   2.965  0.7181 -0.0945  0.0837
 1229SOL    HW215147   2.346   2.795   3.039 -1.3471 -1.7720 -0.8049
 1230SOL     OW15148   0.151   2.217   8.201  0.8977  0.2497 -0.1293
 1230SOL    HW115149   0.235   2.206   8.244  0.3639 -0.7907  0.6732
 1230SOL    HW215150   0.111   2.285   8.255 -4.3132 -2.5830 -0.4004
 1231SOL     OW15151   0.117   0.909   6.924 -0.6395  0.0139 -0.2647
 1231SOL    HW115152   0.152   0.820   6.925 -1.0644 -0.1432  0.4630
 1231SOL    HW215153   0.178   0.950   6.986 -2.7501 -0.5108  2.1370
 1232SOL     OW15154   1.557   1.640   4.238  0.0416  0.6440 -0.2150
 1232SOL    HW115155   1.563   1.707   4.307  0.2025 -0.6038  0.9766
 1232SOL    HW215156   1.522   1.568   4.290  0.2738  1.8154  1.5906
 1233SOL     OW15157   4.023   0.787   2.445 -0.6192  0.2330 -0.4420
 1233SOL    HW115158   3.954   0.798   2.511 -0.5298 -2.9066  0.1904
 1233SOL    HW215159   4.099   0.780   2.502 -1.4423 -0.0969  0.6153
 1234SOL     OW15160   2.919   2.701   8.982  0.3522  0.4298 -0.2175
 1234SOL    HW115161   2.832   2.739   8.994  0.7135  0.9126  0.8954
 1234SOL    HW215162   2.966   2.751   8.916 -0.5107  1.1635 -0.2784
 1235SOL     OW15163   1.461   3.072   7.048 -0.2031  0.5043  0.1584
 1235SOL    HW115164   1.393   3.137   7.028  0.0008  0.6079 -0.1926
 1235SOL    HW215165   1.524   3.089   6.977  0.8936  0.2353  1.0636
 1236SOL     OW15166   2.548   1.571   9.691 -0.2176  0.0172  0.4293
 1236SOL    HW115167   2.536   1.586   9.784 -3.0048 -0.0583  0.0655
 1236SOL    HW215168   2.496   1.646   9.662 -0.9404  0.4832  2.9659
 1237SOL     OW15169   2.491   3.012   6.826 -0.6888  0.2840  0.5056
 1237SOL    HW115170   2.563   3.026   6.888  0.0938  2.0890 -0.8227
 1237SOL    HW215171   2.526   2.962   6.752 -1.9318  2.9808 -1.8773
 1238SOL     OW15172   0.925   0.817  14.118 -0.2743 -0.3931 -0.4225
 1238SOL    HW115173   0.960   0.893  14.164  0.1837 -0.1701 -1.1401
 1238SOL    HW215174   0.882   0.862  14.046 -0.2575  0.8764  0.3726
 1239SOL     OW15175   1.560   4.349   7.998 -0.2015 -0.1957  0.3072
 1239SOL    HW115176   1.476   4.394   7.989 -0.1301 -0.4247 -1.6593
 1239SOL    HW215177   1.544   4.309   8.083 -0.1881  0.3740  0.5791
 1240SOL     OW15178   3.031   0.363   1.115  0.3403  0.8199 -0.3319
 1240SOL    HW115179   3.000   0.450   1.142  3.2047  1.9364 -0.7161
 1240SOL    HW215180   2.978   0.312   1.177 -0.0682  0.7854 -0.7095
 1241SOL     OW15181   0.166   2.876  13.396 -0.5416  0.1740 -0.6555
 1241SOL    HW115182   0.114   2.885  13.316 -1.0999 -1.4807 -0.4736
 1241SOL    HW215183   0.098   2.876  13.464 -0.5710 -1.2748 -0.6926
 1242SOL     OW15184   1.820   2.485   6.176  0.1177 -0.2766  0.1515
 1242SOL    HW115185   1.746   2.511   6.231 -0.2177  1.9147 -1.3239
 1242SOL    HW215186   1.821   2.390   6.189  0.0002  0.0418  2.5100
 1243SOL     OW15187   4.334   4.447   3.972  0.0166  0.2183  0.0118
 1243SOL    HW115188   4.250   4.481   3.942 -1.7063 -2.1019  2.1678
 1243SOL    HW215189   4.325   4.352   3.960  0.5641  0.0084  1.3492
 1244SOL     OW15190   3.336   0.902   7.026  0.4828  0.1305 -0.0988
 1244SOL    HW115191   3.338   0.817   7.070  0.7604  0.3537  0.3162
 1244SOL    HW215192   3.290   0.870   6.948  0.4248  1.4094 -0.5785
 1245SOL     OW15193   1.710   2.471   5.329  0.1145 -0.3210 -0.6735
 1245SOL    HW115194   1.677   2.383   5.351  0.4533  0.0311  1.2562
 1245SOL    HW215195   1.798   2.443   5.304  0.9855  1.2874  0.6436
 1246SOL     OW15196   1.630   2.764   1.967 -0.0813 -0.1957 -0.0154
 1246SOL    HW115197   1.614   2.817   1.889  0.6316  0.4833  0.3065
 1246SOL    HW215198   1.696   2.817   2.010 -1.7435  0.0397  2.2528
 1247SOL     OW15199   0.793   0.100   7.483  0.0714  0.6487  0.5351
 1247SOL    HW115200   0.847   0.179   7.476  0.7706  0.2837  1.8493
 1247SOL    HW215201   0.705   0.126   7.455 -0.5829 -1.8866  0.2135
 1248SOL     OW15202   0.062   0.365   2.994 -0.5417  0.6422  0.0157
 1248SOL    HW115203   0.079   0.324   3.079 -1.0159  1.9764  0.7553
 1248SOL    HW215204   0.142   0.343   2.948 -0.9323  0.5507 -0.6225
 1249SOL     OW15205   1.893   3.445   2.698 -0.0883 -0.2390  0.1805
 1249SOL    HW115206   1.830   3.514   2.720  0.5537 -0.1090  1.6429
 1249SOL    HW215207   1.881   3.436   2.604 -1.9410 -1.7413  0.5369
 1250SOL     OW15208   4.058   2.646   8.359 -0.1148 -0.1005  0.4177
 1250SOL    HW115209   4.075   2.580   8.426  1.7148  0.5944  0.6521
 1250SOL    HW215210   3.970   2.671   8.385 -0.3542  1.3759 -1.8679
 1251SOL     OW15211   0.171   2.641   9.474 -0.0343 -0.4371 -0.2619
 1251SOL    HW115212   0.204   2.619   9.561  1.9126  2.2868 -0.3292
 1251SOL    HW215213   0.095   2.583   9.466 -0.6421  0.0103  2.4908
 1252SOL     OW15214   0.521   3.994  16.865 -0.3240 -0.5265 -0.2930
 1252SOL    HW115215   0.516   3.938  16.942  1.3588  1.5684  1.2917
 1252SOL    HW215216   0.478   3.931  16.806 -0.8375 -1.3023  0.9110
 1253SOL     OW15217   4.674   0.573  11.070 -0.0216 -0.0778 -0.3526
 1253SOL    HW115218   4.685   0.499  11.010  2.3394  0.7404 -0.8940
 1253SOL    HW215219   4.637   0.528  11.146 -1.5498  2.0343  0.1407
 1254SOL     OW15220   1.889   3.014  15.751  0.6611  0.1715  0.7144
 1254SOL    HW115221   1.912   3.105  15.734  0.4222  0.1524  0.2589
 1254SOL    HW215222   1.796   3.005  15.728  0.6231  0.1114  0.8970
 1255SOL     OW15223   2.761   0.842   4.859 -0.1884  0.4982  0.4643
 1255SOL    HW115224   2.782   0.820   4.950  0.1763 -1.3469 -0.0564
 1255SOL    HW215225   2.826   0.795   4.808 -0.7732  0.3963 -0.1934
 1256SOL     OW15226   2.176   0.637   7.494  0.5535 -0.0717 -0.1180
 1256SOL    HW115227   2.241   0.651   7.425  0.1346  0.0981 -0.4859
 1256SOL    HW215228   2.143   0.555   7.456 -3.1194  0.9239  0.9585
 1257SOL     OW15229   0.658   3.662  13.474  0.2348 -1.0768 -0.3607
 1257SOL    HW115230   0.609   3.692  13.550  5.0560  1.7002  1.6341
 1257SOL    HW215231   0.574   3.648  13.429 -0.2123 -0.7998  0.3939
 1258SOL     OW15232   0.094   2.922   3.024  0.9366 -0.7011  0.2223
 1258SOL    HW115233   0.057   2.992   3.078  0.0951 -0.0553 -1.1960
 1258SOL    HW215234   0.165   2.887   3.079  0.7953 -0.9173  0.2654
 1259SOL     OW15235   2.869   4.611  13.029  0.3657 -0.0259 -0.3496
 1259SOL    HW115236   2.882   4.687  13.085  0.1254 -0.3567  0.1496
 1259SOL    HW215237   2.956   4.571  13.030  0.4644  0.1725 -0.8536
 1260SOL     OW15238   3.212   3.691  14.707 -0.1589 -0.4271 -0.3949
 1260SOL    HW115239   3.292   3.692  14.760 -0.0929 -0.3625 -0.4966
 1260SOL    HW215240   3.192   3.785  14.715  0.2897 -0.4270  0.6868
 1261SOL     OW15241   4.218   4.646  13.258  0.0882  0.3953 -0.2775
 1261SOL    HW115242   4.288   4.586  13.232 -0.0505  0.1605 -0.1105
 1261SOL    HW215243   4.209   4.705  13.184 -0.9305 -0.1788 -0.6099
 1262SOL     OW15244   3.940   4.607   4.399 -0.2658 -0.3788  0.3493
 1262SOL    HW115245   3.929   4.657   4.318  1.0804  0.4375  0.6828
 1262SOL    HW215246   3.922   4.677   4.462 -1.7647  1.3326 -1.9850
 1263SOL     OW15247   4.101   4.050   4.739 -0.2227 -0.8764  0.1141
 1263SOL    HW115248   4.087   4.126   4.796  1.0476 -0.7380  0.2298
 1263SOL    HW215249   4.047   4.083   4.667 -0.3877 -3.6327 -1.0186
 1264SOL     OW15250   2.986   1.028   9.252 -0.4082  0.2937  0.0072
 1264SOL    HW115251   3.063   1.049   9.199 -1.1782  1.6645 -0.5893
 1264SOL    HW215252   2.999   1.096   9.319  0.9166 -0.0525  0.1026
 1265SOL     OW15253   2.987   4.724   7.371  0.0599 -0.2502 -0.3173
 1265SOL    HW115254   2.921   0.067   7.354  0.5530  0.1347 -0.7365
 1265SOL    HW215255   3.056   0.050   7.328  0.9789  0.7146  2.3119
 1266SOL     OW15256   0.822   0.645   6.123  0.4192 -0.1121  0.8649
 1266SOL    HW115257   0.879   0.698   6.068  1.8278 -2.9049 -0.4068
 1266SOL    HW215258   0.839   0.692   6.204  0.4343  0.0568  0.7634
 1267SOL     OW15259   2.532   1.831   3.433  0.2532  0.1251 -0.2362
 1267SOL    HW115260   2.598   1.769   3.464 -0.2914  0.1506  0.9634
 1267SOL    HW215261   2.568   1.912   3.471  3.4404 -0.9653 -0.9458
 1268SOL     OW15262   0.179   2.669   5.477 -0.3183  0.0405 -0.1418
 1268SOL    HW115263   0.167   2.616   5.399  0.0339  0.7520 -0.6804
 1268SOL    HW215264   0.204   2.755   5.442 -1.4132  0.2009 -0.5357
 1269SOL     OW15265   3.785   3.519  16.080  0.2954 -0.1403 -0.0745
 1269SOL    HW115266   3.731   3.577  16.134  0.2397  0.3213 -0.6330
 1269SOL    HW215267   3.821   3.587  16.024  0.6375 -0.2925 -0.0390
 1270SOL     OW15268   0.609   1.525  12.734 -0.3734 -0.0025 -1.2582
 1270SOL    HW115269   0.697   1.527  12.771 -1.3830  1.1386  1.1353
 1270SOL    HW215270   0.609   1.440  12.691  1.4370 -1.0859  0.9181
 1271SOL     OW15271   1.025   0.155   3.974 -0.4264 -0.3188 -0.2411
 1271SOL    HW115272   1.106   0.205   3.989 -1.3537  0.5619  1.8665
 1271SOL    HW215273   0.979   0.149   4.058  1.5782  0.6576  0.9371
 1272SOL     OW15274   3.030   2.532  10.346 -0.4845  0.0918 -0.1215
 1272SOL    HW115275   2.936   2.542  10.360  0.1284  1.7455  2.8131
 1272SOL    HW215276   3.051   2.625  10.356 -0.8584  0.2798 -1.0908
 1273SOL     OW15277   3.269   3.673   3.321  0.4349  0.6227  0.1037
 1273SOL    HW115278   3.365   3.681   3.324  0.5800 -1.1199  0.2697
 1273SOL    HW215279   3.259   3.636   3.233  1.9715 -0.0269  0.1990
 1274SOL     OW15280   1.553   3.387  10.922  0.0703  0.1765  0.0227
 1274SOL    HW115281   1.488   3.378  10.853 -0.0997 -1.8797  0.4345
 1274SOL    HW215282   1.501   3.426  10.993  0.7105  1.3986 -0.1831
 1275SOL     OW15283   1.683   3.960   7.478  0.1912 -0.4683  0.0130
 1275SOL    HW115284   1.608   4.019   7.481  1.0930  0.4370  3.8460
 1275SOL    HW215285   1.753   4.022   7.498  1.2137 -1.5463 -0.2330
 1276SOL     OW15286   3.989   1.479   0.258 -0.0200  0.5293 -0.3566
 1276SOL    HW115287   4.047   1.424   0.205 -0.1725 -1.1093  1.1628
 1276SOL    HW215288   4.043   1.483   0.337 -1.0602 -2.4329  0.5256
 1277SOL     OW15289   1.593   1.022  13.522 -0.6251  0.5063  0.3404
 1277SOL    HW115290   1.587   1.085  13.593 -1.0410 -0.5963  1.2935
 1277SOL    HW215291   1.502   0.995  13.508 -0.6632 -0.1379  1.8291
 1278SOL     OW15292   3.166   0.375  13.748  0.2913  0.3680 -0.0942
 1278SOL    HW115293   3.229   0.342  13.683 -0.3473  0.1995 -0.6252
 1278SOL    HW215294   3.210   0.449  13.790  1.5792 -0.4387 -0.0263
 1279SOL     OW15295   0.757   3.218  14.451  0.1985 -0.2339 -0.7517
 1279SOL    HW115296   0.673   3.229  14.407  0.3894  1.5498 -0.6636
 1279SOL    HW215297   0.746   3.229  14.546  1.3840 -0.3818 -0.5952
 1280SOL     OW15298   1.110   0.310   5.283 -0.4472  0.2287  0.1241
 1280SOL    HW115299   1.176   0.377   5.302 -2.0964  1.1567  2.5388
 1280SOL    HW215300   1.130   0.291   5.191 -0.7198 -1.5916  0.4521
 1281SOL     OW15301   3.660   2.657   8.992 -0.2970 -0.3346  0.3093
 1281SOL    HW115302   3.601   2.678   8.920  1.1577 -0.5091 -0.9317
 1281SOL    HW215303   3.675   2.749   9.016  0.3697  0.1362 -1.8532
 1282SOL     OW15304   3.320   2.300   2.538 -0.3269 -0.1306  0.6697
 1282SOL    HW115305   3.286   2.230   2.483  0.8586 -0.4296  0.3136
 1282SOL    HW215306   3.346   2.245   2.612  0.9510 -1.0524 -0.4803
 1283SOL     OW15307   2.529   1.298   9.123 -0.2344  0.3081  0.3780
 1283SOL    HW115308   2.480   1.336   9.195 -0.9640 -1.8382  1.0280
 1283SOL    HW215309   2.615   1.290   9.166  0.8151  1.4772 -1.4969
 1284SOL     OW15310   3.352   0.151   3.589  0.0514  0.2650  0.3857
 1284SOL    HW115311   3.441   0.123   3.611 -0.1022 -0.2663  0.3400
 1284SOL    HW215312   3.374   0.185   3.503 -0.5528 -0.2273  0.0372
 1285SOL     OW15313   3.665   1.884  11.670  0.1112  0.3959 -0.5205
 1285SOL    HW115314   3.684   1.833  11.591 -2.9193  2.5387 -2.6255
 1285SOL    HW215315   3.749   1.930  11.675  1.5016 -1.9391 -1.9813
 1286SOL     OW15316   4.712   4.428  11.698 -0.1150 -0.4041  0.0203
 1286SOL    HW115317   0.053   4.481  11.744 -0.4729 -0.4492  0.5792
 1286SOL    HW215318   4.633   4.482  11.693  0.6434  0.6255 -0.9708
 1287SOL     OW15319   2.286   0.421   1.816  0.6011  1.1277 -0.2386
 1287SOL    HW115320   2.300   0.493   1.878 -1.3522  1.4781 -0.2267
 1287SOL    HW215321   2.377   0.391   1.820  0.2496  0.1307  0.2328
 1288SOL     OW15322   3.569   0.024   2.023 -0.1751 -0.5808 -0.2925
 1288SOL    HW115323   3.594   0.116   2.032  0.0972 -0.7014  0.1906
 1288SOL    HW215324   3.473   0.029   2.026 -0.1482 -0.9750  1.1266
 1289SOL     OW15325   2.222   0.802   6.049  0.2982  0.2428  0.3470
 1289SOL    HW115326   2.214   0.713   6.013 -0.6483  1.0344 -1.3948
 1289SOL    HW215327   2.266   0.780   6.131 -1.1768 -2.3234  0.4625
 1290SOL     OW15328   2.122   3.761  15.650  0.8115  0.1325 -0.0330
 1290SOL    HW115329   2.157   3.791  15.566  0.0530 -0.6866 -0.6391
 1290SOL    HW215330   2.154   3.837  15.698 -3.7057  2.1754 -0.2732
 1291SOL     OW15331   1.437   3.583   2.100 -0.0048 -0.1093 -0.3200
 1291SOL    HW115332   1.448   3.509   2.040  1.2722 -1.7074  1.8578
 1291SOL    HW215333   1.376   3.541   2.161  0.7960  0.5229  0.9200
 1292SOL     OW15334   0.001   3.184   0.495 -0.5762 -0.7411 -0.0233
 1292SOL    HW115335   4.708   3.250   0.563  3.0173 -1.1923  1.3263
 1292SOL    HW215336   0.060   3.230   0.437 -0.5207  1.2894  1.6299
 1293SOL     OW15337   3.784   1.222  12.220 -0.2501 -0.0973  0.0975
 1293SOL    HW115338   3.779   1.128  12.237  2.4263 -0.0485  1.1184
 1293SOL    HW215339   3.879   1.232  12.216 -0.1416 -0.7358  1.2307
 1294SOL     OW15340   1.067   0.864   1.563 -0.2824 -0.7046 -0.0450
 1294SOL    HW115341   1.054   0.935   1.625  1.1584 -0.0047 -0.5335
 1294SOL    HW215342   1.163   0.869   1.555 -0.6141  3.2777 -1.4353
 1295SOL     OW15343   1.748   0.786  14.900  0.4485 -0.1512 -0.1694
 1295SOL    HW115344   1.824   0.803  14.844  0.4597 -0.0155 -0.1130
 1295SOL    HW215345   1.767   0.693  14.914  1.7551 -0.1512 -1.8766
 1296SOL     OW15346   4.542   1.831   6.891 -0.5855  0.1788  0.0694
 1296SOL    HW115347   4.614   1.894   6.901 -0.0783 -0.5473  1.0325
 1296SOL    HW215348   4.518   1.856   6.802 -1.0209 -0.8285 -0.0937
 1297SOL     OW15349   2.472   0.829   7.148  0.6676  0.3158 -0.6906
 1297SOL    HW115350   2.472   0.887   7.224 -0.4747 -0.6558  0.0582
 1297SOL    HW215351   2.480   0.890   7.075  1.5979  1.6717  0.5456
 1298SOL     OW15352   3.646   4.372   2.933 -0.0243  0.2419 -0.1887
 1298SOL    HW115353   3.609   4.286   2.950 -1.2205  0.8243  0.1501
 1298SOL    HW215354   3.682   4.386   3.020 -0.8084 -3.3906  0.6950
 1299SOL     OW15355   0.979   0.266   8.858  0.5520 -0.8928 -0.0545
 1299SOL    HW115356   0.884   0.261   8.867  0.3826  0.8971 -0.6964
 1299SOL    HW215357   0.990   0.348   8.907 -1.4793 -1.5837  1.5547
 1300SOL     OW15358   3.504   3.666   3.511 -0.2636 -0.1431 -0.5688
 1300SOL    HW115359   3.583   3.622   3.480  0.3423  0.6374 -0.1139
 1300SOL    HW215360   3.453   3.592   3.546  0.3588  0.3693  1.4597
 1301SOL     OW15361   3.177   3.527   7.884  0.1476 -0.2483 -0.0231
 1301SOL    HW115362   3.172   3.556   7.975  0.6623  0.2962 -0.1664
 1301SOL    HW215363   3.164   3.612   7.842  0.6037 -1.0298 -1.7539
 1302SOL     OW15364   4.638   1.037   4.248  0.5847 -0.1206  0.0803
 1302SOL    HW115365   4.607   0.955   4.210  0.6304  1.1159 -2.6411
 1302SOL    HW215366   4.582   1.102   4.205 -0.5462  0.1586  1.9878
 1303SOL     OW15367   4.523   4.604  13.695  0.5797 -0.1759 -0.3004
 1303SOL    HW115368   4.484   4.519  13.717 -1.5758  1.3464  1.7405
 1303SOL    HW215369   4.458   4.640  13.634 -1.7553 -1.0954  1.6256
 1304SOL     OW15370   0.795   2.953  14.415 -0.6870 -0.0012 -0.1614
 1304SOL    HW115371   0.796   3.049  14.414  1.2465 -0.0088 -0.0707
 1304SOL    HW215372   0.707   2.940  14.450  0.1055 -0.8753  1.5277
 1305SOL     OW15373   1.267   0.536   6.747 -0.0493 -0.3498  0.5417
 1305SOL    HW115374   1.350   0.541   6.794  0.7679 -0.0185 -0.9421
 1305SOL    HW215375   1.250   0.443   6.735 -1.6627 -0.1257  1.1503
 1306SOL     OW15376   1.405   1.343   6.201 -0.4335 -0.7757 -0.5033
 1306SOL    HW115377   1.459   1.411   6.242 -0.0881 -0.4576 -1.4985
 1306SOL    HW215378   1.376   1.293   6.278  1.3151 -0.0260  0.6585
 1307SOL     OW15379   4.181   3.804  14.894 -0.1524  0.2128  0.3246
 1307SOL    HW115380   4.129   3.766  14.823 -2.6946 -0.4812  2.5543
 1307SOL    HW215381   4.211   3.883  14.849  1.4832 -0.1069  0.8723
 1308SOL     OW15382   3.012   2.964   4.535 -0.0119 -0.3872 -0.4596
 1308SOL    HW115383   2.984   2.900   4.470 -0.5481  0.4759 -1.0786
 1308SOL    HW215384   2.962   2.934   4.612  2.2163  0.9144  1.4899
 1309SOL     OW15385   0.178   0.737   5.804 -0.3964 -0.0775 -0.0541
 1309SOL    HW115386   0.254   0.785   5.769 -0.2894 -0.2435 -0.0481
 1309SOL    HW215387   0.201   0.747   5.896  2.4146  1.1988 -0.8684
 1310SOL     OW15388   2.122   3.670  14.068  0.1641 -0.0761 -0.3582
 1310SOL    HW115389   2.077   3.643  14.148 -0.6532  0.3618 -0.6737
 1310SOL    HW215390   2.213   3.641  14.064  1.4010  3.4233  2.1620
 1311SOL     OW15391   0.676   1.624  11.220  0.2574  0.3651 -0.0172
 1311SOL    HW115392   0.615   1.567  11.267 -0.6022  1.9647  0.8101
 1311SOL    HW215393   0.619   1.698  11.202 -0.6543 -0.2512  0.3541
 1312SOL     OW15394   1.913   3.143   5.593  0.7725  0.0421 -0.3217
 1312SOL    HW115395   2.007   3.126   5.608  1.0237 -1.7846 -3.9309
 1312SOL    HW215396   1.908   3.212   5.660 -0.6654 -1.4148  1.0830
 1313SOL     OW15397   1.669   4.143  12.572  0.0964  0.8398  0.7886
 1313SOL    HW115398   1.748   4.192  12.549  0.2552 -0.4486 -1.4463
 1313SOL    HW215399   1.653   4.175  12.660 -1.0140 -0.6423  1.1183
 1314SOL     OW15400   0.661   3.980   2.985  0.2731  0.0831 -0.8314
 1314SOL    HW115401   0.736   4.027   3.023 -1.8399  2.0233  0.8850
 1314SOL    HW215402   0.704   3.910   2.934 -1.9794 -0.9364 -1.3070
 1315SOL     OW15403   1.562   0.820   8.804 -0.1633 -0.0479 -0.4674
 1315SOL    HW115404   1.553   0.727   8.786 -0.0588 -0.3989  1.3423
 1315SOL    HW215405   1.656   0.840   8.799 -0.4441  1.2444 -0.6256
 1316SOL     OW15406   2.629   0.991  10.300  0.3197 -0.4064  0.1245
 1316SOL    HW115407   2.585   0.926  10.354  0.9342 -0.1662  0.9116
 1316SOL    HW215408   2.685   1.030  10.367 -2.2922 -2.2427  3.3114
 1317SOL     OW15409   2.715   1.081   9.561 -0.5254 -0.4078 -0.1953
 1317SOL    HW115410   2.667   1.163   9.561  0.2438  0.0190  3.4427
 1317SOL    HW215411   2.782   1.110   9.499 -0.3237 -1.2622 -0.3871
 1318SOL     OW15412   0.394   0.933  10.050  0.2495  0.0148 -0.2953
 1318SOL    HW115413   0.411   1.002   9.986 -1.2385  0.7235  0.0715
 1318SOL    HW215414   0.309   0.904  10.015  0.5912 -1.1578 -0.1339
 1319SOL     OW15415   1.055   4.431   7.860 -0.0334 -0.6046 -0.4811
 1319SOL    HW115416   0.992   4.499   7.837  1.4819  0.8623 -0.2671
 1319SOL    HW215417   1.051   4.445   7.954  1.9450  0.3335 -0.5309
 1320SOL     OW15418   3.577   0.604   6.054  0.0888 -0.2535 -0.2394
 1320SOL    HW115419   3.515   0.545   6.011 -0.1575  0.1373 -0.4168
 1320SOL    HW215420   3.544   0.595   6.144  2.1427  3.6664  0.8973
 1321SOL     OW15421   4.410   2.762   2.692  0.1088 -0.0640  0.5670
 1321SOL    HW115422   4.497   2.761   2.733  0.1165 -2.1690  0.4977
 1321SOL    HW215423   4.377   2.841   2.734  1.7972  0.2451  1.3169
 1322SOL     OW15424   4.412   0.195   4.049 -0.2398 -0.2346  0.3338
 1322SOL    HW115425   4.471   0.252   3.999  1.7193  0.1040  3.0028
 1322SOL    HW215426   4.456   0.190   4.135 -0.9680 -0.9913  0.6622
 1323SOL     OW15427   1.949   2.808  12.639  0.0680  0.1503  0.0848
 1323SOL    HW115428   1.865   2.799  12.594  0.9483 -2.7978 -0.9886
 1323SOL    HW215429   2.000   2.864  12.581  1.6382 -2.2665 -0.9130
 1324SOL     OW15430   4.642   2.865   3.927 -0.1880 -0.5620 -0.3232
 1324SOL    HW115431   4.584   2.892   3.856 -0.2911 -2.7398 -1.0812
 1324SOL    HW215432   0.005   2.895   3.900 -0.7635  0.9376 -0.4886
 1325SOL     OW15433   4.137   0.651  13.810  0.7784 -0.1339 -0.0219
 1325SOL    HW115434   4.107   0.741  13.809 -1.1317 -0.7549  0.9672
 1325SOL    HW215435   4.147   0.627  13.718  2.6154 -0.1230  0.1722
 1326SOL     OW15436   3.240   4.216  12.696  0.0709  0.0103  0.6615
 1326SOL    HW115437   3.189   4.213  12.615  1.0389  0.9460  0.0229
 1326SOL    HW215438   3.167   4.245  12.752 -0.8212  0.9212 -0.9790
 1327SOL     OW15439   2.741   3.114   8.773  0.4192 -0.5540  0.1968
 1327SOL    HW115440   2.661   3.090   8.728  0.6311  2.0448 -1.5427
 1327SOL    HW215441   2.749   3.206   8.748 -0.8453 -0.5514 -0.1844
 1328SOL     OW15442   4.176   1.544   7.955 -0.1051 -0.2364  0.2752
 1328SOL    HW115443   4.217   1.537   7.869  3.0452 -1.3324  1.8813
 1328SOL    HW215444   4.169   1.639   7.962 -2.5871 -0.2224 -2.3083
 1329SOL     OW15445   2.913   3.194  14.545 -0.1944 -0.2437  0.8910
 1329SOL    HW115446   2.838   3.233  14.500  1.5593 -0.2430 -2.0046
 1329SOL    HW215447   2.975   3.189  14.472  2.8879 -0.6432  3.5320
 1330SOL     OW15448   3.488   4.463   3.931 -0.7221 -0.1159 -0.0066
 1330SOL    HW115449   3.415   4.473   3.992 -0.4350 -0.7080  0.4303
 1330SOL    HW215450   3.444   4.488   3.849 -5.0239 -1.4748  1.8853
 1331SOL     OW15451   0.252   2.545   7.868 -0.0037 -0.0167 -0.6306
 1331SOL    HW115452   0.283   2.631   7.841  0.1326  0.7974  2.1621
 1331SOL    HW215453   0.289   2.487   7.801 -1.2925  0.7529 -2.0321
 1332SOL     OW15454   2.667   1.201   5.203  0.2106  0.1969 -0.1161
 1332SOL    HW115455   2.598   1.153   5.249 -1.2659 -0.0385 -2.5621
 1332SOL    HW215456   2.655   1.172   5.113  1.6950 -0.3121 -0.1391
 1333SOL     OW15457   3.757   2.077   2.622  0.6624 -0.2503  0.2767
 1333SOL    HW115458   3.701   2.153   2.638 -0.1825 -0.0585 -3.5337
 1333SOL    HW215459   3.798   2.132   2.556  0.1097  1.2549  1.2005
 1334SOL     OW15460   3.223   1.730   8.123 -0.4365  0.1095  0.0405
 1334SOL    HW115461   3.136   1.766   8.142  0.6716  2.3757  0.9304
 1334SOL    HW215462   3.216   1.650   8.071 -0.6135  0.5902 -0.6713
 1335SOL     OW15463   2.613   2.592   7.515  0.6428 -0.0491 -0.2341
 1335SOL    HW115464   2.628   2.530   7.443 -0.2465  0.5926 -0.9668
 1335SOL    HW215465   2.521   2.571   7.530  1.4693 -3.2926  0.3190
 1336SOL     OW15466   4.610   3.392   8.118 -0.0770 -0.1401  0.1110
 1336SOL    HW115467   4.656   3.437   8.047  2.6487  1.1371  2.6862
 1336SOL    HW215468   4.666   3.410   8.194  0.8375 -1.8772 -0.1374
 1337SOL     OW15469   1.133   2.018   4.883  0.2850  0.0457 -0.5069
 1337SOL    HW115470   1.105   2.057   4.966 -1.5582  0.0394 -1.1212
 1337SOL    HW215471   1.075   2.067   4.824 -0.0094  1.2891  0.8099
 1338SOL     OW15472   0.288   4.316  12.080  0.6145 -0.8204  0.0003
 1338SOL    HW115473   0.198   4.341  12.058  1.1018  1.1425  0.2558
 1338SOL    HW215474   0.302   4.371  12.157 -0.1402  0.7477 -0.9904
 1339SOL     OW15475   2.264   3.128  15.036  0.4412 -0.2219  0.3431
 1339SOL    HW115476   2.220   3.065  15.093  1.7531 -0.5631  0.9720
 1339SOL    HW215477   2.356   3.129  15.061  0.5472 -3.0308 -0.0266
 1340SOL     OW15478   4.031   4.395   8.878 -0.8392 -0.6085 -0.0787
 1340SOL    HW115479   3.981   4.359   8.951 -1.2094 -0.8263 -0.4348
 1340SOL    HW215480   3.972   4.465   8.849 -0.6192 -0.7925 -0.9783
 1341SOL     OW15481   4.236   3.123  10.236  0.3367 -0.0939  0.6294
 1341SOL    HW115482   4.311   3.089  10.188 -0.8645 -0.9077 -0.6850
 1341SOL    HW215483   4.181   3.045  10.229  1.3318 -0.6040 -1.4941
 1342SOL     OW15484   0.162   4.581  10.549  0.2521 -0.0826 -0.1226
 1342SOL    HW115485   0.186   4.671  10.527 -2.5999  0.9194  0.8474
 1342SOL    HW215486   0.181   4.587  10.643 -0.8443 -0.5119  0.1216
 1343SOL     OW15487   1.372   4.067   0.098 -0.4391 -0.3797  0.2541
 1343SOL    HW115488   1.402   4.146   0.054  1.0809 -0.7862  0.5716
 1343SOL    HW215489   1.431   4.068   0.174  1.1932  0.4760 -1.0395
 1344SOL     OW15490   0.011   3.470  16.869  0.3804 -0.4890  0.1614
 1344SOL    HW115491   4.679   3.503  16.799  1.8837 -2.7415 -2.0765
 1344SOL    HW215492   4.707   3.531  16.937 -0.4665  0.5233 -1.0904
 1345SOL     OW15493   0.596   1.588   8.343  0.1011 -0.2849  0.3304
 1345SOL    HW115494   0.562   1.628   8.423 -1.4248 -2.4050  0.7473
 1345SOL    HW215495   0.524   1.525   8.334 -0.2466  0.3186 -1.1018
 1346SOL     OW15496   4.566   2.075   7.501 -0.1986  0.2715 -0.4520
 1346SOL    HW115497   4.482   2.119   7.513 -0.2396  0.6058 -2.0829
 1346SOL    HW215498   4.614   2.089   7.583  0.2700  0.3908 -0.7490
 1347SOL     OW15499   1.921   1.343   9.841  0.1042 -0.3105  0.5248
 1347SOL    HW115500   1.910   1.266   9.897 -1.2056  0.9207  1.9673
 1347SOL    HW215501   2.012   1.341   9.812 -0.0272  0.2620  0.0861
 1348SOL     OW15502   4.292   2.164   0.486  0.4091  0.2392  0.0391
 1348SOL    HW115503   4.262   2.197   0.401  0.3101 -1.1166 -0.4509
 1348SOL    HW215504   4.219   2.181   0.545  0.7465 -3.3786  1.4687
 1349SOL     OW15505   1.501   3.829   3.716  0.6426  0.2498 -0.0492
 1349SOL    HW115506   1.548   3.907   3.746  1.0122  0.1488 -0.3725
 1349SOL    HW215507   1.562   3.758   3.737 -0.3367 -0.9453 -1.2606
 1350SOL     OW15508   0.493   1.551  13.709  0.0908 -0.4563  0.4151
 1350SOL    HW115509   0.573   1.500  13.723  0.8384  0.8289  0.8781
 1350SOL    HW215510   0.446   1.506  13.639  0.5063 -0.1593 -0.0527
 1351SOL     OW15511   3.219   3.186   0.833  0.1499  0.3605  0.3568
 1351SOL    HW115512   3.186   3.096   0.835  0.6376  0.1992  1.1171
 1351SOL    HW215513   3.152   3.235   0.785 -0.1957 -0.9121 -0.4679
 1352SOL     OW15514   0.278   0.674   6.980  0.0591  0.0182 -0.4755
 1352SOL    HW115515   0.273   0.645   7.071 -0.9480  0.8185 -0.2735
 1352SOL    HW215516   0.290   0.588   6.939 -1.7608 -0.1057 -0.7382
 1353SOL     OW15517   1.402   0.283  17.482 -0.0096  0.9864 -0.1870
 1353SOL    HW115518   1.375   0.199  17.444 -1.0860  1.1826  0.1184
 1353SOL    HW215519   1.422   0.254  17.571 -0.5386  1.1489 -0.0144
 1354SOL     OW15520   0.133   1.845  15.488  0.0451  0.0778 -0.3996
 1354SOL    HW115521   0.070   1.822  15.556  0.0428  0.9231 -0.1093
 1354SOL    HW215522   0.141   1.754  15.461 -0.6992 -0.9948  2.9911
 1355SOL     OW15523   3.191   4.469  12.979  0.3091  0.8639  0.0370
 1355SOL    HW115524   3.128   4.446  12.910  0.9720 -0.4191 -0.1459
 1355SOL    HW215525   3.239   4.388  12.998  1.3999  1.3079 -0.8817
 1356SOL     OW15526   2.436   2.019   8.217 -0.0654  0.1101  0.2657
 1356SOL    HW115527   2.445   2.087   8.285  1.8108  1.5214 -1.3750
 1356SOL    HW215528   2.351   2.049   8.185 -1.3776 -1.6389  2.1154
 1357SOL     OW15529   2.317   2.985   2.648 -0.0134 -0.0696  0.7988
 1357SOL    HW115530   2.281   2.903   2.612  0.2946  1.0790 -2.1454
 1357SOL    HW215531   2.366   2.950   2.723 -2.0954 -2.6333  1.0028
 1358SOL     OW15532   1.724   2.449   2.152 -0.0356 -0.3829  0.5231
 1358SOL    HW115533   1.650   2.390   2.136 -0.0423  0.5623 -2.9526
 1358SOL    HW215534   1.761   2.391   2.218  1.4776 -0.3118 -0.2779
 1359SOL     OW15535   0.290   2.065   4.198  0.0300  0.2136  0.3346
 1359SOL    HW115536   0.375   2.030   4.172 -0.8906 -1.0465 -0.8993
 1359SOL    HW215537   0.311   2.150   4.238 -0.7011 -0.0408  1.2599
 1360SOL     OW15538   0.564   3.017  13.868  0.1583 -0.1712 -0.2642
 1360SOL    HW115539   0.566   3.012  13.963 -3.2029 -0.8712 -0.2208
 1360SOL    HW215540   0.649   3.055  13.849  2.4779 -3.9223  2.7588
 1361SOL     OW15541   1.709   2.176   0.927 -0.0168 -0.5737  0.1606
 1361SOL    HW115542   1.803   2.160   0.925  0.2910  1.2816 -0.7247
 1361SOL    HW215543   1.664   2.100   0.962 -0.7971 -0.7503 -1.2089
 1362SOL     OW15544   4.002   4.254   5.324 -0.1568 -0.2220  0.4888
 1362SOL    HW115545   3.911   4.227   5.339  0.3057 -1.5638  0.9307
 1362SOL    HW215546   4.042   4.175   5.362  2.1386  0.2851 -0.8826
 1363SOL     OW15547   0.594   0.969   8.205  0.0556 -0.2972 -0.3281
 1363SOL    HW115548   0.577   0.997   8.115 -0.7497 -1.2358 -0.4628
 1363SOL    HW215549   0.591   1.053   8.252  1.0584  0.8437 -2.3021
 1364SOL     OW15550   1.716   4.686   0.331  0.6983  0.0370  0.2146
 1364SOL    HW115551   1.654   0.023   0.293  1.8329  1.9627  1.4631
 1364SOL    HW215552   1.735   4.622   0.263  0.2564  0.3382 -0.1944
 1365SOL     OW15553   2.298   1.920   8.828 -0.2679  0.5709  0.3780
 1365SOL    HW115554   2.349   1.841   8.842 -1.0909  0.1272  0.9460
 1365SOL    HW215555   2.370   1.981   8.815  0.1095  0.1944  0.7098
 1366SOL     OW15556   4.389   2.838  11.369 -0.0753 -0.2578  0.0599
 1366SOL    HW115557   4.480   2.838  11.338 -0.2648 -2.6131 -0.5284
 1366SOL    HW215558   4.343   2.774  11.314  0.4811 -1.7620  1.3661
 1367SOL     OW15559   3.389   1.733   0.050  0.5451  0.2520 -0.4020
 1367SOL    HW115560   3.353   1.657   0.004 -0.5054  0.4417  0.0922
 1367SOL    HW215561   3.314   1.753   0.106  1.9031  1.4035  1.0086
 1368SOL     OW15562   0.941   2.793   8.637  0.0792  0.5390  0.6759
 1368SOL    HW115563   0.848   2.816   8.632  0.0533  0.9396  2.9324
 1368SOL    HW215564   0.988   2.871   8.610 -3.2539  1.1009 -3.5201
 1369SOL     OW15565   2.361   4.254   2.845  0.4894 -0.3642 -0.7271
 1369SOL    HW115566   2.354   4.186   2.778 -0.1079 -1.4624  0.4627
 1369SOL    HW215567   2.268   4.272   2.863  0.4687 -0.4997 -0.7007
 1370SOL     OW15568   3.178   2.075   6.960  0.2534 -0.3772 -0.3122
 1370SOL    HW115569   3.120   2.127   6.905  0.6451 -0.8925 -1.2112
 1370SOL    HW215570   3.261   2.123   6.963 -0.1313  0.1621  2.6819
 1371SOL     OW15571   3.974   1.099   0.891 -0.0608 -0.2939 -0.6806
 1371SOL    HW115572   3.987   1.044   0.968  0.3748 -0.1749 -0.6680
 1371SOL    HW215573   3.880   1.115   0.898  0.0802 -1.3954  4.0044
 1372SOL     OW15574   1.565   4.585   8.493 -0.9167  0.2703  0.0921
 1372SOL    HW115575   1.650   4.583   8.449 -1.1633 -1.4779 -0.3082
 1372SOL    HW215576   1.515   4.519   8.444 -0.5234 -0.8371  1.1902
 1373SOL     OW15577   2.785   2.074  14.585  0.3060 -0.5051  0.8301
 1373SOL    HW115578   2.736   2.131  14.645 -0.6093 -1.3741  0.8978
 1373SOL    HW215579   2.868   2.122  14.590 -0.8013  1.5016  0.1439
 1374SOL     OW15580   1.666   0.632   0.237  0.0376  0.0130  0.2065
 1374SOL    HW115581   1.761   0.626   0.225  0.4331  0.2472  3.2009
 1374SOL    HW215582   1.667   0.705   0.174 -1.0968  0.8534  1.1772
 1375SOL     OW15583   2.028   0.958   3.076  0.1283  0.1011  0.0344
 1375SOL    HW115584   1.953   0.960   3.016  0.1356 -1.2089 -0.0204
 1375SOL    HW215585   1.974   0.940   3.153  1.1144  1.5663  1.0495
 1376SOL     OW15586   3.667   4.455   8.382 -0.0015  0.3105  0.1137
 1376SOL    HW115587   3.589   4.463   8.438  1.4273 -2.7898  2.5530
 1376SOL    HW215588   3.641   4.469   8.291  2.1554  1.8889 -0.2445
 1377SOL     OW15589   1.059   1.533   3.231 -0.0983  1.0597  0.0162
 1377SOL    HW115590   0.980   1.480   3.242  0.0501  0.5032 -1.6390
 1377SOL    HW215591   1.131   1.474   3.255 -2.4075 -1.4263  0.8949
 1378SOL     OW15592   2.239   0.093   3.263 -0.5374  0.2329 -0.5581
 1378SOL    HW115593   2.323   0.136   3.246 -0.7130  1.7321  2.4285
 1378SOL    HW215594   2.195   0.149   3.199  0.5380 -0.2906 -1.7557
 1379SOL     OW15595   3.329   3.017  10.648  0.2462  0.2345 -0.0352
 1379SOL    HW115596   3.262   3.083  10.666 -0.3210 -0.5676  0.8283
 1379SOL    HW215597   3.299   2.948  10.708 -0.2365  1.4042  1.0599
 1380SOL     OW15598   1.877   4.213   4.386  0.1235 -1.1092 -0.3480
 1380SOL    HW115599   1.910   4.243   4.301 -0.5235 -1.7479 -0.8232
 1380SOL    HW215600   1.789   4.186   4.360 -1.8988  3.3741  1.8832
 1381SOL     OW15601   3.657   1.805   8.699  0.1227  0.1047 -0.9376
 1381SOL    HW115602   3.693   1.847   8.777 -2.1711  0.9791 -0.3349
 1381SOL    HW215603   3.675   1.878   8.640 -0.9126 -0.1203 -1.5361
 1382SOL     OW15604   0.407   4.115   7.134 -0.6617  0.4315  0.3511
 1382SOL    HW115605   0.337   4.061   7.172  0.0073 -1.9090 -1.7147
 1382SOL    HW215606   0.364   4.198   7.113 -0.9653  0.2060  0.0853
 1383SOL     OW15607   2.786   1.291  16.191  0.0753 -0.1168  0.2937
 1383SOL    HW115608   2.822   1.230  16.127 -0.1170 -0.1959  0.2619
 1383SOL    HW215609   2.853   1.359  16.189 -0.0670  0.0082 -0.1805
 1384SOL     OW15610   2.281   1.210   5.352  0.2044 -0.1382  0.4969
 1384SOL    HW115611   2.308   1.301   5.364 -2.3095  0.8760 -1.3496
 1384SOL    HW215612   2.187   1.223   5.340  0.4650  1.1585 -0.0862
 1385SOL     OW15613   2.124   3.443   0.742 -0.1974 -0.1760 -0.6989
 1385SOL    HW115614   2.167   3.506   0.684  2.5964  0.4358  2.0121
 1385SOL    HW215615   2.198   3.383   0.756 -0.0185  0.1755 -0.1084
 1386SOL     OW15616   3.969   2.340   7.653 -0.0894 -0.4654  0.0391
 1386SOL    HW115617   3.908   2.283   7.698  1.2088 -0.5799  1.6761
 1386SOL    HW215618   3.905   2.411   7.643 -0.4094 -0.6376  0.9216
 1387SOL     OW15619   2.127   1.738  14.772  0.6785  0.0113  0.6491
 1387SOL    HW115620   2.193   1.748  14.703 -0.5043  1.1688 -0.3137
 1387SOL    HW215621   2.110   1.832  14.774  0.5058  0.0077 -0.8778
 1388SOL     OW15622   3.372   3.142  10.429 -0.8203 -0.4874 -0.1491
 1388SOL    HW115623   3.369   3.086  10.507 -2.0031 -1.7878 -1.1288
 1388SOL    HW215624   3.426   3.080  10.381  1.3211  1.0828  0.2555
 1389SOL     OW15625   1.141   2.109   7.306  0.2412 -0.3106 -0.4750
 1389SOL    HW115626   1.116   2.096   7.397 -0.9876 -0.6413 -0.8603
 1389SOL    HW215627   1.054   2.139   7.280  0.8933  0.0756 -2.1743
 1390SOL     OW15628   4.295   0.198   0.023  0.6218  0.1981 -0.3338
 1390SOL    HW115629   4.263   0.208   0.113  1.2913  2.0968 -0.3139
 1390SOL    HW215630   4.326   0.107   0.025  0.6668  0.1868 -1.6072
 1391SOL     OW15631   3.842   4.404   8.604 -0.3472 -0.4649  0.4171
 1391SOL    HW115632   3.761   4.423   8.651 -0.8530  1.4012 -1.2140
 1391SOL    HW215633   3.807   4.395   8.515  0.8925 -0.1748 -0.0976
 1392SOL     OW15634   2.111   1.097   5.005  0.2131  0.3421  0.1576
 1392SOL    HW115635   2.057   1.162   5.050  0.8287 -0.1487  1.6209
 1392SOL    HW215636   2.203   1.124   5.013  0.7868 -1.9519  1.4371
 1393SOL     OW15637   4.286   0.278   2.071 -0.1984 -0.0009  0.4929
 1393SOL    HW115638   4.288   0.362   2.026  0.1271 -0.4100 -0.2484
 1393SOL    HW215639   4.343   0.235   2.008 -1.3576  0.0041 -0.5462
 1394SOL     OW15640   0.879   1.966   2.830 -0.1919 -0.3310  0.0012
 1394SOL    HW115641   0.854   1.998   2.916 -2.3459 -0.4632 -0.5705
 1394SOL    HW215642   0.821   1.892   2.807  2.0272 -1.7824 -0.9401
 1395SOL     OW15643   0.088   1.017   8.944  0.6532 -0.0074  0.6608
 1395SOL    HW115644   0.065   1.097   8.897  3.1444 -0.4532 -1.3001
 1395SOL    HW215645   0.151   1.057   9.004  0.4570  0.7510  0.3682
 1396SOL     OW15646   3.492   1.861   3.579 -0.0780  0.3604  0.0628
 1396SOL    HW115647   3.426   1.833   3.516  0.5715 -0.4901 -0.2459
 1396SOL    HW215648   3.471   1.791   3.640 -1.2195 -0.8446 -1.6894
 1397SOL     OW15649   2.084   0.063   6.759 -0.2288 -0.3522  0.3503
 1397SOL    HW115650   2.118   0.134   6.705 -1.3903  0.7665  1.0887
 1397SOL    HW215651   2.158   0.006   6.738 -0.4205 -1.4313  2.6048
 1398SOL     OW15652   0.825   3.794   6.490 -0.3109 -0.0948  0.0821
 1398SOL    HW115653   0.895   3.810   6.553  0.1428  0.1724 -0.4860
 1398SOL    HW215654   0.799   3.884   6.466 -1.7832 -0.3894  0.5999
 1399SOL     OW15655   0.272   1.880   6.517 -0.6294  0.3456  0.0036
 1399SOL    HW115656   0.310   1.841   6.438  0.2247  0.3312  0.4278
 1399SOL    HW215657   0.348   1.889   6.574 -0.0097 -2.9205 -0.2934
 1400SOL     OW15658   3.959   3.645  17.164 -0.1326 -0.2181  0.4094
 1400SOL    HW115659   3.969   3.605  17.251  1.3471  0.1701  0.4061
 1400SOL    HW215660   4.002   3.580  17.108 -2.3196 -0.4415 -1.0145
 1401SOL     OW15661   3.148   0.847  10.982 -0.5986 -0.3514  0.2677
 1401SOL    HW115662   3.166   0.925  11.034 -1.5015 -0.1073  0.2235
 1401SOL    HW215663   3.229   0.797  10.982  0.1508  0.8732  0.8573
 1402SOL     OW15664   3.240   0.616   6.554  0.2250 -0.0933  0.6575
 1402SOL    HW115665   3.186   0.667   6.494  0.4966 -2.0467 -1.2184
 1402SOL    HW215666   3.173   0.588   6.617 -1.6307  1.8388 -0.4504
 1403SOL     OW15667   2.826   3.983   0.932  0.5335  0.6544 -0.4316
 1403SOL    HW115668   2.901   4.023   0.887  0.8317  1.1912  0.5479
 1403SOL    HW215669   2.839   3.982   1.027 -0.4486 -1.8401 -0.3352
 1404SOL     OW15670   0.688   1.282   7.827  0.2291 -0.6787  0.1140
 1404SOL    HW115671   0.675   1.363   7.877  0.2586 -1.4087  1.3107
 1404SOL    HW215672   0.754   1.310   7.765  0.4297  2.0146  1.5126
 1405SOL     OW15673   3.482   1.634   8.228 -0.5291  0.0095 -0.5359
 1405SOL    HW115674   3.395   1.670   8.209  0.7665  2.3710 -1.9866
 1405SOL    HW215675   3.537   1.659   8.154 -0.6553  0.2084 -0.5635
 1406SOL     OW15676   2.906   0.499   2.404  0.2247  0.7339  0.0120
 1406SOL    HW115677   2.999   0.496   2.429 -0.4744 -0.6289  2.4537
 1406SOL    HW215678   2.913   0.510   2.309  0.4419 -2.4572 -0.3562
 1407SOL     OW15679   0.010   1.709  13.357  0.2582  0.0127 -0.4054
 1407SOL    HW115680   4.671   1.736  13.424 -0.0661  2.0994 -1.5715
 1407SOL    HW215681   0.072   1.780  13.371  0.9003 -0.4205 -1.0295
 1408SOL     OW15682   3.583   0.217  14.914 -0.1297 -0.0380  0.0405
 1408SOL    HW115683   3.654   0.172  14.869 -1.8724 -2.3406 -0.4155
 1408SOL    HW215684   3.619   0.305  14.916  1.5851 -0.7254 -1.0901
 1409SOL     OW15685   3.397   2.208   5.957  0.0923 -0.1161 -0.5331
 1409SOL    HW115686   3.433   2.125   5.925  1.5006 -0.3433  1.6709
 1409SOL    HW215687   3.459   2.273   5.922  0.1394  0.2258  0.1926
 1410SOL     OW15688   2.118   4.260   1.954  0.0406 -0.4399  0.1855
 1410SOL    HW115689   2.034   4.243   1.997 -0.6706 -0.9876 -1.4479
 1410SOL    HW215690   2.154   4.330   2.010 -3.9877  0.6075  1.4561
 1411SOL     OW15691   3.079   1.733   5.410 -0.2248  0.6262 -0.0496
 1411SOL    HW115692   3.118   1.648   5.388 -2.4140 -0.2655 -0.4460
 1411SOL    HW215693   3.136   1.774   5.476  0.1582  1.5534 -0.9542
 1412SOL     OW15694   3.063   2.079   2.617  0.0290 -0.1372  0.3816
 1412SOL    HW115695   3.111   2.080   2.534  2.0326 -0.5649  1.5470
 1412SOL    HW215696   3.018   2.163   2.612 -0.0940 -0.1208  1.7806
 1413SOL     OW15697   0.668   4.224   7.098 -0.3153  0.0307 -0.2595
 1413SOL    HW115698   0.595   4.174   7.135  1.3833 -1.3789  1.1949
 1413SOL    HW215699   0.673   4.302   7.153 -0.8855 -0.8708  1.0718
 1414SOL     OW15700   2.149   0.020   2.104  0.2517 -0.5836  0.3007
 1414SOL    HW115701   2.150   4.654   2.070 -2.3611 -0.4380 -0.1763
 1414SOL    HW215702   2.158   0.060   2.017 -0.3565  0.2553  0.6330
 1415SOL     OW15703   2.352   2.786   6.893 -0.2639 -0.6263 -0.2870
 1415SOL    HW115704   2.352   2.756   6.984  0.5500 -0.3331 -0.1842
 1415SOL    HW215705   2.378   2.878   6.900 -2.2776 -0.2106  1.6445
 1416SOL     OW15706   1.930   3.496   6.567  0.0740 -0.9308  0.0949
 1416SOL    HW115707   1.945   3.505   6.661 -2.0533 -0.6450  0.4086
 1416SOL    HW215708   1.963   3.406   6.564  2.0852 -0.1189 -2.6329
 1417SOL     OW15709   1.251   4.295  12.687  0.9827  0.0304 -0.4903
 1417SOL    HW115710   1.179   4.241  12.721  0.7813  0.6846  0.1142
 1417SOL    HW215711   1.291   4.327  12.768  0.7533 -3.4257  1.0321
 1418SOL     OW15712   4.256   4.604   2.477  0.0720  0.2015  0.0597
 1418SOL    HW115713   4.181   4.637   2.526  0.7967  0.6845  0.8388
 1418SOL    HW215714   4.261   4.664   2.404  0.8190  0.5180  0.3643
 1419SOL     OW15715   4.345   3.386   3.260  0.5648 -0.3056  0.5174
 1419SOL    HW115716   4.428   3.408   3.301  0.5062  0.1494  0.3954
 1419SOL    HW215717   4.363   3.397   3.166 -2.1631  1.0993  0.1482
 1420SOL     OW15718   2.913   2.093   7.350 -0.1616  0.4572 -0.4380
 1420SOL    HW115719   2.824   2.093   7.314  0.8407  0.9869 -2.9246
 1420SOL    HW215720   2.955   2.042   7.281 -0.5585 -0.7161  0.1889
 1421SOL     OW15721   4.053   2.221  11.649  0.6066  0.4671  0.1299
 1421SOL    HW115722   4.099   2.192  11.728  1.1936  1.1447  0.0361
 1421SOL    HW215723   4.127   2.233  11.590 -0.2825  0.2302 -1.0265
 1422SOL     OW15724   0.483   2.053   7.684 -0.2118 -0.4778 -0.2985
 1422SOL    HW115725   0.451   1.977   7.637  2.0184  0.1507 -2.8373
 1422SOL    HW215726   0.551   2.013   7.738  0.3331 -0.5667 -1.0541
 1423SOL     OW15727   3.597   1.236   4.896 -0.1881  0.4122 -0.2100
 1423SOL    HW115728   3.622   1.145   4.879 -0.8590  0.8328 -3.5137
 1423SOL    HW215729   3.556   1.226   4.982  1.2139  0.7227  0.5022
 1424SOL     OW15730   0.035   3.770   6.039  0.3250 -0.0008 -0.5412
 1424SOL    HW115731   4.671   3.808   6.036  1.1687  2.1544  1.6753
 1424SOL    HW215732   0.043   3.742   5.948  1.2574  0.7619 -0.6972
 1425SOL     OW15733   4.035   3.923  15.130  0.2806  0.2424 -0.3566
 1425SOL    HW115734   4.098   3.888  15.066  0.7542 -1.4827  1.0597
 1425SOL    HW215735   4.009   3.848  15.182  2.6612 -0.4190 -0.1321
 1426SOL     OW15736   0.419   3.628   6.871  0.1020  0.2337 -0.3588
 1426SOL    HW115737   0.447   3.702   6.816  1.4244  0.2948  0.3878
 1426SOL    HW215738   0.340   3.658   6.914  0.7717  0.9204  0.3992
 1427SOL     OW15739   3.850   1.225   1.711  0.4743  0.5642  0.0661
 1427SOL    HW115740   3.774   1.283   1.712  0.1702  0.1905 -1.4308
 1427SOL    HW215741   3.869   1.205   1.619  1.7242  0.2774  0.3867
 1428SOL     OW15742   3.888   4.124   8.668 -0.4957  0.2811  0.2218
 1428SOL    HW115743   3.982   4.126   8.682 -0.4430 -3.7311  0.1805
 1428SOL    HW215744   3.866   4.218   8.666  0.9237  0.5949 -0.2525
 1429SOL     OW15745   0.321   3.703   5.927 -0.3053 -0.4260 -0.5275
 1429SOL    HW115746   0.244   3.718   5.872  0.8215  0.0891 -1.9312
 1429SOL    HW215747   0.392   3.721   5.866 -0.4750 -0.2205 -0.6641
 1430SOL     OW15748   3.320   1.106   2.295 -0.4912 -0.3538 -0.3386
 1430SOL    HW115749   3.372   1.172   2.250  1.0167 -1.0682  0.3655
 1430SOL    HW215750   3.228   1.133   2.291 -0.8026 -0.7935  3.6963
 1431SOL     OW15751   2.755   3.117  15.858  0.2154  0.2717  0.1487
 1431SOL    HW115752   2.700   3.185  15.820  2.3494  1.6929 -0.4205
 1431SOL    HW215753   2.758   3.147  15.949 -1.8696  0.6173  0.1032
 1432SOL     OW15754   1.424   4.210   2.573 -0.4849 -0.6462  0.1261
 1432SOL    HW115755   1.416   4.233   2.480  0.3998  1.2097  0.5218
 1432SOL    HW215756   1.330   4.204   2.593 -0.2017 -0.2779  1.5748
 1433SOL     OW15757   0.363   2.285   6.644 -0.2356 -0.0128 -0.3893
 1433SOL    HW115758   0.398   2.246   6.564  1.3602  1.8690 -0.6139
 1433SOL    HW215759   0.386   2.215   6.705 -2.7027  0.0250  0.5705
 1434SOL     OW15760   1.469   1.263   6.940 -0.0877  0.2571 -0.1967
 1434SOL    HW115761   1.464   1.255   7.036  1.0435  0.7657 -0.0877
 1434SOL    HW215762   1.542   1.203   6.926  0.2722  0.2281  1.7002
 1435SOL     OW15763   4.131   4.206   1.837  0.1824 -0.6557 -0.3307
 1435SOL    HW115764   4.110   4.259   1.760 -0.2653  3.6712  2.7553
 1435SOL    HW215765   4.219   4.186   1.807  0.3707  0.7231 -0.6730
 1436SOL     OW15766   3.639   3.863  13.514 -0.2669  0.1509 -0.0210
 1436SOL    HW115767   3.685   3.819  13.585 -1.9019 -2.9535 -0.8852
 1436SOL    HW215768   3.623   3.949  13.552  0.9045 -0.9467  2.9463
 1437SOL     OW15769   3.276   4.719   8.076  0.0108 -0.3178 -0.1934
 1437SOL    HW115770   3.276   4.717   7.981  1.3517 -0.0919 -0.2004
 1437SOL    HW215771   3.338   0.065   8.096  1.6485 -1.5215 -1.0992
 1438SOL     OW15772   0.618   4.163   1.748  0.4344 -0.3596 -0.1266
 1438SOL    HW115773   0.574   4.078   1.753 -0.9819  0.4295  0.5040
 1438SOL    HW215774   0.652   4.164   1.837  0.9366 -1.0443 -0.3072
 1439SOL     OW15775   3.532   4.236  13.525  0.1045  0.2659 -0.0715
 1439SOL    HW115776   3.550   4.172  13.594 -2.3332 -0.0927  0.2573
 1439SOL    HW215777   3.606   4.295  13.541  1.1905 -0.5989 -1.9943
 1440SOL     OW15778   2.251   0.483  12.752  0.4115 -0.2550 -0.2516
 1440SOL    HW115779   2.198   0.560  12.733 -0.4265 -0.9664 -0.7719
 1440SOL    HW215780   2.264   0.441  12.667 -1.9977  2.2869 -1.8759
 1441SOL     OW15781   4.639   0.701   1.444  0.6772 -0.0784 -0.1179
 1441SOL    HW115782   4.570   0.748   1.490  0.9440  0.5369 -0.3495
 1441SOL    HW215783   4.656   0.751   1.365 -1.4276  1.2466  0.2702
 1442SOL     OW15784   2.837   0.006   0.639 -0.0923  0.2488  0.1319
 1442SOL    HW115785   2.779   0.022   0.714 -0.6225  0.2192 -0.2765
 1442SOL    HW215786   2.903   4.673   0.679  0.1203  1.5422  1.6371
 1443SOL     OW15787   0.790   2.446  11.151  0.1588 -0.2225 -0.0748
 1443SOL    HW115788   0.867   2.397  11.122  1.6723  1.4206  1.1526
 1443SOL    HW215789   0.791   2.516  11.086 -1.4262  1.0270  1.2269
 1444SOL     OW15790   3.120   1.377  12.194  0.4287 -0.3358 -0.3954
 1444SOL    HW115791   3.145   1.313  12.261 -0.9336 -1.4054 -0.8852
 1444SOL    HW215792   3.149   1.334  12.114  1.8678 -0.2101  0.0592
 1445SOL     OW15793   1.665   1.628   2.229  0.0484  0.3929  0.0394
 1445SOL    HW115794   1.756   1.650   2.206 -0.6994  0.7347 -2.5777
 1445SOL    HW215795   1.691   1.549   2.278  1.9098  1.4010  0.6722
 1446SOL     OW15796   3.996   1.892  15.370  0.1791 -0.5740 -0.1627
 1446SOL    HW115797   4.037   1.851  15.446 -0.9481 -2.6866 -0.6869
 1446SOL    HW215798   3.943   1.822  15.331 -0.4561 -0.0765 -0.2021
 1447SOL     OW15799   1.395   4.472   5.388 -0.2517  0.0585 -0.3945
 1447SOL    HW115800   1.411   4.437   5.476 -0.5687 -0.8301 -0.6874
 1447SOL    HW215801   1.362   4.386   5.361  0.0092 -1.1561  3.1436
 1448SOL     OW15802   3.428   1.621   5.139  0.4659  0.6562  0.2748
 1448SOL    HW115803   3.480   1.609   5.060 -0.8315  1.6651 -0.7150
 1448SOL    HW215804   3.502   1.626   5.201  0.2606  1.2134  0.4783
 1449SOL     OW15805   3.790   0.945   6.100 -0.3160  0.1446  0.2046
 1449SOL    HW115806   3.831   0.865   6.132  1.4862  0.8583 -0.3216
 1449SOL    HW215807   3.865   1.003   6.105  0.2856 -0.6267  0.1319
 1450SOL     OW15808   1.491   0.757   1.683  0.0354 -0.0569 -0.1201
 1450SOL    HW115809   1.582   0.779   1.700  0.2018 -1.3302  0.5719
 1450SOL    HW215810   1.501   0.674   1.638  0.3679 -0.4789  0.7441
 1451SOL     OW15811   2.407   4.470   6.745  0.5023  0.7375  0.2554
 1451SOL    HW115812   2.372   4.557   6.764 -0.3531  0.7790 -1.5154
 1451SOL    HW215813   2.372   4.446   6.659  0.7681 -2.7916  1.1224
 1452SOL     OW15814   3.479   1.374  17.686 -0.0210 -0.4548 -0.3490
 1452SOL    HW115815   3.467   1.309   0.058 -0.4000  0.6820  0.6481
 1452SOL    HW215816   3.395   1.419  17.690  1.1446  1.7744 -1.0798
 1453SOL     OW15817   0.308   0.911   8.772 -0.1791  0.3500  0.7602
 1453SOL    HW115818   0.378   0.975   8.787  0.5649  0.0947 -1.6146
 1453SOL    HW215819   0.248   0.940   8.841  0.2966 -0.0060  1.3297
 1454SOL     OW15820   3.232   2.229   9.280  0.6444 -0.5528  0.3074
 1454SOL    HW115821   3.276   2.174   9.345  0.2834 -0.9939  0.1827
 1454SOL    HW215822   3.253   2.186   9.197 -1.8760 -1.4985  0.1590
 1455SOL     OW15823   0.364   0.351  16.310  0.3769 -0.0105  0.2522
 1455SOL    HW115824   0.374   0.275  16.368  0.6371 -0.9498 -1.0210
 1455SOL    HW215825   0.279   0.320  16.281  1.7786 -2.1773 -1.4910
 1456SOL     OW15826   1.803   0.355   7.240 -0.1384 -0.2331  0.1317
 1456SOL    HW115827   1.799   0.262   7.218 -0.8599 -0.0531 -0.4939
 1456SOL    HW215828   1.898   0.369   7.233 -0.6910  2.7063 -1.8285
 1457SOL     OW15829   4.589   0.671   3.595  0.0497  0.3140 -0.0814
 1457SOL    HW115830   4.494   0.669   3.604  0.2108 -2.8724  0.7989
 1457SOL    HW215831   4.591   0.583   3.557 -0.6969 -0.6605  2.1829
 1458SOL     OW15832   0.105   4.720   2.776  0.1800 -0.2010  0.2054
 1458SOL    HW115833   0.200   4.715   2.768  0.5073  3.7198  1.3772
 1458SOL    HW215834   0.090   4.683   2.863 -0.0290  1.5101  0.8968
 1459SOL     OW15835   0.719   0.404   9.343  0.0683 -0.2499 -0.0154
 1459SOL    HW115836   0.712   0.460   9.420  1.4949 -0.6871  0.4309
 1459SOL    HW215837   0.665   0.458   9.285  0.5178  1.4997  1.2188
 1460SOL     OW15838   3.628   0.638   7.741 -0.2711  0.3249 -0.6555
 1460SOL    HW115839   3.655   0.688   7.664 -0.0693  0.3881 -0.5434
 1460SOL    HW215840   3.610   0.552   7.703  0.3744 -1.2131  2.5094
 1461SOL     OW15841   3.676   1.269   2.339 -0.2684 -0.4730  0.1440
 1461SOL    HW115842   3.684   1.364   2.332 -1.1980 -0.5151 -1.5305
 1461SOL    HW215843   3.592   1.252   2.294  0.4634  0.7381 -1.6562
 1462SOL     OW15844   2.455   1.506   8.976  0.1411 -0.4817 -0.5430
 1462SOL    HW115845   2.527   1.490   8.916  1.3959  0.5956  0.6760
 1462SOL    HW215846   2.467   1.436   9.040 -3.0832  0.4616  1.1454
 1463SOL     OW15847   2.539   1.733  11.206 -0.2428  0.3085  1.0174
 1463SOL    HW115848   2.536   1.670  11.133 -1.4682  1.9012 -0.3088
 1463SOL    HW215849   2.504   1.673  11.272 -3.5906 -1.1471 -2.0344
 1464SOL     OW15850   0.214   2.190  13.501 -0.5955  0.2173  0.3477
 1464SOL    HW115851   0.153   2.256  13.533 -1.7140 -0.3533 -0.6361
 1464SOL    HW215852   0.300   2.231  13.514 -0.4108  0.2959 -1.1428
 1465SOL     OW15853   3.166   4.139   7.214  0.0716 -0.2988 -0.3445
 1465SOL    HW115854   3.117   4.098   7.143 -1.8647 -1.2017  1.5159
 1465SOL    HW215855   3.189   4.220   7.168  2.4238 -1.5777 -1.4052
 1466SOL     OW15856   1.486   0.995   4.958  0.7868 -0.4101 -0.6369
 1466SOL    HW115857   1.456   1.064   4.899  0.3385  1.4889  1.7853
 1466SOL    HW215858   1.503   1.042   5.040 -0.2534 -0.9825 -0.0967
 1467SOL     OW15859   0.118   2.201   9.567 -1.0986  0.5752 -0.0536
 1467SOL    HW115860   0.213   2.203   9.556 -0.9852 -0.2405  0.7539
 1467SOL    HW215861   0.078   2.283   9.541 -2.0424 -0.8038 -2.9778
 1468SOL     OW15862   4.147   2.013   2.858 -0.1848  0.0366 -0.0198
 1468SOL    HW115863   4.146   1.918   2.851  3.2984  0.0716 -1.2258
 1468SOL    HW215864   4.069   2.039   2.810  0.6733 -1.4824 -2.2290
 1469SOL     OW15865   0.708   3.426   6.442 -0.2999 -0.0316  0.6210
 1469SOL    HW115866   0.708   3.373   6.521  1.5649  0.3674  0.8925
 1469SOL    HW215867   0.743   3.369   6.373 -1.2655  1.1449 -0.8388
 1470SOL     OW15868   1.161   4.159   2.637 -0.3159 -0.2738  0.3903
 1470SOL    HW115869   1.125   4.247   2.623 -3.1888 -1.3769  0.7907
 1470SOL    HW215870   1.155   4.158   2.732 -4.7243  0.1995  0.1384
 1471SOL     OW15871   3.182   4.303   7.552  0.0398 -0.1263 -0.5808
 1471SOL    HW115872   3.220   4.350   7.627 -1.7488 -0.6526  0.6448
 1471SOL    HW215873   3.126   4.368   7.510 -0.0327  1.2131  1.6082
 1472SOL     OW15874   3.525   3.089   1.891  0.2102  0.2264  0.2216
 1472SOL    HW115875   3.496   3.018   1.834 -0.4195  2.1372 -1.8492
 1472SOL    HW215876   3.605   3.045   1.921  0.0649 -0.8985 -1.0686
 1473SOL     OW15877   4.692   2.887   6.925  0.0967  0.2528 -0.1713
 1473SOL    HW115878   4.718   2.977   6.907  1.9948 -0.6150 -1.6373
 1473SOL    HW215879   4.649   2.908   7.008 -0.6054  0.0745 -0.4875
 1474SOL     OW15880   2.564   1.797   1.928  0.1719  0.0245  0.5923
 1474SOL    HW115881   2.529   1.712   1.955 -0.5302  0.7768  2.0736
 1474SOL    HW215882   2.484   1.847   1.944 -0.7228 -0.8366 -1.3014
 1475SOL     OW15883   2.885   2.199   5.300 -0.3332 -0.1209  0.1875
 1475SOL    HW115884   2.843   2.113   5.292 -1.8806  0.6056  0.3744
 1475SOL    HW215885   2.807   2.246   5.331 -1.4464 -2.6040  1.2673
 1476SOL     OW15886   2.849   4.495   3.376 -0.2848 -0.4046 -0.7124
 1476SOL    HW115887   2.865   4.588   3.393 -0.2876 -0.1359 -2.1328
 1476SOL    HW215888   2.921   4.458   3.425 -0.3308  0.8685  0.3110
 1477SOL     OW15889   3.826   0.486   6.326  0.1638  0.2313  0.0576
 1477SOL    HW115890   3.817   0.400   6.368  0.2906  0.0636 -0.2653
 1477SOL    HW215891   3.874   0.460   6.248 -0.0721 -1.0690  0.3377
 1478SOL     OW15892   0.258   2.249   7.249 -0.4741 -0.0619 -0.0823
 1478SOL    HW115893   0.178   2.285   7.286 -0.7286 -0.7874  0.0702
 1478SOL    HW215894   0.286   2.183   7.312  0.4418  0.7517  0.3700
 1479SOL     OW15895   0.537   0.637   6.079  0.3539  0.4681  0.1530
 1479SOL    HW115896   0.524   0.564   6.019 -1.6419 -0.3127  1.5325
 1479SOL    HW215897   0.629   0.624   6.103  0.6540  1.8355 -0.2289
 1480SOL     OW15898   2.091   0.107  15.301  0.1303  0.6152 -0.0763
 1480SOL    HW115899   2.137   0.187  15.326  0.9344  0.4327 -0.9648
 1480SOL    HW215900   2.035   0.092  15.377 -1.3537  2.3244 -0.8434
 1481SOL     OW15901   1.371   2.104   3.450  0.2582 -0.1994  0.1861
 1481SOL    HW115902   1.388   2.045   3.523 -2.0962  0.6947  1.4868
 1481SOL    HW215903   1.356   2.048   3.374  3.4548 -1.5778  0.5925
 1482SOL     OW15904   0.105   3.339   6.191 -0.6146 -0.1164  0.1619
 1482SOL    HW115905   0.038   3.405   6.207  1.7631  1.7419  2.4234
 1482SOL    HW215906   0.174   3.395   6.156  2.5927 -3.2207  1.5471
 1483SOL     OW15907   1.402   2.202   7.334 -0.0063  0.0236 -0.2899
 1483SOL    HW115908   1.375   2.192   7.425 -2.5168  0.7737 -0.9425
 1483SOL    HW215909   1.318   2.168   7.302 -0.2990  1.1623 -0.7321
 1484SOL     OW15910   1.282   2.906  14.978  0.2404 -0.3057 -0.3687
 1484SOL    HW115911   1.248   2.991  15.008 -0.3573  0.0719 -2.1475
 1484SOL    HW215912   1.291   2.856  15.059  2.5678  1.9325  0.7593
 1485SOL     OW15913   4.637   3.552  15.107  0.1650 -0.3595 -0.2133
 1485SOL    HW115914   4.570   3.607  15.067  4.4000  2.2236 -3.6542
 1485SOL    HW215915   4.612   3.470  15.065 -1.8513  0.8836 -1.4163
 1486SOL     OW15916   1.899   2.539   7.005  0.0872 -0.4050  0.3144
 1486SOL    HW115917   1.905   2.631   7.031  1.1302 -0.4928  0.3955
 1486SOL    HW215918   1.831   2.503   7.063 -1.6115  1.3952 -0.5549
 1487SOL     OW15919   4.158   3.187   3.275 -0.1794 -0.0400 -0.1110
 1487SOL    HW115920   4.222   3.257   3.278 -1.4705  1.0405  2.4735
 1487SOL    HW215921   4.078   3.238   3.287  0.3355  0.7644 -0.0945
 1488SOL     OW15922   0.523   3.921   7.661  0.0946 -0.1110  0.2084
 1488SOL    HW115923   0.441   3.873   7.662  0.8567 -1.4115 -0.4076
 1488SOL    HW215924   0.574   3.879   7.731  0.5110 -2.1086 -1.2960
 1489SOL     OW15925   2.200   2.294  16.286 -0.2658 -0.4897 -0.4858
 1489SOL    HW115926   2.288   2.323  16.309 -0.0810  0.1090 -1.9569
 1489SOL    HW215927   2.153   2.289  16.369  0.1772 -0.9368 -0.2636
 1490SOL     OW15928   3.301   2.521   4.247 -0.4988 -0.0943 -0.4332
 1490SOL    HW115929   3.313   2.511   4.342 -1.8153 -0.7556 -0.3306
 1490SOL    HW215930   3.209   2.547   4.242 -0.0543  0.7307 -3.8130
 1491SOL     OW15931   3.983   4.698   5.972 -0.8268 -0.6244  0.8935
 1491SOL    HW115932   4.045   4.697   5.899 -1.7839  1.3247  0.0539
 1491SOL    HW215933   3.953   4.608   5.969  0.9837 -1.2639  2.1598
 1492SOL     OW15934   0.456   1.670   4.238 -0.2445  0.0986 -0.0328
 1492SOL    HW115935   0.550   1.652   4.245 -0.1925 -0.8850 -3.2483
 1492SOL    HW215936   0.438   1.685   4.330  1.1134 -0.3110  0.2946
 1493SOL     OW15937   1.264   0.837  10.562 -0.2332 -0.3018  0.1671
 1493SOL    HW115938   1.235   0.926  10.540 -1.9727 -1.1011 -0.7990
 1493SOL    HW215939   1.324   0.853  10.634  0.1095  0.6302 -0.3258
 1494SOL     OW15940   0.995   3.326   6.996  0.2409  0.0512 -0.1097
 1494SOL    HW115941   0.918   3.334   7.053  2.1750  2.9466  2.0850
 1494SOL    HW215942   0.976   3.389   6.925 -2.1157 -1.9225 -1.2272
 1495SOL     OW15943   1.780   3.304   6.315  0.0505 -0.2924  0.3862
 1495SOL    HW115944   1.775   3.399   6.330 -1.0474  0.1095 -2.6657
 1495SOL    HW215945   1.741   3.282   6.400  0.0417  0.9370  0.7053
 1496SOL     OW15946   2.398   1.936   0.006 -0.1834  0.2136  0.5636
 1496SOL    HW115947   2.474   1.889   0.041  0.0780 -0.4908 -0.9459
 1496SOL    HW215948   2.329   1.873  17.686  1.3452 -1.0696 -0.8805
 1497SOL     OW15949   0.148   1.439   3.343  0.7757 -0.2004  0.3814
 1497SOL    HW115950   0.075   1.449   3.281  1.1640 -2.3598 -0.4438
 1497SOL    HW215951   0.192   1.361   3.308 -1.2129 -1.5945  0.9743
 1498SOL     OW15952   3.979   2.825  14.626 -0.0330 -0.5283  0.4626
 1498SOL    HW115953   4.054   2.859  14.675  0.4265  2.2737 -2.1828
 1498SOL    HW215954   4.010   2.867  14.545  0.4707  1.0707  1.4914
 1499SOL     OW15955   2.139   2.558  16.461  0.2878 -0.1363 -0.0120
 1499SOL    HW115956   2.055   2.554  16.416  0.8675 -1.2114 -0.9909
 1499SOL    HW215957   2.169   2.467  16.460 -0.2940 -0.3396  1.4348
 1500SOL     OW15958   1.485   3.087   5.904  0.4220  0.7499  0.1291
 1500SOL    HW115959   1.517   3.102   5.993  0.7236 -0.0958  0.1605
 1500SOL    HW215960   1.390   3.082   5.913  0.3479  1.6245 -0.1980
 1501SOL     OW15961   2.372   1.250   1.100 -0.4716 -0.5764 -0.2769
 1501SOL    HW115962   2.310   1.314   1.135 -1.2052 -0.9965 -0.8013
 1501SOL    HW215963   2.318   1.216   1.028 -0.9870 -1.5454  0.5590
 1502SOL     OW15964   0.128   4.592   8.868 -0.5965 -0.3238 -0.1274
 1502SOL    HW115965   0.148   4.509   8.826  0.1830 -0.6775  0.9649
 1502SOL    HW215966   0.210   4.635   8.845  1.2824 -3.0919  1.4807
 1503SOL     OW15967   3.144   0.056   5.817  0.5864 -0.4043  0.0280
 1503SOL    HW115968   3.131   0.016   5.731 -0.7731  2.7790 -1.2783
 1503SOL    HW215969   3.078   0.009   5.867  0.3488 -3.4138 -3.0817
 1504SOL     OW15970   1.159   0.586   1.061 -0.4164 -0.0493  0.1639
 1504SOL    HW115971   1.159   0.584   0.965 -0.5905  2.4285  0.1345
 1504SOL    HW215972   1.110   0.667   1.075 -0.3726  0.1573 -0.8926
 1505SOL     OW15973   4.570   1.729   2.491 -0.6529  0.1491 -0.3017
 1505SOL    HW115974   4.605   1.799   2.436  0.6924  0.5061  1.0220
 1505SOL    HW215975   4.569   1.764   2.580 -0.7760 -1.0946  0.1862
 1506SOL     OW15976   2.986   2.795   6.464  0.0548  0.2974  0.2065
 1506SOL    HW115977   2.980   2.889   6.448  1.7496  0.2086 -1.0115
 1506SOL    HW215978   2.896   2.764   6.454  0.3350 -0.3994 -0.1707
 1507SOL     OW15979   2.360   4.032  11.609  0.2635 -0.4464  0.2896
 1507SOL    HW115980   2.420   4.089  11.560  0.6731 -0.4511  0.7937
 1507SOL    HW215981   2.418   3.960  11.631  0.1748 -1.2335 -2.0006
 1508SOL     OW15982   2.413   1.514   7.537 -0.4773  0.2673  0.1747
 1508SOL    HW115983   2.322   1.532   7.562 -1.3049 -1.0959 -1.7649
 1508SOL    HW215984   2.429   1.598   7.494 -2.2988  1.1060  1.1114
 1509SOL     OW15985   1.354   4.305   0.896  0.1249  0.3578  0.7061
 1509SOL    HW115986   1.291   4.244   0.859  0.9925 -0.0583 -0.1045
 1509SOL    HW215987   1.354   4.366   0.822  0.0983 -0.3983  0.0836
 1510SOL     OW15988   2.655   1.237   8.898 -0.0388 -0.3353  0.4891
 1510SOL    HW115989   2.612   1.240   8.984  3.3354  0.5022  2.1631
 1510SOL    HW215990   2.735   1.289   8.908  0.8113 -1.4888 -0.3119
 1511SOL     OW15991   1.454   0.282  16.118  0.2584 -1.1824  0.7230
 1511SOL    HW115992   1.505   0.301  16.039 -1.0799  1.0513  0.4053
 1511SOL    HW215993   1.523   0.283  16.185  1.8441  0.0781 -0.9266
 1512SOL     OW15994   3.022   3.394   7.467 -0.1436 -0.0219  0.0907
 1512SOL    HW115995   3.089   3.343   7.511  1.0770 -1.1187 -3.0388
 1512SOL    HW215996   3.073   3.474   7.458  2.5942 -1.8396 -0.5387
 1513SOL     OW15997   3.367   1.951   4.856  0.2533 -0.5496 -0.4484
 1513SOL    HW115998   3.301   2.020   4.844 -1.2270 -2.4236 -2.9714
 1513SOL    HW215999   3.446   2.003   4.873  0.5528 -0.4932 -2.0586
 1514SOL     OW16000   0.823   2.811  14.152  0.0094 -0.3716 -0.1319
 1514SOL    HW116001   0.756   2.829  14.219  0.8924 -1.7387  1.1164
 1514SOL    HW216002   0.777   2.755  14.090  0.6652  0.9018 -1.7530
 1515SOL     OW16003   2.985   1.468   2.885 -0.1212 -0.5942  0.2429
 1515SOL    HW116004   2.909   1.526   2.874 -0.0382 -0.1764  1.9889
 1515SOL    HW216005   2.983   1.409   2.809 -0.8039 -0.8849  0.4881
 1516SOL     OW16006   0.955   2.786   5.811 -0.0189 -0.3923  0.3245
 1516SOL    HW116007   0.984   2.697   5.797  1.2700 -0.0481  0.8413
 1516SOL    HW216008   1.041   2.827   5.821  0.5633 -1.7196  0.6607
 1517SOL     OW16009   0.852   2.190   8.202 -0.6288 -0.3348  0.1137
 1517SOL    HW116010   0.926   2.130   8.191 -0.0797  0.3810 -0.1792
 1517SOL    HW216011   0.889   2.271   8.237  0.0450 -0.6031  0.0252
 1518SOL     OW16012   4.339   3.037   8.704  0.0619  0.4584 -0.8219
 1518SOL    HW116013   4.349   2.944   8.682  0.5522  0.3001  0.0857
 1518SOL    HW216014   4.371   3.048   8.793  0.9682  0.9678 -1.2123
 1519SOL     OW16015   2.076   1.980  11.758 -0.5424  0.8487 -0.3843
 1519SOL    HW116016   2.138   2.050  11.737  2.6139 -2.1000 -0.9292
 1519SOL    HW216017   2.042   1.943  11.677  3.3891 -0.9187 -1.2351
 1520SOL     OW16018   4.521   1.196   8.710 -0.2608 -0.4004 -0.1875
 1520SOL    HW116019   4.511   1.127   8.645  0.0689 -1.6423  1.0765
 1520SOL    HW216020   4.442   1.250   8.711 -0.0611 -0.0870 -3.2131
 1521SOL     OW16021   0.914   1.750   4.160 -0.1105  0.1332 -0.4526
 1521SOL    HW116022   0.960   1.749   4.076 -0.3825  0.1757 -0.6028
 1521SOL    HW216023   0.962   1.815   4.210 -0.7718  0.6943 -0.5435
 1522SOL     OW16024   4.443   1.489  16.837 -0.2858 -0.2418  0.2610
 1522SOL    HW116025   4.452   1.461  16.746 -2.6001 -0.3143  0.0583
 1522SOL    HW216026   4.354   1.456  16.853  0.0861 -1.1773  0.4281
 1523SOL     OW16027   2.256   4.359   3.869 -0.1734  0.1794 -0.3710
 1523SOL    HW116028   2.301   4.347   3.953 -1.4345 -0.0495  0.2644
 1523SOL    HW216029   2.163   4.339   3.881 -0.0617 -1.6190 -2.4041
 1524SOL     OW16030   2.591   2.880   2.077 -0.4660  0.0906  0.6163
 1524SOL    HW116031   2.501   2.910   2.062  0.5573  2.3721 -0.8063
 1524SOL    HW216032   2.630   2.966   2.063  0.2969 -0.4785 -0.6724
 1525SOL     OW16033   1.604   2.577   3.441  0.2815  0.3208 -0.1126
 1525SOL    HW116034   1.557   2.496   3.424 -1.0687  1.2896 -0.9903
 1525SOL    HW216035   1.547   2.643   3.403 -2.6860 -1.9120  0.4690
 1526SOL     OW16036   4.195   0.626   3.230 -0.4692  0.0851  0.0232
 1526SOL    HW116037   4.264   0.560   3.238 -0.1442  0.3556 -0.5974
 1526SOL    HW216038   4.215   0.705   3.280 -1.2300  0.2030  0.1421
 1527SOL     OW16039   1.696   2.649   5.743  0.1567 -0.2956 -0.4553
 1527SOL    HW116040   1.675   2.741   5.762  2.3532 -0.0348  0.7267
 1527SOL    HW216041   1.613   2.618   5.706 -1.0902  1.9753  0.4282
 1528SOL     OW16042   2.757   2.403   2.154  0.4357 -0.0865  0.0890
 1528SOL    HW116043   2.801   2.326   2.190 -0.9955 -1.1418 -0.4220
 1528SOL    HW216044   2.806   2.473   2.197  0.3579 -1.4464  2.4250
 1529SOL     OW16045   2.556   1.642   0.375  0.2038  0.3218  0.2486
 1529SOL    HW116046   2.573   1.557   0.334 -2.0545 -0.7013  1.4239
 1529SOL    HW216047   2.639   1.671   0.411  0.3866 -0.0654  0.1436
 1530SOL     OW16048   0.238   2.035  11.379 -0.4991 -0.2205 -0.6920
 1530SOL    HW116049   0.216   2.108  11.437  4.5830  0.4037  0.5134
 1530SOL    HW216050   0.240   1.965  11.444 -3.0028 -1.0332 -1.5260
 1531SOL     OW16051   1.421   2.587   8.716 -0.1719  0.4430  0.6231
 1531SOL    HW116052   1.375   2.521   8.664  0.3055  0.8429 -0.2886
 1531SOL    HW216053   1.345   2.629   8.759 -1.5025  0.4670 -1.7600
 1532SOL     OW16054   3.339   1.885  13.187 -0.5277  0.1810  0.2428
 1532SOL    HW116055   3.324   1.891  13.281  0.6482  0.4299  0.4148
 1532SOL    HW216056   3.407   1.949  13.165  2.0668 -2.8470 -0.6867
 1533SOL     OW16057   0.583   3.168  10.041  0.4507 -0.1162  0.2948
 1533SOL    HW116058   0.563   3.101   9.976 -1.9485  1.9995 -1.1382
 1533SOL    HW216059   0.514   3.229  10.013 -0.7637 -0.2853  2.9675
 1534SOL     OW16060   0.294   3.445  12.905 -0.1276  0.2295  0.2389
 1534SOL    HW116061   0.355   3.493  12.849 -1.2735  1.4067  0.0032
 1534SOL    HW216062   0.214   3.497  12.902  1.0973  2.1122  0.0759
 1535SOL     OW16063   3.498   1.395   8.339  0.0179  0.2923  0.8595
 1535SOL    HW116064   3.496   1.491   8.338  3.9249  0.3656  1.4324
 1535SOL    HW216065   3.515   1.377   8.246 -0.3568  0.9879  0.6519
 1536SOL     OW16066   4.094   0.305   8.980  0.3769  0.0006 -0.3746
 1536SOL    HW116067   4.042   0.263   9.048  1.1556 -1.7903 -0.8642
 1536SOL    HW216068   4.140   0.233   8.936  0.1936 -0.5577  0.3569
 1537SOL     OW16069   1.534   1.236   3.641  0.0286 -0.1656 -0.1972
 1537SOL    HW116070   1.575   1.174   3.581  0.6111 -1.2504  1.3267
 1537SOL    HW216071   1.606   1.300   3.639  0.9330 -1.2362 -2.6929
 1538SOL     OW16072   3.909   3.536  12.869  0.2007 -0.6162 -0.2352
 1538SOL    HW116073   3.907   3.442  12.855  1.3182 -0.7714  0.6886
 1538SOL    HW216074   3.872   3.575  12.789 -2.4497  0.0735  1.3198
 1539SOL     OW16075   1.721   2.725   2.839 -0.4113 -0.3224  0.0942
 1539SOL    HW116076   1.790   2.685   2.786 -0.7864 -1.7935  0.7302
 1539SOL    HW216077   1.765   2.770   2.911  0.9148  1.3557 -1.7757
 1540SOL     OW16078   0.022   0.903   9.321  0.3213 -0.6482  0.1038
 1540SOL    HW116079   4.691   0.848   9.376 -2.4379  1.7615 -0.2267
 1540SOL    HW216080   4.721   0.992   9.345 -0.5894  0.1287 -3.8033
 1541SOL     OW16081   1.782   4.077   0.456  0.2393 -0.0989  0.5656
 1541SOL    HW116082   1.818   3.988   0.456 -1.1752 -0.6670 -1.4620
 1541SOL    HW216083   1.862   4.116   0.491  1.0632 -2.9979  1.9180
 1542SOL     OW16084   2.083   0.448   0.284 -0.5271 -0.5585 -0.1763
 1542SOL    HW116085   2.131   0.479   0.208  2.4385 -0.4485  1.7494
 1542SOL    HW216086   2.085   0.354   0.266 -3.0113 -0.5250 -0.6903
 1543SOL     OW16087   3.839   0.775  12.683 -0.5462 -0.4095 -0.3030
 1543SOL    HW116088   3.887   0.857  12.694 -1.0838  0.3123 -3.2963
 1543SOL    HW216089   3.821   0.750  12.774 -1.3278 -1.8390 -0.8503
 1544SOL     OW16090   2.671   0.761   8.667  0.3707 -0.6415  0.9370
 1544SOL    HW116091   2.766   0.761   8.654  0.5587 -1.1797  2.2330
 1544SOL    HW216092   2.639   0.816   8.596  1.0147  0.3017  1.3684
 1545SOL     OW16093   4.306   1.524  17.143  0.3056  0.3188 -0.0831
 1545SOL    HW116094   4.402   1.525  17.140  0.3365 -0.5471  0.5388
 1545SOL    HW216095   4.294   1.442  17.096 -0.7485 -0.1892  1.0660
 1546SOL     OW16096   3.223   1.587  16.078  0.1365 -0.0312 -0.2595
 1546SOL    HW116097   3.239   1.663  16.023  1.4167  0.7818  1.2749
 1546SOL    HW216098   3.286   1.588  16.149 -0.0238  0.4006 -0.1296
 1547SOL     OW16099   4.457   1.749  14.850 -0.3159 -0.0980 -0.2775
 1547SOL    HW116100   4.371   1.737  14.891 -0.1983  0.2201  0.0588
 1547SOL    HW216101   4.509   1.687  14.900 -1.7338 -0.9800  0.0912
 1548SOL     OW16102   2.801   2.054   6.846  0.2168 -0.0086  0.1357
 1548SOL    HW116103   2.877   2.014   6.804  1.2809  1.5925  0.5471
 1548SOL    HW216104   2.833   2.131   6.892 -0.9364 -0.4419  1.6737
 1549SOL     OW16105   0.731   0.434   7.699 -0.0306 -0.1966  0.3389
 1549SOL    HW116106   0.642   0.403   7.718 -0.5786  1.4615  0.5145
 1549SOL    HW216107   0.721   0.519   7.741  2.2295 -0.2481  0.9794
 1550SOL     OW16108   4.244   2.335  15.994 -0.0607 -0.3797  0.4211
 1550SOL    HW116109   4.281   2.247  15.988  0.1431 -0.0932 -2.2211
 1550SOL    HW216110   4.304   2.361  16.064 -0.1646  0.4072  0.2209
 1551SOL     OW16111   0.965   1.143   5.904 -0.2800 -0.5069 -0.3273
 1551SOL    HW116112   0.953   1.072   5.841  0.9001 -0.7057 -0.3322
 1551SOL    HW216113   0.983   1.221   5.852  0.8384 -0.6982 -0.2280
 1552SOL     OW16114   1.685   3.483   4.967  0.2152 -0.2620 -0.4431
 1552SOL    HW116115   1.622   3.461   5.036  1.4782  3.6462  1.9653
 1552SOL    HW216116   1.692   3.405   4.913 -1.2285  0.6645 -1.9690
 1553SOL     OW16117   0.025   3.662   3.776  0.4692  0.1228  0.7872
 1553SOL    HW116118   4.692   3.589   3.754  1.3841 -0.0969 -0.8749
 1553SOL    HW216119   4.723   3.663   3.868  1.4697 -2.2409  1.0957
 1554SOL     OW16120   0.736   1.255   9.054 -0.2477  0.3838 -0.4322
 1554SOL    HW116121   0.702   1.249   9.143  0.2745  1.8564 -0.1385
 1554SOL    HW216122   0.793   1.178   9.059 -0.1939  0.4129 -0.5833
 1555SOL     OW16123   3.502   2.623   4.102 -0.1583 -0.1928 -0.0930
 1555SOL    HW116124   3.428   2.592   4.155 -0.9569 -1.2783 -1.8653
 1555SOL    HW216125   3.555   2.688   4.149 -0.3527  1.0003 -1.5652
 1556SOL     OW16126   3.973   3.531   7.083 -0.3205 -0.2202  0.5842
 1556SOL    HW116127   4.029   3.608   7.092  2.3150 -2.4074  2.7746
 1556SOL    HW216128   4.039   3.467   7.107  1.7938  1.6365 -0.2816
 1557SOL     OW16129   2.035   3.412   5.228  0.1295 -0.2000  0.3776
 1557SOL    HW116130   1.942   3.398   5.213  0.5200 -1.7473 -0.6374
 1557SOL    HW216131   2.061   3.327   5.264 -1.1862 -0.1933  1.3273
 1558SOL     OW16132   2.121   0.749   2.091  0.4319  0.5626  0.0468
 1558SOL    HW116133   2.126   0.841   2.065 -0.5885  0.7335  0.4289
 1558SOL    HW216134   2.188   0.700   2.044  1.3788  1.9586 -0.0420
 1559SOL     OW16135   1.861   2.181  16.088 -0.1312  0.2042 -0.0471
 1559SOL    HW116136   1.941   2.161  16.040 -0.0162 -0.0487  0.2534
 1559SOL    HW216137   1.791   2.142  16.036  0.5825 -1.7861  0.4911
 1560SOL     OW16138   1.641   0.647  17.404 -0.0865  0.2117  0.4539
 1560SOL    HW116139   1.590   0.693  17.337 -0.5194 -3.3812 -1.6815
 1560SOL    HW216140   1.680   0.721  17.451 -1.0833  0.4180  0.9480
 1561SOL     OW16141   0.101   3.928  13.538  0.3650 -0.1766  0.1045
 1561SOL    HW116142   0.156   3.883  13.601 -0.7231 -2.0852 -0.2818
 1561SOL    HW216143   0.114   3.871  13.462 -0.4335 -2.3008  1.5438
 1562SOL     OW16144   3.236   1.508  17.690  0.1256 -0.6578 -0.5025
 1562SOL    HW116145   3.171   1.492  17.622  1.2109  0.2385 -1.7500
 1562SOL    HW216146   3.194   1.455   0.060 -2.3370  1.5986 -0.3014
 1563SOL     OW16147   0.582   3.490   4.595  0.2125 -0.8143 -0.1525
 1563SOL    HW116148   0.591   3.464   4.503  0.5289 -1.3862  0.0457
 1563SOL    HW216149   0.578   3.586   4.590  0.7071 -0.8160 -0.5133
 1564SOL     OW16150   0.147   3.860   4.071  0.0896  0.2838 -0.5025
 1564SOL    HW116151   0.137   3.801   4.146  0.1273  0.3004 -0.4843
 1564SOL    HW216152   0.126   3.943   4.114  1.7996 -0.8759  2.5786
 1565SOL     OW16153   2.520   0.756  14.484 -0.4275  0.3358  0.0227
 1565SOL    HW116154   2.490   0.778  14.572  0.5499 -0.7842  0.6480
 1565SOL    HW216155   2.441   0.706  14.464  1.2759 -2.2295 -0.3690
 1566SOL     OW16156   3.499   4.034   0.156  0.2666  0.8634  0.3792
 1566SOL    HW116157   3.586   4.053   0.192 -0.9141  1.7535  2.7569
 1566SOL    HW216158   3.476   4.124   0.132  0.6302  0.5362 -1.1763
 1567SOL     OW16159   1.545   0.410  17.029 -0.0069 -0.4629 -0.2697
 1567SOL    HW116160   1.563   0.423  17.122  1.4259  0.5229 -0.6756
 1567SOL    HW216161   1.634   0.386  17.005  0.7150  1.2411  0.7283
 1568SOL     OW16162   3.139   3.604   2.335 -0.7532 -0.3581 -0.6652
 1568SOL    HW116163   3.206   3.656   2.290 -2.6296  1.5001 -1.3149
 1568SOL    HW216164   3.063   3.655   2.305  0.5733  1.2773 -1.2049
 1569SOL     OW16165   0.651   3.028   6.878 -0.2605 -0.5000  0.2193
 1569SOL    HW116166   0.655   2.995   6.967  1.6754 -0.1202  0.2613
 1569SOL    HW216167   0.723   3.091   6.883 -0.1641 -0.2844 -3.9795
 1570SOL     OW16168   4.612   4.475  16.077  0.5037  0.5304  0.0237
 1570SOL    HW116169   4.549   4.510  16.013 -1.6355 -1.0026  1.2737
 1570SOL    HW216170   4.576   4.390  16.104  0.9932  0.7639  1.4003
 1571SOL     OW16171   4.371   1.957   3.345 -0.1949 -0.2003 -0.4766
 1571SOL    HW116172   4.291   1.914   3.316 -1.7346  1.4766  1.2131
 1571SOL    HW216173   4.423   1.967   3.265  0.2950 -1.0525 -0.2694
 1572SOL     OW16174   2.005   3.726  14.314  0.2131 -0.0788  0.0164
 1572SOL    HW116175   2.052   3.676  14.380 -0.4003  1.7558  1.8468
 1572SOL    HW216176   1.945   3.775  14.370  1.0164  0.3388  0.5075
 1573SOL     OW16177   3.294   1.935   2.135 -0.1438  0.0966 -0.1780
 1573SOL    HW116178   3.272   1.991   2.061  0.8135  1.3860  0.5144
 1573SOL    HW216179   3.291   1.852   2.089 -1.2192 -0.3305  0.6742
 1574SOL     OW16180   0.392   3.973  14.959  0.8647  0.3297 -0.2860
 1574SOL    HW116181   0.426   3.936  15.041 -0.1629 -1.5759 -0.7094
 1574SOL    HW216182   0.320   4.029  14.987  1.0621 -0.3557  1.6134
 1575SOL     OW16183   2.709   1.317  14.710 -0.3077 -0.7031 -0.4229
 1575SOL    HW116184   2.678   1.274  14.630  1.3816 -2.3761 -0.1973
 1575SOL    HW216185   2.760   1.388  14.671  1.2797 -1.1928  0.7464
 1576SOL     OW16186   2.398   1.531   1.659  0.7414  1.1899 -0.9987
 1576SOL    HW116187   2.483   1.488   1.664 -0.0954 -0.4769 -1.1488
 1576SOL    HW216188   2.348   1.459   1.696  0.5665  1.2014 -1.2096
 1577SOL     OW16189   4.405   2.001   0.923  0.5147  0.2232  0.0948
 1577SOL    HW116190   4.480   1.944   0.940 -0.0187  0.4002  2.9590
 1577SOL    HW216191   4.454   2.083   0.930 -0.6118  0.6147  3.1901
 1578SOL     OW16192   0.541   1.095   7.980  0.3431  0.1885 -0.0717
 1578SOL    HW116193   0.585   1.174   7.949 -1.7024  2.0229  1.6432
 1578SOL    HW216194   0.523   1.049   7.898 -0.6261 -0.0063  0.2550
 1579SOL     OW16195   1.278   3.753   9.762 -0.2131 -0.2183 -0.3443
 1579SOL    HW116196   1.188   3.720   9.763 -0.2652 -0.0524  0.3439
 1579SOL    HW216197   1.326   3.720   9.686 -0.8562  2.7616 -2.0205
 1580SOL     OW16198   3.744   3.773   0.768  0.1705  0.5248  0.4771
 1580SOL    HW116199   3.829   3.805   0.800 -0.9178  1.7590  2.0985
 1580SOL    HW216200   3.775   3.701   0.714 -2.1492 -2.5700  3.3264
 1581SOL     OW16201   1.008   4.553  10.924 -0.1644 -0.0610 -0.1324
 1581SOL    HW116202   1.082   4.598  10.966  1.3825 -0.4616 -2.4359
 1581SOL    HW216203   0.949   4.546  10.999  1.5208 -0.9333  1.1408
 1582SOL     OW16204   3.700   3.336   6.420 -0.2477  0.2649 -0.0389
 1582SOL    HW116205   3.700   3.243   6.397 -2.0073  0.1744  0.2845
 1582SOL    HW216206   3.657   3.340   6.505 -0.2057 -0.3110  0.0118
 1583SOL     OW16207   0.379   2.700   3.866 -0.0383 -0.1105  0.0408
 1583SOL    HW116208   0.426   2.692   3.949  0.7214  3.5485 -0.0107
 1583SOL    HW216209   0.449   2.664   3.812  0.1699 -0.9279  0.8587
 1584SOL     OW16210   1.852   0.185   8.863 -0.0809  0.1566  0.4722
 1584SOL    HW116211   1.942   0.211   8.882  0.7086 -1.1255 -1.5323
 1584SOL    HW216212   1.830   0.263   8.812  0.9952 -1.8523 -3.0669
 1585SOL     OW16213   3.849   0.148   7.679  0.0045  0.0225  0.3935
 1585SOL    HW116214   3.913   0.178   7.615  1.6417 -1.3172  1.4169
 1585SOL    HW216215   3.902   0.121   7.753  0.8847 -0.3885 -0.3883
 1586SOL     OW16216   0.189   1.419   9.743 -0.1603 -0.2554  0.3189
 1586SOL    HW116217   0.127   1.485   9.773 -2.0645 -1.0802 -1.7858
 1586SOL    HW216218   0.243   1.472   9.684 -1.2158  2.7774  2.0909
 1587SOL     OW16219   2.803   0.381   4.828 -0.2605 -0.2551 -0.0934
 1587SOL    HW116220   2.715   0.356   4.856 -0.2651  0.3189  0.3989
 1587SOL    HW216221   2.794   0.427   4.744  0.2056  1.9166  1.0460
 1588SOL     OW16222   1.326   1.846   5.585 -0.1612  0.4162  0.1093
 1588SOL    HW116223   1.308   1.821   5.676  0.7838  1.5987  0.6276
 1588SOL    HW216224   1.369   1.926   5.616  0.1262 -0.0033  0.8027
 1589SOL     OW16225   2.881   3.509   8.941 -0.4950  0.8546  0.2177
 1589SOL    HW116226   2.938   3.443   8.981  0.3531 -0.6815 -3.4836
 1589SOL    HW216227   2.873   3.468   8.855 -0.5536 -0.4368  0.8290
 1590SOL     OW16228   1.012   3.675   9.424  0.2646 -0.4555 -1.0636
 1590SOL    HW116229   0.978   3.614   9.358  1.8250 -1.6487 -0.7531
 1590SOL    HW216230   1.049   3.613   9.486  0.7153  0.4147 -0.4609
 1591SOL     OW16231   1.184   1.251  14.556  0.4652  0.1266  0.1489
 1591SOL    HW116232   1.260   1.247  14.498 -0.7614 -2.0202 -1.2995
 1591SOL    HW216233   1.204   1.193  14.629  0.4199  1.3818  1.1525
 1592SOL     OW16234   1.529   4.690  17.637 -0.0773  0.6028 -0.0552
 1592SOL    HW116235   1.571   0.039  17.593  1.5684  1.3760  2.7664
 1592SOL    HW216236   1.599   4.637  17.675 -0.0592  0.8805  0.2966
 1593SOL     OW16237   4.017   2.594   2.896 -0.1941  0.0399  0.5316
 1593SOL    HW116238   4.092   2.644   2.929 -0.7342  0.9739  0.3357
 1593SOL    HW216239   3.938   2.639   2.928  0.2996  1.4074 -0.1807
 1594SOL     OW16240   1.950   1.038   0.017 -0.1944 -0.4764  0.7329
 1594SOL    HW116241   2.004   0.964  17.689  1.6197  0.4797  1.7729
 1594SOL    HW216242   1.950   1.083  17.631  0.2742 -0.9267  0.4914
 1595SOL     OW16243   0.135   2.973   2.436 -0.4806  0.4817 -0.9320
 1595SOL    HW116244   0.083   3.012   2.506  0.8056  0.3845  0.0766
 1595SOL    HW216245   0.217   2.957   2.482 -1.7126 -0.4583  0.9664
 1596SOL     OW16246   2.204   2.435   6.992 -0.4948 -0.6695  0.4923
 1596SOL    HW116247   2.250   2.504   6.943  1.4390 -2.6794 -0.5245
 1596SOL    HW216248   2.186   2.492   7.067 -2.3452  0.6671 -0.9493
 1597SOL     OW16249   2.297   0.050   5.921 -0.1920 -0.5349  0.4902
 1597SOL    HW116250   2.295   4.703   5.984  1.4495  0.0158  1.1574
 1597SOL    HW216251   2.258   0.001   5.849  0.4578  1.9823 -1.6194
 1598SOL     OW16252   3.210   1.372   4.427  0.0811 -0.3752 -0.2294
 1598SOL    HW116253   3.141   1.435   4.445  0.4431 -0.7907  2.5858
 1598SOL    HW216254   3.208   1.324   4.510 -0.4791  1.5493  0.8546
 1599SOL     OW16255   4.101   2.454   7.883  0.2085  0.4575 -0.4444
 1599SOL    HW116256   4.059   2.389   7.828  1.3982  1.1111 -2.1366
 1599SOL    HW216257   4.176   2.401   7.910  0.3010  1.1721  0.7202
 1600SOL     OW16258   3.732   4.255   6.328  0.7295  0.5403 -0.0405
 1600SOL    HW116259   3.657   4.197   6.341  0.3710  1.5205  2.1717
 1600SOL    HW216260   3.801   4.194   6.353 -1.2200 -1.7608 -0.2107
 1601SOL     OW16261   0.164   0.053   3.919 -0.0870  0.1656  0.3690
 1601SOL    HW116262   0.092   0.083   3.863 -0.4852 -0.8696  0.3214
 1601SOL    HW216263   0.154   0.114   3.992 -0.2481  0.3734  0.1720
 1602SOL     OW16264   2.742   2.895   2.573  0.2254 -0.4438  0.1333
 1602SOL    HW116265   2.782   2.973   2.534  0.1166 -0.1115  0.6948
 1602SOL    HW216266   2.718   2.857   2.488 -0.3842  2.5991 -1.0716
 1603SOL     OW16267   1.460   4.574   4.517  0.1773 -0.1231  0.1931
 1603SOL    HW116268   1.439   4.668   4.519 -0.5821 -0.2697 -0.8903
 1603SOL    HW216269   1.464   4.578   4.422 -0.7091 -1.5361  0.0987
 1604SOL     OW16270   0.327   1.609   7.131  0.4658  0.0740  0.1607
 1604SOL    HW116271   0.279   1.634   7.210 -3.3398  0.7961 -2.3603
 1604SOL    HW216272   0.286   1.666   7.065  1.0389 -0.5026 -0.6919
 1605SOL     OW16273   0.132   4.380   4.273  0.0502 -0.0883  0.7510
 1605SOL    HW116274   0.040   4.393   4.252  0.1278 -0.9337 -0.1118
 1605SOL    HW216275   0.136   4.405   4.366 -2.0404 -0.5504  0.9558
 1606SOL     OW16276   1.874   1.736   6.568  0.2085 -0.1203 -0.6238
 1606SOL    HW116277   1.913   1.709   6.484 -0.7171 -0.3407 -0.9772
 1606SOL    HW216278   1.783   1.708   6.573 -0.4130  1.9450 -0.7752
 1607SOL     OW16279   1.868   0.207   3.949 -0.5124 -0.0162  0.3889
 1607SOL    HW116280   1.925   0.134   3.923  0.8697  1.3746 -0.4701
 1607SOL    HW216281   1.872   0.216   4.044  2.4548  1.5171  0.0979
 1608SOL     OW16282   1.272   0.021   1.771  0.4924 -0.0229  0.0811
 1608SOL    HW116283   1.316   4.680   1.717 -1.1092 -0.0313 -1.1926
 1608SOL    HW216284   1.348   0.031   1.829  0.6762  1.6121 -0.4553
 1609SOL     OW16285   2.162   2.703   8.093 -0.2692  0.4135  0.7964
 1609SOL    HW116286   2.256   2.685   8.087 -0.6010 -0.5051 -1.6807
 1609SOL    HW216287   2.139   2.645   8.166  1.0142 -2.0861 -0.7825
 1610SOL     OW16288   3.929   3.254  17.302 -0.0135 -0.0456 -0.0192
 1610SOL    HW116289   3.908   3.346  17.319 -1.5927 -0.1993 -1.2162
 1610SOL    HW216290   4.014   3.246  17.347 -1.2316 -1.8284  1.9691
 1611SOL     OW16291   0.874   2.109   2.594 -0.0996 -0.2436  0.6599
 1611SOL    HW116292   0.893   2.090   2.686 -1.7904 -2.3074  0.5888
 1611SOL    HW216293   0.780   2.125   2.601 -0.2754 -0.4463 -1.2037
 1612SOL     OW16294   1.122   3.579  10.030  0.1806 -0.1564  0.4868
 1612SOL    HW116295   1.068   3.513  10.072 -0.5562 -0.2448 -0.5949
 1612SOL    HW216296   1.174   3.524   9.971  1.6249  1.2198  0.4548
 1613SOL     OW16297   0.617   1.012   9.838 -0.2398 -0.0698  0.3050
 1613SOL    HW116298   0.663   0.931   9.817  1.0645  0.2302  2.0298
 1613SOL    HW216299   0.678   1.065   9.889  0.5701  0.1607 -0.8895
 1614SOL     OW16300   1.351   4.509   7.862  0.0477 -0.0247 -0.5605
 1614SOL    HW116301   1.345   4.603   7.846  0.3961  0.6349  3.0084
 1614SOL    HW216302   1.262   4.481   7.839 -0.7467  0.0078  2.4045
 1615SOL     OW16303   3.314   4.110   4.131  0.7143 -0.0349 -0.2532
 1615SOL    HW116304   3.336   4.019   4.149  0.1097 -0.4635 -1.6886
 1615SOL    HW216305   3.247   4.090   4.065 -0.7544 -0.2945  1.3123
 1616SOL     OW16306   1.694   0.892   8.540  0.5024  0.5399  0.5602
 1616SOL    HW116307   1.712   0.979   8.576  1.2063  0.4759  0.3506
 1616SOL    HW216308   1.781   0.874   8.505 -0.5896  0.4924 -2.1307
 1617SOL     OW16309   4.139   3.461   4.400 -0.0878 -0.4054  0.1147
 1617SOL    HW116310   4.063   3.513   4.378  0.3300  0.8253  1.5539
 1617SOL    HW216311   4.163   3.494   4.487  1.3765 -0.0157 -0.4404
 1618SOL     OW16312   1.769   2.427   7.874  0.2311  0.5893  0.7366
 1618SOL    HW116313   1.833   2.407   7.806  0.7795 -0.2517  1.4889
 1618SOL    HW216314   1.794   2.519   7.883  1.0629  0.4008  0.3790
 1619SOL     OW16315   3.872   0.820   8.075  0.2975 -0.2569  0.8716
 1619SOL    HW116316   3.858   0.785   8.164  2.2845  2.2093  2.1414
 1619SOL    HW216317   3.827   0.748   8.031 -1.8987 -0.2006  2.9475
 1620SOL     OW16318   0.688   1.603   9.672  0.2706 -0.1891  0.2711
 1620SOL    HW116319   0.664   1.674   9.612 -0.1634 -0.2786  0.3427
 1620SOL    HW216320   0.657   1.632   9.758 -0.1560 -1.6400  0.5988
 1621SOL     OW16321   4.623   2.195  16.190  0.2080 -0.2437  0.1598
 1621SOL    HW116322   4.681   2.243  16.249  0.0329  0.5830 -0.3403
 1621SOL    HW216323   4.538   2.236  16.205  0.8228  1.1033 -0.0015
 1622SOL     OW16324   0.674   4.063   8.784 -0.8832  1.1026  0.0958
 1622SOL    HW116325   0.678   3.999   8.855 -0.3340  2.7871  1.5927
 1622SOL    HW216326   0.636   4.017   8.709  0.3578  1.4302 -0.7364
 1623SOL     OW16327   1.188   1.918   9.486  0.5378  0.4503  0.6912
 1623SOL    HW116328   1.250   1.845   9.491 -1.1835 -1.2950 -3.5489
 1623SOL    HW216329   1.162   1.910   9.577 -1.8777 -0.4412 -0.0981
 1624SOL     OW16330   3.256   4.711   4.383  0.5926  0.1385 -0.1010
 1624SOL    HW116331   3.229   0.025   4.300 -0.1891  1.6637  0.8484
 1624SOL    HW216332   3.288   0.070   4.416  1.1951 -0.3368  0.5117
 1625SOL     OW16333   2.782   2.237   7.090  0.2566  0.0079 -0.1315
 1625SOL    HW116334   2.857   2.180   7.104 -1.1962 -2.3363 -1.6950
 1625SOL    HW216335   2.721   2.192   7.149 -0.3391 -0.6113 -1.2124
 1626SOL     OW16336   1.837   0.446   0.945  0.2084  0.1980 -0.5890
 1626SOL    HW116337   1.787   0.449   0.864  0.4465  0.1693 -0.7369
 1626SOL    HW216338   1.925   0.456   0.909 -0.1378  1.1509 -1.1990
 1627SOL     OW16339   4.492   0.374   0.100  0.3583 -0.7636 -0.7859
 1627SOL    HW116340   4.433   0.446   0.121  0.7253 -1.1379  1.5548
 1627SOL    HW216341   4.426   0.312   0.069 -1.8663 -0.2261  2.8524
 1628SOL     OW16342   1.102   2.244   8.419 -0.0511  1.2369  0.3904
 1628SOL    HW116343   1.045   2.167   8.427  1.3827  0.1895  0.6448
 1628SOL    HW216344   1.059   2.306   8.361 -0.0988  0.8115 -0.0288
 1629SOL     OW16345   1.169   4.421   8.338  0.3188  0.5035  0.2691
 1629SOL    HW116346   1.163   4.332   8.303 -1.7731  0.2368  1.3219
 1629SOL    HW216347   1.124   4.405   8.421  0.2018  3.3394  0.7232
 1630SOL     OW16348   2.392   1.413  15.127 -0.0715 -0.4758  0.0659
 1630SOL    HW116349   2.302   1.391  15.104 -0.3518  0.0230  0.6874
 1630SOL    HW216350   2.437   1.393  15.045  2.3707  0.5703  1.1509
 1631SOL     OW16351   1.906   3.795  12.635 -0.1220  0.4489 -0.0669
 1631SOL    HW116352   1.896   3.878  12.682  0.6428  0.9349 -0.7677
 1631SOL    HW216353   2.001   3.796  12.623 -0.3358 -0.1706 -1.8749
 1632SOL     OW16354   2.272   1.814   9.617 -0.2158 -0.2301  0.1882
 1632SOL    HW116355   2.341   1.814   9.684 -1.8869  2.5639  1.8804
 1632SOL    HW216356   2.270   1.906   9.593 -0.1720  0.3201  2.2749
 1633SOL     OW16357   3.499   0.330  12.815  0.4243  0.1193 -0.0147
 1633SOL    HW116358   3.554   0.379  12.877 -2.1320  1.1919  1.3850
 1633SOL    HW216359   3.566   0.283  12.765 -0.3197 -1.5939  0.5897
 1634SOL     OW16360   0.865   1.419   9.944  0.5151 -0.2446 -0.2764
 1634SOL    HW116361   0.891   1.507   9.970 -0.1627 -0.7575  2.0785
 1634SOL    HW216362   0.791   1.413  10.003 -0.3519  2.6875 -1.1147
 1635SOL     OW16363   1.600   4.411  16.306  0.0834  0.2898 -0.3219
 1635SOL    HW116364   1.536   4.435  16.239 -0.1352 -2.0754 -0.9880
 1635SOL    HW216365   1.585   4.316  16.307  1.3214  0.0929 -0.0458
 1636SOL     OW16366   2.547   0.934   8.501  0.3152  0.0184 -0.8261
 1636SOL    HW116367   2.556   1.010   8.558 -2.2551 -1.6501  1.8218
 1636SOL    HW216368   2.620   0.944   8.439  0.4300 -3.0661 -1.1899
 1637SOL     OW16369   2.551   0.952   7.916  0.7864 -0.3591 -0.0235
 1637SOL    HW116370   2.515   0.875   7.960 -2.6950  0.6119 -1.1090
 1637SOL    HW216371   2.508   1.026   7.959  0.2160 -0.2063 -0.8470
 1638SOL     OW16372   2.437   1.994   2.370 -0.4858 -0.6235  0.3902
 1638SOL    HW116373   2.434   1.922   2.308 -0.6406  0.6310 -1.0528
 1638SOL    HW216374   2.429   2.068   2.309  0.3813 -0.4527  0.4858
 1639SOL     OW16375   1.325   0.272   0.326  0.0837 -0.7091  0.0692
 1639SOL    HW116376   1.417   0.274   0.301  0.7141 -2.1010  2.2679
 1639SOL    HW216377   1.301   0.179   0.330  0.0564 -0.6995  0.1416
 1640SOL     OW16378   4.548   4.010   6.254  0.2401  0.3015  0.1780
 1640SOL    HW116379   4.576   4.070   6.185 -2.2741  0.0316 -1.0623
 1640SOL    HW216380   4.538   4.066   6.331  1.0279 -2.0311  2.0026
 1641SOL     OW16381   4.002   0.926  13.453 -0.0175  0.4144 -0.2470
 1641SOL    HW116382   4.019   0.864  13.381 -0.0935 -0.6247  0.6339
 1641SOL    HW216383   4.063   0.988  13.414 -0.1564 -0.3896 -1.7566
 1642SOL     OW16384   1.979   2.738   7.303  0.0193  0.7302  0.1525
 1642SOL    HW116385   1.885   2.756   7.301 -0.2872 -1.0712 -1.0774
 1642SOL    HW216386   2.001   2.779   7.387  1.0780 -1.2388  0.8281
 1643SOL     OW16387   0.754   0.070  10.834 -0.3536 -0.5582  0.4333
 1643SOL    HW116388   0.726   4.724  10.893 -0.1388 -3.6777 -3.1458
 1643SOL    HW216389   0.844   0.084  10.862 -0.3686  2.1095 -0.9198
 1644SOL     OW16390   3.400   4.306   0.095  0.2948 -0.5126  0.0361
 1644SOL    HW116391   3.325   4.328   0.039  0.6110  2.3154  0.7226
 1644SOL    HW216392   3.470   4.302   0.030 -1.5176 -2.1117 -1.8329
 1645SOL     OW16393   0.494   1.137  13.214 -0.1477 -0.0479  0.4232
 1645SOL    HW116394   0.476   1.088  13.294 -0.6732  0.7817  0.8113
 1645SOL    HW216395   0.433   1.092  13.155  2.4115 -1.1155 -1.4193
 1646SOL     OW16396   1.641   0.670  14.193 -0.1879  0.2912  0.2342
 1646SOL    HW116397   1.550   0.656  14.218 -0.1373  0.9388  0.7896
 1646SOL    HW216398   1.626   0.732  14.122 -0.5576  1.8715  1.7087
 1647SOL     OW16399   4.082   1.836   1.742  0.1859 -0.4454  0.1577
 1647SOL    HW116400   3.994   1.863   1.768  0.0633  0.4890 -1.2119
 1647SOL    HW216401   4.067   1.762   1.685 -0.0626 -0.4964  0.2873
 1648SOL     OW16402   2.933   2.513   0.398 -0.2693  0.4663  0.1414
 1648SOL    HW116403   2.971   2.586   0.447 -0.6389  1.4216 -0.9942
 1648SOL    HW216404   2.838   2.524   0.404 -0.1156  1.6219  0.4142
 1649SOL     OW16405   4.044   2.128  15.249  0.0786  0.3206  0.2627
 1649SOL    HW116406   3.956   2.162  15.262 -0.4385 -0.6625 -0.6821
 1649SOL    HW216407   4.059   2.057  15.311 -0.7825  0.5321  0.7140
 1650SOL     OW16408   4.407   0.430   3.283 -0.5641  0.4069 -0.1626
 1650SOL    HW116409   4.383   0.416   3.374  2.0215  0.3565  0.5148
 1650SOL    HW216410   4.502   0.424   3.273 -0.3920  2.7751 -0.0080
 1651SOL     OW16411   0.567   2.399  16.762  0.1570  0.1445 -0.5179
 1651SOL    HW116412   0.539   2.320  16.716 -2.4060 -0.4677  2.0549
 1651SOL    HW216413   0.636   2.440  16.709 -0.3625  2.2640  0.4468
 1652SOL     OW16414   0.271   2.392  12.637 -0.3145  0.6454  0.4022
 1652SOL    HW116415   0.335   2.463  12.632  0.6738 -0.2653  0.0667
 1652SOL    HW216416   0.265   2.369  12.544 -2.4483  0.2701  0.6366
 1653SOL     OW16417   2.913   1.936  12.071  0.2840  0.2556 -0.3579
 1653SOL    HW116418   2.869   1.899  11.995 -0.3411  0.9429 -0.3404
 1653SOL    HW216419   2.940   2.016  12.025  2.8254 -0.6965 -0.4851
 1654SOL     OW16420   2.337   4.264   3.625 -0.2637 -0.1538 -0.4115
 1654SOL    HW116421   2.418   4.316   3.626  0.6052 -1.4931 -1.9678
 1654SOL    HW216422   2.289   4.288   3.704  1.2249 -0.9282  0.7409
 1655SOL     OW16423   4.284   0.864  10.392 -0.2760  0.6130 -0.4823
 1655SOL    HW116424   4.310   0.812  10.468 -1.2488  1.5928  0.5292
 1655SOL    HW216425   4.225   0.799  10.354  0.4640  0.2625 -1.0334
 1656SOL     OW16426   2.808   0.697   5.874  0.8380  0.0151 -0.0042
 1656SOL    HW116427   2.782   0.749   5.798  1.5296 -1.2635 -1.1143
 1656SOL    HW216428   2.878   0.642   5.840 -1.8712 -3.0603 -0.6506
 1657SOL     OW16429   3.174   0.391   2.932 -0.2549  0.0920  0.1537
 1657SOL    HW116430   3.195   0.313   2.882  0.4290  1.2332 -1.3402
 1657SOL    HW216431   3.253   0.395   2.986 -1.7981 -0.1912  2.4434
 1658SOL     OW16432   0.379   0.764   2.447  0.0969 -0.2865 -0.4906
 1658SOL    HW116433   0.303   0.800   2.401  0.1991  1.1922  0.5258
 1658SOL    HW216434   0.352   0.673   2.431  0.9551 -0.4920 -0.7887
 1659SOL     OW16435   4.651   3.541   7.149  0.5099  0.4323  0.1243
 1659SOL    HW116436   4.630   3.621   7.198 -2.9085  0.6529 -1.6981
 1659SOL    HW216437   0.021   3.552   7.132  0.5866 -0.9083 -0.2565
 1660SOL     OW16438   0.347   3.070   5.951 -0.2098  0.2466 -0.2145
 1660SOL    HW116439   0.311   3.015   6.021 -0.1400 -1.6708 -1.6872
 1660SOL    HW216440   0.389   3.141   5.999 -0.0215 -1.1547  1.6923
 1661SOL     OW16441   4.580   1.364   5.259 -0.1630 -0.0492 -0.1782
 1661SOL    HW116442   4.518   1.340   5.190 -0.7923  1.1631 -0.0419
 1661SOL    HW216443   4.646   1.295   5.260  1.3588  1.3585 -3.1171
 1662SOL     OW16444   4.709   3.568   6.248 -0.5143  0.0426 -0.5721
 1662SOL    HW116445   0.012   3.629   6.179 -0.1576  1.4489  0.8071
 1662SOL    HW216446   4.702   3.615   6.331 -0.9831 -2.0137  0.5482
 1663SOL     OW16447   4.220   2.912   5.967 -0.0630 -0.2713  0.0608
 1663SOL    HW116448   4.239   3.003   5.944 -1.1726 -0.0693 -0.0455
 1663SOL    HW216449   4.248   2.875   5.883 -0.0402 -0.0878 -0.0133
 1664SOL     OW16450   1.527   0.330   5.936 -0.6504 -0.1326  0.1808
 1664SOL    HW116451   1.527   0.329   6.032  0.9988  0.0817  0.1721
 1664SOL    HW216452   1.437   0.355   5.913 -0.7454 -1.8697 -1.3308
 1665SOL     OW16453   3.918   4.639   5.219  0.1325  0.4457  0.3911
 1665SOL    HW116454   3.908   0.010   5.224 -3.9960 -0.0606  1.3818
 1665SOL    HW216455   3.932   4.621   5.312  0.2114 -1.1828  0.0645
 1666SOL     OW16456   2.907   4.385   5.201  0.4339 -0.0504 -0.2876
 1666SOL    HW116457   2.991   4.350   5.232 -0.1359  0.2191  1.5767
 1666SOL    HW216458   2.871   4.392   5.290  1.8192 -1.3394  0.3842
 1667SOL     OW16459   2.898   1.492  14.617 -0.1084  0.1776  0.0371
 1667SOL    HW116460   2.982   1.523  14.652 -0.3374 -0.2096  0.9280
 1667SOL    HW216461   2.913   1.481  14.523  0.1592 -0.9420  0.2121
 1668SOL     OW16462   4.503   4.465   3.511 -0.1961 -0.1043  0.5424
 1668SOL    HW116463   4.585   4.427   3.542  0.3457  0.1824 -0.5641
 1668SOL    HW216464   4.525   4.558   3.514  2.1579 -0.6905  1.4052
 1669SOL     OW16465   3.763   4.188   5.469 -0.3303  0.5585  0.2966
 1669SOL    HW116466   3.783   4.103   5.429  1.6851  0.6599  1.0878
 1669SOL    HW216467   3.738   4.165   5.559 -3.0198  0.4850 -0.4708
 1670SOL     OW16468   2.869   3.291   6.306 -0.2140 -0.8522  0.5766
 1670SOL    HW116469   2.911   3.373   6.282  2.1886 -1.9640  1.0076
 1670SOL    HW216470   2.794   3.313   6.250 -0.7316  0.8926  1.9630
 1671SOL     OW16471   2.022   4.442   4.666  0.6947  0.1612 -0.0570
 1671SOL    HW116472   2.028   4.464   4.573  1.6918  3.4100  0.7466
 1671SOL    HW216473   2.010   4.347   4.667 -0.1732  0.2677 -2.2646
 1672SOL     OW16474   2.051   3.793   6.231  0.0193 -0.7119 -0.3184
 1672SOL    HW116475   2.116   3.809   6.162  0.6194 -0.3444  0.3376
 1672SOL    HW216476   2.094   3.807   6.315  0.7537  1.1860 -0.9978
 1673SOL     OW16477   0.933   2.971   5.592 -0.4975 -0.1863 -0.4799
 1673SOL    HW116478   0.914   2.984   5.685  1.9375 -1.3625  0.1614
 1673SOL    HW216479   0.935   2.875   5.585 -1.1328 -0.3289  1.2012
 1674SOL     OW16480   0.168   4.572  16.457  0.5754  0.7677 -0.0024
 1674SOL    HW116481   0.225   4.626  16.402 -0.0186  1.9757  0.5838
 1674SOL    HW216482   0.112   4.638  16.496  0.7092  0.9591 -0.1335
 1675SOL     OW16483   3.155   0.178  17.188  0.1527 -0.0400 -0.1221
 1675SOL    HW116484   3.096   0.253  17.173  0.3248 -0.1980 -1.5422
 1675SOL    HW216485   3.192   0.159  17.102 -0.7030  0.6421 -0.6422
 1676SOL     OW16486   2.196   0.237   4.931 -0.0612 -0.4921  0.7220
 1676SOL    HW116487   2.253   0.268   5.001 -1.6514 -0.1630  1.8605
 1676SOL    HW216488   2.255   0.171   4.895 -0.2519 -0.9856  1.3251
 1677SOL     OW16489   4.300   2.438   8.287 -0.3324  0.0519  0.3131
 1677SOL    HW116490   4.339   2.514   8.332 -0.6961 -0.3589  1.3291
 1677SOL    HW216491   4.261   2.481   8.211 -0.9614  1.8031  1.6042
 1678SOL     OW16492   0.631   3.061   2.980 -0.1091  0.1067 -0.1324
 1678SOL    HW116493   0.722   3.041   3.001 -0.4231 -1.7935 -0.6045
 1678SOL    HW216494   0.590   3.008   3.049 -0.4141  0.9699  0.3547
 1679SOL     OW16495   3.903   3.955   9.164 -0.2817 -0.1677  0.2143
 1679SOL    HW116496   3.915   4.025   9.100 -0.0609  1.2061  1.7806
 1679SOL    HW216497   3.899   3.878   9.107  0.1911  1.5338 -2.1402
 1680SOL     OW16498   4.145   0.549   8.365 -0.0976  0.5351 -0.7824
 1680SOL    HW116499   4.124   0.610   8.436 -1.6664  0.3283 -1.0677
 1680SOL    HW216500   4.198   0.603   8.307  0.1082  0.1615 -0.9427
 1681SOL     OW16501   2.747   4.334   8.086 -0.0992  0.2274  0.2286
 1681SOL    HW116502   2.690   4.403   8.052 -0.4651 -0.1706  0.0419
 1681SOL    HW216503   2.737   4.333   8.181  0.9078  0.0015  0.3334
 1682SOL     OW16504   0.115   0.312   4.567  0.4894  0.7083  0.3326
 1682SOL    HW116505   0.050   0.297   4.635 -0.0660  2.5080  0.1993
 1682SOL    HW216506   0.179   0.369   4.610  0.0988  2.5780 -1.5860
 1683SOL     OW16507   1.035   3.641   9.755  0.2574 -0.0120  0.3224
 1683SOL    HW116508   1.012   3.630   9.847  0.3531  3.3273  0.7355
 1683SOL    HW216509   0.994   3.563   9.717  1.2004 -0.7301  0.7611
 1684SOL     OW16510   1.188   0.836  16.302  0.0211 -0.0317  1.3818
 1684SOL    HW116511   1.252   0.908  16.311 -0.0321  0.1750  0.0127
 1684SOL    HW216512   1.138   0.853  16.223  1.1720 -0.5731  0.5491
 1685SOL     OW16513   3.832   4.567   7.097 -0.7234 -0.4850  0.4148
 1685SOL    HW116514   3.838   4.616   7.015 -0.6585 -0.0038  0.7069
 1685SOL    HW216515   3.745   4.530   7.086 -0.6021 -0.1086 -1.7668
 1686SOL     OW16516   4.053   1.797  11.883 -0.0126  0.4022  0.5843
 1686SOL    HW116517   4.088   1.720  11.927  0.4179 -0.1626 -0.7459
 1686SOL    HW216518   4.089   1.774  11.797  1.4866  0.0138  1.3232
 1687SOL     OW16519   2.637   1.840   9.446 -0.3603 -0.0158 -0.1209
 1687SOL    HW116520   2.584   1.857   9.524  0.7104  2.7688 -0.0094
 1687SOL    HW216521   2.575   1.783   9.399  0.5099  0.6000 -2.0125
 1688SOL     OW16522   0.881   4.162  10.750  0.4100  0.0719  0.4432
 1688SOL    HW116523   0.842   4.109  10.819  0.1799  0.6074  0.7288
 1688SOL    HW216524   0.878   4.099  10.678 -0.4064  1.1261 -0.4634
 1689SOL     OW16525   1.048   4.107   3.640  0.0836 -0.1092  0.8306
 1689SOL    HW116526   1.070   4.128   3.731 -3.2794  2.2396  1.0914
 1689SOL    HW216527   1.057   4.011   3.644 -0.3613 -0.1988 -0.4985
 1690SOL     OW16528   2.447   0.460   6.080 -0.4003 -0.2385  0.4263
 1690SOL    HW116529   2.530   0.503   6.101 -0.9918  0.0417  2.2096
 1690SOL    HW216530   2.416   0.429   6.165 -1.6576  2.0132  0.7876
 1691SOL     OW16531   2.456   0.086   1.804 -0.6760  0.1636 -0.0357
 1691SOL    HW116532   2.363   0.107   1.812 -1.2335 -0.6894 -4.4532
 1691SOL    HW216533   2.452   4.719   1.775  3.3478  0.4130 -1.3519
 1692SOL     OW16534   1.889   1.784   8.858 -0.2837  0.1037  0.3504
 1692SOL    HW116535   1.795   1.798   8.852 -0.1846 -0.5426 -2.8740
 1692SOL    HW216536   1.917   1.782   8.766 -1.8053  2.3750 -0.1664
 1693SOL     OW16537   0.065   0.451  16.218 -0.0636  0.7716 -0.0269
 1693SOL    HW116538   0.067   0.362  16.254  0.9195 -0.0347 -2.0960
 1693SOL    HW216539   0.109   0.439  16.134 -1.8987  1.7974 -1.1121
 1694SOL     OW16540   3.654   2.312  13.109 -0.3711  0.1563 -0.4720
 1694SOL    HW116541   3.736   2.347  13.075 -0.8688  0.7169 -1.0930
 1694SOL    HW216542   3.624   2.378  13.172  0.6289 -1.1167  1.3158
 1695SOL     OW16543   1.969   2.942   5.099  0.0995 -0.5979 -0.1315
 1695SOL    HW116544   1.906   2.973   5.033 -0.4062 -1.9652 -0.2833
 1695SOL    HW216545   1.913   2.950   5.176 -0.4853  0.9558 -0.7043
 1696SOL     OW16546   2.987   0.588   7.469 -0.4500 -0.3492 -0.0492
 1696SOL    HW116547   3.006   0.495   7.480 -0.8883 -0.2647  1.4100
 1696SOL    HW216548   2.986   0.597   7.373 -0.2734  1.9686  0.1680
 1697SOL     OW16549   2.184   0.194  10.882 -0.8202  0.4072 -0.6303
 1697SOL    HW116550   2.204   0.122  10.822  1.5700  2.3330 -2.1124
 1697SOL    HW216551   2.257   0.168  10.939 -0.8157  0.2353 -0.7142
 1698SOL     OW16552   2.758   3.118  12.639 -0.0793 -0.1837  0.2017
 1698SOL    HW116553   2.793   3.126  12.550  2.5442 -0.5801  1.2119
 1698SOL    HW216554   2.775   3.198  12.689 -1.0177 -0.1934  0.5450
 1699SOL     OW16555   4.687   3.922   9.383 -0.1511  0.3142 -0.3595
 1699SOL    HW116556   4.635   3.857   9.336 -0.6664  0.7540 -0.3975
 1699SOL    HW216557   4.692   3.874   9.466  0.4664  0.3367 -0.3834
 1700SOL     OW16558   2.477   2.236   6.340  0.6099 -0.1496 -0.0639
 1700SOL    HW116559   2.389   2.214   6.369  1.2802  1.1913  2.9010
 1700SOL    HW216560   2.514   2.266   6.423  0.2431 -0.6688  0.2821
 1701SOL     OW16561   1.938   2.066   5.744 -0.0534  0.2576 -0.1296
 1701SOL    HW116562   1.849   2.089   5.772  0.4161 -0.5933  2.0685
 1701SOL    HW216563   1.979   2.147   5.714 -0.7006  0.0396 -1.6137
 1702SOL     OW16564   0.525   3.665   6.249 -0.1161 -0.2985  0.4907
 1702SOL    HW116565   0.601   3.607   6.254  2.0470  2.4287 -1.2634
 1702SOL    HW216566   0.525   3.697   6.339  1.2948  0.1195  0.3436
 1703SOL     OW16567   2.946   4.419   9.071 -0.5360 -0.0612 -0.1468
 1703SOL    HW116568   2.860   4.414   9.029 -0.9270 -1.8396  0.8788
 1703SOL    HW216569   2.936   4.467   9.152  4.7368 -2.1742  1.7954
 1704SOL     OW16570   1.095   1.251   6.620 -0.4566  0.0885  0.1057
 1704SOL    HW116571   1.153   1.280   6.691 -1.7916  1.2024  0.7377
 1704SOL    HW216572   1.009   1.260   6.661 -0.3237  2.5054 -0.1344
 1705SOL     OW16573   4.177   0.836   6.535  0.4326 -0.3342 -0.2633
 1705SOL    HW116574   4.210   0.839   6.625 -0.0126 -0.6067 -0.0902
 1705SOL    HW216575   4.104   0.775   6.545 -0.0481  0.4263  0.8889
 1706SOL     OW16576   3.812   3.606   6.469 -0.0008 -0.2659  0.3310
 1706SOL    HW116577   3.896   3.652   6.463 -0.4964  0.1360 -3.4944
 1706SOL    HW216578   3.835   3.513   6.473 -1.0822 -0.5263  0.5948
 1707SOL     OW16579   4.572   1.689   6.409  0.1198 -0.1186 -0.1591
 1707SOL    HW116580   4.625   1.700   6.330 -0.8887 -0.7417 -0.9372
 1707SOL    HW216581   4.491   1.733   6.381  0.1118  0.5751  0.9793
 1708SOL     OW16582   2.652   4.513   7.359 -0.1861  0.1766  0.1232
 1708SOL    HW116583   2.587   4.445   7.347 -0.0991  0.1151 -0.0043
 1708SOL    HW216584   2.607   4.598   7.354  1.1705  0.9774  1.4251
 1709SOL     OW16585   1.997   0.535   5.688 -0.0712 -0.2628 -0.4307
 1709SOL    HW116586   2.082   0.497   5.707  1.5755  3.6023  0.0030
 1709SOL    HW216587   1.956   0.542   5.775 -1.9412  1.8096 -1.4743
 1710SOL     OW16588   0.850   4.364   0.733 -0.2571 -0.1142  0.5240
 1710SOL    HW116589   0.852   4.367   0.637  1.1437 -0.2590  0.5626
 1710SOL    HW216590   0.830   4.456   0.751  0.6234  0.1865 -0.0669
 1711SOL     OW16591   3.566   0.442   3.462  0.0888 -0.5151 -0.4927
 1711SOL    HW116592   3.591   0.527   3.424 -3.4538  0.0350 -1.5566
 1711SOL    HW216593   3.526   0.484   3.539  1.5833  1.3603 -0.7313
 1712SOL     OW16594   0.977   3.344   2.001  0.4335  0.5272  0.2742
 1712SOL    HW116595   1.031   3.359   2.079 -2.1485  1.9234  1.7678
 1712SOL    HW216596   0.931   3.262   2.014  0.7162  0.1404 -1.1624
 1713SOL     OW16597   3.556   4.188   7.891  0.3406  0.4491 -0.2300
 1713SOL    HW116598   3.484   4.131   7.918 -0.4350  1.2074 -0.6942
 1713SOL    HW216599   3.514   4.273   7.878 -1.9448 -0.7532 -0.6201
 1714SOL     OW16600   0.953   1.770   8.318  0.2830  0.0646  0.1605
 1714SOL    HW116601   0.975   1.678   8.299  2.0542  0.9087 -1.8289
 1714SOL    HW216602   1.037   1.815   8.313 -0.5521  1.5336 -0.5715
 1715SOL     OW16603   1.330   3.463   3.309  0.6898  0.3899 -0.0192
 1715SOL    HW116604   1.251   3.516   3.324  0.8783  0.5130  0.5664
 1715SOL    HW216605   1.375   3.465   3.393  0.4749  2.3447  0.0583
 1716SOL     OW16606   3.268   2.413   4.496  0.3224  0.0055  0.2464
 1716SOL    HW116607   3.194   2.362   4.463 -0.6561  0.6551  1.4475
 1716SOL    HW216608   3.300   2.349   4.560 -2.0274 -0.9999  0.4027
 1717SOL     OW16609   0.648   2.965  14.673 -0.2950  0.7664  0.0552
 1717SOL    HW116610   0.560   2.933  14.654  0.3609  0.9518 -3.2023
 1717SOL    HW216611   0.702   2.886  14.661  0.6216  1.3469  0.4150
 1718SOL     OW16612   2.489   3.759   5.633  0.1984 -0.3547  0.5024
 1718SOL    HW116613   2.464   3.728   5.720 -2.0262 -1.3732 -0.4962
 1718SOL    HW216614   2.528   3.685   5.586 -0.5541  0.5128 -1.5203
 1719SOL     OW16615   4.656   0.909   8.397  0.0717  0.1140 -0.3956
 1719SOL    HW116616   4.607   0.905   8.315 -0.8897 -1.6170  0.2595
 1719SOL    HW216617   4.666   1.004   8.400  1.7632 -0.0294 -1.7573
 1720SOL     OW16618   0.905   0.616   2.277 -0.4092  0.5128  0.4759
 1720SOL    HW116619   0.949   0.661   2.349  2.1642 -2.0250  0.4998
 1720SOL    HW216620   0.858   0.547   2.325  0.0753  1.5095  2.3819
 1721SOL     OW16621   1.179   1.085   2.938  0.3386  1.1689 -0.2964
 1721SOL    HW116622   1.166   1.178   2.921 -2.7682  0.4450 -2.1274
 1721SOL    HW216623   1.180   1.054   2.847  0.5652 -0.4465  0.2507
 1722SOL     OW16624   2.423   1.089   1.702  0.0270  0.8843 -0.3278
 1722SOL    HW116625   2.394   1.180   1.705  0.3300  0.9778 -0.2101
 1722SOL    HW216626   2.415   1.078   1.607 -1.7990 -0.2447 -0.0394
 1723SOL     OW16627   1.227   0.384  10.399 -0.1831 -0.5390 -0.8085
 1723SOL    HW116628   1.177   0.398  10.479 -0.2023 -0.8329 -0.7706
 1723SOL    HW216629   1.233   0.469  10.354  0.1592 -0.7764 -1.2145
 1724SOL     OW16630   3.255   0.640   5.968 -0.7040 -0.8114  0.3890
 1724SOL    HW116631   3.318   0.595   5.912 -0.6279 -0.0126 -0.1571
 1724SOL    HW216632   3.309   0.711   6.002 -1.0710 -1.1206  1.6385
 1725SOL     OW16633   0.521   1.415   9.485  0.0559  0.9576  0.4845
 1725SOL    HW116634   0.593   1.478   9.478  1.1712 -0.0548  2.6332
 1725SOL    HW216635   0.467   1.469   9.543 -0.2640 -0.3520  1.4264
 1726SOL     OW16636   1.459   3.133   5.453  0.2374  0.2405  0.3010
 1726SOL    HW116637   1.472   3.087   5.371  0.7529  1.6840 -0.4327
 1726SOL    HW216638   1.468   3.059   5.513 -0.6113  0.9013  1.2426
 1727SOL     OW16639   3.719   1.915   8.947  0.0037 -0.3168  0.5013
 1727SOL    HW116640   3.659   1.958   9.008  0.9955 -1.6770  2.4331
 1727SOL    HW216641   3.803   1.946   8.981  0.1912  1.9521 -2.0222
 1728SOL     OW16642   1.262   4.630   2.667 -0.1883  0.2968  0.4145
 1728SOL    HW116643   1.353   4.623   2.638 -0.5651 -1.4962 -0.3386
 1728SOL    HW216644   1.266   4.570   2.742 -0.1839  2.5577  2.1997
 1729SOL     OW16645   3.865   0.058   2.078  0.0140  0.0128  0.2073
 1729SOL    HW116646   3.816   0.007   2.014  2.2183 -0.0024 -1.4536
 1729SOL    HW216647   3.925   4.710   2.096  0.0539 -0.3708 -1.4908
 1730SOL     OW16648   2.661   2.388  13.258  0.2975 -0.5422  0.1539
 1730SOL    HW116649   2.569   2.411  13.240  0.4857  1.6530  1.8522
 1730SOL    HW216650   2.692   2.477  13.240 -0.9074 -0.0024  0.6838
 1731SOL     OW16651   0.519   1.191   3.772 -0.8843 -0.2935  0.5698
 1731SOL    HW116652   0.536   1.275   3.731 -0.6544  0.7034  2.6819
 1731SOL    HW216653   0.594   1.191   3.831 -2.7023 -0.8778  2.8851
 1732SOL     OW16654   0.233   2.185  13.235  0.0917 -0.2902 -0.2285
 1732SOL    HW116655   0.178   2.257  13.204  2.1760  0.9997 -0.9179
 1732SOL    HW216656   0.225   2.180  13.330 -0.9749 -0.3285 -0.3145
 1733SOL     OW16657   3.336   1.770   4.633 -0.0410 -0.0938 -0.7175
 1733SOL    HW116658   3.346   1.677   4.653 -1.0028 -0.0063  0.1869
 1733SOL    HW216659   3.378   1.820   4.702  0.4388 -1.4935  0.0007
 1734SOL     OW16660   3.523   2.900  10.269  0.4546  0.0730 -0.1597
 1734SOL    HW116661   3.552   2.951  10.193  1.7446  0.9668  0.9326
 1734SOL    HW216662   3.585   2.828  10.275 -0.4064 -0.4401  2.4216
 1735SOL     OW16663   0.531   3.016   3.274  0.4881  0.0182  0.5297
 1735SOL    HW116664   0.494   3.013   3.362 -0.0392  2.1522  0.3661
 1735SOL    HW216665   0.529   3.110   3.261  1.1232  0.3674  3.0030
 1736SOL     OW16666   1.877   0.512  17.376 -0.4197  0.0707 -0.0821
 1736SOL    HW116667   1.803   0.571  17.382  0.4576  0.7191  4.4562
 1736SOL    HW216668   1.887   0.511  17.471 -1.0768  0.2870 -0.0116
 1737SOL     OW16669   0.973   0.574   3.347 -0.3739 -0.0196 -0.1375
 1737SOL    HW116670   0.963   0.521   3.426  1.5540  0.3257  0.3337
 1737SOL    HW216671   0.895   0.539   3.304  0.1230 -2.0177  0.5975
 1738SOL     OW16672   1.431   1.153   7.495 -0.0195  0.1147  0.2313
 1738SOL    HW116673   1.372   1.103   7.437 -1.6283 -0.0392  1.9914
 1738SOL    HW216674   1.493   1.086   7.523 -1.3183  0.0365  2.8525
 1739SOL     OW16675   0.288   1.167   4.156 -0.1752 -0.0825 -0.4036
 1739SOL    HW116676   0.383   1.159   4.163 -0.3554 -1.2241  0.8008
 1739SOL    HW216677   0.282   1.246   4.102 -1.4272  1.0031  1.3141
 1740SOL     OW16678   2.289   1.497   4.625  0.1215 -0.0281 -0.2666
 1740SOL    HW116679   2.195   1.509   4.636  0.6222  1.6406  2.1431
 1740SOL    HW216680   2.285   1.440   4.548  0.7637 -2.1616  1.2918
 1741SOL     OW16681   2.398   2.345  14.166 -0.0931 -0.1535  0.2684
 1741SOL    HW116682   2.306   2.367  14.147 -0.4234 -0.7934  1.0843
 1741SOL    HW216683   2.438   2.427  14.193  1.5297 -0.7237 -0.4245
 1742SOL     OW16684   2.750   3.202   6.828 -0.0144 -0.0753 -0.2102
 1742SOL    HW116685   2.751   3.111   6.858 -1.9082  0.5272  1.6692
 1742SOL    HW216686   2.660   3.229   6.846  0.4505  1.9032 -0.8007
 1743SOL     OW16687   0.652   1.699  11.765  0.5813  0.6150 -0.1176
 1743SOL    HW116688   0.642   1.750  11.684  1.4099 -0.9224 -1.1926
 1743SOL    HW216689   0.739   1.721  11.799  2.3355  0.0666 -4.2321
 1744SOL     OW16690   4.186   2.768  12.716 -0.5184  0.1448 -0.0624
 1744SOL    HW116691   4.196   2.795  12.625  0.3421 -1.4430 -0.4362
 1744SOL    HW216692   4.275   2.781  12.748 -0.0273 -0.2924 -1.2543
 1745SOL     OW16693   1.349   2.842   6.207 -0.1207 -0.2926  0.0177
 1745SOL    HW116694   1.286   2.774   6.182 -1.1948 -0.5598  3.3517
 1745SOL    HW216695   1.427   2.788   6.212 -0.5547 -0.8886  0.3876
 1746SOL     OW16696   3.713   3.514   3.349  0.4333  0.2413 -0.0714
 1746SOL    HW116697   3.747   3.430   3.379 -0.9047  0.1449  1.1376
 1746SOL    HW216698   3.625   3.484   3.328  0.6456 -0.9639  0.7630
 1747SOL     OW16699   3.903   1.969   9.508  0.6959  0.2298  0.1166
 1747SOL    HW116700   3.837   1.903   9.530  3.2625 -2.5979 -0.7693
 1747SOL    HW216701   3.859   2.047   9.542 -0.7409 -1.0946  1.2683
 1748SOL     OW16702   3.545   3.732   3.200 -0.5337  0.3086 -0.1572
 1748SOL    HW116703   3.493   3.801   3.159 -1.4057  0.2724  0.8802
 1748SOL    HW216704   3.624   3.722   3.148 -0.3814  2.0057 -0.2564
 1749SOL     OW16705   2.667   1.176   6.341  0.0986 -0.0477 -0.2720
 1749SOL    HW116706   2.633   1.184   6.430 -3.5286 -0.4989 -1.5993
 1749SOL    HW216707   2.632   1.090   6.318  0.0762  0.0660 -0.6644
 1750SOL     OW16708   0.579   0.206  16.653 -0.0197 -0.0377  0.2163
 1750SOL    HW116709   0.666   0.168  16.637  0.4413  1.7846 -1.5516
 1750SOL    HW216710   0.590   0.285  16.600  1.1233 -2.1579 -2.6603
 1751SOL     OW16711   1.671   0.342   5.342 -0.5395 -0.0685  0.2830
 1751SOL    HW116712   1.659   0.247   5.344  2.7787 -0.5137 -0.3853
 1751SOL    HW216713   1.667   0.355   5.247 -0.2897  0.8335  0.3937
 1752SOL     OW16714   4.354   4.698  12.607 -0.0556  0.1149  0.0486
 1752SOL    HW116715   4.385   4.629  12.666  1.3163 -0.0455 -0.8672
 1752SOL    HW216716   4.311   0.031  12.670  1.7677 -0.2532  1.6392
 1753SOL     OW16717   3.499   3.526   7.852 -0.4517 -0.3306 -0.0440
 1753SOL    HW116718   3.527   3.588   7.785  1.5814 -1.0340  0.1352
 1753SOL    HW216719   3.458   3.580   7.919  1.0839  1.5489 -0.6120
 1754SOL     OW16720   1.449   2.655   0.909 -0.0049 -0.6051 -0.1023
 1754SOL    HW116721   1.537   2.655   0.945  0.6297 -1.7376 -1.6700
 1754SOL    HW216722   1.412   2.630   0.994  1.1322 -0.1278  0.5422
 1755SOL     OW16723   2.482   3.109   3.085 -0.0614 -0.2132  0.1245
 1755SOL    HW116724   2.530   3.122   3.003 -1.1450 -2.0826 -0.8174
 1755SOL    HW216725   2.433   3.030   3.065  0.5947 -0.3632 -0.8930
 1756SOL     OW16726   2.261   1.459   8.105  0.7536 -0.2900  0.0555
 1756SOL    HW116727   2.182   1.440   8.156  0.2810 -0.6431 -0.8005
 1756SOL    HW216728   2.322   1.482   8.175  0.3489 -0.1306  0.3542
 1757SOL     OW16729   1.913   0.148   2.160  0.0421  0.3250  0.2463
 1757SOL    HW116730   2.005   0.122   2.154 -0.2116  0.0296 -2.2119
 1757SOL    HW216731   1.912   0.221   2.098 -0.8892  0.0815 -0.0239
 1758SOL     OW16732   3.771   1.557   1.546  0.0785 -0.1598  0.6099
 1758SOL    HW116733   3.791   1.498   1.473 -0.3452 -0.6198  0.8676
 1758SOL    HW216734   3.856   1.602   1.552  0.1133  0.1715 -2.2320
 1759SOL     OW16735   0.737   1.995  17.389 -0.5011  0.0014  0.3465
 1759SOL    HW116736   0.645   1.980  17.411 -1.1402  2.0152 -0.9817
 1759SOL    HW216737   0.773   1.907  17.377  0.9251  0.5303  0.6739
 1760SOL     OW16738   2.766   3.326   7.542  0.6425  0.1465  0.2869
 1760SOL    HW116739   2.758   3.368   7.457  1.5686  0.9142  0.5804
 1760SOL    HW216740   2.860   3.335   7.561  1.2016 -0.4117 -2.2742
 1761SOL     OW16741   2.439   0.027   8.728 -0.1738  0.1531  0.4619
 1761SOL    HW116742   2.385   0.063   8.658  1.1958  0.9255 -0.2048
 1761SOL    HW216743   2.383   0.016   8.805 -1.1979  0.5115 -0.2321
 1762SOL     OW16744   1.199   2.778   2.069  0.9156 -0.1463  0.2065
 1762SOL    HW116745   1.235   2.749   1.985  1.9634 -1.2735  1.0406
 1762SOL    HW216746   1.281   2.820   2.095  1.5640 -1.4025  0.2306
 1763SOL     OW16747   0.386   4.266  11.375  0.0633  0.7547 -0.3713
 1763SOL    HW116748   0.417   4.177  11.359  0.8068  1.0312 -0.4434
 1763SOL    HW216749   0.370   4.299  11.287 -2.1529 -0.2618 -0.3538
 1764SOL     OW16750   0.869   3.506   0.006  0.2276 -0.3341 -0.3454
 1764SOL    HW116751   0.865   3.448  17.628  0.6847 -2.3321  1.1563
 1764SOL    HW216752   0.817   3.459   0.072 -0.5878  1.6201  0.4138
 1765SOL     OW16753   1.945   1.565   8.442  0.4518 -0.1383 -0.5696
 1765SOL    HW116754   1.941   1.473   8.466  0.3763 -0.4670 -1.8145
 1765SOL    HW216755   1.915   1.578   8.352 -0.3594 -0.3880 -0.3370
 1766SOL     OW16756   2.693   0.083   4.854  0.1563  0.2247  0.2852
 1766SOL    HW116757   2.652   0.160   4.893  0.4810  0.9919 -0.8894
 1766SOL    HW216758   2.678   0.022   4.926  2.1606  0.5198  0.9508
 1767SOL     OW16759   0.847   3.210  15.105  0.1864 -0.0115  0.3235
 1767SOL    HW116760   0.922   3.152  15.090 -0.4451 -0.9664  0.8524
 1767SOL    HW216761   0.795   3.177  15.032  0.6211  0.6962 -0.3026
 1768SOL     OW16762   1.858   4.412   6.760  0.1542  0.4402 -0.5480
 1768SOL    HW116763   1.908   4.400   6.841 -0.4887  1.8631  0.0544
 1768SOL    HW216764   1.841   4.319   6.744  1.7017 -0.5943  3.8328
 1769SOL     OW16765   0.986   0.354   8.578  0.4475  0.4659 -0.0244
 1769SOL    HW116766   1.017   0.334   8.666 -1.6910 -0.5600  0.4962
 1769SOL    HW216767   0.979   0.450   8.575  1.0043  0.4125 -2.9160
 1770SOL     OW16768   1.350   2.828   7.131  0.3987  0.1683  0.1654
 1770SOL    HW116769   1.387   2.808   7.217 -1.1646  0.3778  0.8787
 1770SOL    HW216770   1.387   2.915   7.114  0.3978  0.0898 -0.2430
 1771SOL     OW16771   3.106   3.660   3.552 -0.6056  0.3041  0.0058
 1771SOL    HW116772   3.152   3.664   3.468  0.5447 -0.2984  0.6065
 1771SOL    HW216773   3.173   3.630   3.614 -2.1509  1.0339  2.0297
 1772SOL     OW16774   0.378   0.841  11.245  0.1373 -0.0856 -0.0318
 1772SOL    HW116775   0.330   0.918  11.275 -0.7879 -0.2708 -0.9937
 1772SOL    HW216776   0.303   0.796  11.204  0.2936 -0.7729  0.4492
 1773SOL     OW16777   1.084   0.649   7.788 -0.7843  0.1962 -0.2502
 1773SOL    HW116778   1.114   0.602   7.866 -0.1603 -1.3124 -1.3906
 1773SOL    HW216779   1.074   0.736   7.827 -1.1617 -0.6887  1.6021
 1774SOL     OW16780   3.089   3.180  16.137 -0.2452 -0.4538 -0.1610
 1774SOL    HW116781   3.078   3.177  16.232 -1.7050 -1.2827 -0.3598
 1774SOL    HW216782   3.089   3.089  16.106 -1.4687 -0.4326 -0.2015
 1775SOL     OW16783   3.289   0.277  14.344  0.2046  0.0118 -0.1853
 1775SOL    HW116784   3.362   0.329  14.309 -0.4694  1.4381  0.4987
 1775SOL    HW216785   3.251   0.255  14.259 -0.8487 -0.3524  0.3845
 1776SOL     OW16786   3.879   4.261   7.642  0.2462 -0.0637  0.0647
 1776SOL    HW116787   3.940   4.236   7.573  1.3248 -1.0328  1.3793
 1776SOL    HW216788   3.903   4.353   7.651  1.3485 -0.3517 -0.0290
 1777SOL     OW16789   1.332   1.405   3.958  0.1188  0.1993  0.0207
 1777SOL    HW116790   1.277   1.430   4.032 -1.4980 -1.0917 -0.7425
 1777SOL    HW216791   1.364   1.487   3.921  0.9380 -0.4506 -0.7365
 1778SOL     OW16792   4.229   0.698   4.998  0.7473  0.3174 -0.6041
 1778SOL    HW116793   4.141   0.664   5.017  1.4928 -1.2605 -0.0218
 1778SOL    HW216794   4.211   0.790   5.018  0.5946  0.2753 -0.5432
 1779SOL     OW16795   0.382   1.411   9.981  0.3129  0.4543 -0.2234
 1779SOL    HW116796   0.399   1.352   9.907  0.2892 -0.3316  0.3990
 1779SOL    HW216797   0.295   1.440   9.956 -0.2547 -1.0277  0.0504
 1780SOL     OW16798   3.145   0.969   8.887  0.2901 -0.4256  0.2393
 1780SOL    HW116799   3.174   1.003   8.972  1.5363  0.0344 -0.3692
 1780SOL    HW216800   3.112   1.046   8.842  0.0701 -0.7324 -0.1254
 1781SOL     OW16801   3.726   3.954   5.655 -0.2596  0.2236  0.6559
 1781SOL    HW116802   3.703   3.865   5.631 -1.2929  1.1294 -1.6859
 1781SOL    HW216803   3.820   3.948   5.641 -0.4572  0.1834 -0.6410
 1782SOL     OW16804   0.929   1.397   7.705  0.3282  0.2470  0.4960
 1782SOL    HW116805   0.901   1.336   7.637  0.0933 -0.1808  0.9764
 1782SOL    HW216806   0.913   1.482   7.665  3.4508  0.9184  0.6637
 1783SOL     OW16807   0.405   0.094   7.711  0.1766 -0.0240 -0.1621
 1783SOL    HW116808   0.326   0.044   7.688  1.2102 -1.3372 -0.8118
 1783SOL    HW216809   0.466   0.022   7.725 -1.2222 -1.0750  0.5770
 1784SOL     OW16810   2.661   0.855   9.679  0.0250  0.4609 -0.4337
 1784SOL    HW116811   2.697   0.931   9.634  0.3560 -0.4856 -1.7490
 1784SOL    HW216812   2.576   0.893   9.703 -0.3645 -0.7478  0.0964
 1785SOL     OW16813   1.849   3.146  11.301  0.3351  0.1785  0.1001
 1785SOL    HW116814   1.905   3.194  11.240  1.6110  0.2907  1.3704
 1785SOL    HW216815   1.840   3.062  11.256  2.1701 -1.0773  2.0989
 1786SOL     OW16816   2.168   2.225  12.732 -0.1815 -0.1932 -0.4041
 1786SOL    HW116817   2.120   2.235  12.649  1.3481 -1.2016 -1.4204
 1786SOL    HW216818   2.164   2.315  12.763  0.5303 -0.2785 -0.0588
 1787SOL     OW16819   2.958   0.515   2.137 -0.1160 -0.2252  0.2002
 1787SOL    HW116820   3.017   0.577   2.094 -0.5421  0.1990  0.2278
 1787SOL    HW216821   2.981   0.427   2.108  0.2799  0.0832 -0.4361
 1788SOL     OW16822   1.619   3.524   4.684 -0.0429 -0.2765  0.0531
 1788SOL    HW116823   1.600   3.438   4.645  0.3784  0.2059 -1.2203
 1788SOL    HW216824   1.678   3.507   4.757  0.6400 -2.0581 -0.9288
 1789SOL     OW16825   1.400   3.283  16.427  0.0215  0.0228  0.1904
 1789SOL    HW116826   1.467   3.231  16.472  1.1444  0.7484 -0.6472
 1789SOL    HW216827   1.370   3.324  16.508 -0.3251 -1.7180  0.9402
 1790SOL     OW16828   1.471   1.885  12.573  0.1538 -0.0083  0.3554
 1790SOL    HW116829   1.443   1.943  12.503  0.9552  3.8266  3.2012
 1790SOL    HW216830   1.403   1.906  12.636 -0.3482 -1.7456  0.3882
 1791SOL     OW16831   0.641   1.406  10.086 -0.7190 -0.4197  0.0750
 1791SOL    HW116832   0.674   1.478  10.140  1.1849 -0.6164 -0.8011
 1791SOL    HW216833   0.558   1.439  10.052  0.1561  1.5676 -0.1577
 1792SOL     OW16834   2.916   2.708   2.699  0.1875 -0.7323 -0.1487
 1792SOL    HW116835   2.842   2.767   2.690 -1.0112 -2.1093  0.5557
 1792SOL    HW216836   2.958   2.724   2.615  0.7289 -2.0738 -0.1415
 1793SOL     OW16837   1.792   2.735  14.629 -1.7964  0.2328 -0.2798
 1793SOL    HW116838   1.811   2.816  14.583  0.7098  1.3745  2.7655
 1793SOL    HW216839   1.832   2.770  14.708 -2.6644 -0.7393  0.6070
 1794SOL     OW16840   0.800   2.806   6.658  0.4676  0.1425  0.3549
 1794SOL    HW116841   0.791   2.898   6.633 -3.6759  0.3277  2.5627
 1794SOL    HW216842   0.829   2.806   6.749  0.5339 -0.1428  0.3334
 1795SOL     OW16843   4.694   2.316  11.159  0.0291  0.5048  0.3379
 1795SOL    HW116844   0.025   2.386  11.124 -2.0983  2.0336 -0.0133
 1795SOL    HW216845   4.646   2.287  11.081 -0.2717  1.1213  0.2902
 1796SOL     OW16846   0.121   0.921   7.563  0.3062 -0.6907 -0.2514
 1796SOL    HW116847   0.096   0.859   7.631 -1.7934 -1.1684 -1.4496
 1796SOL    HW216848   0.096   0.874   7.484  1.1136 -0.7716 -0.4636
 1797SOL     OW16849   1.957   0.630  15.954  0.5041  0.4487  0.0935
 1797SOL    HW116850   2.012   0.629  15.876 -1.9182  1.5888 -1.6123
 1797SOL    HW216851   1.870   0.658  15.926  0.7776 -0.1342 -1.3269
 1798SOL     OW16852   2.273   3.409   1.021  0.5162  0.0011 -1.1291
 1798SOL    HW116853   2.226   3.334   0.983  2.7146 -2.1742  0.3838
 1798SOL    HW216854   2.324   3.446   0.950 -0.0587 -0.5394 -1.8266
 1799SOL     OW16855   1.807   1.130  10.592  0.0828  0.4987  0.5319
 1799SOL    HW116856   1.834   1.221  10.602  0.9352  0.1999  0.9775
 1799SOL    HW216857   1.884   1.096  10.638  2.0515  3.1757 -0.7704
 1800SOL     OW16858   1.829   4.043   5.838  0.5507  0.0940 -0.2858
 1800SOL    HW116859   1.905   4.098   5.858 -1.1239  1.9748  0.8345
 1800SOL    HW216860   1.862   3.955   5.824 -0.5904  0.1518 -3.3031
 1801SOL     OW16861   4.550   4.371   4.279 -0.1988  0.0233  0.5491
 1801SOL    HW116862   4.464   4.377   4.321 -0.1245 -0.1766  0.7252
 1801SOL    HW216863   4.549   4.467   4.274 -2.8661 -0.1088 -1.2486
 1802SOL     OW16864   4.661   4.240   8.225 -0.2825  0.0356 -0.3075
 1802SOL    HW116865   4.659   4.321   8.276 -1.2410  0.2552 -0.6940
 1802SOL    HW216866   0.028   4.218   8.243 -0.2562 -1.9975 -2.9612
 1803SOL     OW16867   4.609   4.233   6.077  0.3167 -0.2031  0.3721
 1803SOL    HW116868   4.690   4.275   6.105 -0.0192  0.1557  0.8133
 1803SOL    HW216869   4.627   4.211   5.986 -1.1785  0.8162 -0.1794
 1804SOL     OW16870   1.409   1.420   4.338 -0.0525 -0.0183  0.7503
 1804SOL    HW116871   1.453   1.351   4.389  0.7765 -0.0857 -0.0398
 1804SOL    HW216872   1.320   1.409   4.370 -0.8410  2.2728 -0.7137
 1805SOL     OW16873   3.888   4.693   7.344  0.0361  0.4672  0.4698
 1805SOL    HW116874   3.955   0.032   7.317  1.5765 -1.2087  0.3986
 1805SOL    HW216875   3.849   4.662   7.263 -3.0185 -1.3650  2.6455
 1806SOL     OW16876   1.483   3.966   8.095  0.0408  0.5330  0.1922
 1806SOL    HW116877   1.546   3.932   8.031 -0.7038 -2.2006  0.8856
 1806SOL    HW216878   1.527   4.043   8.131 -1.0051  0.8947  0.6846
 1807SOL     OW16879   1.316   4.390   9.901 -0.2046  0.1565  0.1713
 1807SOL    HW116880   1.331   4.323   9.835  1.4681 -0.9298  1.6555
 1807SOL    HW216881   1.345   4.337   9.976  2.2738  2.0383  0.5445
 1808SOL     OW16882   3.328   1.232   1.402  0.3431  0.0528 -0.0265
 1808SOL    HW116883   3.310   1.178   1.479  1.7269  0.2463  0.4309
 1808SOL    HW216884   3.240   1.230   1.364  1.2813  0.8122 -2.2396
 1809SOL     OW16885   3.580   0.663   9.646  0.2927  0.5083  0.7594
 1809SOL    HW116886   3.567   0.607   9.722  1.2102  0.5620  0.9535
 1809SOL    HW216887   3.674   0.677   9.651  0.1989  1.5437 -0.3871
 1810SOL     OW16888   3.579   4.397   4.600  0.3654  0.3147 -0.2827
 1810SOL    HW116889   3.524   4.443   4.663  1.4952  1.0817  0.1359
 1810SOL    HW216890   3.556   4.428   4.513  1.3800 -0.2557 -0.7629
 1811SOL     OW16891   0.549   1.124   4.195  0.0739  0.6117  0.5252
 1811SOL    HW116892   0.525   1.134   4.287  1.0476  2.5268  0.5784
 1811SOL    HW216893   0.629   1.073   4.205 -0.5734 -0.3393  0.8488
 1812SOL     OW16894   2.895   1.307   2.678 -0.9226  0.3525 -0.7410
 1812SOL    HW116895   2.869   1.348   2.596 -0.4303  1.3666 -0.3971
 1812SOL    HW216896   2.837   1.232   2.671 -0.1759 -0.2288 -0.6938
 1813SOL     OW16897   1.645   0.038   1.600 -0.3447 -0.0949 -0.3299
 1813SOL    HW116898   1.593   4.692   1.641  0.0982 -0.7428 -0.8724
 1813SOL    HW216899   1.682   0.066   1.684 -1.2643  2.4415 -0.7736
 1814SOL     OW16900   2.849   4.243  15.411  0.0860 -0.4127  0.1277
 1814SOL    HW116901   2.771   4.235  15.357 -0.1691 -0.1528  0.4639
 1814SOL    HW216902   2.835   4.174  15.475  0.1415  0.7756  1.4033
 1815SOL     OW16903   0.099   4.234  16.133 -0.1465 -0.2922 -0.5570
 1815SOL    HW116904   0.133   4.259  16.047  0.0023 -1.3286 -0.7964
 1815SOL    HW216905   0.016   4.191  16.112  0.6055 -2.6093  1.1886
 1816SOL     OW16906   4.285   3.268   5.074  0.1335 -0.5612 -0.1887
 1816SOL    HW116907   4.189   3.278   5.072  0.0999 -0.3889  2.7455
 1816SOL    HW216908   4.299   3.232   4.986 -1.2903 -1.0572 -0.2263
 1817SOL     OW16909   0.265   2.310  16.827 -0.2900 -0.3136  0.4167
 1817SOL    HW116910   0.348   2.303  16.780  0.0712  2.4100  0.6409
 1817SOL    HW216911   0.266   2.234  16.884  2.6628 -0.7121 -0.1757
 1818SOL     OW16912   1.024   2.229  16.121  0.5838 -0.1295  0.2861
 1818SOL    HW116913   1.105   2.193  16.158  0.4218 -2.1939 -1.3394
 1818SOL    HW216914   1.028   2.320  16.151  0.2361 -0.2442  0.6897
 1819SOL     OW16915   0.402   1.549   6.517  0.1137  0.0523  0.3421
 1819SOL    HW116916   0.360   1.587   6.440 -2.3309 -2.3114  0.5175
 1819SOL    HW216917   0.324   1.516   6.561 -0.8567 -0.6595 -1.9325
 1820SOL     OW16918   4.281   0.896   4.119  0.4543 -0.2370  0.0655
 1820SOL    HW116919   4.294   0.931   4.031  0.8973  2.4431  1.1662
 1820SOL    HW216920   4.359   0.845   4.141  0.6460  0.7787  1.7984
 1821SOL     OW16921   2.037   0.097  11.469  0.8926 -0.5351 -0.4461
 1821SOL    HW116922   2.059   0.033  11.537  0.0204  2.3057  2.4681
 1821SOL    HW216923   1.962   0.139  11.511  0.9043 -1.1811  0.2246
 1822SOL     OW16924   2.227   0.390   6.249  0.1708 -0.2505 -0.7200
 1822SOL    HW116925   2.155   0.392   6.312 -0.8097  0.3335 -1.8755
 1822SOL    HW216926   2.175   0.363   6.174  0.9084 -2.5488 -0.4047
 1823SOL     OW16927   2.308   4.134  12.506  0.3514 -0.1445  0.1653
 1823SOL    HW116928   2.239   4.198  12.524 -1.1157 -1.3432 -1.2267
 1823SOL    HW216929   2.264   4.063  12.458  0.8025 -0.1851 -0.1900
 1824SOL     OW16930   3.040   0.823  15.893  0.1438 -0.2166 -0.0024
 1824SOL    HW116931   2.951   0.827  15.927 -0.1620 -1.0181 -0.6911
 1824SOL    HW216932   3.022   0.840  15.800  1.0057 -1.8918 -0.4745
 1825SOL     OW16933   0.368   3.570  12.566  1.0697  0.7265 -0.0602
 1825SOL    HW116934   0.374   3.632  12.638  0.0707  0.7213  0.0353
 1825SOL    HW216935   0.461   3.553  12.553  0.7018 -2.3440  1.3038
 1826SOL     OW16936   0.564   4.058   4.530  0.0700  0.2415  0.1208
 1826SOL    HW116937   0.498   4.024   4.590  0.2253 -0.5075 -0.1305
 1826SOL    HW216938   0.649   4.066   4.574  0.4950  1.2533 -0.8903
 1827SOL     OW16939   0.459   1.940   9.466  0.5647 -0.1982 -0.5826
 1827SOL    HW116940   0.394   1.901   9.524  0.4682  1.4284  0.4039
 1827SOL    HW216941   0.425   1.924   9.378 -0.8150 -1.5353  0.2010
 1828SOL     OW16942   3.559   0.239   6.065 -0.3438 -0.0562  0.0529
 1828SOL    HW116943   3.497   0.176   6.027 -0.5698 -0.1681  0.6006
 1828SOL    HW216944   3.531   0.263   6.153  0.9507  0.3152  0.3577
 1829SOL     OW16945   4.004   0.271   3.056 -0.3616 -0.6183  0.4139
 1829SOL    HW116946   4.011   0.335   3.126 -2.6408  0.3427 -0.2622
 1829SOL    HW216947   3.960   0.313   2.982  0.0970 -0.5164  0.1989
 1830SOL     OW16948   1.632   0.086  14.972  0.2193 -0.0377  0.0926
 1830SOL    HW116949   1.684   0.089  14.892 -1.5502 -1.0575 -1.0981
 1830SOL    HW216950   1.552   0.058  14.927  0.7396  1.9808 -2.0989
 1831SOL     OW16951   3.946   2.628   4.292 -0.0547  0.7334  0.0284
 1831SOL    HW116952   3.991   2.561   4.241 -0.2195  1.6084 -1.2749
 1831SOL    HW216953   3.998   2.627   4.373 -0.6146  0.3458  0.3777
 1832SOL     OW16954   1.302   0.684   2.632  0.2250  0.2354 -0.1176
 1832SOL    HW116955   1.361   0.695   2.557 -1.2771  0.0454 -1.3188
 1832SOL    HW216956   1.314   0.595   2.665  1.3671  1.0638  1.7443
 1833SOL     OW16957   3.187   2.641   3.208 -0.5779  0.0556 -0.4673
 1833SOL    HW116958   3.176   2.547   3.223 -0.0888  0.0890  0.0821
 1833SOL    HW216959   3.177   2.664   3.300  2.2675  0.3024 -0.2160
 1834SOL     OW16960   2.512   4.703   5.592 -0.4219  0.3621 -0.0043
 1834SOL    HW116961   2.500   4.617   5.633  1.2020 -0.8595 -2.0597
 1834SOL    HW216962   2.425   0.012   5.573 -0.6582 -0.3658 -0.2144
 1835SOL     OW16963   0.563   3.779  16.387  0.4476 -0.2346 -0.0382
 1835SOL    HW116964   0.531   3.865  16.361 -1.3138 -0.8178  0.2162
 1835SOL    HW216965   0.654   3.780  16.357  0.3280 -0.6669 -0.4215
 1836SOL     OW16966   2.317   3.270   5.508 -0.2064 -0.2704  0.0312
 1836SOL    HW116967   2.254   3.212   5.552 -0.5624 -0.4846 -0.7535
 1836SOL    HW216968   2.404   3.245   5.540  0.1218  1.6577  0.6122
 1837SOL     OW16969   1.641   4.124  12.287 -0.1037 -0.0154 -0.0770
 1837SOL    HW116970   1.674   4.131  12.377  1.0180 -2.6426 -0.2901
 1837SOL    HW216971   1.652   4.029  12.284  0.1270  0.0442 -0.9402
 1838SOL     OW16972   0.087   1.988   6.352  0.2041 -0.0550  0.2864
 1838SOL    HW116973   0.147   2.060   6.332 -0.7205  0.0200 -2.2689
 1838SOL    HW216974   0.141   1.923   6.396 -0.4557 -1.4564 -0.9598
 1839SOL     OW16975   0.320   0.634   9.851 -0.0304 -0.0077 -0.0286
 1839SOL    HW116976   0.271   0.574   9.907  0.8062  1.3496  2.1625
 1839SOL    HW216977   0.270   0.714   9.866  2.1199  1.5048 -0.9348
 1840SOL     OW16978   1.040   2.602   0.994 -0.2150  0.5609 -0.0831
 1840SOL    HW116979   1.035   2.578   1.087  1.1478  0.0772 -0.1385
 1840SOL    HW216980   1.087   2.534   0.948 -0.7786 -0.3469  0.6806
 1841SOL     OW16981   4.393   2.399   6.615 -0.4870  0.1307 -0.1723
 1841SOL    HW116982   4.340   2.327   6.650  0.2718  0.1181  0.9397
 1841SOL    HW216983   4.479   2.385   6.656 -1.3854 -0.1402  1.6420
 1842SOL     OW16984   3.387   4.717  14.817 -0.5688 -0.0460 -0.0515
 1842SOL    HW116985   3.410   4.637  14.770 -1.2489 -0.0916 -0.3011
 1842SOL    HW216986   3.364   4.687  14.905  3.3251 -0.0417  0.9853
 1843SOL     OW16987   0.509   2.172  15.530  0.0305  0.3570 -0.0895
 1843SOL    HW116988   0.441   2.108  15.550  1.5353  0.2741  4.7699
 1843SOL    HW216989   0.557   2.135  15.456 -1.6953 -1.1965 -0.4318
 1844SOL     OW16990   4.081   2.164  14.259  0.0031  0.0642 -0.0352
 1844SOL    HW116991   4.026   2.235  14.290  1.5363 -0.0109  2.8543
 1844SOL    HW216992   4.155   2.179  14.318 -1.2927 -0.8562  1.8348
 1845SOL     OW16993   1.336   2.533  12.320  0.1725 -0.1085  0.4074
 1845SOL    HW116994   1.404   2.477  12.358  0.4025  0.5812  1.0140
 1845SOL    HW216995   1.360   2.612  12.368  0.0239 -1.1097  2.1233
 1846SOL     OW16996   3.048   3.788   8.191  0.2598  0.2093  0.2096
 1846SOL    HW116997   3.027   3.705   8.234  0.8110 -1.2747 -2.4044
 1846SOL    HW216998   3.005   3.856   8.243  0.0097  0.5009 -0.3724
 1847SOL     OW16999   0.345   4.296   9.350  0.0488 -0.4849 -0.4828
 1847SOL    HW117000   0.373   4.209   9.324  2.2466 -0.4810  1.8722
 1847SOL    HW217001   0.355   4.296   9.445 -1.2624 -0.8056 -0.3438
 1848SOL     OW17002   0.696   1.936   6.528 -0.0251 -0.1233 -0.1620
 1848SOL    HW117003   0.690   1.853   6.480 -0.6954 -0.1599 -0.0014
 1848SOL    HW217004   0.735   1.919   6.614 -2.8159 -2.2325  0.6702
 1849SOL     OW17005   0.481   4.033   2.199 -0.0732  0.3280 -0.4725
 1849SOL    HW117006   0.419   4.054   2.129  0.2769  0.4304 -0.7538
 1849SOL    HW217007   0.553   4.089   2.171 -0.1844 -0.1895 -1.7966
 1850SOL     OW17008   1.372   1.958   8.231  0.1434  0.8459 -0.1498
 1850SOL    HW117009   1.385   2.053   8.231  2.1675  0.5598  1.8632
 1850SOL    HW217010   1.453   1.936   8.275  0.1035 -0.2300 -0.6268
 1851SOL     OW17011   4.704   4.419   7.132 -0.9352 -0.4357  0.3159
 1851SOL    HW117012   0.036   4.345   7.156 -0.1164 -0.0632 -0.4469
 1851SOL    HW217013   0.048   4.486   7.130  1.2677 -2.6304  1.8463
 1852SOL     OW17014   3.868   1.761   5.896  0.2053 -0.0408  0.1618
 1852SOL    HW117015   3.824   1.806   5.824  0.7962 -1.5871 -1.1803
 1852SOL    HW217016   3.959   1.782   5.876  0.3216  0.4997  1.2559
 1853SOL     OW17017   0.065   1.302   6.260 -0.6046  0.1738 -0.2710
 1853SOL    HW117018   0.090   1.228   6.317  0.1408  0.1744 -0.5981
 1853SOL    HW217019   0.078   1.266   6.173 -0.7538  3.0057 -1.4491
 1854SOL     OW17020   0.697   3.207  17.513 -0.1552 -0.3446  0.6516
 1854SOL    HW117021   0.672   3.120  17.546 -3.6771  0.5557  0.3095
 1854SOL    HW217022   0.614   3.236  17.476  0.6908 -0.6007 -1.4088
 1855SOL     OW17023   3.967   1.402  14.316 -0.1913  0.7635  0.1654
 1855SOL    HW117024   4.039   1.360  14.362 -1.0016  0.8934  1.5351
 1855SOL    HW217025   3.985   1.495  14.334 -1.0221  0.7686  0.9619
 1856SOL     OW17026   2.341   4.098   1.949  0.3987 -0.2129  0.0830
 1856SOL    HW117027   2.355   4.100   1.854 -3.5204 -2.6740 -0.5321
 1856SOL    HW217028   2.266   4.158   1.948  1.2940  0.9204 -1.6373
 1857SOL     OW17029   0.249   2.822  10.650  0.8095 -0.3123  0.0093
 1857SOL    HW117030   0.312   2.855  10.714 -0.8356  1.0288  0.9252
 1857SOL    HW217031   0.292   2.843  10.567  0.8764 -1.1288 -0.1676
 1858SOL     OW17032   0.782   2.500   9.810  0.1822  0.2843  0.1185
 1858SOL    HW117033   0.805   2.593   9.811  1.1732  0.0528 -1.2008
 1858SOL    HW217034   0.870   2.464   9.815 -0.2696 -0.7815  0.4615
 1859SOL     OW17035   1.386   1.684   9.383 -0.2598  0.1918 -0.1528
 1859SOL    HW117036   1.411   1.648   9.468  1.0269  2.5468  0.4538
 1859SOL    HW217037   1.317   1.626   9.349 -0.1023 -1.3539  2.1544
 1860SOL     OW17038   1.809   0.263   0.307  0.1769 -0.6111 -0.0340
 1860SOL    HW117039   1.828   0.263   0.213  0.2862 -1.7107 -0.0093
 1860SOL    HW217040   1.798   0.168   0.315 -1.4171 -0.2435  1.8995
 1861SOL     OW17041   4.081   2.964   8.659 -0.2451 -0.1542  0.0170
 1861SOL    HW117042   4.168   2.991   8.689 -0.2840 -0.0300  0.0193
 1861SOL    HW217043   4.100   2.959   8.566 -1.1859  0.9845 -0.2429
 1862SOL     OW17044   0.717   1.262   1.960 -0.7450  0.0434 -0.0406
 1862SOL    HW117045   0.805   1.249   1.924 -1.8393 -1.2447 -2.3332
 1862SOL    HW217046   0.738   1.273   2.052 -0.9282 -0.7086  0.0972
 1863SOL     OW17047   2.431   3.992   4.933 -0.1489  0.1846 -0.1951
 1863SOL    HW117048   2.374   3.916   4.945 -0.1457  0.1590 -0.3341
 1863SOL    HW217049   2.507   3.958   4.883  0.2821 -0.7022  1.0637
 1864SOL     OW17050   4.201   4.695   3.434 -0.2272  0.0121  0.0976
 1864SOL    HW117051   4.148   4.643   3.374  0.6962  2.9427 -3.3263
 1864SOL    HW217052   4.139   0.039   3.460 -1.8171 -1.9234  1.3622
 1865SOL     OW17053   2.212   3.949   0.632  0.1338 -0.4881 -0.1140
 1865SOL    HW117054   2.286   4.006   0.614  0.2078  0.3309  2.7957
 1865SOL    HW217055   2.155   4.002   0.688  0.3918  0.7294 -1.0011
 1866SOL     OW17056   1.384   4.317   1.417  0.5117  0.2204 -0.0553
 1866SOL    HW117057   1.338   4.252   1.363 -1.2168  0.0042  1.6432
 1866SOL    HW217058   1.315   4.374   1.452  2.0580 -0.7170  4.4889
 1867SOL     OW17059   3.253   3.642   1.418  0.8166  0.0936  0.1463
 1867SOL    HW117060   3.256   3.661   1.324  2.2166  0.9014  0.3695
 1867SOL    HW217061   3.162   3.611   1.416  0.5978  0.6423  1.3861
 1868SOL     OW17062   3.751   2.916   0.510 -0.6888  0.3720  0.4497
 1868SOL    HW117063   3.673   2.956   0.548 -0.8282  0.8924 -0.3955
 1868SOL    HW217064   3.742   2.926   0.415  0.1013 -1.1839  0.2062
 1869SOL     OW17065   2.136   2.514  14.867 -0.1459 -0.7491 -0.0324
 1869SOL    HW117066   2.216   2.464  14.853 -0.5626 -0.7041 -2.4975
 1869SOL    HW217067   2.080   2.453  14.914 -0.6560 -1.1087 -1.1008
 1870SOL     OW17068   1.195   2.135   8.940 -0.0381  0.6702  0.4156
 1870SOL    HW117069   1.168   2.173   8.857 -2.3193  1.7233  1.6204
 1870SOL    HW217070   1.288   2.116   8.938  0.4162  2.7477  1.4840
 1871SOL     OW17071   2.508   3.439  16.097  0.0548  0.1121  0.1537
 1871SOL    HW117072   2.456   3.400  16.168 -2.2931  3.5680  0.3242
 1871SOL    HW217073   2.555   3.515  16.129 -1.1568  0.8202  0.2288
 1872SOL     OW17074   3.794   3.783  11.986 -0.1294 -0.4334  0.1983
 1872SOL    HW117075   3.832   3.869  11.967 -1.2638  0.7167  3.1134
 1872SOL    HW217076   3.802   3.777  12.081 -1.1407 -1.2108  0.2369
 1873SOL     OW17077   1.007   3.795   6.065  0.6704  0.9335 -0.1954
 1873SOL    HW117078   1.032   3.805   6.157 -1.1441 -0.7822  0.4820
 1873SOL    HW217079   1.042   3.708   6.046  1.3831  1.3904 -1.0022
 1874SOL     OW17080   4.552   3.992  16.711  0.0197  0.2737  0.2949
 1874SOL    HW117081   4.588   3.931  16.776  1.2700 -0.2071 -0.8617
 1874SOL    HW217082   4.528   3.928  16.644  1.0894 -1.3920  1.4856
 1875SOL     OW17083   3.683   2.483  15.701 -0.1883 -0.1259 -0.3094
 1875SOL    HW117084   3.770   2.445  15.688  0.7803  2.0550 -0.1513
 1875SOL    HW217085   3.627   2.421  15.653  0.3195  0.0885 -1.1686
 1876SOL     OW17086   2.862   0.665   2.607 -0.0850  0.4323  0.1867
 1876SOL    HW117087   2.895   0.621   2.686 -0.1032  0.4414  0.1993
 1876SOL    HW217088   2.881   0.598   2.541 -1.5460 -0.1826  0.3824
 1877SOL     OW17089   4.429   1.350   5.504  0.2631 -0.1417  0.4852
 1877SOL    HW117090   4.469   1.399   5.432  0.8053  1.2242  1.7250
 1877SOL    HW217091   4.338   1.356   5.474  0.3690  0.7805  0.3598
 1878SOL     OW17092   4.142   3.883   5.190 -0.7519  0.2896 -0.7021
 1878SOL    HW117093   4.100   3.919   5.268 -0.5477 -1.8686  0.3997
 1878SOL    HW217094   4.071   3.847   5.136 -0.0484  1.9204 -2.7251
 1879SOL     OW17095   2.973   4.674   5.618  0.5269 -1.2291  0.7778
 1879SOL    HW117096   2.899   0.001   5.585  1.3289  0.2967  1.3371
 1879SOL    HW217097   2.933   4.646   5.701  0.9482 -0.4555  1.2354
 1880SOL     OW17098   4.212   1.605  12.297 -0.5780  0.2700 -0.1177
 1880SOL    HW117099   4.249   1.523  12.329 -0.0529  0.6296  0.2010
 1880SOL    HW217100   4.271   1.672  12.331 -0.4316  0.4943 -0.8133
 1881SOL     OW17101   0.001   1.119  16.496 -0.7396 -0.1910  0.4403
 1881SOL    HW117102   4.719   1.174  16.418  0.4826  0.1911  0.6109
 1881SOL    HW217103   4.694   1.039  16.454  2.1287  0.3992 -2.7457
 1882SOL     OW17104   2.955   2.621   9.753 -0.1844 -0.1799 -0.1521
 1882SOL    HW117105   2.886   2.683   9.774 -2.4812 -2.4013 -1.0907
 1882SOL    HW217106   3.039   2.667   9.757 -1.3072  1.8620 -0.4595
 1883SOL     OW17107   0.080   2.625  11.860  0.4009  0.7519 -0.1826
 1883SOL    HW117108   0.159   2.676  11.846  0.9884  0.0762  0.7221
 1883SOL    HW217109   0.040   2.627  11.773  0.3225 -1.1258 -0.2042
 1884SOL     OW17110   2.490   0.658   2.486  0.4841  0.2554  0.3335
 1884SOL    HW117111   2.448   0.728   2.536  1.8013  0.8062  0.6677
 1884SOL    HW217112   2.498   0.593   2.556 -0.5348  0.1687  0.3664
 1885SOL     OW17113   1.692   2.967  12.991 -0.3387 -0.2224 -0.5166
 1885SOL    HW117114   1.737   3.014  12.921  1.6135 -1.5225 -0.1181
 1885SOL    HW217115   1.645   2.905  12.934 -2.0391 -0.7208  1.4211
 1886SOL     OW17116   1.107   1.412   5.477 -0.4010 -0.2001  0.1682
 1886SOL    HW117117   1.030   1.462   5.505 -0.7563  0.0587 -1.2870
 1886SOL    HW217118   1.073   1.387   5.391 -0.0892  0.3355 -0.1053
 1887SOL     OW17119   3.564   0.533   7.339  0.1853  0.4583  0.5933
 1887SOL    HW117120   3.604   0.524   7.425 -1.3145  0.0643  1.2509
 1887SOL    HW217121   3.607   0.455   7.306  0.2698 -0.2156  2.2967
 1888SOL     OW17122   0.124   4.365   4.574  0.0323  0.4281  0.3183
 1888SOL    HW117123   0.080   4.280   4.579 -0.7079  0.9377  2.4962
 1888SOL    HW217124   0.212   4.328   4.561  0.5258  1.3522  1.0257
 1889SOL     OW17125   3.165   4.212   0.580  0.1324  0.0487  0.1761
 1889SOL    HW117126   3.240   4.161   0.612  0.4334 -1.6198 -3.1078
 1889SOL    HW217127   3.198   4.228   0.492 -0.9692  0.3936 -0.1679
 1890SOL     OW17128   1.023   4.465   7.553  0.1267 -0.3621  0.4189
 1890SOL    HW117129   1.092   4.525   7.526  0.1126 -0.5723 -0.0641
 1890SOL    HW217130   1.033   4.470   7.649  2.9541  0.3192  0.0720
 1891SOL     OW17131   2.544   0.037   7.365  0.2738 -0.0284 -0.1233
 1891SOL    HW117132   2.542   0.085   7.448  2.0074 -0.6519  0.2751
 1891SOL    HW217133   2.455   0.043   7.329  0.3590 -0.3483 -0.3866
 1892SOL     OW17134   3.677   4.136  13.936 -0.1411 -0.2352 -0.3118
 1892SOL    HW117135   3.646   4.137  14.027 -1.6296  0.7636 -0.8313
 1892SOL    HW217136   3.721   4.221  13.930 -0.4107 -0.1541 -1.1553
 1893SOL     OW17137   4.618   2.033   6.148  0.2193  0.1212 -0.3064
 1893SOL    HW117138   4.637   2.121   6.116  0.3434  0.8851  1.8093
 1893SOL    HW217139   4.686   2.013   6.212 -0.4338 -0.2310  0.2824
 1894SOL     OW17140   2.455   0.068   0.310  0.1851  0.0891 -0.6505
 1894SOL    HW117141   2.485   0.008   0.241  0.3675  0.9893 -1.3593
 1894SOL    HW217142   2.496   0.149   0.279 -1.1601  1.5612  1.4648
 1895SOL     OW17143   4.320   1.570   5.090 -0.6204 -0.6349  0.3516
 1895SOL    HW117144   4.231   1.576   5.126 -1.4242 -3.9069 -1.1617
 1895SOL    HW217145   4.333   1.483   5.127 -0.8195 -1.4929 -1.5923
 1896SOL     OW17146   2.529   2.750   8.423 -0.4867  0.9587 -0.1888
 1896SOL    HW117147   2.470   2.674   8.426 -0.5058  0.9185 -1.5316
 1896SOL    HW217148   2.476   2.825   8.398 -2.4773 -0.6854 -0.8839
 1897SOL     OW17149   2.812   1.110  13.445 -0.6848  0.0228  0.2310
 1897SOL    HW117150   2.878   1.044  13.464  0.1222  0.1704 -1.9907
 1897SOL    HW217151   2.864   1.180  13.407  1.6896  0.0034  3.4459
 1898SOL     OW17152   1.452   0.139   5.341 -0.5832 -0.0228 -0.0579
 1898SOL    HW117153   1.406   0.097   5.268  0.0279 -0.2206 -0.3332
 1898SOL    HW217154   1.393   0.214   5.346 -1.3532 -0.4624 -2.3342
 1899SOL     OW17155   4.722   2.140   4.237  0.9539 -0.2840 -0.0929
 1899SOL    HW117156   0.083   2.116   4.201  0.7119  1.7194 -1.9946
 1899SOL    HW217157   4.721   2.225   4.193 -1.0639  0.0601  0.6184
 1900SOL     OW17158   2.295   0.436   4.134  0.0647 -0.1655  0.4060
 1900SOL    HW117159   2.312   0.408   4.044 -0.5931  1.3146 -0.1863
 1900SOL    HW217160   2.200   0.441   4.126  0.4318  0.3856 -3.7178
 1901SOL     OW17161   2.021   3.042  13.762  0.0741  0.4153  0.1631
 1901SOL    HW117162   1.988   3.066  13.675 -0.8561 -0.0630  0.3829
 1901SOL    HW217163   1.956   2.974  13.780  0.4943 -0.6683 -2.4101
 1902SOL     OW17164   3.117   3.388   8.785  0.3980 -0.1097  0.0521
 1902SOL    HW117165   3.149   3.478   8.793  2.9874 -1.0780  0.5619
 1902SOL    HW217166   3.040   3.404   8.731  0.2841  0.0023  0.2468
 1903SOL     OW17167   1.612   4.531   0.981  0.0214  0.3472  0.1658
 1903SOL    HW117168   1.552   4.508   0.910  1.7684 -2.5504 -0.3641
 1903SOL    HW217169   1.568   4.516   1.065  0.6096  2.4149  0.8431
 1904SOL     OW17170   0.943   4.582   3.782 -0.2918 -0.0614  0.2765
 1904SOL    HW117171   0.904   4.502   3.746  2.7828 -0.9973 -0.9619
 1904SOL    HW217172   0.881   4.621   3.844 -0.3122 -0.7172  0.6637
 1905SOL     OW17173   1.550   3.518  17.290 -0.6448 -0.0343  0.1263
 1905SOL    HW117174   1.481   3.563  17.338  1.9976  2.7746  1.3003
 1905SOL    HW217175   1.638   3.537  17.323 -0.1161 -0.8019 -0.7970
 1906SOL     OW17176   2.735   0.762   5.147  0.2721 -0.1757  0.0693
 1906SOL    HW117177   2.645   0.789   5.132  0.1566 -0.9256 -0.5836
 1906SOL    HW217178   2.735   0.757   5.243 -0.9608 -2.5913 -0.0707
 1907SOL     OW17179   2.518   2.434   6.957  0.0228 -0.6620  0.3219
 1907SOL    HW117180   2.551   2.509   7.007 -2.6343  1.7841 -1.6024
 1907SOL    HW217181   2.469   2.475   6.886 -0.9013 -2.9742 -0.3968
 1908SOL     OW17182   2.014   4.549   6.575  0.1706 -0.3033  0.2428
 1908SOL    HW117183   1.974   4.636   6.586  1.2368  0.0015  1.6214
 1908SOL    HW217184   1.981   4.510   6.656  0.4537 -3.0366 -0.9693
 1909SOL     OW17185   0.369   2.887   5.706 -0.0365 -0.9009  0.3263
 1909SOL    HW117186   0.428   2.826   5.662  2.2227  0.1616  1.9101
 1909SOL    HW217187   0.421   2.967   5.710  2.0693 -2.2307 -0.9108
 1910SOL     OW17188   2.736   4.370   9.370  0.2030 -0.0014 -0.1421
 1910SOL    HW117189   2.685   4.439   9.327  0.2099 -0.7220 -1.2963
 1910SOL    HW217190   2.735   4.308   9.297  1.0597 -2.8374  2.2426
 1911SOL     OW17191   2.420   1.485   3.168  0.2353  0.0161  0.0711
 1911SOL    HW117192   2.343   1.468   3.114 -0.8128  1.9238  0.9346
 1911SOL    HW217193   2.481   1.524   3.106  1.6542 -1.6135  0.4621
 1912SOL     OW17194   3.284   0.523   7.885 -0.0121 -0.1787 -0.0354
 1912SOL    HW117195   3.348   0.574   7.935 -1.2539 -0.1637  1.5402
 1912SOL    HW217196   3.251   0.595   7.833  1.2183  0.5696  0.2113
 1913SOL     OW17197   3.013   2.300   6.064  0.1850  0.9298  0.3054
 1913SOL    HW117198   3.104   2.324   6.077  0.3245  0.6660 -0.1830
 1913SOL    HW217199   3.002   2.236   6.134  0.2243  0.6733  0.0751
 1914SOL     OW17200   4.594   3.886   3.635 -0.2451 -0.4436  0.5537
 1914SOL    HW117201   4.507   3.913   3.666 -0.4793  1.4005 -1.6177
 1914SOL    HW217202   4.649   3.936   3.695  0.4982 -0.2161 -0.3146
 1915SOL     OW17203   1.827   3.296   1.771  0.0094 -0.3723  0.6032
 1915SOL    HW117204   1.742   3.300   1.729 -0.2314  1.0371  1.1939
 1915SOL    HW217205   1.860   3.385   1.755  0.5549 -0.7444 -0.2743
 1916SOL     OW17206   1.760   4.551   2.187  0.7288  0.4363 -0.7611
 1916SOL    HW117207   1.849   4.558   2.222 -0.0188  0.0116  1.2667
 1916SOL    HW217208   1.745   4.640   2.154 -0.2561  0.4527 -0.2773
 1917SOL     OW17209   2.152   0.034   0.206 -0.9486  0.5974  0.0644
 1917SOL    HW117210   2.126   4.666   0.213  0.0361  0.3528  0.4680
 1917SOL    HW217211   2.220   0.036   0.274  1.1908 -1.4566 -2.0178
 1918SOL     OW17212   2.003   4.255   4.149 -0.5674  0.1148 -0.5406
 1918SOL    HW117213   1.940   4.205   4.098 -0.1540 -1.2144  0.2393
 1918SOL    HW217214   2.072   4.190   4.164 -0.0658  0.9906  0.9248
 1919SOL     OW17215   0.925   0.550  14.004  0.4187 -0.1483  0.4183
 1919SOL    HW117216   0.918   0.630  14.058  0.3450 -0.7867  1.3562
 1919SOL    HW217217   0.871   0.568  13.928 -0.5918  0.1088  1.2000
 1920SOL     OW17218   4.397   1.930   7.731  0.5786 -0.4713 -0.0163
 1920SOL    HW117219   4.488   1.936   7.760  1.4255 -1.3991 -2.4612
 1920SOL    HW217220   4.396   1.835   7.715 -0.1901 -0.1371 -1.9573
 1921SOL     OW17221   2.601   4.646   5.060  0.2344 -0.0848 -0.0967
 1921SOL    HW117222   2.582   0.011   5.089  1.1049 -0.8827  2.8566
 1921SOL    HW217223   2.522   4.604   5.095 -1.3377  1.6444 -1.5780
 1922SOL     OW17224   1.605   1.114  17.597 -0.2577 -0.1938  0.3432
 1922SOL    HW117225   1.654   1.190  17.629  0.2776  0.2936 -1.6952
 1922SOL    HW217226   1.513   1.136  17.612 -0.1898  1.6063 -1.8863
 1923SOL     OW17227   3.792   2.267   2.001  0.2789  0.1512  0.0164
 1923SOL    HW117228   3.721   2.310   1.954 -1.2764 -0.3715  1.8798
 1923SOL    HW217229   3.826   2.338   2.055  0.6389  0.6586 -0.8919
 1924SOL     OW17230   0.798   2.284   9.008 -0.5890 -0.1124  0.0202
 1924SOL    HW117231   0.841   2.265   9.091  0.7781 -1.3932 -0.9933
 1924SOL    HW217232   0.708   2.258   9.030  0.2998 -4.4505 -1.5241
 1925SOL     OW17233   3.030   2.787   9.310  0.7506  0.0247 -0.2889
 1925SOL    HW117234   3.060   2.828   9.229 -0.8760  2.8153  0.4850
 1925SOL    HW217235   3.054   2.695   9.300 -1.7131 -0.6030 -0.3239
 1926SOL     OW17236   2.989   0.921   1.087 -0.4251  0.7257 -0.5809
 1926SOL    HW117237   3.011   0.832   1.114 -0.7265  0.2334 -1.9888
 1926SOL    HW217238   2.944   0.910   1.004  2.5346 -2.0386 -1.8111
 1927SOL     OW17239   4.377   0.624  12.467 -0.1766  0.2408  0.4481
 1927SOL    HW117240   4.327   0.616  12.549 -0.0312 -1.8521  0.3515
 1927SOL    HW217241   4.442   0.556  12.485 -2.2026 -1.4675  1.4134
 1928SOL     OW17242   3.244   3.855   2.756 -0.6415  0.3649 -0.0751
 1928SOL    HW117243   3.266   3.899   2.674 -0.8197 -0.3643 -0.5086
 1928SOL    HW217244   3.163   3.817   2.723  0.2270 -1.0975 -0.5308
 1929SOL     OW17245   3.683   4.684   2.292 -0.2832 -0.4634 -0.4062
 1929SOL    HW117246   3.594   4.707   2.317 -0.7411 -1.5440 -1.0454
 1929SOL    HW217247   3.675   4.689   2.197  0.2289  2.3251 -0.3160
 1930SOL     OW17248   1.777   4.285   0.066 -0.0716 -0.2985 -0.3740
 1930SOL    HW117249   1.859   4.239   0.048  0.7474  0.5709  1.0644
 1930SOL    HW217250   1.744   4.226   0.134 -0.1371  1.2021  0.9086
 1931SOL     OW17251   0.295   0.050   7.296 -0.7063 -0.3869 -0.1803
 1931SOL    HW117252   0.355   4.713   7.337 -0.2985 -0.8984 -1.5468
 1931SOL    HW217253   0.282   0.105   7.373  1.2982  1.5846 -1.2571
 1932SOL     OW17254   3.983   1.681   3.347  0.0913 -0.3337  0.0948
 1932SOL    HW117255   4.041   1.741   3.300  1.1476 -1.2578  0.2130
 1932SOL    HW217256   4.013   1.697   3.436  1.4986 -2.6719  0.0317
 1933SOL     OW17257   3.448   4.421  14.352 -0.2132 -0.9036  0.1170
 1933SOL    HW117258   3.531   4.376  14.370  2.1511  2.6768 -2.0453
 1933SOL    HW217259   3.465   4.455  14.264 -1.9540 -2.7139 -0.9144
 1934SOL     OW17260   3.884   3.985  15.897  0.0325 -0.2361 -0.9361
 1934SOL    HW117261   3.833   3.939  15.965  0.0106 -2.3038 -2.3572
 1934SOL    HW217262   3.833   3.957  15.821  0.6519 -1.3164 -0.9539
 1935SOL     OW17263   0.839   2.729   9.067  0.1808 -0.4584 -0.4774
 1935SOL    HW117264   0.910   2.665   9.071  1.6194  1.3011  1.6475
 1935SOL    HW217265   0.776   2.686   9.008 -0.8129  0.3489  0.0018
 1936SOL     OW17266   1.623   3.831  15.998  0.0839 -0.6973  0.5223
 1936SOL    HW117267   1.592   3.741  16.008 -0.4399 -0.5247  0.4392
 1936SOL    HW217268   1.715   3.811  15.979  0.3767  0.0860  1.0982
 1937SOL     OW17269   3.918   0.560   4.276 -0.7096  0.2253  0.2880
 1937SOL    HW117270   3.858   0.633   4.266 -0.2407  0.7144  0.9808
 1937SOL    HW217271   3.999   0.603   4.247 -0.8105 -0.2955 -0.7510
 1938SOL     OW17272   3.705   3.356   5.008  0.5496  0.0030 -0.1560
 1938SOL    HW117273   3.687   3.273   4.964 -0.0528 -0.4141  0.8939
 1938SOL    HW217274   3.670   3.328   5.092  0.0431  1.4821  0.1154
 1939SOL     OW17275   4.251   3.317   6.153  0.4337  0.2527 -0.0748
 1939SOL    HW117276   4.189   3.389   6.153 -0.4205 -0.4794 -0.3685
 1939SOL    HW217277   4.306   3.354   6.222  1.2810  0.7016 -0.9893
 1940SOL     OW17278   1.107   3.636  16.389  0.0876  0.1685 -0.2323
 1940SOL    HW117279   1.024   3.589  16.383 -0.0132  0.2470  0.5894
 1940SOL    HW217280   1.137   3.589  16.467 -2.2861 -1.0535 -0.0605
 1941SOL     OW17281   2.189   4.057   9.846 -0.1725  0.1739  0.5204
 1941SOL    HW117282   2.225   3.986   9.793 -0.4463  0.3440  0.1076
 1941SOL    HW217283   2.260   4.119   9.827  1.4539 -1.7268  0.3819
 1942SOL     OW17284   1.437   2.787   3.263 -0.0210 -0.1279 -0.3758
 1942SOL    HW117285   1.411   2.725   3.196  0.1639  1.0362 -1.5252
 1942SOL    HW217286   1.359   2.836   3.291 -2.0334 -2.5884 -1.6947
 1943SOL     OW17287   1.705   1.279  15.023  0.1881  0.1692 -0.2834
 1943SOL    HW117288   1.706   1.187  15.047 -0.2110  0.0769 -0.6087
 1943SOL    HW217289   1.731   1.278  14.931 -0.0648  0.1059 -0.3539
 1944SOL     OW17290   4.477   1.367   7.989  0.1171  0.3359 -0.1596
 1944SOL    HW117291   4.386   1.341   8.007  0.2499  1.6333  2.2834
 1944SOL    HW217292   4.492   1.331   7.901 -1.9888 -1.9781  0.4149
 1945SOL     OW17293   0.603   2.136   5.289  0.0786 -0.3256  0.1729
 1945SOL    HW117294   0.565   2.070   5.347 -0.2872  1.4877  2.0134
 1945SOL    HW217295   0.699   2.133   5.299 -0.0407 -0.6749  1.3069
 1946SOL     OW17296   3.759   3.243   5.347 -0.3014 -0.9985  0.0822
 1946SOL    HW117297   3.847   3.276   5.331  0.7343 -2.6647  2.4436
 1946SOL    HW217298   3.772   3.210   5.436 -0.6299  1.0405  0.9041
 1947SOL     OW17299   2.799   4.263   6.029  0.7783  0.0409 -0.0153
 1947SOL    HW117300   2.844   4.324   6.088  1.1681 -2.0173  1.8263
 1947SOL    HW217301   2.841   4.295   5.950 -2.7616  0.7465 -1.5996
 1948SOL     OW17302   2.643   2.341   8.769 -0.3002  0.0306  0.3801
 1948SOL    HW117303   2.661   2.397   8.694  3.5438 -1.5220  0.1201
 1948SOL    HW217304   2.707   2.375   8.832 -0.7155 -0.9079  1.3087
 1949SOL     OW17305   1.544   0.867  12.794  0.0585  0.3405  0.3537
 1949SOL    HW117306   1.520   0.843  12.884  0.9540 -1.7387  0.0406
 1949SOL    HW217307   1.455   0.869  12.760  0.1021  2.0254  0.3234
 1950SOL     OW17308   0.369   3.425   1.698  0.2653 -0.4132  0.2040
 1950SOL    HW117309   0.393   3.338   1.731  0.1023 -0.3036  0.6130
 1950SOL    HW217310   0.305   3.457   1.761 -0.7710 -0.9628 -0.5814
 1951SOL     OW17311   0.977   3.820  12.327  0.0014  0.1413 -0.2114
 1951SOL    HW117312   1.003   3.760  12.257 -1.0138 -1.6339  0.9511
 1951SOL    HW217313   0.911   3.871  12.281  0.2159 -1.5743 -2.4772
 1952SOL     OW17314   1.074   0.328  12.824 -0.5142 -0.2318  0.1408
 1952SOL    HW117315   1.116   0.242  12.832 -1.3092 -0.7177 -0.9328
 1952SOL    HW217316   1.145   0.383  12.790 -1.1196  0.0657 -0.6170
 1953SOL     OW17317   0.671   3.961  12.175 -0.2252  0.1988  0.5555
 1953SOL    HW117318   0.613   4.036  12.167 -0.5085 -0.0853 -0.0377
 1953SOL    HW217319   0.752   4.012  12.180  0.5385 -1.0963  1.4641
 1954SOL     OW17320   3.795   3.378   3.083 -0.0756  0.0453  0.2042
 1954SOL    HW117321   3.705   3.405   3.101  0.2786  0.3075  1.5501
 1954SOL    HW217322   3.798   3.286   3.109  0.2690 -0.1674 -0.5982
 1955SOL     OW17323   2.817   4.706   2.742 -0.0553  0.2085  0.4018
 1955SOL    HW117324   2.894   4.653   2.721  1.1969  1.9410  0.6556
 1955SOL    HW217325   2.756   4.703   2.668  0.0215  1.2121  0.2968
 1956SOL     OW17326   4.393   3.303   3.811  0.6894 -0.1199  0.1771
 1956SOL    HW117327   4.479   3.299   3.854  0.9134 -1.9340 -0.4589
 1956SOL    HW217328   4.383   3.217   3.770  0.9137 -0.4236  0.7524
 1957SOL     OW17329   4.541   4.404   2.970  0.2083  0.5559  0.2259
 1957SOL    HW117330   4.487   4.423   3.046 -1.2615  2.8435 -1.3770
 1957SOL    HW217331   4.616   4.463   2.976  0.2381  0.6098 -0.6162
 1958SOL     OW17332   3.411   1.316   6.244  0.0645  0.1478 -0.0892
 1958SOL    HW117333   3.506   1.305   6.250  0.0679  1.0124  1.5059
 1958SOL    HW217334   3.395   1.383   6.310  1.3175 -1.3180  1.7357
 1959SOL     OW17335   3.340   3.307   6.295 -0.3942  0.2116  0.0646
 1959SOL    HW117336   3.277   3.292   6.365 -1.5529 -1.5806 -1.3603
 1959SOL    HW217337   3.287   3.337   6.221  0.6187 -1.1936 -1.2296
 1960SOL     OW17338   3.341   3.994   6.250  0.4806 -0.0196 -0.5818
 1960SOL    HW117339   3.364   4.020   6.161 -1.5380  1.3023 -0.7226
 1960SOL    HW217340   3.335   3.899   6.244 -1.1645 -0.0116  0.7448
 1961SOL     OW17341   4.359   4.510   2.772  0.0283 -0.0592 -0.3246
 1961SOL    HW117342   4.370   4.595   2.814 -1.8417  0.8953 -1.7825
 1961SOL    HW217343   4.401   4.454   2.838 -0.2044  1.8450  1.4269
 1962SOL     OW17344   0.386   1.307   3.487 -0.4403 -0.2752  0.0935
 1962SOL    HW117345   0.431   1.324   3.404 -0.0728 -0.2147  0.3059
 1962SOL    HW217346   0.440   1.365   3.541 -0.2470  0.0597 -0.4529
 1963SOL     OW17347   2.009   2.297  11.485 -0.2304  0.2887  0.1656
 1963SOL    HW117348   1.919   2.267  11.470 -0.0701  0.0378 -0.3105
 1963SOL    HW217349   2.016   2.389  11.460  0.7788  0.3831  0.7934
 1964SOL     OW17350   1.608   2.291   8.579  0.3639 -0.5130 -0.1122
 1964SOL    HW117351   1.523   2.268   8.541 -0.4511  0.9676  0.8160
 1964SOL    HW217352   1.658   2.211   8.591  1.7548  0.3591 -0.0322
 1965SOL     OW17353   0.765   4.650   5.176 -0.5615  0.2355  0.2785
 1965SOL    HW117354   0.809   4.567   5.192  1.3693  1.7204  2.6296
 1965SOL    HW217355   0.814   4.678   5.099  1.9976 -1.5299  1.2853
 1966SOL     OW17356   1.989   4.426   1.269  0.3436 -0.0754 -0.1743
 1966SOL    HW117357   2.064   4.473   1.304 -0.1096  0.4718  0.0530
 1966SOL    HW217358   1.998   4.341   1.313  1.0877  0.4635  0.7181
 1967SOL     OW17359   1.946   0.932   6.990 -0.2083  0.3149 -0.1064
 1967SOL    HW117360   1.961   0.894   6.904  1.1480 -0.9879  0.6957
 1967SOL    HW217361   2.022   0.898   7.037 -2.9380  1.2975  5.0854
 1968SOL     OW17362   0.608   0.857   2.302  0.0996  0.0081 -0.7550
 1968SOL    HW117363   0.528   0.831   2.349  2.6746 -2.9681  2.0343
 1968SOL    HW217364   0.679   0.837   2.363 -2.2498  0.3895  2.1419
 1969SOL     OW17365   2.653   0.995   1.398  0.1348  0.1339 -0.4475
 1969SOL    HW117366   2.633   1.082   1.362  0.8670  0.9971  1.2191
 1969SOL    HW217367   2.749   0.998   1.398  0.1514 -0.3253 -2.2733
 1970SOL     OW17368   3.184   2.574   9.551 -0.2600 -0.0626 -0.3250
 1970SOL    HW117369   3.136   2.494   9.571  3.6887 -2.4869 -0.6205
 1970SOL    HW217370   3.217   2.546   9.466 -2.8356 -0.6327 -1.1530
 1971SOL     OW17371   4.357   1.612   5.831  0.2196 -0.0119 -0.0001
 1971SOL    HW117372   4.418   1.594   5.759 -1.2248 -1.6805 -0.7922
 1971SOL    HW217373   4.405   1.567   5.901 -0.0022 -0.9856 -0.4732
 1972SOL     OW17374   0.101   1.236   7.136 -0.7458  0.0326  0.1628
 1972SOL    HW117375   0.068   1.211   7.049  0.0801  1.2558 -0.5039
 1972SOL    HW217376   0.182   1.187   7.148  0.0335  0.9379 -1.3773
 1973SOL     OW17377   0.566   0.287   5.185 -0.3566 -0.7655  0.2622
 1973SOL    HW117378   0.559   0.247   5.098  1.5026 -3.1342  1.1988
 1973SOL    HW217379   0.643   0.240   5.217  0.5163 -0.2751 -1.1430
 1974SOL     OW17380   2.169   1.463   2.235  0.0521  0.1349  0.1737
 1974SOL    HW117381   2.230   1.389   2.237 -1.5020 -1.0821  2.2178
 1974SOL    HW217382   2.198   1.520   2.306  0.8292 -0.8062  0.6077
 1975SOL     OW17383   2.055   0.973   7.434  0.1119 -0.4636  0.8114
 1975SOL    HW117384   2.145   1.005   7.433 -0.4384  1.0958  0.7918
 1975SOL    HW217385   2.005   1.046   7.397  0.7322 -1.6059 -2.2950
 1976SOL     OW17386   1.812   0.197   6.241 -0.1494  0.5339 -0.1571
 1976SOL    HW117387   1.824   0.111   6.280  0.7380  0.8591  0.3018
 1976SOL    HW217388   1.900   0.204   6.205 -0.1673 -2.5560 -0.7677
 1977SOL     OW17389   2.385   1.228   1.441 -0.4213  0.4217 -0.5382
 1977SOL    HW117390   2.334   1.302   1.406  1.4600  2.3810  0.9005
 1977SOL    HW217391   2.461   1.236   1.383  0.3656  0.5769  0.5192
 1978SOL     OW17392   3.925   1.192  10.606 -0.0225 -0.1394 -0.1251
 1978SOL    HW117393   3.870   1.185  10.684  0.6839  1.7903  0.5618
 1978SOL    HW217394   3.891   1.263  10.552  0.8025 -1.0035 -1.7784
 1979SOL     OW17395   1.773   3.538   6.118 -0.1916 -1.2063 -0.1303
 1979SOL    HW117396   1.843   3.530   6.183  0.7964  0.8102 -0.9312
 1979SOL    HW217397   1.755   3.451   6.081 -2.0005 -0.9037  0.0535
 1980SOL     OW17398   3.542   2.077   7.776  0.1654  0.3868 -0.1803
 1980SOL    HW117399   3.507   1.992   7.806  0.6584 -0.4073 -1.8714
 1980SOL    HW217400   3.483   2.097   7.703  0.4325 -0.2669 -0.5784
 1981SOL     OW17401   1.877   2.735   3.077 -0.5567  0.0473 -0.1229
 1981SOL    HW117402   1.896   2.666   3.140  1.0136 -1.7536 -2.6122
 1981SOL    HW217403   1.795   2.776   3.105  0.1691  0.9782  0.6343
 1982SOL     OW17404   3.871   0.944   3.753 -0.0843  0.0919  0.2159
 1982SOL    HW117405   3.863   1.040   3.757  2.0933  0.3794 -1.6899
 1982SOL    HW217406   3.816   0.910   3.823 -2.6271 -1.5406 -2.5924
 1983SOL     OW17407   3.827   3.484   1.052 -0.0226 -0.4912 -0.4329
 1983SOL    HW117408   3.782   3.459   0.971 -0.2427 -1.2419 -0.0731
 1983SOL    HW217409   3.907   3.519   1.012 -0.5523 -1.2206 -2.1606
 1984SOL     OW17410   4.202   0.843  16.888  0.4613  0.3875 -0.0012
 1984SOL    HW117411   4.249   0.808  16.813 -1.3107 -1.5664 -0.1802
 1984SOL    HW217412   4.140   0.773  16.907 -0.9100  2.0622  1.7340
 1985SOL     OW17413   4.524   2.340   7.168 -0.1653 -0.6818 -0.0546
 1985SOL    HW117414   4.440   2.295   7.172 -0.6235  0.0765 -1.1240
 1985SOL    HW217415   4.542   2.333   7.074  3.4668  0.0005  0.5698
 1986SOL     OW17416   2.042   0.201   6.113 -0.8289 -0.3257 -0.2681
 1986SOL    HW117417   2.040   0.207   6.018  1.0216  0.5297 -0.2570
 1986SOL    HW217418   2.099   0.128   6.138 -0.2209  0.8819  1.9402
 1987SOL     OW17419   3.600   1.604   5.363 -0.1526 -0.0631  0.4420
 1987SOL    HW117420   3.567   1.606   5.453 -0.1429 -0.1989  0.4479
 1987SOL    HW217421   3.658   1.680   5.366 -0.6361  0.2672  1.7270
 1988SOL     OW17422   4.702   3.346   3.075  0.0345 -0.3162 -0.0614
 1988SOL    HW117423   4.661   3.432   3.062  0.6308 -0.2388 -1.4594
 1988SOL    HW217424   4.691   3.300   2.992 -1.9441 -0.8382  0.5055
 1989SOL     OW17425   4.283   0.612  14.049 -0.4045 -0.7542  0.0432
 1989SOL    HW117426   4.376   0.632  14.034  0.4027 -2.4284  2.8067
 1989SOL    HW217427   4.248   0.598  13.961  1.4763  1.6272 -1.1060
 1990SOL     OW17428   0.010   3.934   9.045  0.1894  0.2864  0.5654
 1990SOL    HW117429   0.059   3.864   9.087  0.8887 -1.7704 -3.6708
 1990SOL    HW217430   4.657   3.938   9.102  0.3022  0.0525  0.7317
 1991SOL     OW17431   1.393   3.038   2.335 -0.0302  0.0184  0.2168
 1991SOL    HW117432   1.420   2.957   2.293  1.6660  0.6204  0.1484
 1991SOL    HW217433   1.395   3.015   2.428  3.3055  0.6233  0.2772
 1992SOL     OW17434   2.155   4.541  10.724 -0.1064  0.1694 -0.6013
 1992SOL    HW117435   2.218   4.612  10.715  1.1907 -0.9131 -0.0149
 1992SOL    HW217436   2.094   4.566  10.655  0.4788 -1.2143 -1.6256
 1993SOL     OW17437   4.049   1.824   6.273 -0.4033  0.2875 -0.0892
 1993SOL    HW117438   3.962   1.794   6.247 -1.5939  1.0222  3.0435
 1993SOL    HW217439   4.092   1.738   6.267  0.5686  0.8067 -0.4243
 1994SOL     OW17440   2.316   1.750   6.510  0.2700  0.0911 -0.5504
 1994SOL    HW117441   2.406   1.742   6.541  0.6574  1.2377 -1.3622
 1994SOL    HW217442   2.277   1.667   6.535  0.0300  0.6582  0.9091
 1995SOL     OW17443   2.776   3.580   4.677 -0.1338  0.3147 -0.1727
 1995SOL    HW117444   2.742   3.583   4.588  1.1817  1.1826 -0.6507
 1995SOL    HW217445   2.868   3.580   4.649 -0.3477 -3.7841 -0.8447
 1996SOL     OW17446   4.506   0.993   0.359 -0.0794  0.4832  0.7029
 1996SOL    HW117447   4.566   0.959   0.425  0.4103  0.2381  0.1252
 1996SOL    HW217448   4.527   0.943   0.280 -0.0967  0.5753  0.6407
 1997SOL     OW17449   0.645   2.222   2.927  0.1894  0.5102 -0.1769
 1997SOL    HW117450   0.567   2.267   2.894  1.5562 -0.3514 -4.6157
 1997SOL    HW217451   0.641   2.146   2.869 -1.9660  2.0142 -1.9910
 1998SOL     OW17452   0.952   1.074   0.235  0.8051  0.4108  0.5646
 1998SOL    HW117453   0.996   1.024   0.166  0.3993  1.0085 -0.1386
 1998SOL    HW217454   0.915   1.011   0.296  1.5331 -2.5309 -2.0348
 1999SOL     OW17455   3.248   1.111   1.617  0.5300 -0.6719  0.1297
 1999SOL    HW117456   3.201   1.057   1.681 -2.4158  0.8644 -0.7105
 1999SOL    HW217457   3.203   1.195   1.632  1.8864 -0.5989  3.7564
 2000SOL     OW17458   1.192   4.126   0.814 -1.1507  0.0157  0.2739
 2000SOL    HW117459   1.168   4.121   0.721 -2.9203  0.4714  0.7032
 2000SOL    HW217460   1.236   4.043   0.830 -1.6108 -0.4788 -0.9882
 2001SOL     OW17461   1.741   2.382  13.831  0.0948 -0.2394  0.2197
 2001SOL    HW117462   1.749   2.358  13.739 -0.2568 -1.2149  0.4396
 2001SOL    HW217463   1.762   2.298  13.872  0.4285 -0.2360  0.0564
 2002SOL     OW17464   4.192   2.560   6.488  0.2038  0.3517 -0.2487
 2002SOL    HW117465   4.257   2.516   6.543 -0.7003 -2.2443 -1.2419
 2002SOL    HW217466   4.152   2.611   6.558 -0.8522  0.1541 -0.7108
 2003SOL     OW17467   1.929   4.259   2.720 -0.5157 -0.1627 -0.6121
 2003SOL    HW117468   1.917   4.254   2.815  0.2558 -2.6075 -0.6319
 2003SOL    HW217469   1.841   4.272   2.684 -0.3800  3.3783  0.3986
 2004SOL     OW17470   2.819   1.802  11.828 -0.6427  0.2533 -0.7003
 2004SOL    HW117471   2.772   1.722  11.853 -0.5391  0.7555  1.1110
 2004SOL    HW217472   2.888   1.761  11.776  1.3809  1.4476  1.0867
 2005SOL     OW17473   4.480   3.036   4.982 -0.0764  0.5238 -0.0640
 2005SOL    HW117474   4.435   2.952   4.987 -0.6034  0.8959  1.6170
 2005SOL    HW217475   4.477   3.045   4.887  0.6010  1.4749  0.0026
 2006SOL     OW17476   1.396   4.011   7.265 -0.4683 -0.3755  0.5449
 2006SOL    HW117477   1.486   4.021   7.234 -2.0397  0.0214 -3.8130
 2006SOL    HW217478   1.408   4.075   7.335  1.8003  0.9267 -1.0100
 2007SOL     OW17479   0.927   4.299  11.203 -0.2935  0.9192  0.8166
 2007SOL    HW117480   0.843   4.254  11.213  0.3170 -0.0901  1.4440
 2007SOL    HW217481   0.891   4.384  11.178  0.8308  0.8826 -0.8919
 2008SOL     OW17482   0.572   0.853   8.573  0.4022 -0.0732 -0.5003
 2008SOL    HW117483   0.618   0.934   8.596 -1.3182  1.5068 -2.5831
 2008SOL    HW217484   0.488   0.884   8.538 -0.9136 -0.3343  2.4723
 2009SOL     OW17485   3.197   2.665   8.543 -0.0953 -0.3964  0.3226
 2009SOL    HW117486   3.173   2.616   8.464 -1.7865  0.2382  0.4600
 2009SOL    HW217487   3.127   2.730   8.548 -0.1086 -0.3227 -0.8488
 2010SOL     OW17488   0.617   4.525   6.923  0.2824 -0.2505 -0.4184
 2010SOL    HW117489   0.696   4.518   6.976 -0.6082  0.9403  1.0500
 2010SOL    HW217490   0.595   4.618   6.921 -0.0464 -0.3056  1.0368
 2011SOL     OW17491   1.792   2.495   4.664  0.3671  0.3835 -0.9311
 2011SOL    HW117492   1.765   2.442   4.589  0.2178 -0.2236 -0.4512
 2011SOL    HW217493   1.783   2.432   4.735  1.4960  1.4581  0.1657
 2012SOL     OW17494   1.709   4.719   3.709 -0.1243  0.1637  0.0769
 2012SOL    HW117495   1.760   0.034   3.638  0.3065 -0.0115  0.2848
 2012SOL    HW217496   1.629   0.041   3.686  0.8935  1.6013 -0.6133
 2013SOL     OW17497   2.984   2.733   8.224  0.4852 -0.7835 -0.0909
 2013SOL    HW117498   2.902   2.765   8.263  0.1536 -0.2816 -1.1941
 2013SOL    HW217499   3.013   2.670   8.289  0.2911 -1.4163 -0.6164
 2014SOL     OW17500   2.553   2.127   6.770  0.4546  0.4213 -0.4996
 2014SOL    HW117501   2.499   2.108   6.846  4.1154 -0.3993  1.9182
 2014SOL    HW217502   2.639   2.094   6.798  0.0700  0.1449  0.3405
 2015SOL     OW17503   0.941   1.574   1.695  0.5447  0.1103  0.2224
 2015SOL    HW117504   0.865   1.612   1.653 -0.0855 -1.6049 -0.1772
 2015SOL    HW217505   0.908   1.577   1.785 -0.2974 -0.3388 -0.0745
 2016SOL     OW17506   1.914   2.612   2.683 -0.4292 -0.2626  1.1544
 2016SOL    HW117507   1.840   2.600   2.624  1.4007 -0.5726 -1.0832
 2016SOL    HW217508   1.975   2.640   2.615  0.6228 -4.0233  0.5398
 2017SOL     OW17509   0.674   4.266  10.988 -0.4826  0.2886  0.1103
 2017SOL    HW117510   0.716   4.182  10.966 -1.6829 -0.2186 -0.2507
 2017SOL    HW217511   0.745   4.328  10.972 -2.3482  2.0990 -1.0726
 2018SOL     OW17512   2.799   3.104   6.511 -0.0542 -0.2965 -0.2225
 2018SOL    HW117513   2.748   3.157   6.572  0.3063  0.1923 -0.3462
 2018SOL    HW217514   2.844   3.163   6.451 -1.3010  1.7684  0.8695
 2019SOL     OW17515   3.670   4.394  14.806 -0.4982 -0.3072 -0.4588
 2019SOL    HW117516   3.713   4.384  14.721  2.6072 -0.8158  1.1595
 2019SOL    HW217517   3.592   4.445  14.785 -1.1097 -0.3171  1.7546
 2020SOL     OW17518   3.939   0.266  12.154 -0.7452  0.3600 -0.0723
 2020SOL    HW117519   3.902   0.188  12.195  1.4019 -0.2489  0.7083
 2020SOL    HW217520   3.854   0.310  12.157 -1.6279 -1.2328 -1.6157
 2021SOL     OW17521   4.414   2.303   4.568  0.2433 -0.1215 -0.2858
 2021SOL    HW117522   4.399   2.231   4.506  1.4332  0.4186 -1.2057
 2021SOL    HW217523   4.330   2.347   4.577  1.1585  0.9660  2.7909
 2022SOL     OW17524   3.758   3.811   7.234  0.2949  0.0175 -0.3601
 2022SOL    HW117525   3.827   3.859   7.189 -0.3739  0.7673 -0.5849
 2022SOL    HW217526   3.711   3.879   7.282 -1.3430 -0.6818 -0.9850
 2023SOL     OW17527   2.598   3.101   1.913  0.2214  0.1713  0.0063
 2023SOL    HW117528   2.624   3.054   1.834 -1.7680 -0.7406 -0.0948
 2023SOL    HW217529   2.598   3.194   1.892 -0.6962 -0.3731 -2.3953
 2024SOL     OW17530   0.819   2.875  16.106  0.0459 -0.1633 -0.1739
 2024SOL    HW117531   0.894   2.935  16.106 -0.4407  0.4643  2.2451
 2024SOL    HW217532   0.862   2.805  16.155 -0.9797 -0.2641  0.5840
 2025SOL     OW17533   2.491   0.801   4.758 -0.3614 -0.1650 -0.3179
 2025SOL    HW117534   2.574   0.832   4.794 -0.7697 -0.6584  1.0419
 2025SOL    HW217535   2.523   0.771   4.673  2.0594  0.0725  0.5177
 2026SOL     OW17536   4.322   0.976   3.857 -0.2475 -0.0761 -0.5153
 2026SOL    HW117537   4.391   0.909   3.862  0.1996  0.4445  0.2755
 2026SOL    HW217538   4.357   1.035   3.791  1.6939  1.2926  1.7555
 2027SOL     OW17539   3.694   0.341   7.197  0.1921  0.1539 -0.1042
 2027SOL    HW117540   3.646   0.291   7.130 -1.0186  1.3428 -0.1393
 2027SOL    HW217541   3.772   0.291   7.221  1.3146  1.7016 -0.5525
 2028SOL     OW17542   1.653   4.154  14.711  0.1950  0.3375  0.2590
 2028SOL    HW117543   1.683   4.073  14.670 -0.7880  0.7274 -1.2192
 2028SOL    HW217544   1.735   4.180  14.754 -0.1292  2.1871 -0.2467
 2029SOL     OW17545   0.161   2.773   3.606 -0.5955  0.8046 -0.4586
 2029SOL    HW117546   0.189   2.701   3.550 -1.9154  0.3389 -0.5229
 2029SOL    HW217547   0.132   2.832   3.537 -0.6749  2.3413  0.8840
 2030SOL     OW17548   1.924   3.211   4.283 -0.4384 -0.5060 -0.9628
 2030SOL    HW117549   2.005   3.165   4.304 -1.2248 -0.2703  2.5189
 2030SOL    HW217550   1.890   3.162   4.208  0.8700 -1.2254 -1.0845
 2031SOL     OW17551   1.103   0.134   5.038  0.5078  0.1767  0.8729
 2031SOL    HW117552   1.021   0.088   5.020  0.4964  0.0722  1.1883
 2031SOL    HW217553   1.141   0.088   5.112  0.0599 -0.9717  0.3941
 2032SOL     OW17554   3.921   2.992   7.559  0.3596 -0.5183  0.0140
 2032SOL    HW117555   3.894   2.963   7.646 -0.4248 -0.4862 -0.2132
 2032SOL    HW217556   3.930   3.086   7.572 -0.9780 -0.3219 -0.4420
 2033SOL     OW17557   1.856   3.371  12.999  0.7543  0.1775 -0.2466
 2033SOL    HW117558   1.840   3.438  12.933  2.3792 -1.5465 -2.3724
 2033SOL    HW217559   1.916   3.311  12.955 -1.2772 -1.0993 -1.3025
 2034SOL     OW17560   1.653   3.641  14.108 -0.3475  0.6807 -0.9258
 2034SOL    HW117561   1.605   3.617  14.029  1.2546  1.9609 -2.2908
 2034SOL    HW217562   1.642   3.565  14.166  1.7834  2.1704  1.4331
 2035SOL     OW17563   4.439   1.795  15.639  0.1014  0.2722 -0.5562
 2035SOL    HW117564   4.476   1.873  15.681 -3.1087  1.5782 -0.0819
 2035SOL    HW217565   4.520   1.752  15.613 -0.6533 -1.8801  0.6534
 2036SOL     OW17566   2.873   1.742  14.746  0.0067 -0.1166  0.0612
 2036SOL    HW117567   2.921   1.802  14.689 -0.8909  1.6048  1.1125
 2036SOL    HW217568   2.873   1.659  14.699 -0.9964  0.7172 -1.3904
 2037SOL     OW17569   4.097   3.444   3.523 -0.4635  0.4752  0.0680
 2037SOL    HW117570   4.066   3.427   3.434 -1.2536  0.2961  0.3783
 2037SOL    HW217571   4.106   3.352   3.547 -0.5959  0.6398  0.7383
 2038SOL     OW17572   1.751   1.729   3.497 -0.1038 -0.1177  0.0630
 2038SOL    HW117573   1.797   1.764   3.421  0.6021 -2.0725 -0.4092
 2038SOL    HW217574   1.665   1.712   3.460 -0.4135  1.0920  0.2123
 2039SOL     OW17575   0.179   2.625   4.641 -0.0711 -0.0237 -0.0593
 2039SOL    HW117576   0.145   2.546   4.599 -0.1262 -0.2974  0.5001
 2039SOL    HW217577   0.260   2.637   4.592 -0.7255  2.4280 -0.5336
 2040SOL     OW17578   1.063   1.022   7.660  0.5278  0.0986  0.2447
 2040SOL    HW117579   0.985   0.982   7.623  0.4417  2.9854 -2.7175
 2040SOL    HW217580   1.065   0.976   7.744 -0.5376 -0.5861 -0.1235
 2041SOL     OW17581   2.584   2.034  13.137  0.1024 -0.0677  0.4326
 2041SOL    HW117582   2.606   1.971  13.069 -0.7890  0.4062 -0.2913
 2041SOL    HW217583   2.626   2.003  13.218 -1.9594  0.5467  1.7307
 2042SOL     OW17584   2.055   4.287   6.107  0.3184 -0.2657 -0.1625
 2042SOL    HW117585   2.035   4.274   6.014 -1.4943  2.6927 -0.1943
 2042SOL    HW217586   2.109   4.211   6.128  0.0817 -0.3213  0.2504
 2043SOL     OW17587   1.691   3.459   8.957  0.2261 -0.0045  0.4577
 2043SOL    HW117588   1.694   3.554   8.969 -3.2671  0.2520 -0.6079
 2043SOL    HW217589   1.770   3.423   8.998 -0.8142 -0.4845  2.0519
 2044SOL     OW17590   1.516   2.224   4.133  0.0001  0.0488  0.3014
 2044SOL    HW117591   1.487   2.316   4.140  3.5188  1.1547  0.2107
 2044SOL    HW217592   1.609   2.245   4.144 -0.3267  1.5568  0.2305
 2045SOL     OW17593   2.018   0.606   0.527  0.0549  0.0832 -0.0731
 2045SOL    HW117594   2.045   0.617   0.436  0.5118  1.7104  0.2474
 2045SOL    HW217595   2.025   0.511   0.527 -2.3289 -0.0814 -1.7529
 2046SOL     OW17596   0.240   3.096   8.588  0.3347  0.0968 -0.3176
 2046SOL    HW117597   0.222   3.188   8.566  0.2783  0.7609  2.5901
 2046SOL    HW217598   0.157   3.048   8.583 -0.9762  2.3978 -0.8371
 2047SOL     OW17599   1.458   1.084  16.730 -0.3717 -0.1402  0.0201
 2047SOL    HW117600   1.385   1.141  16.752 -1.3695 -2.4199  2.4889
 2047SOL    HW217601   1.441   1.004  16.780 -0.6641 -0.0869  0.0045
 2048SOL     OW17602   2.456   1.227   3.302  0.5315 -0.1616 -0.0159
 2048SOL    HW117603   2.362   1.213   3.286  0.6257  0.2926 -0.9685
 2048SOL    HW217604   2.483   1.264   3.218  0.0430 -0.7473 -0.4314
 2049SOL     OW17605   3.396   4.227   6.927  0.0056 -0.0484  0.3416
 2049SOL    HW117606   3.450   4.242   6.850  3.4303  1.0391  2.9462
 2049SOL    HW217607   3.462   4.186   6.984  1.0154  0.3729 -0.5331
 2050SOL     OW17608   3.915   3.515  11.285  0.5522  0.3693 -0.1744
 2050SOL    HW117609   3.830   3.472  11.277  0.1163  1.3669 -0.8574
 2050SOL    HW217610   3.914   3.568  11.206  1.6779  0.1227 -0.3578
 2051SOL     OW17611   0.248   3.740  17.509 -0.0456  0.1158 -0.6583
 2051SOL    HW117612   0.277   3.653  17.482  2.1883 -0.0449  2.2828
 2051SOL    HW217613   0.195   3.716  17.585  0.4587 -1.2088 -0.7321
 2052SOL     OW17614   4.668   2.927  12.892  0.5196 -0.0314 -0.2782
 2052SOL    HW117615   4.576   2.953  12.897 -0.0792 -2.6373  2.0449
 2052SOL    HW217616   4.703   3.011  12.863 -1.4191  0.0277 -2.4295
 2053SOL     OW17617   4.190   1.214   4.679  0.4838  0.0755  0.3724
 2053SOL    HW117618   4.280   1.201   4.648  0.1066 -0.3448 -0.5274
 2053SOL    HW217619   4.166   1.296   4.636  0.0686 -0.3315 -0.1629
 2054SOL     OW17620   3.901   0.551   2.197 -0.7698  0.3635 -0.3987
 2054SOL    HW117621   3.860   0.465   2.210 -0.6433 -0.1061 -3.1640
 2054SOL    HW217622   3.876   0.574   2.108  1.4934  0.1246 -1.0908
 2055SOL     OW17623   4.006   2.561   5.291  0.7741  0.6214 -0.2308
 2055SOL    HW117624   4.096   2.581   5.319  0.2033  0.8840  1.3926
 2055SOL    HW217625   3.958   2.602   5.362  1.3119  0.7707  0.0508
 2056SOL     OW17626   3.051   1.255   1.304 -0.3374 -0.1569  0.5092
 2056SOL    HW117627   3.011   1.321   1.361 -0.2786 -1.6261  2.2224
 2056SOL    HW217628   2.989   1.183   1.313  1.3371 -1.8785 -1.7779
 2057SOL     OW17629   0.487   2.488   7.258  0.0982  0.2171 -0.1366
 2057SOL    HW117630   0.442   2.490   7.173 -1.4348  1.2281  0.6884
 2057SOL    HW217631   0.424   2.482   7.330  1.5953  0.0901  1.1518
 2058SOL     OW17632   3.145   4.517   4.512  0.1248 -0.4429  0.4276
 2058SOL    HW117633   3.188   4.597   4.482  0.0517 -0.8483 -0.7710
 2058SOL    HW217634   3.091   4.503   4.434  1.1577 -0.5079 -0.2695
 2059SOL     OW17635   2.238   0.712  13.547  0.3147 -0.5022 -0.5761
 2059SOL    HW117636   2.322   0.687  13.509 -0.5808 -1.4642 -1.9211
 2059SOL    HW217637   2.194   0.730  13.464 -1.4215  1.3791  0.7727
 2060SOL     OW17638   0.641   3.054   7.424  0.0794 -0.1902 -0.2859
 2060SOL    HW117639   0.583   3.007   7.365  1.3634 -1.7858 -0.2969
 2060SOL    HW217640   0.593   3.136   7.420  0.7581  0.1840 -0.8295
 2061SOL     OW17641   1.441   2.872   5.586 -0.1959  0.0464 -0.6364
 2061SOL    HW117642   1.514   2.848   5.643 -2.7530 -1.7463  1.8712
 2061SOL    HW217643   1.455   2.807   5.517  0.6657 -0.9169  0.4461
 2062SOL     OW17644   2.733   3.885   7.827  0.0463  0.3829  0.1693
 2062SOL    HW117645   2.648   3.910   7.792  0.1415  0.0920 -0.2670
 2062SOL    HW217646   2.775   3.972   7.830  1.6825 -0.4022  0.0977
 2063SOL     OW17647   4.245   4.500   5.159  0.0045 -0.1421  0.1377
 2063SOL    HW117648   4.279   4.430   5.104 -1.2201 -0.0159 -0.7727
 2063SOL    HW217649   4.182   4.529   5.093 -1.2639 -0.7837  1.0545
 2064SOL     OW17650   0.159   0.411  15.982  0.1702  0.1776 -0.0657
 2064SOL    HW117651   0.172   0.467  15.905 -0.5195 -0.0217 -0.3289
 2064SOL    HW217652   0.086   0.353  15.957  1.9614 -1.2236 -2.0725
 2065SOL     OW17653   0.848   4.047   6.678 -0.5565 -0.1778 -0.2807
 2065SOL    HW117654   0.782   4.080   6.617 -1.5791  1.2371  1.5989
 2065SOL    HW217655   0.848   4.117   6.743 -0.8033 -0.0501 -0.4169
 2066SOL     OW17656   4.553   4.045   5.480  0.2765 -0.5732  0.2085
 2066SOL    HW117657   4.464   4.015   5.461  1.5156 -3.2009 -1.2920
 2066SOL    HW217658   4.597   3.972   5.523  0.8061 -1.1875 -1.3978
 2067SOL     OW17659   0.291   2.057   7.434 -0.2414  0.2110  0.3951
 2067SOL    HW117660   0.313   1.964   7.431 -1.0767  0.1428 -2.9170
 2067SOL    HW217661   0.238   2.068   7.513 -0.7460  0.9704 -0.0427
 2068SOL     OW17662   0.614   0.475   5.638  0.7773 -0.7060  0.4356
 2068SOL    HW117663   0.697   0.492   5.594 -0.9693 -1.0975 -3.0214
 2068SOL    HW217664   0.564   0.452   5.559 -0.5171 -0.2507  1.1191
 2069SOL     OW17665   0.720   0.674  13.873 -0.5638 -0.0543  0.2360
 2069SOL    HW117666   0.648   0.734  13.893  2.2767  2.4095  2.9415
 2069SOL    HW217667   0.671   0.599  13.838  0.4084 -0.2442 -0.7155
 2070SOL     OW17668   2.781   3.968   4.900 -0.3634  0.0863 -0.3757
 2070SOL    HW117669   2.815   4.058   4.904 -2.8074  1.0036 -0.1070
 2070SOL    HW217670   2.767   3.968   4.806  2.2246  2.2024 -0.7561
 2071SOL     OW17671   0.304   4.605   6.579 -0.0350 -0.4969 -0.6597
 2071SOL    HW117672   0.369   4.552   6.532  0.8420 -0.9810  1.1141
 2071SOL    HW217673   0.236   4.620   6.514  0.7248  1.1248 -1.0865
 2072SOL     OW17674   4.631   3.314   1.787 -0.7130  0.3619 -0.3420
 2072SOL    HW117675   4.686   3.241   1.760 -2.9881 -1.0702 -1.0967
 2072SOL    HW217676   4.552   3.264   1.810 -0.7704  0.1671 -0.9730
 2073SOL     OW17677   1.891   0.936  11.080 -0.1456  0.3934  0.8031
 2073SOL    HW117678   1.960   0.888  11.126  1.3306  2.3003  0.5824
 2073SOL    HW217679   1.880   0.867  11.015  2.0386  1.3338 -0.5930
 2074SOL     OW17680   0.341   0.677   4.014  0.4830  0.4820 -0.1620
 2074SOL    HW117681   0.357   0.668   4.108 -1.0627 -0.2227  0.0356
 2074SOL    HW217682   0.379   0.596   3.980  0.0268 -0.6661  2.0034
 2075SOL     OW17683   3.821   1.914   1.793  0.5137  0.4034  0.3273
 2075SOL    HW117684   3.784   1.972   1.859 -1.9869  2.1121 -2.5679
 2075SOL    HW217685   3.859   1.985   1.742 -0.4715 -1.2664 -2.6972
 2076SOL     OW17686   1.280   0.128   6.526 -0.1972  0.5773 -0.1689
 2076SOL    HW117687   1.327   0.120   6.443  0.6949  0.4855  0.3400
 2076SOL    HW217688   1.347   0.170   6.581 -1.5902 -0.0106  1.9813
 2077SOL     OW17689   2.277   4.030  10.176 -0.7104 -0.2168 -0.1100
 2077SOL    HW117690   2.274   4.083  10.255 -0.8742 -3.3914  2.0307
 2077SOL    HW217691   2.195   3.981  10.181 -1.9045  1.9984  1.6080
 2078SOL     OW17692   0.211   3.805   5.025 -1.1536 -0.1231  0.0254
 2078SOL    HW117693   0.234   3.730   5.080  1.5255 -0.7010 -1.8860
 2078SOL    HW217694   0.152   3.854   5.084 -1.0516 -1.2203  1.0436
 2079SOL     OW17695   4.144   0.469  10.610 -0.1716  0.2266  0.0155
 2079SOL    HW117696   4.239   0.477  10.602 -0.3284  0.2527 -1.8139
 2079SOL    HW217697   4.120   0.553  10.571  0.3723 -0.4594 -1.7813
 2080SOL     OW17698   1.865   4.294  16.060  0.0374 -0.2223 -0.3046
 2080SOL    HW117699   1.826   4.290  15.972 -0.0954  0.9846 -0.3107
 2080SOL    HW217700   1.824   4.218  16.101 -1.0277 -0.4038 -1.6980
 2081SOL     OW17701   3.069   4.041   2.881  0.2987  0.8172  0.2280
 2081SOL    HW117702   3.105   4.073   2.964 -0.1735 -2.1085  1.5648
 2081SOL    HW217703   3.152   4.004   2.851 -0.3130 -0.5988  0.2802
 2082SOL     OW17704   0.249   2.994   8.228 -0.4880 -0.4268  0.2046
 2082SOL    HW117705   0.157   2.995   8.257  0.3497 -0.3746  2.8692
 2082SOL    HW217706   0.258   3.074   8.176 -1.1085  0.1362  0.9535
 2083SOL     OW17707   2.162   3.497  15.686  0.4858 -0.0585  0.3869
 2083SOL    HW117708   2.171   3.591  15.670  2.2991 -0.2342  0.3632
 2083SOL    HW217709   2.242   3.458  15.652  1.0695 -1.2071  3.1595
 2084SOL     OW17710   2.424   0.941   8.790  0.6019  0.3148 -0.2707
 2084SOL    HW117711   2.487   1.000   8.748  2.2240 -2.7745 -2.1928
 2084SOL    HW217712   2.417   0.977   8.878 -0.9413 -1.6283  0.3977
 2085SOL     OW17713   2.051   2.599  17.641  0.2817  0.4359  0.0598
 2085SOL    HW117714   2.095   2.546  17.574 -1.5750 -1.7364  0.5600
 2085SOL    HW217715   2.091   2.684  17.625  1.5106  0.1586  1.6907
 2086SOL     OW17716   1.787   2.226   2.339  0.0365 -0.1710 -0.2521
 2086SOL    HW117717   1.810   2.137   2.310  2.3106  0.0171  0.9895
 2086SOL    HW217718   1.871   2.251   2.376  0.2132 -1.0844 -0.0227
 2087SOL     OW17719   0.378   0.417  10.282 -0.1352  0.1427 -0.6380
 2087SOL    HW117720   0.401   0.371  10.201  0.4998 -1.0979  0.2477
 2087SOL    HW217721   0.442   0.379  10.342 -1.2060 -0.6741 -0.0300
 2088SOL     OW17722   2.806   4.562  15.524  0.5497 -0.1356  0.3282
 2088SOL    HW117723   2.807   4.640  15.579  3.7778  0.9626 -1.2995
 2088SOL    HW217724   2.711   4.551  15.513  0.3184  0.6399  1.5382
 2089SOL     OW17725   2.163   3.258   4.081 -0.4989  0.2628 -0.5490
 2089SOL    HW117726   2.123   3.295   4.002  3.4013  0.3233 -2.5077
 2089SOL    HW217727   2.203   3.179   4.046 -0.5586  0.5863 -1.3433
 2090SOL     OW17728   4.376   4.527   6.744 -0.5068 -0.1107  0.5532
 2090SOL    HW117729   4.366   4.606   6.691  1.1033  0.3640  0.9498
 2090SOL    HW217730   4.289   4.514   6.782  0.0438 -0.3902  1.7207
 2091SOL     OW17731   2.810   4.092   9.208  0.3072  0.2861 -0.0125
 2091SOL    HW117732   2.776   4.012   9.248 -1.1942  0.7328 -0.4249
 2091SOL    HW217733   2.894   4.077   9.253 -0.3202 -0.4490  0.9060
 2092SOL     OW17734   3.168   0.861  17.040  0.3997  0.0157  0.3610
 2092SOL    HW117735   3.121   0.778  17.036 -3.2138  2.0615  0.4812
 2092SOL    HW217736   3.093   0.919  17.054 -1.2277 -2.1908  0.7209
 2093SOL     OW17737   2.712   1.894  13.347 -0.1993  0.4324 -0.1275
 2093SOL    HW117738   2.635   1.911  13.402  1.1286  0.1958  1.8270
 2093SOL    HW217739   2.735   1.809  13.384  0.3559  0.4718 -0.3918
 2094SOL     OW17740   1.404   3.129   3.057  0.1562  0.0201  0.1679
 2094SOL    HW117741   1.354   3.128   3.139 -0.3186 -2.6959 -0.1737
 2094SOL    HW217742   1.333   3.172   3.009  1.3503  0.8753 -0.8209
 2095SOL     OW17743   0.991   1.319   4.966  0.0094 -0.2347 -0.0820
 2095SOL    HW117744   0.996   1.370   4.885 -0.0699  0.9410  0.6382
 2095SOL    HW217745   1.030   1.235   4.941 -0.4976  0.0116 -1.7222
 2096SOL     OW17746   2.801   0.593  11.824 -0.3982 -0.4385  0.5876
 2096SOL    HW117747   2.816   0.515  11.876 -0.5717  0.0495  1.3645
 2096SOL    HW217748   2.711   0.620  11.840 -0.3730  0.3102 -0.4853
 2097SOL     OW17749   4.211   4.620  10.861  0.5353 -0.2281  0.2636
 2097SOL    HW117750   4.192   4.625  10.767  0.4641 -1.7309  0.1961
 2097SOL    HW217751   4.167   4.697  10.896 -1.6574 -0.6814 -1.5290
 2098SOL     OW17752   4.159   2.045   5.713  0.2204  0.3395 -0.2421
 2098SOL    HW117753   4.099   1.970   5.711 -1.0147  1.2710  2.0742
 2098SOL    HW217754   4.240   1.999   5.734 -0.9314 -1.0354  1.1562
 2099SOL     OW17755   1.588   4.467  16.967 -0.1585  0.0808  0.4530
 2099SOL    HW117756   1.533   4.391  16.985  0.0895 -0.0074  0.8615
 2099SOL    HW217757   1.665   4.439  16.917 -0.3986  0.8664 -0.3504
 2100SOL     OW17758   2.099   0.447   1.624  0.0851 -0.3183  0.4998
 2100SOL    HW117759   2.164   0.472   1.558 -0.0869  2.4644  1.3967
 2100SOL    HW217760   2.157   0.413   1.692 -0.1688 -1.6086  0.0806
 2101SOL     OW17761   0.001   2.711  12.697  0.3430  1.0438 -0.1151
 2101SOL    HW117762   4.677   2.646  12.749  1.3457  0.9740  0.7215
 2101SOL    HW217763   0.047   2.751  12.770  1.1193 -0.8820  0.4517
 2102SOL     OW17764   3.426   0.433   3.034 -0.1961  0.5572  0.4925
 2102SOL    HW117765   3.496   0.375   3.005 -0.6873  0.3580 -0.2848
 2102SOL    HW217766   3.448   0.449   3.126 -1.0397  2.6790  0.3225
 2103SOL     OW17767   2.776   1.199   7.290 -0.0502 -0.1854  0.5589
 2103SOL    HW117768   2.790   1.106   7.272  0.5124  0.2792 -1.3716
 2103SOL    HW217769   2.837   1.229   7.358 -0.0810  2.2275 -0.4850
 2104SOL     OW17770   3.980   4.525  14.664  0.5270  0.0103 -0.3844
 2104SOL    HW117771   3.943   4.438  14.649  0.2292 -0.3617  2.6581
 2104SOL    HW217772   3.961   4.545  14.755  0.4046  1.1348 -0.6558
 2105SOL     OW17773   3.828   0.979   2.657  0.1255 -0.1209  0.2016
 2105SOL    HW117774   3.842   1.065   2.698 -1.3496 -0.0865  0.6211
 2105SOL    HW217775   3.826   1.003   2.565  0.7062  0.2182  0.2765
 2106SOL     OW17776   1.399   3.350   0.781  0.0205  0.0282  0.9307
 2106SOL    HW117777   1.478   3.296   0.790 -0.7595 -1.5052 -1.6115
 2106SOL    HW217778   1.340   3.288   0.740  0.0130 -1.0888  2.6305
 2107SOL     OW17779   3.843   2.181   6.263  0.1308  0.2868  0.4358
 2107SOL    HW117780   3.785   2.132   6.320  0.0682  0.3295  0.4088
 2107SOL    HW217781   3.804   2.268   6.277 -0.7527 -0.1624  0.7332
 2108SOL     OW17782   4.128   3.746   2.123  0.2867  0.0999 -0.1949
 2108SOL    HW117783   4.120   3.828   2.075 -1.2676  0.8754  1.3807
 2108SOL    HW217784   4.087   3.770   2.206 -3.1585  0.8404 -2.0977
 2109SOL     OW17785   0.407   2.631   3.285 -0.4422  0.3978  0.4533
 2109SOL    HW117786   0.495   2.608   3.255 -0.0641 -0.0167  1.8703
 2109SOL    HW217787   0.430   2.686   3.359  2.1331  1.8995 -1.4686
 2110SOL     OW17788   0.784   3.253  10.535 -0.4066 -0.2335  0.3917
 2110SOL    HW117789   0.785   3.318  10.465 -0.3137 -1.4644 -0.7452
 2110SOL    HW217790   0.879   3.247  10.543 -0.3085 -1.7736 -1.9467
 2111SOL     OW17791   0.907   3.379  10.309  0.6031 -0.0692  0.6266
 2111SOL    HW117792   0.974   3.438  10.345  0.4678  0.2954  0.2778
 2111SOL    HW217793   0.891   3.432  10.231 -1.5595 -1.3577  0.2227
 2112SOL     OW17794   4.284   1.052  17.547 -0.2490  0.2063 -0.1613
 2112SOL    HW117795   4.213   1.060  17.483 -0.8516 -0.5308  0.4212
 2112SOL    HW217796   4.285   1.138  17.589  0.9083  0.8826 -1.5834
 2113SOL     OW17797   3.034   1.819   3.518 -0.0206 -0.0031  0.2991
 2113SOL    HW117798   2.984   1.872   3.455  0.4304  0.1869  0.1031
 2113SOL    HW217799   3.020   1.870   3.598 -0.1916 -0.0439  0.2952
 2114SOL     OW17800   2.145   1.995   6.740  0.1418 -0.3720  0.0240
 2114SOL    HW117801   2.055   2.011   6.710 -0.1834 -1.1712  0.5631
 2114SOL    HW217802   2.162   2.079   6.782 -1.4237  0.0827 -0.2314
 2115SOL     OW17803   2.180   0.747   9.043  0.0652 -0.2441  0.5103
 2115SOL    HW117804   2.112   0.799   9.085 -0.3031  0.2278 -0.6731
 2115SOL    HW217805   2.125   0.672   9.021  1.7440 -0.9574 -1.3007
 2116SOL     OW17806   4.561   4.488  10.203  0.0842  0.6235 -0.5274
 2116SOL    HW117807   4.494   4.502  10.269  2.2717  1.6362  1.4855
 2116SOL    HW217808   4.601   4.575  10.197 -3.2784  2.1909  0.0276
 2117SOL     OW17809   1.063   0.009   8.857 -0.4598  0.0569 -0.5009
 2117SOL    HW117810   1.022   4.669   8.915  0.1296  0.0482 -0.0950
 2117SOL    HW217811   1.038   0.095   8.889 -1.0043 -0.2866 -0.0009
 2118SOL     OW17812   2.219   1.111   3.201 -0.2286 -0.2605 -0.3233
 2118SOL    HW117813   2.138   1.162   3.194 -0.5381 -0.7733 -0.4726
 2118SOL    HW217814   2.198   1.030   3.155 -0.9198 -0.3250  0.1026
 2119SOL     OW17815   3.445   2.498   7.982  0.3350  0.1464 -0.0283
 2119SOL    HW117816   3.532   2.534   7.995  0.8444 -0.9363 -0.4564
 2119SOL    HW217817   3.433   2.487   7.887 -2.0050  0.3704  0.2251
 2120SOL     OW17818   3.206   0.102   0.697  0.4238  0.3412  0.3397
 2120SOL    HW117819   3.241   0.066   0.778  0.3153  3.0741  1.5999
 2120SOL    HW217820   3.149   0.169   0.734 -0.5407 -0.8452  0.9765
 2121SOL     OW17821   3.729   4.420   3.458 -0.5344 -0.2075 -0.0550
 2121SOL    HW117822   3.683   4.494   3.418 -1.0504  0.0966  1.1005
 2121SOL    HW217823   3.670   4.345   3.459  2.3180 -2.4656 -0.4132
 2122SOL     OW17824   3.370   1.890   1.741 -0.1706  0.0925  0.1976
 2122SOL    HW117825   3.367   1.940   1.659  0.5431 -0.4440 -0.1649
 2122SOL    HW217826   3.424   1.820   1.702 -1.7079 -1.0248  0.0759
 2123SOL     OW17827   2.509   0.096  12.017 -0.4163 -0.1165  0.5935
 2123SOL    HW117828   2.426   0.051  12.034  0.1366 -0.9748  1.0441
 2123SOL    HW217829   2.531   0.086  12.109 -1.0007  0.0427  0.7503
 2124SOL     OW17830   4.189   0.027   7.656  0.1653  0.2114  0.2778
 2124SOL    HW117831   4.211   4.698   7.579 -1.2830 -0.1127  0.0929
 2124SOL    HW217832   4.244   0.104   7.640 -0.2624 -0.1946 -3.2840
 2125SOL     OW17833   0.715   0.690   1.728  0.0011 -0.7723  0.2243
 2125SOL    HW117834   0.794   0.656   1.686 -0.6028  0.3232 -1.8044
 2125SOL    HW217835   0.705   0.633   1.805  1.2280  0.8317  1.5694
 2126SOL     OW17836   2.793   4.229  11.243 -0.2160  0.5511  0.3691
 2126SOL    HW117837   2.795   4.281  11.323 -0.9166 -0.7550  1.2254
 2126SOL    HW217838   2.835   4.150  11.277 -0.0658 -0.3194 -1.8587
 2127SOL     OW17839   0.365   2.771   0.683  0.2079  0.9724  0.0229
 2127SOL    HW117840   0.359   2.835   0.755  1.0134  1.1458 -0.0652
 2127SOL    HW217841   0.454   2.741   0.700 -1.3011 -2.8118  1.1025
 2128SOL     OW17842   0.389   2.201   8.330  0.3279  0.0219 -0.3781
 2128SOL    HW117843   0.439   2.282   8.340  0.1542  0.1616 -0.6187
 2128SOL    HW217844   0.458   2.141   8.303  1.3566  1.6869 -1.5152
 2129SOL     OW17845   1.429   0.077   0.890  0.5463  0.5747  0.2935
 2129SOL    HW117846   1.390   0.090   0.803  3.6587 -2.1160 -1.5098
 2129SOL    HW217847   1.368   0.010   0.922  1.1874  0.4098  1.1540
 2130SOL     OW17848   4.690   3.131   9.259  0.5237 -0.2215 -0.1738
 2130SOL    HW117849   0.050   3.091   9.238 -0.4520 -2.5227  0.2620
 2130SOL    HW217850   4.628   3.060   9.239 -2.3130  1.2612  3.3440
 2131SOL     OW17851   2.700   0.795   4.265  0.8606  0.4903  0.0318
 2131SOL    HW117852   2.701   0.888   4.239  1.1897  1.0002  1.8890
 2131SOL    HW217853   2.674   0.754   4.182 -1.3146  1.4606  0.2373
 2132SOL     OW17854   1.629   0.222   9.617 -0.2070 -0.8037 -0.0122
 2132SOL    HW117855   1.694   0.253   9.680 -1.6943  1.1082  0.5946
 2132SOL    HW217856   1.673   0.156   9.564  0.6913  1.3438 -1.9392
 2133SOL     OW17857   3.832   2.949   9.458  0.4005 -0.2044 -0.8121
 2133SOL    HW117858   3.778   2.880   9.421  0.3370  0.2738 -1.6283
 2133SOL    HW217859   3.894   2.896   9.508  1.1557 -0.3759 -1.9231
 2134SOL     OW17860   0.210   3.963   8.032  0.3561 -0.5914 -0.3068
 2134SOL    HW117861   0.175   3.936   8.117  1.1083 -0.6770 -0.0289
 2134SOL    HW217862   0.129   3.983   7.986  0.7897  2.3786  0.2614
 2135SOL     OW17863   4.724   0.456   8.541  0.0670  0.0291  0.2211
 2135SOL    HW117864   0.074   0.515   8.552 -0.0377  0.2242 -0.1283
 2135SOL    HW217865   4.698   0.434   8.631  0.4241  0.2967  0.3875
 2136SOL     OW17866   4.463   1.776   9.457 -0.4106  0.3074 -0.4911
 2136SOL    HW117867   4.380   1.731   9.440 -0.5613  1.0118 -1.6303
 2136SOL    HW217868   4.448   1.834   9.382 -2.4603 -0.9585 -1.0638
 2137SOL     OW17869   0.061   1.636   6.678  0.1882  0.0152 -0.0987
 2137SOL    HW117870   0.060   1.707   6.614 -0.6975  0.3939  0.3413
 2137SOL    HW217871   0.147   1.599   6.657  0.8006  0.5341  1.5054
 2138SOL     OW17872   1.780   0.006   1.864  0.4611 -0.1059  1.0224
 2138SOL    HW117873   1.851   4.665   1.864  0.2067 -0.4157 -2.2483
 2138SOL    HW217874   1.821   0.076   1.914  0.4524  0.7789 -0.2047
 2139SOL     OW17875   1.519   0.723  12.303  0.3129  0.1902  0.0479
 2139SOL    HW117876   1.520   0.705  12.209 -2.5940 -0.1402  0.0956
 2139SOL    HW217877   1.612   0.745  12.313  0.7343 -2.1398  1.2182
 2140SOL     OW17878   0.847   0.877   2.848 -0.5347  0.7505  0.3747
 2140SOL    HW117879   0.784   0.835   2.789  0.6373 -0.0013 -0.3417
 2140SOL    HW217880   0.834   0.844   2.937  1.0396 -1.2059 -0.1029
 2141SOL     OW17881   0.392   1.904   8.985  0.1985 -0.3756  0.6477
 2141SOL    HW117882   0.453   1.906   9.058  2.7058  1.4228 -1.5053
 2141SOL    HW217883   0.310   1.887   9.033 -1.3305 -0.0845 -1.8448
 2142SOL     OW17884   0.500   4.629   5.610  0.3101 -0.1451 -0.6105
 2142SOL    HW117885   0.588   4.631   5.650 -0.3093  1.3341  0.7062
 2142SOL    HW217886   0.499   4.714   5.565  0.9758  0.3952  0.3783
 2143SOL     OW17887   3.241   1.445   4.972  0.0694 -0.1671 -0.4505
 2143SOL    HW117888   3.295   1.503   5.027 -1.5059  0.9819 -0.1249
 2143SOL    HW217889   3.205   1.510   4.912  0.5760 -1.2439 -1.9246
 2144SOL     OW17890   3.263   1.080   3.895 -0.1075  0.2881  0.1384
 2144SOL    HW117891   3.206   1.155   3.879 -0.3437  0.3575  1.2918
 2144SOL    HW217892   3.215   1.017   3.841 -0.3277  0.4528  0.1407
 2145SOL     OW17893   4.623   1.408   6.439 -0.0293 -0.3530  0.1634
 2145SOL    HW117894   4.627   1.504   6.440 -0.7716 -0.3393  1.6306
 2145SOL    HW217895   4.657   1.380   6.354  2.0787  2.0608  0.2114
 2146SOL     OW17896   4.315   2.258   2.189 -0.0670  1.1533  0.0076
 2146SOL    HW117897   4.396   2.205   2.188 -1.5992 -1.1922 -2.0840
 2146SOL    HW217898   4.337   2.333   2.134 -0.0526  1.2842  0.1925
 2147SOL     OW17899   1.724   1.389   2.932 -0.2022  0.7843  0.0800
 2147SOL    HW117900   1.709   1.439   3.013 -2.3846  0.8753 -0.3866
 2147SOL    HW217901   1.668   1.312   2.934 -0.1819  0.6780 -2.9975
 2148SOL     OW17902   2.931   2.384   8.153  0.7981 -0.5989  0.0269
 2148SOL    HW117903   2.908   2.293   8.175  2.1554 -0.8281  0.5343
 2148SOL    HW217904   2.890   2.397   8.068 -0.2280 -1.3721  0.4012
 2149SOL     OW17905   4.663   4.188   2.585  0.0526 -0.1504  0.2352
 2149SOL    HW117906   4.693   4.272   2.620 -1.2727  0.0629  0.8640
 2149SOL    HW217907   4.695   4.194   2.495  0.0815  0.4031  0.2807
 2150SOL     OW17908   3.057   2.914   5.763 -0.3611 -0.3448 -0.4379
 2150SOL    HW117909   3.055   2.861   5.684  1.1685 -0.2869 -0.5073
 2150SOL    HW217910   3.016   2.858   5.829 -0.3792  2.6938  2.1466
 2151SOL     OW17911   1.664   3.428  13.213 -0.0559 -0.0020 -0.1723
 2151SOL    HW117912   1.702   3.448  13.128  1.6654  0.6363  0.7480
 2151SOL    HW217913   1.705   3.345  13.237  0.9341  0.4840 -0.2026
 2152SOL     OW17914   2.424   1.569   3.439  0.1102  0.5490 -0.2537
 2152SOL    HW117915   2.422   1.548   3.345 -2.3847 -0.8572  0.1327
 2152SOL    HW217916   2.431   1.664   3.432  0.0183  0.4944 -1.1670
 2153SOL     OW17917   2.779   1.075  10.498 -0.0185  0.3014  0.0403
 2153SOL    HW117918   2.767   1.169  10.489  0.8506  0.3609 -0.5240
 2153SOL    HW217919   2.860   1.067  10.547 -0.0412 -0.5856 -0.0626
 2154SOL     OW17920   2.882   1.799   5.651 -0.5596  0.6687  0.3303
 2154SOL    HW117921   2.954   1.853   5.618  0.6876 -1.9320 -1.2147
 2154SOL    HW217922   2.906   1.807   5.743 -2.1768  0.1623  0.7957
 2155SOL     OW17923   2.384   3.642  14.112  0.4751  0.1064 -0.7551
 2155SOL    HW117924   2.479   3.655  14.108  0.4335  0.3622 -0.9347
 2155SOL    HW217925   2.355   3.707  14.176 -2.4957 -2.7039  0.7566
 2156SOL     OW17926   4.192   2.716   8.033  0.2618  0.2307 -0.3120
 2156SOL    HW117927   4.226   2.779   8.097 -0.1615  1.4701 -1.3184
 2156SOL    HW217928   4.250   2.721   7.958 -0.3076 -0.3521 -0.7869
 2157SOL     OW17929   0.582   1.351   5.041  0.1341  0.2614 -0.5969
 2157SOL    HW117930   0.499   1.336   4.995 -1.2563  1.1912  1.6072
 2157SOL    HW217931   0.555   1.347   5.133  1.7226  2.2040 -0.0366
 2158SOL     OW17932   0.463   4.062  13.731 -1.0344 -0.3630 -0.4539
 2158SOL    HW117933   0.396   4.128  13.712 -1.5903 -1.5474 -2.7350
 2158SOL    HW217934   0.542   4.110  13.706 -1.2358  0.6773  0.9188
 2159SOL     OW17935   1.933   4.038   4.814  0.0069 -0.4473  0.6247
 2159SOL    HW117936   1.991   4.074   4.748 -0.5348 -1.0949 -0.2010
 2159SOL    HW217937   1.857   4.096   4.806  1.6996  1.7684  0.6174
 2160SOL     OW17938   2.734   3.977   4.624  0.7470 -0.0259  0.3475
 2160SOL    HW117939   2.657   3.936   4.585  0.7378 -1.2788  1.6795
 2160SOL    HW217940   2.796   3.955   4.554 -0.6425  0.6150 -1.0892
 2161SOL     OW17941   0.112   2.329   6.719 -0.2615  0.3928  0.0443
 2161SOL    HW117942   0.202   2.341   6.690 -0.5841  0.3826 -0.9849
 2161SOL    HW217943   0.069   2.283   6.646 -1.3270  2.3359 -0.5628
 2162SOL     OW17944   2.020   1.174   4.320 -0.1359 -0.0792  0.5486
 2162SOL    HW117945   2.064   1.090   4.329  0.5500  0.2345  0.0721
 2162SOL    HW217946   2.064   1.207   4.242 -0.9045  0.6697  0.4205
 2163SOL     OW17947   0.061   0.851   7.901  0.7864 -0.1860  0.5249
 2163SOL    HW117948   4.691   0.844   7.887  0.8803 -2.3901  0.9581
 2163SOL    HW217949   0.066   0.896   7.985  1.3404 -3.3954  2.1997
 2164SOL     OW17950   0.260   3.790   3.824 -0.0475  0.2415 -0.1174
 2164SOL    HW117951   0.225   3.827   3.906  0.3498 -0.2016  0.2508
 2164SOL    HW217952   0.184   3.735   3.804 -0.2517  0.0228  1.2087
 2165SOL     OW17953   3.074   2.169  14.651  0.2004  0.1235  0.6304
 2165SOL    HW117954   3.125   2.241  14.614 -0.3490  0.9993  1.5570
 2165SOL    HW217955   3.026   2.224  14.714  2.6659  3.2950 -0.2439
 2166SOL     OW17956   3.573   3.616   9.528 -0.3920  0.1179 -0.1388
 2166SOL    HW117957   3.583   3.711   9.520 -0.8053  0.2394  0.8272
 2166SOL    HW217958   3.535   3.602   9.441 -0.2641  0.5670 -0.2709
 2167SOL     OW17959   2.778   1.629  17.063 -0.3806  0.3840  0.1434
 2167SOL    HW117960   2.770   1.709  17.012 -1.1214  1.9759  2.7494
 2167SOL    HW217961   2.721   1.648  17.138 -0.0574  0.8530  0.2690
 2168SOL     OW17962   4.653   0.038   6.698 -0.2892 -0.6078 -0.3626
 2168SOL    HW117963   0.002   4.701   6.686  0.1105 -0.1111 -0.4843
 2168SOL    HW217964   4.632   0.056   6.607 -1.3684 -1.1470 -0.2058
 2169SOL     OW17965   3.295   0.750   8.789  0.0871 -0.3395  0.1089
 2169SOL    HW117966   3.272   0.841   8.808  1.5070  0.0741 -0.1545
 2169SOL    HW217967   3.218   0.725   8.738  0.0224  0.9142 -0.3922
 2170SOL     OW17968   0.814   2.683   7.451 -0.0611 -0.0918  0.2736
 2170SOL    HW117969   0.837   2.591   7.436 -2.3830 -0.1838 -2.7845
 2170SOL    HW217970   0.720   2.683   7.472 -0.5543  3.0963 -2.0256
 2171SOL     OW17971   2.184   2.694   6.699  0.4401 -0.1447  0.6096
 2171SOL    HW117972   2.105   2.709   6.749  1.3444  2.6765  1.1786
 2171SOL    HW217973   2.247   2.735   6.758  1.5589 -2.3913  0.9976
 2172SOL     OW17974   3.669   0.741   7.501 -0.1421  0.2989  0.4559
 2172SOL    HW117975   3.589   0.790   7.480  0.0918  0.8777  0.9107
 2172SOL    HW217976   3.710   0.722   7.417 -2.2276 -2.0681 -0.0350
 2173SOL     OW17977   3.857   4.443   6.796 -0.4190  0.4027 -0.6920
 2173SOL    HW117978   3.774   4.477   6.762 -0.5566  1.4970  0.7584
 2173SOL    HW217979   3.839   4.350   6.810  0.1526  0.6212  1.5108
 2174SOL     OW17980   2.337   4.578   7.548  0.5353  0.1162  0.3914
 2174SOL    HW117981   2.374   4.606   7.464  0.3438  1.1751  0.6546
 2174SOL    HW217982   2.245   4.567   7.528  0.2790 -0.8146  2.0546
 2175SOL     OW17983   4.597   4.660  13.040 -0.3048  1.0512 -0.1521
 2175SOL    HW117984   4.616   4.592  13.105  1.6431 -0.3388 -2.2062
 2175SOL    HW217985   4.582   0.012  13.096 -0.5062 -1.5004  3.2425
 2176SOL     OW17986   2.874   4.167   4.275  0.0358 -0.5615  0.1714
 2176SOL    HW117987   2.904   4.096   4.333  0.2344  1.4914  2.5730
 2176SOL    HW217988   2.819   4.115   4.216  1.0385 -1.2208 -0.2080
 2177SOL     OW17989   4.615   1.153   3.466  0.1039  0.2022 -0.1763
 2177SOL    HW117990   4.634   1.068   3.426  2.4851  1.6943 -2.1740
 2177SOL    HW217991   4.701   1.181   3.498  1.1950  1.2911 -4.0940
 2178SOL     OW17992   3.912   4.460  16.217 -0.2072  0.0281  0.4590
 2178SOL    HW117993   3.894   4.368  16.196 -0.2135 -0.2345  1.5670
 2178SOL    HW217994   3.854   4.501  16.154  0.1530 -0.9345 -0.4953
 2179SOL     OW17995   1.643   3.616   3.262 -0.1441  0.4039  0.5180
 2179SOL    HW117996   1.596   3.564   3.197 -0.1852  0.1920  0.7175
 2179SOL    HW217997   1.733   3.586   3.247 -0.4375  0.7910 -2.0977
 2180SOL     OW17998   1.094   3.609  13.099  0.3682 -0.5903 -0.1281
 2180SOL    HW117999   1.187   3.616  13.079  1.0162  1.7652  3.8496
 2180SOL    HW218000   1.081   3.523  13.058  2.8338 -1.3270  0.6635
 2181SOL     OW18001   3.856   1.714   2.056  0.3204 -0.6262  0.3215
 2181SOL    HW118002   3.856   1.804   2.025 -2.2476 -0.5244  0.6393
 2181SOL    HW218003   3.769   1.690   2.089 -0.8393  1.2187 -1.4582
 2182SOL     OW18004   4.499   0.631  17.564 -0.3781  0.2811 -0.1582
 2182SOL    HW118005   4.501   0.583  17.481  3.3236 -2.1185  1.3050
 2182SOL    HW218006   4.415   0.675  17.568 -0.4495  0.1071  0.2913
 2183SOL     OW18007   3.660   1.475   4.543 -0.3058  0.5891  0.1204
 2183SOL    HW118008   3.724   1.435   4.601  0.3323  1.0759 -0.2567
 2183SOL    HW218009   3.705   1.558   4.526 -1.2938  1.2761  0.9078
 2184SOL     OW18010   1.757   2.322  10.859 -0.3923 -0.0924  0.5477
 2184SOL    HW118011   1.667   2.355  10.859 -0.7774 -1.1783  1.6069
 2184SOL    HW218012   1.805   2.403  10.877  0.8761 -0.4433 -1.2417
 2185SOL     OW18013   1.212   3.680  11.256  0.0800  0.2154  0.4060
 2185SOL    HW118014   1.144   3.747  11.243  0.4687  0.1630 -1.9743
 2185SOL    HW218015   1.226   3.661  11.163  0.1612 -2.0781  0.8875
 2186SOL     OW18016   3.389   2.437  16.554 -0.4100  0.1800  0.2607
 2186SOL    HW118017   3.477   2.467  16.533 -1.0377 -1.0772 -4.3279
 2186SOL    HW218018   3.343   2.503  16.502  1.0257 -0.4388 -1.8011
 2187SOL     OW18019   2.626   4.087  15.229  0.6378 -0.1230 -0.0397
 2187SOL    HW118020   2.694   4.142  15.191  0.9940  0.7555  1.8674
 2187SOL    HW218021   2.674   4.004  15.235  1.6658  0.7472  3.8533
 2188SOL     OW18022   0.982   2.910   6.201  0.4522 -0.3385  0.0775
 2188SOL    HW118023   1.034   2.830   6.197 -0.9450 -1.3359  2.2612
 2188SOL    HW218024   0.905   2.889   6.148  0.7898 -0.3767 -0.3958
 2189SOL     OW18025   1.289   1.574   0.864  0.0611  0.3192 -0.3510
 2189SOL    HW118026   1.312   1.575   0.771  1.9793 -0.2683  0.1169
 2189SOL    HW218027   1.245   1.657   0.879  1.2882  0.4956  2.2802
 2190SOL     OW18028   1.336   3.590   9.265  0.2790 -0.1257  0.3128
 2190SOL    HW118029   1.360   3.572   9.174 -0.2892 -2.3734  0.6162
 2190SOL    HW218030   1.420   3.565   9.303 -0.4383 -3.4026 -0.2728
 2191SOL     OW18031   1.288   4.604   1.013 -0.4933  1.0124  0.3815
 2191SOL    HW118032   1.339   4.526   1.038  0.2026  1.4854  0.4402
 2191SOL    HW218033   1.241   4.566   0.940  0.9460  0.3024 -0.1808
 2192SOL     OW18034   3.330   1.262   9.513  0.2847 -0.3455 -0.6904
 2192SOL    HW118035   3.290   1.341   9.550  1.1725 -0.5391  0.6818
 2192SOL    HW218036   3.302   1.259   9.422  0.5848 -0.8676 -0.7634
 2193SOL     OW18037   4.055   4.253   3.576  0.6693  0.3219 -0.1749
 2193SOL    HW118038   4.029   4.162   3.562 -0.3604  0.8114 -1.4741
 2193SOL    HW218039   4.149   4.237   3.563  0.5077  0.2916 -1.2745
 2194SOL     OW18040   4.331   0.651  11.853 -0.2052  0.3829 -0.3969
 2194SOL    HW118041   4.266   0.601  11.903 -0.7659  1.6854  0.1837
 2194SOL    HW218042   4.374   0.695  11.927 -0.0927  2.6575 -1.7995
 2195SOL     OW18043   2.605   3.729  13.490 -0.1320  0.0535  0.2940
 2195SOL    HW118044   2.685   3.776  13.467  0.7714 -0.2661  2.8256
 2195SOL    HW218045   2.548   3.751  13.416  0.3813 -2.0231 -0.7140
 2196SOL     OW18046   3.760   3.300   7.074  0.1147 -0.0628 -0.1564
 2196SOL    HW118047   3.826   3.345   7.022 -0.4288 -0.8131 -1.4785
 2196SOL    HW218048   3.754   3.348   7.157  3.9200  0.4445 -0.1769
 2197SOL     OW18049   0.603   4.439   6.039  0.4701 -0.0902 -0.2578
 2197SOL    HW118050   0.635   4.527   6.059  0.4511  0.0394 -0.7874
 2197SOL    HW218051   0.682   4.392   6.067  0.2012  0.5923  1.6294
 2198SOL     OW18052   2.098   0.840   7.190  0.3100 -0.1111 -0.1447
 2198SOL    HW118053   2.066   0.894   7.262 -2.4163  0.2110 -1.5658
 2198SOL    HW218054   2.192   0.840   7.208  0.3242  1.1100 -0.2204
 2199SOL     OW18055   1.349   2.211   7.627  0.5877  0.3973  0.6389
 2199SOL    HW118056   1.376   2.120   7.611  0.1371  0.6361 -1.4777
 2199SOL    HW218057   1.427   2.240   7.676  1.4519 -0.8086 -0.0119
 2200SOL     OW18058   0.264   3.169  11.801  0.2263 -0.0441 -0.0257
 2200SOL    HW118059   0.245   3.255  11.763  1.4297  0.3652  0.2997
 2200SOL    HW218060   0.354   3.150  11.774 -0.0509 -1.8785  0.3774
 2201SOL     OW18061   1.691   0.986  14.727  0.3098  0.2080 -0.4965
 2201SOL    HW118062   1.753   0.944  14.667 -0.1528 -1.6155  0.3012
 2201SOL    HW218063   1.660   0.916  14.784 -1.2164 -0.3331 -1.9951
 2202SOL     OW18064   2.795   1.201   4.014  0.1010 -0.2664  0.5139
 2202SOL    HW118065   2.861   1.132   4.002  1.5623  1.5184 -1.6711
 2202SOL    HW218066   2.746   1.205   3.932  0.1409 -0.1385  0.4966
 2203SOL     OW18067   2.094   3.547   2.135  0.3867  0.4776 -0.2114
 2203SOL    HW118068   2.182   3.563   2.167  0.2954 -3.3636  1.9827
 2203SOL    HW218069   2.039   3.596   2.195 -0.7949  0.1857 -1.0513
 2204SOL     OW18070   1.789   0.879   6.637 -0.2055 -0.0061 -0.1283
 2204SOL    HW118071   1.810   0.945   6.571 -1.0122 -1.3621 -1.7501
 2204SOL    HW218072   1.872   0.867   6.683  0.1195  0.7334 -0.5266
 2205SOL     OW18073   0.694   4.119   4.939  0.0080 -0.0893  0.3731
 2205SOL    HW118074   0.648   4.036   4.927 -0.7070  0.4613 -0.7317
 2205SOL    HW218075   0.720   4.126   5.031 -0.0830 -0.0347  0.3956
 2206SOL     OW18076   3.377   3.171   4.338 -0.5433  0.2087 -0.1661
 2206SOL    HW118077   3.302   3.211   4.295 -0.5948  1.9101  1.4975
 2206SOL    HW218078   3.336   3.093   4.376 -0.4159 -0.2032 -0.8811
 2207SOL     OW18079   2.559   1.478   5.012  0.1688  0.3592 -0.2056
 2207SOL    HW118080   2.489   1.467   4.947 -1.2029 -0.4442  1.4178
 2207SOL    HW218081   2.634   1.442   4.964 -0.3252 -0.4474 -0.3612
 2208SOL     OW18082   4.417   3.781   4.188  0.0721 -0.5984  0.1351
 2208SOL    HW118083   4.355   3.711   4.167 -1.5569  0.2547  2.1401
 2208SOL    HW218084   4.410   3.839   4.112 -0.1669  1.7010  1.9220
 2209SOL     OW18085   2.331   0.772   8.472 -0.3402  0.6518  0.0560
 2209SOL    HW118086   2.330   0.821   8.390 -0.4792  0.9070  0.2128
 2209SOL    HW218087   2.403   0.818   8.515 -0.1925 -0.2999  0.8454
 2210SOL     OW18088   0.815   3.083   6.608 -0.2953 -0.1164  0.0655
 2210SOL    HW118089   0.750   3.143   6.645  1.1097  1.2402  0.3331
 2210SOL    HW218090   0.877   3.061   6.679 -0.3743 -0.8588 -0.0893
 2211SOL     OW18091   3.656   1.469  13.164  0.2741 -0.8266  0.6940
 2211SOL    HW118092   3.722   1.470  13.233  2.0045  0.3349 -0.9767
 2211SOL    HW218093   3.582   1.514  13.203  0.3159  0.7220 -1.0384
 2212SOL     OW18094   1.163   2.607   4.004  0.4717 -0.0267  0.1552
 2212SOL    HW118095   1.139   2.572   3.918  0.8543  1.4912 -0.5585
 2212SOL    HW218096   1.085   2.661   4.016 -0.0560 -0.5477 -0.8780
 2213SOL     OW18097   2.045   4.186   5.842 -0.2908  0.4726 -0.1882
 2213SOL    HW118098   2.021   4.216   5.755 -0.3365  0.1644 -0.2810
 2213SOL    HW218099   2.140   4.182   5.831 -0.3500 -1.8471  0.2738
 2214SOL     OW18100   2.612   3.886   7.438  0.1938  0.1965  0.0327
 2214SOL    HW118101   2.684   3.877   7.376  1.4906  0.6347  1.4947
 2214SOL    HW218102   2.542   3.906   7.376 -0.5407 -0.4956  0.6361
 2215SOL     OW18103   2.324   1.017   0.642  0.2921 -0.4494 -0.0145
 2215SOL    HW118104   2.308   0.983   0.731 -0.0957 -1.2186 -0.3723
 2215SOL    HW218105   2.326   1.109   0.666 -0.7433 -0.1294 -1.1731
 2216SOL     OW18106   2.127   4.565   7.018 -0.7246 -0.3424  0.0910
 2216SOL    HW118107   2.052   4.507   7.000  0.8007 -1.6579 -2.1650
 2216SOL    HW218108   2.086   4.643   6.980 -0.3624 -0.4161 -0.4497
 2217SOL     OW18109   1.165   4.609   6.481  0.1082  0.1058 -0.0204
 2217SOL    HW118110   1.217   4.688   6.491  0.6377 -0.2174 -0.2294
 2217SOL    HW218111   1.235   4.545   6.470  1.2709  1.8487 -2.9765
 2218SOL     OW18112   3.899   3.074   7.284 -0.1741  0.1611 -0.0531
 2218SOL    HW118113   3.808   3.084   7.256 -0.2519 -1.4269 -0.3392
 2218SOL    HW218114   3.888   3.064   7.379  3.2654 -0.1862  0.3004
 2219SOL     OW18115   0.637   3.987   3.553  0.6625 -0.1153 -0.9578
 2219SOL    HW118116   0.604   4.072   3.583 -4.7010 -2.1917 -1.0963
 2219SOL    HW218117   0.604   3.926   3.618  0.6409  2.9820  1.9631
 2220SOL     OW18118   2.834   0.855   7.450 -0.2743 -0.2955  0.0874
 2220SOL    HW118119   2.871   0.775   7.485  2.9399  0.5381 -1.3911
 2220SOL    HW218120   2.915   0.893   7.415 -1.3398  1.8288 -0.0723
 2221SOL     OW18121   1.561   1.763   2.655  1.1004 -0.0156 -0.0352
 2221SOL    HW118122   1.611   1.774   2.574  0.9688 -2.1719 -0.4116
 2221SOL    HW218123   1.617   1.715   2.718  1.9522  2.4628  1.0963
 2222SOL     OW18124   0.332   0.545   3.605 -0.0732  0.4830  0.5702
 2222SOL    HW118125   0.252   0.597   3.594 -0.8034 -0.7943 -0.1837
 2222SOL    HW218126   0.393   0.617   3.587  0.6710  0.1688  1.8888
 2223SOL     OW18127   3.076   3.051  12.150  0.4982  0.6086  0.2637
 2223SOL    HW118128   3.100   3.133  12.105 -0.4508  1.3378  1.0896
 2223SOL    HW218129   3.159   3.043  12.197 -0.4152  2.2206  2.1957
 2224SOL     OW18130   0.541   2.245   9.085  0.0317 -0.5024 -0.0026
 2224SOL    HW118131   0.549   2.151   9.103  0.3534 -0.5344 -0.3074
 2224SOL    HW218132   0.541   2.275   9.175 -0.0362  0.0222 -0.1766
 2225SOL     OW18133   0.001   3.960   5.161 -0.1712  0.6407  0.5404
 2225SOL    HW118134   4.687   4.026   5.103  2.8136  0.2848 -1.7891
 2225SOL    HW218135   0.043   4.017   5.224  0.7432 -1.1865  1.5868
 2226SOL     OW18136   2.535   0.760   2.231  0.2287 -0.3570  0.4527
 2226SOL    HW118137   2.505   0.742   2.321 -0.4825 -0.1819  0.2497
 2226SOL    HW218138   2.599   0.691   2.214  1.2538  0.8617 -0.5431
 2227SOL     OW18139   4.288   3.155   5.943 -0.3775 -0.0409  0.0736
 2227SOL    HW118140   4.366   3.114   5.981 -0.0019  0.9293  0.3432
 2227SOL    HW218141   4.273   3.220   6.012 -0.3770  1.3129 -1.1956
 2228SOL     OW18142   2.404   2.713   4.498  0.1078 -0.0348 -0.4001
 2228SOL    HW118143   2.385   2.794   4.451  0.6402 -0.3017 -1.0642
 2228SOL    HW218144   2.427   2.743   4.586 -4.7350  0.8000  0.5765
 2229SOL     OW18145   4.246   3.566   4.141  0.1552 -0.1842  0.3881
 2229SOL    HW118146   4.268   3.486   4.093  2.4400  0.3451  0.5545
 2229SOL    HW218147   4.202   3.531   4.218 -1.6282  0.7942 -0.1755
 2230SOL     OW18148   0.316   2.341   5.980 -0.0830 -0.2629 -0.1091
 2230SOL    HW118149   0.324   2.247   5.997  1.3018 -0.3758 -1.4258
 2230SOL    HW218150   0.405   2.365   5.957 -0.3704 -0.6259 -1.5678
 2231SOL     OW18151   1.962   0.433   6.325  0.3055 -0.6222  0.0444
 2231SOL    HW118152   1.911   0.352   6.314 -0.2258 -0.6756  2.7767
 2231SOL    HW218153   1.945   0.478   6.242  2.6873  0.8064  0.3488
 2232SOL     OW18154   1.409   4.444   6.071 -0.3802  0.5472 -0.4417
 2232SOL    HW118155   1.462   4.480   6.143 -2.6213  0.6355  1.1684
 2232SOL    HW218156   1.474   4.393   6.023 -0.4435  1.7192 -1.7641
 2233SOL     OW18157   2.869   0.485   7.812  0.0680  0.3878  0.1692
 2233SOL    HW118158   2.922   0.458   7.887  0.9644 -0.9516 -0.9239
 2233SOL    HW218159   2.901   0.417   7.752  0.1062  0.9760 -0.4759
 2234SOL     OW18160   1.114   1.982   6.313  0.3965 -0.1187 -0.1333
 2234SOL    HW118161   1.069   1.998   6.396  2.2389  1.4466  0.5862
 2234SOL    HW218162   1.080   1.894   6.295  1.5498 -0.3154 -1.3473
 2235SOL     OW18163   1.738   3.250   8.465  0.0607 -0.2572 -0.4893
 2235SOL    HW118164   1.681   3.173   8.462  0.3806 -0.3844 -2.9275
 2235SOL    HW218165   1.787   3.235   8.384 -1.2723  1.1460 -1.5516
 2236SOL     OW18166   0.000   2.041   8.945 -0.2185  0.4702 -0.2821
 2236SOL    HW118167   0.084   2.061   8.988 -0.3083  0.9204 -0.3135
 2236SOL    HW218168   4.670   2.022   9.021 -1.0946  0.1079 -1.0017
 2237SOL     OW18169   4.125   1.320   1.332  0.0395  0.0216 -0.0806
 2237SOL    HW118170   4.098   1.389   1.392 -0.1882  0.4550 -0.6906
 2237SOL    HW218171   4.151   1.260   1.403  0.8206 -1.2210 -1.3991
 2238SOL     OW18172   1.270   1.964   6.650 -0.1796  0.0228 -0.6851
 2238SOL    HW118173   1.321   2.022   6.593  1.1788 -0.6590 -0.1842
 2238SOL    HW218174   1.225   2.026   6.707  0.1896 -1.1638  0.8920
 2239SOL     OW18175   2.098   4.507   0.252 -0.2928  0.4751 -0.0025
 2239SOL    HW118176   2.101   4.452   0.174  0.4667  0.8576 -0.2540
 2239SOL    HW218177   2.020   4.476   0.298 -0.8961 -0.9077 -2.0047
 2240SOL     OW18178   1.386   0.252   3.494 -0.3725 -0.1198 -0.4201
 2240SOL    HW118179   1.446   0.254   3.420 -1.1297  0.3305 -1.0200
 2240SOL    HW218180   1.309   0.222   3.444 -0.7352 -0.2815  0.2335
 2241SOL     OW18181   1.859   3.802  15.836  0.4750  0.1096 -0.2166
 2241SOL    HW118182   1.929   3.856  15.800  2.6143 -2.3345  0.2561
 2241SOL    HW218183   1.913   3.725  15.855 -0.4490 -0.4881 -0.0096
 2242SOL     OW18184   2.859   0.010   6.901  0.3013  0.0070  0.4934
 2242SOL    HW118185   2.854   4.655   6.955  0.7864  0.0368  0.5792
 2242SOL    HW218186   2.912   0.065   6.959  2.6949 -0.1085 -1.5841
 2243SOL     OW18187   3.967   4.555   7.730 -0.5421 -0.2915  0.0873
 2243SOL    HW118188   3.994   4.563   7.822 -0.4099 -1.6416  0.1563
 2243SOL    HW218189   4.039   4.601   7.686 -0.4084  0.2321  0.8498
 2244SOL     OW18190   0.768   2.024   3.085  0.3324  0.7873  0.3087
 2244SOL    HW118191   0.764   2.118   3.105  0.7140  0.6235  1.1820
 2244SOL    HW218192   0.678   1.994   3.096  0.3914  0.5163  0.0475
 2245SOL     OW18193   3.260   3.458   6.069  0.5276  0.2138  0.0238
 2245SOL    HW118194   3.165   3.474   6.069  0.5428  0.3154 -0.7661
 2245SOL    HW218195   3.295   3.493   5.987 -1.1840  1.1344 -0.3332
 2246SOL     OW18196   1.675   0.901   3.769 -1.0242  0.3666  0.1244
 2246SOL    HW118197   1.733   0.956   3.716 -0.9991 -0.8138 -1.0718
 2246SOL    HW218198   1.662   0.822   3.716  0.9743  1.9779 -2.7964
 2247SOL     OW18199   4.147   0.711   2.972  0.2473  0.1132  1.1261
 2247SOL    HW118200   4.152   0.698   3.067  0.9594 -1.5807  0.8685
 2247SOL    HW218201   4.154   0.624   2.933 -2.7195  0.8314 -0.9569
 2248SOL     OW18202   3.703   1.694   3.337  0.0230 -0.4560 -0.3209
 2248SOL    HW118203   3.795   1.673   3.348  0.1245  1.0127  1.4860
 2248SOL    HW218204   3.669   1.696   3.427  0.1052  2.2068 -0.3689
 2249SOL     OW18205   2.437   3.374   8.497  0.2281 -0.0357  0.5123
 2249SOL    HW118206   2.485   3.378   8.414 -1.0693  3.9270 -0.0173
 2249SOL    HW218207   2.484   3.444   8.542  1.7647 -0.9376  0.3097
 2250SOL     OW18208   1.661   0.712   3.598 -0.2493  0.1955 -0.4525
 2250SOL    HW118209   1.604   0.676   3.530 -2.6267 -0.7840  2.0681
 2250SOL    HW218210   1.739   0.662   3.572 -0.4579  1.1704 -2.9128
 2251SOL     OW18211   4.337   2.746   6.176  0.1226 -0.4391  0.0417
 2251SOL    HW118212   4.263   2.786   6.130 -0.2335  0.3247  1.2804
 2251SOL    HW218213   4.410   2.788   6.131 -0.8560  1.6522  0.4044
 2252SOL     OW18214   2.007   4.188   1.414 -0.4419  0.4261 -0.1359
 2252SOL    HW118215   2.009   4.146   1.328  3.1250  0.4590 -0.0780
 2252SOL    HW218216   1.934   4.145   1.459 -1.5982  1.3986 -1.1150
 2253SOL     OW18217   0.260   0.332   6.020 -0.0665  0.5448  0.2040
 2253SOL    HW118218   0.193   0.277   5.979  0.8318  0.5325 -1.2555
 2253SOL    HW218219   0.338   0.319   5.966 -0.3621  2.8980 -0.8105
 2254SOL     OW18220   3.465   0.402  14.622 -0.6333  0.1705 -0.3850
 2254SOL    HW118221   3.397   0.468  14.615  0.5078  1.5478  1.5002
 2254SOL    HW218222   3.539   0.449  14.585  0.4294 -1.7701 -0.7176
 2255SOL     OW18223   4.217   4.530  16.065  0.2797 -0.5835 -0.1271
 2255SOL    HW118224   4.137   4.569  16.031  0.1033 -1.0704 -0.2664
 2255SOL    HW218225   4.183   4.445  16.093 -0.0684 -0.4578 -0.1648
 2256SOL     OW18226   2.284   0.474   2.430  0.3309 -0.1074 -0.3274
 2256SOL    HW118227   2.359   0.530   2.451 -0.5818  1.2646 -0.7391
 2256SOL    HW218228   2.273   0.414   2.504  2.0871  1.4612  1.2029
 2257SOL     OW18229   2.821   1.310  16.617 -0.4327  0.0656  0.0254
 2257SOL    HW118230   2.882   1.317  16.544 -2.8708 -0.7132 -2.0445
 2257SOL    HW218231   2.744   1.294  16.563  1.7272  0.2434 -3.0854
 2258SOL     OW18232   2.291   4.667  12.049 -0.1208 -1.1200 -0.0526
 2258SOL    HW118233   2.234   4.712  11.986  0.0410 -1.3861 -0.3888
 2258SOL    HW218234   2.239   4.587  12.059  0.3059 -1.4605 -0.5540
 2259SOL     OW18235   1.109   2.289  15.841 -0.2088  0.2941 -0.2691
 2259SOL    HW118236   1.058   2.366  15.815 -2.0481 -1.1890 -1.0221
 2259SOL    HW218237   1.068   2.263  15.923  1.0077 -0.4032  0.1301
 2260SOL     OW18238   2.426   1.026   6.937 -0.3656 -0.8880  0.5141
 2260SOL    HW118239   2.454   1.117   6.936  1.8440 -1.5649  0.4016
 2260SOL    HW218240   2.335   1.054   6.925  0.2831  0.7668 -0.4494
 2261SOL     OW18241   3.906   4.499  12.390  0.3581  0.2142 -0.1018
 2261SOL    HW118242   3.941   4.438  12.325 -0.0859  0.3841 -0.5021
 2261SOL    HW218243   3.922   4.438  12.463  0.1156  1.9066  1.3641
 2262SOL     OW18244   1.970   1.696   3.973  0.0047  0.4712 -0.3153
 2262SOL    HW118245   1.997   1.749   3.898  2.1182  0.1150  0.1878
 2262SOL    HW218246   1.881   1.729   3.981  0.1231  1.2479 -2.0333
 2263SOL     OW18247   1.964   0.884   8.400  0.3330  0.6040 -0.6380
 2263SOL    HW118248   2.017   0.814   8.360  0.9661  0.9610 -0.4273
 2263SOL    HW218249   1.987   0.870   8.492 -1.3749 -0.3683 -0.3744
 2264SOL     OW18250   0.044   1.454   0.628 -0.1606  0.0230 -0.0106
 2264SOL    HW118251   4.723   1.386   0.677 -1.1251 -0.2841 -1.3234
 2264SOL    HW218252   0.098   1.409   0.562 -1.0527 -1.0994  0.0410
 2265SOL     OW18253   0.389   3.818   4.284 -0.2187 -0.2483  0.1168
 2265SOL    HW118254   0.297   3.794   4.299 -0.2033 -0.2370  0.2285
 2265SOL    HW218255   0.385   3.909   4.254 -0.9721  0.1171  1.3237
 2266SOL     OW18256   1.791   4.439   5.837 -0.0010  0.2572 -0.3013
 2266SOL    HW118257   1.742   4.379   5.894 -1.6661  0.2021 -1.7826
 2266SOL    HW218258   1.726   4.441   5.767  1.6771  2.2237 -1.7806
 2267SOL     OW18259   3.914   0.022  14.554 -0.2787 -0.0306  0.8241
 2267SOL    HW118260   3.960   4.666  14.577  3.4916  1.5946 -1.0531
 2267SOL    HW218261   3.830   4.704  14.535  0.8121 -1.0717 -1.6727
 2268SOL     OW18262   0.842   3.322  12.979 -0.1479 -0.4690  0.1712
 2268SOL    HW118263   0.805   3.270  12.908  0.5543 -1.8237  0.7963
 2268SOL    HW218264   0.793   3.292  13.055 -1.2161  2.7778  0.7776
 2269SOL     OW18265   1.566   0.844   8.226  0.0376 -0.4739 -0.1192
 2269SOL    HW118266   1.529   0.835   8.314  2.7148  1.8133  1.2282
 2269SOL    HW218267   1.630   0.911   8.249 -0.6417  1.0011 -2.5159
 2270SOL     OW18268   3.873   0.930   4.407  0.3357 -0.1497 -0.2256
 2270SOL    HW118269   3.818   1.002   4.440  1.4667  0.5479  0.1454
 2270SOL    HW218270   3.858   0.869   4.480  2.3140  0.1592  0.4318
 2271SOL     OW18271   3.836   2.935   6.870  0.0189  0.5200 -0.0872
 2271SOL    HW118272   3.888   2.990   6.811 -1.1512 -2.0946 -3.6043
 2271SOL    HW218273   3.745   2.944   6.842  0.0708  0.9337 -0.1324
 2272SOL     OW18274   2.101   3.172   0.272 -0.7443 -0.7590 -0.3444
 2272SOL    HW118275   2.111   3.088   0.228  1.0160  0.1091 -1.6383
 2272SOL    HW218276   2.194   3.188   0.286 -0.9964  0.6618 -0.2934
 2273SOL     OW18277   2.312   3.290   6.292  0.1089 -0.2259  0.3825
 2273SOL    HW118278   2.317   3.226   6.362 -1.1718  1.3512  1.9215
 2273SOL    HW218279   2.395   3.336   6.305 -0.3073 -0.1729  2.7605
 2274SOL     OW18280   2.706   2.670  13.225 -0.3753 -0.0242 -0.2151
 2274SOL    HW118281   2.705   2.764  13.241 -0.8373 -0.3385  1.6161
 2274SOL    HW218282   2.747   2.668  13.138 -0.5966 -0.3827 -0.3121
 2275SOL     OW18283   2.939   1.074  16.662 -0.9433 -0.3376 -0.1206
 2275SOL    HW118284   2.916   1.148  16.717  1.9118  0.0547  0.5831
 2275SOL    HW218285   2.946   1.113  16.575 -0.7749  0.2548  0.1603
 2276SOL     OW18286   2.548   0.608   5.740 -0.7676 -0.2972  0.4475
 2276SOL    HW118287   2.579   0.590   5.828 -1.5213 -1.6722  0.4444
 2276SOL    HW218288   2.507   0.693   5.757 -0.7617 -0.0382 -0.8186
 2277SOL     OW18289   1.481   0.837   1.306 -0.4560  0.3877  0.2678
 2277SOL    HW118290   1.570   0.832   1.273  0.1066  0.1361  1.8608
 2277SOL    HW218291   1.441   0.809   1.223 -0.9793 -0.5167  0.8335
 2278SOL     OW18292   3.132   1.895   9.225 -0.5151  0.0097 -0.3084
 2278SOL    HW118293   3.063   1.958   9.243 -2.7900 -2.4329 -0.5658
 2278SOL    HW218294   3.168   1.931   9.144 -0.4638 -2.1592 -1.2420
 2279SOL     OW18295   1.836   2.824   3.472 -0.4889  0.3463 -0.3730
 2279SOL    HW118296   1.923   2.863   3.474 -1.3987  2.2390  1.5034
 2279SOL    HW218297   1.814   2.837   3.564  0.1644 -1.2677  0.0129
 2280SOL     OW18298   4.530   4.278  16.491 -0.3736 -0.3054  0.0136
 2280SOL    HW118299   4.614   4.308  16.455 -0.6655  0.8413  0.2835
 2280SOL    HW218300   4.478   4.311  16.418  0.3696 -1.2119 -0.9344
 2281SOL     OW18301   2.959   2.164   6.327  0.2478  0.3295  0.0301
 2281SOL    HW118302   3.007   2.175   6.409 -0.2063  5.5913 -0.4266
 2281SOL    HW218303   2.906   2.087   6.350  1.6891 -0.0700  2.0852
 2282SOL     OW18304   0.750   4.012   1.416  0.3732 -0.4543 -0.0016
 2282SOL    HW118305   0.817   4.061   1.367  0.4708 -0.8131 -0.2254
 2282SOL    HW218306   0.724   3.956   1.344 -2.7887  1.3092 -0.2176
 2283SOL     OW18307   0.734   1.173  14.684 -0.5163 -0.1075  0.3812
 2283SOL    HW118308   0.789   1.108  14.729  0.8126  0.7578 -0.0055
 2283SOL    HW218309   0.790   1.213  14.617 -0.0296  1.2214  1.5789
 2284SOL     OW18310   1.591   2.793  15.857  0.1475  0.0271  0.1391
 2284SOL    HW118311   1.637   2.740  15.792 -0.2093  1.9544 -1.6608
 2284SOL    HW218312   1.611   2.877  15.817 -1.4572 -0.9191 -2.6972
 2285SOL     OW18313   1.422   4.664   3.952  0.7779  0.1506  0.1890
 2285SOL    HW118314   1.405   4.709   4.035  3.2931 -2.8057  2.2844
 2285SOL    HW218315   1.396   0.013   3.895 -3.3238 -1.3673  0.0816
 2286SOL     OW18316   4.685   2.209  15.921  0.0448  0.0411  0.1791
 2286SOL    HW118317   4.642   2.293  15.905 -0.7797 -0.5403 -0.7111
 2286SOL    HW218318   4.674   2.206  16.016  0.7006 -0.1491  0.2497
 2287SOL     OW18319   0.483   3.505   0.027  0.2104  0.6726  0.3795
 2287SOL    HW118320   0.395   3.542   0.028 -1.0044 -2.1394 -3.4805
 2287SOL    HW218321   0.531   3.581   0.058 -1.1608  2.3192 -1.5307
 2288SOL     OW18322   2.185   0.465   3.538  0.2347  0.1949 -0.9085
 2288SOL    HW118323   2.125   0.487   3.466  1.1036  0.8388 -1.4306
 2288SOL    HW218324   2.155   0.527   3.604  1.4778 -0.5737  0.3850
 2289SOL     OW18325   1.143   0.922   1.927  0.8386 -0.3484 -0.0033
 2289SOL    HW118326   1.089   0.862   1.875 -1.0854  2.7683 -1.6226
 2289SOL    HW218327   1.071   0.964   1.974  1.9304  0.7043  0.7234
 2290SOL     OW18328   1.246   3.873   3.600 -0.4278  0.0945 -0.0678
 2290SOL    HW118329   1.325   3.837   3.640 -0.1342  0.7401 -0.0683
 2290SOL    HW218330   1.286   3.911   3.521  1.6427  1.0884  1.4803
 2291SOL     OW18331   4.375   0.520   5.934 -0.8095  0.1054 -0.3947
 2291SOL    HW118332   4.444   0.458   5.957  0.4817  1.6074 -0.1837
 2291SOL    HW218333   4.292   0.475   5.948  0.7825 -1.6471  3.1969
 2292SOL     OW18334   3.497   2.266   6.357 -0.1833 -0.3841  0.0560
 2292SOL    HW118335   3.540   2.308   6.431  2.5395 -3.9399  0.4789
 2292SOL    HW218336   3.543   2.182   6.362 -1.5664 -0.9640  3.1887
 2293SOL     OW18337   1.085   1.961   5.751 -0.7288  0.2708 -0.0527
 2293SOL    HW118338   1.141   1.884   5.761  0.4032  0.5596 -4.1281
 2293SOL    HW218339   1.140   2.026   5.795  0.8973 -2.4385  1.8870
 2294SOL     OW18340   2.706   0.619   0.005  0.0686  0.0109 -0.3826
 2294SOL    HW118341   2.801   0.616  17.690  0.2865  1.1817  0.9773
 2294SOL    HW218342   2.697   0.688  17.636  1.1559  1.2009  0.7017
 2295SOL     OW18343   3.532   4.625   5.011  0.1933 -0.1240 -0.4276
 2295SOL    HW118344   3.606   4.564   5.008  2.1545  2.2779 -1.7402
 2295SOL    HW218345   3.479   4.586   5.080 -1.2088  2.0928 -0.2510
 2296SOL     OW18346   0.266   3.122  17.621 -0.0346 -0.1718  0.5132
 2296SOL    HW118347   0.328   3.084  17.684 -0.2834 -2.2681 -0.5253
 2296SOL    HW218348   0.313   3.100  17.541  1.0750  3.0601  0.2829
 2297SOL     OW18349   1.944   2.535   5.816 -0.3785 -0.0046  0.2696
 2297SOL    HW118350   1.939   2.559   5.908 -3.0988  1.1088 -0.1580
 2297SOL    HW218351   1.853   2.555   5.790  0.3553  2.4482 -0.4195
 2298SOL     OW18352   1.755   0.869  17.485 -0.2605 -0.6238 -0.4782
 2298SOL    HW118353   1.723   0.956  17.509  3.5203  0.8291 -0.7752
 2298SOL    HW218354   1.772   0.883  17.392 -0.2707  4.8369  0.3904
 2299SOL     OW18355   0.295   3.312   9.111 -0.7655 -0.2650 -0.0481
 2299SOL    HW118356   0.218   3.348   9.155  0.7667  1.0788  1.5162
 2299SOL    HW218357   0.372   3.333   9.163 -1.8880  1.0454  1.0973
 2300SOL     OW18358   0.171   4.604   7.086  0.1357 -0.4183 -0.1596
 2300SOL    HW118359   0.150   4.683   7.135 -0.7431  0.0434 -1.2948
 2300SOL    HW218360   0.166   4.629   6.994  3.2468 -0.2188 -0.2689
 2301SOL     OW18361   1.188   4.161  17.015  0.1053  0.2581 -0.2340
 2301SOL    HW118362   1.174   4.199  16.928  0.7974 -1.8092 -1.2479
 2301SOL    HW218363   1.108   4.172  17.066 -0.9991 -3.6314 -1.1755
 2302SOL     OW18364   1.680   3.496   7.794 -0.1747  0.0538 -0.3964
 2302SOL    HW118365   1.652   3.583   7.822  2.8171  0.5173  1.1001
 2302SOL    HW218366   1.624   3.473   7.719 -1.4818 -0.8201  0.8544
 2303SOL     OW18367   4.619   3.070   4.155  0.0656  0.4252 -0.3175
 2303SOL    HW118368   4.641   2.993   4.103  1.1379  0.0433  0.7144
 2303SOL    HW218369   4.690   3.120   4.115  0.6493  0.1476  0.3828
 2304SOL     OW18370   0.855   3.544   6.004 -0.2200  0.3864  0.3972
 2304SOL    HW118371   0.914   3.469   6.011  1.3598  1.6463  0.5060
 2304SOL    HW218372   0.860   3.583   6.091  0.5062 -1.0192  0.9882
 2305SOL     OW18373   4.397   1.872   0.080  0.0505  0.1690 -0.5729
 2305SOL    HW118374   4.415   1.832   0.165  0.3853  1.3279 -0.0984
 2305SOL    HW218375   4.302   1.886   0.081 -0.0037 -0.1405 -1.1320
 2306SOL     OW18376   2.490   4.561   6.090  0.0874 -0.2567  0.3473
 2306SOL    HW118377   2.485   4.494   6.158 -1.4094 -0.2715  0.2373
 2306SOL    HW218378   2.472   4.637   6.144 -1.2617 -0.2940 -0.0456
 2307SOL     OW18379   4.555   1.516   9.231  0.2656  0.0702 -0.0737
 2307SOL    HW118380   4.575   1.599   9.275  0.0465  0.0359  0.0924
 2307SOL    HW218381   4.596   1.452   9.289  1.5859  0.2997 -0.7645
 2308SOL     OW18382   0.126   1.428   8.954 -0.1236  0.1094 -0.1809
 2308SOL    HW118383   0.074   1.375   8.894  1.6397 -1.4626 -0.3397
 2308SOL    HW218384   0.100   1.517   8.933  0.1238 -0.2133 -1.8367
 2309SOL     OW18385   0.214   1.714   6.882 -0.0354 -0.9077 -0.1952
 2309SOL    HW118386   0.150   1.692   6.814  0.4722 -0.3104 -0.8619
 2309SOL    HW218387   0.188   1.801   6.913  0.4857 -0.8763  0.1606
 2310SOL     OW18388   4.332   2.612   5.060  0.1489  0.0448 -0.1832
 2310SOL    HW118389   4.253   2.568   5.093  1.2151 -1.5514  0.2708
 2310SOL    HW218390   4.339   2.692   5.112  1.5401 -0.1404 -0.1084
 2311SOL     OW18391   4.414   4.020   7.014  0.5093  0.1432 -0.0196
 2311SOL    HW118392   4.444   4.097   6.967  1.3050  0.3413  0.8060
 2311SOL    HW218393   4.436   4.038   7.106  0.2511  0.0117  0.0673
 2312SOL     OW18394   2.985   4.046  17.531  0.1399 -0.3250 -0.2868
 2312SOL    HW118395   3.070   4.079  17.502  0.7189  1.7289  3.7332
 2312SOL    HW218396   2.945   4.118  17.580 -0.3528 -0.4825 -0.4530
 2313SOL     OW18397   3.568   4.221   4.038 -0.3131  0.0763  0.0876
 2313SOL    HW118398   3.485   4.185   4.069  0.8811 -1.8676  1.0358
 2313SOL    HW218399   3.533   4.305   4.010  1.6694  1.5502  2.0013
 2314SOL     OW18400   2.725   0.392   3.182  0.6898 -0.1839 -0.3273
 2314SOL    HW118401   2.807   0.343   3.182  1.6211  1.3554 -0.6205
 2314SOL    HW218402   2.750   0.473   3.225  0.9318  0.3465 -1.4519
 2315SOL     OW18403   4.087   1.346   2.552  0.3037 -0.1163 -0.3498
 2315SOL    HW118404   4.106   1.335   2.645 -2.2870 -0.1494  0.1819
 2315SOL    HW218405   4.095   1.259   2.515  0.4231  0.3957 -1.5104
 2316SOL     OW18406   3.184   2.664   5.317 -0.1705  0.1012 -0.3586
 2316SOL    HW118407   3.120   2.697   5.380 -0.3900 -1.4372  0.2306
 2316SOL    HW218408   3.206   2.582   5.362 -0.9262  0.3562  0.4898
 2317SOL     OW18409   3.725   2.819   3.955  0.4678 -0.3265 -0.4586
 2317SOL    HW118410   3.780   2.885   3.913  0.6989 -0.2256  0.0099
 2317SOL    HW218411   3.667   2.888   3.987  1.5765  0.2720  0.2612
 2318SOL     OW18412   4.336   4.053  13.550  0.1623  0.1045  0.1845
 2318SOL    HW118413   4.245   4.080  13.566 -0.5775 -2.1052 -0.3173
 2318SOL    HW218414   4.316   3.963  13.525 -2.6105  1.0829 -1.1587
 2319SOL     OW18415   0.168   2.341   4.566  0.2939  0.1709 -0.6697
 2319SOL    HW118416   0.196   2.316   4.478 -1.2231 -0.3864 -0.9890
 2319SOL    HW218417   0.220   2.285   4.623 -3.1625 -1.7420  0.5792
 2320SOL     OW18418   3.481   2.898   5.539  1.1082 -0.2699 -0.3430
 2320SOL    HW118419   3.520   2.973   5.584 -1.7772  0.1682  1.4144
 2320SOL    HW218420   3.439   2.943   5.466 -1.2973 -2.0137 -0.0302
 2321SOL     OW18421   1.494   0.230   6.632  0.0044 -0.4580  0.1390
 2321SOL    HW118422   1.501   0.254   6.724  0.2505 -0.5480  0.1446
 2321SOL    HW218423   1.537   0.297   6.580 -0.8131 -0.7282 -0.8936
 2322SOL     OW18424   2.026   3.439   3.452 -0.0845 -0.1204 -0.8919
 2322SOL    HW118425   2.097   3.407   3.396 -1.4890  0.7420 -3.1193
 2322SOL    HW218426   1.984   3.511   3.406  0.7004 -1.1077 -3.1589
 2323SOL     OW18427   1.845   1.627   6.844  0.4173 -0.0187  0.2530
 2323SOL    HW118428   1.882   1.653   6.759  0.7041  0.2958  0.4716
 2323SOL    HW218429   1.764   1.583   6.817  0.6868  0.3940 -1.2635
 2324SOL     OW18430   1.908   3.369   0.586  0.3337 -0.1600  0.1062
 2324SOL    HW118431   1.913   3.274   0.585 -1.6953 -0.2804  0.8878
 2324SOL    HW218432   1.984   3.387   0.641  2.4193  0.8482 -3.1107
 2325SOL     OW18433   2.870   0.630  16.707  0.3004 -0.0099 -0.4199
 2325SOL    HW118434   2.867   0.548  16.756 -0.4088  0.8350  0.9543
 2325SOL    HW218435   2.946   0.669  16.749 -1.1762  2.6385 -0.2226
 2326SOL     OW18436   0.668   0.100   4.231 -0.3477  0.1466  0.6620
 2326SOL    HW118437   0.648   0.158   4.305  0.1144 -0.2081  1.0657
 2326SOL    HW218438   0.594   0.128   4.178 -0.6199 -0.4907  0.7093
 2327SOL     OW18439   4.663   1.079  10.516  0.4394  0.1387  0.0186
 2327SOL    HW118440   4.623   1.066  10.431  1.7860 -1.2923 -0.4049
 2327SOL    HW218441   4.702   0.993  10.532  1.3597  0.5883  0.2427
 2328SOL     OW18442   0.242   0.269   6.574  0.8106 -0.4486 -0.0114
 2328SOL    HW118443   0.221   0.361   6.555  0.5676 -0.4224  0.3920
 2328SOL    HW218444   0.282   0.237   6.493  0.2687  0.3954 -0.6058
 2329SOL     OW18445   2.441   3.673   2.178 -0.4244  0.1691 -0.4790
 2329SOL    HW118446   2.453   3.738   2.109 -1.1200  0.3270 -0.4533
 2329SOL    HW218447   2.448   3.596   2.123 -0.6633  1.0174 -1.7080
 2330SOL     OW18448   2.300   0.936   4.616 -0.5815 -0.1653 -0.1788
 2330SOL    HW118449   2.363   0.903   4.680  1.7654  3.2029 -0.7997
 2330SOL    HW218450   2.230   0.971   4.672 -0.1280  0.2642  0.1133
 2331SOL     OW18451   3.121   0.705  16.770  1.0688 -0.0582  0.3063
 2331SOL    HW118452   3.145   0.796  16.787 -0.5366  0.4208  0.0505
 2331SOL    HW218453   3.182   0.661  16.829  0.4034  0.2882  1.2616
 2332SOL     OW18454   3.294   4.028   5.742  0.2310 -0.3490  0.9612
 2332SOL    HW118455   3.335   4.043   5.657  1.3551  2.4060  1.9953
 2332SOL    HW218456   3.244   3.947   5.732 -1.6656  1.1158 -1.4479
 2333SOL     OW18457   2.630   0.054  10.599 -0.2930  0.2510 -0.3873
 2333SOL    HW118458   2.639   0.069  10.505  0.3655  0.6935 -0.2502
 2333SOL    HW218459   2.686   0.114  10.648 -0.7411  0.2113  0.1696
 2334SOL     OW18460   0.462   3.449  16.680 -0.1553  0.2574  0.4830
 2334SOL    HW118461   0.399   3.459  16.752  2.7254 -2.5550  3.3700
 2334SOL    HW218462   0.450   3.530  16.630  0.8013 -0.4594 -0.8789
 2335SOL     OW18463   4.686   0.793  13.653 -0.1525  0.1973 -0.3815
 2335SOL    HW118464   4.718   0.718  13.703 -1.4318 -1.4894 -2.0800
 2335SOL    HW218465   0.012   0.873  13.667  0.2527 -0.1483  0.1232
 2336SOL     OW18466   3.334   4.543   3.444  1.2141 -0.0179  0.0699
 2336SOL    HW118467   3.385   4.479   3.394 -0.9634  0.0993 -2.3172
 2336SOL    HW218468   3.349   4.626   3.397 -0.0218  0.3533  0.3206
 2337SOL     OW18469   2.101   0.137  17.638  0.5645  0.1002 -0.0892
 2337SOL    HW118470   2.137   0.118   0.027 -1.0224 -2.4920  0.0170
 2337SOL    HW218471   2.171   0.125  17.574 -0.0603  0.7873 -0.9038
 2338SOL     OW18472   2.217   2.431   2.672  0.1813 -0.4647  0.2460
 2338SOL    HW118473   2.227   2.362   2.606  0.4076 -0.0238 -0.1740
 2338SOL    HW218474   2.148   2.390   2.725  1.2666 -1.4302  0.9251
 2339SOL     OW18475   3.087   3.871   3.277 -0.2055 -0.3791 -0.0028
 2339SOL    HW118476   3.098   3.936   3.346 -0.5050  1.5344 -1.7794
 2339SOL    HW218477   3.135   3.794   3.310 -0.3801 -0.7392 -0.5829
 2340SOL     OW18478   3.483   1.489   8.776  0.2796  0.2616  0.1265
 2340SOL    HW118479   3.518   1.476   8.864  2.1919  2.6888 -0.2672
 2340SOL    HW218480   3.537   1.426   8.728  2.4000  1.9609  0.2610
 2341SOL     OW18481   1.197   2.864   3.394 -0.3229  0.7773 -0.1542
 2341SOL    HW118482   1.114   2.817   3.403  0.6081 -1.1996 -1.8540
 2341SOL    HW218483   1.174   2.953   3.421 -1.1072  0.8316 -0.9852
 2342SOL     OW18484   4.512   2.654   8.073  0.3894  0.1547 -0.4135
 2342SOL    HW118485   4.453   2.661   7.999  1.0629  3.8882 -0.5996
 2342SOL    HW218486   4.545   2.744   8.073  0.4693  0.1329  0.5435
 2343SOL     OW18487   0.853   2.071   5.621 -0.0719 -0.3158 -0.3067
 2343SOL    HW118488   0.923   2.051   5.683  2.2453  4.4320 -1.4553
 2343SOL    HW218489   0.845   1.986   5.578  1.2457 -0.2314 -0.7018
 2344SOL     OW18490   2.806   1.084   4.437  0.0572  0.1122 -0.1614
 2344SOL    HW118491   2.846   1.004   4.403 -1.5244 -0.4162 -0.7628
 2344SOL    HW218492   2.851   1.095   4.521 -0.0209  0.2197 -0.1338
 2345SOL     OW18493   2.480   3.112   4.817  0.0849 -0.1987  0.2728
 2345SOL    HW118494   2.515   3.184   4.869 -0.8545 -1.0741  2.1104
 2345SOL    HW218495   2.497   3.138   4.726  0.9000 -2.5614 -0.2549
 2346SOL     OW18496   3.506   2.932   6.504  0.0671 -0.0397 -0.4876
 2346SOL    HW118497   3.520   2.852   6.453 -0.8492  0.3446 -1.3303
 2346SOL    HW218498   3.414   2.954   6.488 -0.7211 -1.5367  2.1752
 2347SOL     OW18499   2.888   1.803   4.949  0.6317 -0.2566  0.5145
 2347SOL    HW118500   2.946   1.850   5.010 -0.1577  1.0078  0.2758
 2347SOL    HW218501   2.815   1.778   5.006  0.6298 -0.1824  0.5458
 2348SOL     OW18502   2.694   0.339   5.436 -0.2573 -0.0362 -0.6340
 2348SOL    HW118503   2.752   0.351   5.362 -0.5231 -0.4402 -0.9069
 2348SOL    HW218504   2.667   0.431   5.434  0.2303  0.1426  0.6024
 2349SOL     OW18505   0.229   2.248   1.951 -0.3428  0.7331  0.3088
 2349SOL    HW118506   0.300   2.311   1.933 -0.5059  0.3309 -1.6679
 2349SOL    HW218507   0.169   2.311   1.992 -1.4425  1.2441 -2.1197
 2350SOL     OW18508   1.166   4.146   2.099 -0.2809  0.0098 -0.0793
 2350SOL    HW118509   1.115   4.099   2.034  0.6279  0.8285 -1.3827
 2350SOL    HW218510   1.182   4.090   2.175  0.2097 -0.5696 -0.6186
 2351SOL     OW18511   0.128   2.591   3.838  0.2918 -0.2193 -0.3050
 2351SOL    HW118512   0.139   2.593   3.743  0.3172 -1.2695 -0.3232
 2351SOL    HW218513   0.219   2.615   3.855  1.0843 -4.4869  1.6401
 2352SOL     OW18514   1.208   1.123   4.143 -0.0024  0.5135 -0.0780
 2352SOL    HW118515   1.289   1.102   4.097 -1.3667 -1.4555 -1.5900
 2352SOL    HW218516   1.231   1.100   4.233 -2.0987 -0.1029  0.3030
 2353SOL     OW18517   3.208   4.215   8.714 -0.6308  0.2388  0.5116
 2353SOL    HW118518   3.168   4.290   8.759 -0.3924  0.0203  1.0956
 2353SOL    HW218519   3.133   4.156   8.708  1.9434 -2.8826 -0.8515
 2354SOL     OW18520   2.140   3.676  17.423 -0.0725 -0.0133  0.0321
 2354SOL    HW118521   2.233   3.685  17.445 -0.3987 -1.0705  1.8251
 2354SOL    HW218522   2.095   3.735  17.482  0.2036  0.7669 -0.5370
 2355SOL     OW18523   2.344   4.438   3.250  0.0968 -0.1178  0.5697
 2355SOL    HW118524   2.297   4.521   3.250 -1.0246 -0.7454  0.9049
 2355SOL    HW218525   2.420   4.447   3.307 -0.1176 -0.0770  0.8465
 2356SOL     OW18526   4.429   2.048   9.558  0.2347  0.2282  0.0721
 2356SOL    HW118527   4.451   1.955   9.555  0.3297  0.1932  1.9949
 2356SOL    HW218528   4.476   2.082   9.633  0.1572 -0.7275  0.5412
 2357SOL     OW18529   1.504   3.582   3.496  0.0032  0.3886 -0.1450
 2357SOL    HW118530   1.547   3.614   3.575 -2.1016  0.8291  0.8342
 2357SOL    HW218531   1.554   3.633   3.432 -2.9677  0.3274 -2.5545
 2358SOL     OW18532   3.929   0.271   2.795  0.0894  0.0065 -0.7202
 2358SOL    HW118533   3.890   0.191   2.760  0.1075 -0.3994  0.1826
 2358SOL    HW218534   3.903   0.336   2.730  0.5301  0.9829  0.0894
 2359SOL     OW18535   1.577   2.024   3.075 -0.2276  0.3382  0.0926
 2359SOL    HW118536   1.673   2.020   3.065 -0.5565  0.1581 -3.0048
 2359SOL    HW218537   1.573   2.104   3.126 -0.3009  0.2592  0.2108
 2360SOL     OW18538   0.352   1.424   4.750  0.1285  0.4717 -0.0247
 2360SOL    HW118539   0.276   1.446   4.697  0.0134  0.2127  0.0364
 2360SOL    HW218540   0.318   1.384   4.830 -1.6422 -0.0477 -1.0463
 2361SOL     OW18541   3.020   4.710   2.445  1.2211  0.0005  1.0970
 2361SOL    HW118542   3.051   4.702   2.355  1.7316  1.1160  1.1724
 2361SOL    HW218543   2.956   0.057   2.433  2.1103  0.8069  1.0775
 2362SOL     OW18544   1.889   0.494   6.907 -0.0278  0.1117  0.1587
 2362SOL    HW118545   1.814   0.510   6.849 -1.2879  2.0139  2.2955
 2362SOL    HW218546   1.917   0.403   6.906 -2.5485 -0.6893  1.0142
 2363SOL     OW18547   3.874   3.465   6.015  0.2658  0.1289 -0.3741
 2363SOL    HW118548   3.921   3.382   6.007  0.7785  0.4654 -0.9427
 2363SOL    HW218549   3.785   3.449   5.984 -0.0931 -0.9162  1.2164
 2364SOL     OW18550   1.730   2.262   3.358 -0.3654  0.2595 -0.0368
 2364SOL    HW118551   1.698   2.208   3.430 -0.5197 -1.2696 -1.2508
 2364SOL    HW218552   1.775   2.335   3.402  0.2210 -1.0278  1.4909
 2365SOL     OW18553   3.942   3.785  11.543 -0.0373  0.3216 -0.0637
 2365SOL    HW118554   3.965   3.857  11.602 -3.0441  0.0983  1.4076
 2365SOL    HW218555   3.847   3.778  11.553 -0.1108 -0.6152 -1.4095
 2366SOL     OW18556   3.290   3.441  13.392  0.2468  0.0664  0.0789
 2366SOL    HW118557   3.361   3.505  13.391 -0.5148  0.8912 -1.0911
 2366SOL    HW218558   3.349   3.367  13.404 -0.5075 -0.5196  0.2142
 2367SOL     OW18559   0.365   3.945   1.001 -0.6776 -0.3183  0.1574
 2367SOL    HW118560   0.366   3.866   0.948 -1.1073 -0.7421  0.7824
 2367SOL    HW218561   0.336   4.004   0.932 -0.1321 -0.7462 -0.4299
 2368SOL     OW18562   1.073   4.404   2.653  0.3757  0.5827 -0.2272
 2368SOL    HW118563   1.029   4.395   2.737 -0.9496  0.7015 -0.9024
 2368SOL    HW218564   1.093   4.497   2.646  1.8788  0.1711 -1.4767
 2369SOL     OW18565   4.010   3.271   9.206  0.2025 -0.1778 -0.9585
 2369SOL    HW118566   4.007   3.344   9.144  0.8881  0.5039 -0.1917
 2369SOL    HW218567   4.102   3.245   9.213  0.1246 -0.3783 -0.7091
 2370SOL     OW18568   0.088   3.994   5.688  0.3201 -0.4681 -0.2035
 2370SOL    HW118569   0.139   3.983   5.768 -0.2965  0.5168  0.3264
 2370SOL    HW218570   0.149   4.036   5.626  0.9628 -2.3936 -0.8682
 2371SOL     OW18571   0.594   4.699   0.085 -0.5833 -0.4611 -0.0546
 2371SOL    HW118572   0.552   0.060   0.073  1.1773  0.0182 -3.0368
 2371SOL    HW218573   0.641   4.676   0.004  2.0690 -1.1368  1.6770
 2372SOL     OW18574   1.499   1.033  12.466  0.0496 -0.5632 -0.0434
 2372SOL    HW118575   1.433   1.059  12.402  0.9102 -1.5443 -1.3501
 2372SOL    HW218576   1.492   0.937  12.470 -1.0087 -0.4848 -0.2386
 2373SOL     OW18577   0.555   2.031   1.452  0.4275 -0.1643 -0.1440
 2373SOL    HW118578   0.521   1.964   1.393 -0.7309  1.6037 -1.4581
 2373SOL    HW218579   0.645   2.000   1.447  0.9569  1.4068 -0.2530
 2374SOL     OW18580   2.062   0.306   9.632  0.1488  0.6100  0.4371
 2374SOL    HW118581   2.142   0.313   9.686  1.1623 -2.8964 -0.6171
 2374SOL    HW218582   2.112   0.254   9.570  0.7726 -0.0405  1.4802
 2375SOL     OW18583   1.327   4.675   3.466 -0.3531  0.0855 -0.3165
 2375SOL    HW118584   1.399   4.652   3.524  1.2585 -1.9638 -3.1278
 2375SOL    HW218585   1.279   4.722   3.535 -0.6410  0.0602 -0.5006
 2376SOL     OW18586   2.286   0.746  14.855 -0.0297  0.2531  0.3293
 2376SOL    HW118587   2.309   0.656  14.880 -1.9699  0.3920  2.5860
 2376SOL    HW218588   2.361   0.770  14.801 -0.4943  0.4576 -0.2208
 2377SOL     OW18589   0.437   1.341   7.131 -0.0617  0.2929  0.1269
 2377SOL    HW118590   0.397   1.315   7.215  0.6144 -0.4112  0.2278
 2377SOL    HW218591   0.392   1.425   7.122  0.7357  0.2259 -4.1441
 2378SOL     OW18592   2.929   1.235   6.363 -0.5549  0.5249  0.2865
 2378SOL    HW118593   2.947   1.241   6.456  1.2382 -1.0653  0.0313
 2378SOL    HW218594   2.838   1.205   6.364 -0.8189  1.2301 -1.2098
 2379SOL     OW18595   1.417   1.322   1.665 -1.1239  0.5734  0.8343
 2379SOL    HW118596   1.353   1.357   1.603 -0.9263  2.5007  1.7510
 2379SOL    HW218597   1.466   1.265   1.605 -3.9661 -1.0241  0.0557
 2380SOL     OW18598   2.658   0.152  17.460  0.1323  0.2240  0.0270
 2380SOL    HW118599   2.622   0.237  17.487  0.1449  0.7785 -1.6741
 2380SOL    HW218600   2.640   0.143  17.366  1.7056 -2.8463  0.0489
 2381SOL     OW18601   4.039   1.495   2.144 -0.0053 -0.4287 -0.3196
 2381SOL    HW118602   3.962   1.548   2.166  0.9986  0.1481  1.8236
 2381SOL    HW218603   3.996   1.420   2.103 -0.0855  0.4389 -1.8083
 2382SOL     OW18604   2.082   0.655   9.731  0.6666 -0.2307  0.4739
 2382SOL    HW118605   2.039   0.616   9.807 -1.2708  1.3020  0.1538
 2382SOL    HW218606   2.144   0.587   9.706  1.1346  0.6443 -0.7214
 2383SOL     OW18607   2.911   0.627   4.369 -0.2213 -0.2015  0.2697
 2383SOL    HW118608   2.823   0.660   4.353 -0.0644 -0.1850 -0.5651
 2383SOL    HW218609   2.961   0.709   4.370 -0.8796  0.2677 -3.4422
 2384SOL     OW18610   3.882   0.851   4.938  0.4878 -0.3080  0.1253
 2384SOL    HW118611   3.952   0.910   4.968  0.8467 -0.7804  0.2122
 2384SOL    HW218612   3.915   0.767   4.971  0.6386 -0.2302  0.1749
 2385SOL     OW18613   0.067   1.808   5.081  0.5271 -0.0315 -0.1639
 2385SOL    HW118614   0.137   1.750   5.049 -0.7763 -0.4127 -2.2872
 2385SOL    HW218615   0.004   1.740   5.102  1.1732 -0.2125  1.1591
 2386SOL     OW18616   2.832   1.647   4.220 -0.1108  0.2733 -0.1588
 2386SOL    HW118617   2.881   1.729   4.224  1.2197 -0.4712 -1.1840
 2386SOL    HW218618   2.761   1.666   4.282  0.8492 -1.4767  1.4618
 2387SOL     OW18619   1.171   0.339  13.234 -0.2134  0.5383  0.2951
 2387SOL    HW118620   1.142   0.254  13.201  0.9789 -0.2918  1.4086
 2387SOL    HW218621   1.202   0.322  13.323  0.3927 -2.0383 -0.3860
 2388SOL     OW18622   0.978   0.618   5.699 -0.0221 -0.1154 -0.2477
 2388SOL    HW118623   0.951   0.526   5.701  0.3926 -0.3558 -4.1951
 2388SOL    HW218624   1.023   0.628   5.615 -0.0793  0.5858 -0.1898
 2389SOL     OW18625   0.962   2.769   4.077 -0.4839  0.0057 -0.0256
 2389SOL    HW118626   0.986   2.852   4.118 -3.0863  0.3456  0.7775
 2389SOL    HW218627   0.877   2.794   4.041  0.4316  1.6450 -1.0289
 2390SOL     OW18628   2.362   2.399  17.563 -0.2294  0.0604  0.4610
 2390SOL    HW118629   2.448   2.410  17.603  0.7665 -1.5119 -1.2348
 2390SOL    HW218630   2.327   2.322  17.607  0.4159 -0.6864 -0.3474
 2391SOL     OW18631   1.316   4.278   2.339 -0.0563 -0.3390  0.3863
 2391SOL    HW118632   1.237   4.332   2.341 -0.2208 -0.5977  0.8864
 2391SOL    HW218633   1.371   4.343   2.296 -0.5079 -0.7347 -0.7748
 2392SOL     OW18634   1.061   0.300   1.075 -0.5656 -0.1082 -0.1109
 2392SOL    HW118635   1.112   0.382   1.070  0.0215 -0.4552  0.1322
 2392SOL    HW218636   1.010   0.313   0.995  0.5247  2.3661 -0.4314
 2393SOL     OW18637   0.162   4.618  14.085 -0.5042  0.2694  0.0879
 2393SOL    HW118638   0.227   4.592  14.150 -0.5691  0.2345  0.1394
 2393SOL    HW218639   0.091   4.561  14.115 -0.0567 -1.0581 -1.3259
 2394SOL     OW18640   3.451   1.475   4.697  0.2740 -0.1642  0.2683
 2394SOL    HW118641   3.477   1.419   4.771  1.8223  0.4772  0.2146
 2394SOL    HW218642   3.530   1.495   4.647  0.0316  0.4749  0.1413
 2395SOL     OW18643   2.640   1.347   1.619  0.3203  0.1949 -0.3126
 2395SOL    HW118644   2.689   1.329   1.700  0.9902 -0.3518 -0.8397
 2395SOL    HW218645   2.615   1.256   1.605  1.2271 -0.4254  2.0609
 2396SOL     OW18646   0.067   0.642   3.241  0.0687  0.5944  0.0498
 2396SOL    HW118647   0.005   0.705   3.203 -0.1208  0.4515  0.1198
 2396SOL    HW218648   0.149   0.675   3.205  1.9188 -3.4382  0.5810
 2397SOL     OW18649   0.403   1.596   9.671  0.5060  0.5284  0.3759
 2397SOL    HW118650   0.364   1.670   9.623  1.9467  0.4195 -0.9678
 2397SOL    HW218651   0.447   1.636   9.746 -2.1281  3.1308  0.5413
 2398SOL     OW18652   3.000   1.899  14.586  0.0171 -0.5194 -0.5427
 2398SOL    HW118653   3.038   1.969  14.638 -0.3600  0.7836 -2.0430
 2398SOL    HW218654   2.982   1.963  14.517 -0.8077  2.1938  2.1677
 2399SOL     OW18655   0.098   0.467   4.020 -0.5238  0.5423 -0.0025
 2399SOL    HW118656   0.056   0.477   4.105  1.5018 -0.6327  1.1494
 2399SOL    HW218657   0.096   0.551   3.973  2.1479 -0.6441 -2.2909
 2400SOL     OW18658   3.377   2.015   3.827 -0.0927  0.0636  0.0635
 2400SOL    HW118659   3.414   2.022   3.739 -1.2091 -2.7147 -0.6091
 2400SOL    HW218660   3.378   2.105   3.860  2.0506 -0.4389  1.3450
 2401SOL     OW18661   0.449   4.605   6.317 -0.1386 -0.0090 -0.9887
 2401SOL    HW118662   0.429   4.688   6.274 -1.5252  1.2478  2.1054
 2401SOL    HW218663   0.536   4.574   6.291  0.5802  0.8504  0.4038
 2402SOL     OW18664   2.343   2.942   1.391 -0.6705 -0.3125 -0.1628
 2402SOL    HW118665   2.407   2.875   1.369  3.3487  4.5638 -3.3573
 2402SOL    HW218666   2.301   2.911   1.471  0.3066  1.0644  0.8719
 2403SOL     OW18667   2.555   0.366   3.775 -0.2351  0.0531 -0.0118
 2403SOL    HW118668   2.578   0.381   3.684 -0.0223  0.5697  0.1274
 2403SOL    HW218669   2.541   0.271   3.769 -0.7935  0.0216  1.5739
 2404SOL     OW18670   1.102   1.573   8.711  0.6242  0.5083  0.0779
 2404SOL    HW118671   1.133   1.645   8.767 -0.1332 -0.4104  1.6594
 2404SOL    HW218672   1.164   1.563   8.638  0.6949 -0.7510  0.3182
 2405SOL     OW18673   3.217   1.829   3.960  0.2453 -0.6167 -0.6220
 2405SOL    HW118674   3.254   1.849   3.874  1.4212 -0.1606 -0.0120
 2405SOL    HW218675   3.247   1.902   4.015  0.5895 -1.1730 -0.0685
 2406SOL     OW18676   0.419   3.458  11.634  0.4026 -0.4896 -0.5344
 2406SOL    HW118677   0.415   3.373  11.591 -2.7447  0.3684 -1.9480
 2406SOL    HW218678   0.326   3.463  11.659  1.5852  0.7039  3.6781
 2407SOL     OW18679   0.021   3.108   6.076  0.1329 -0.6362  0.0263
 2407SOL    HW118680   0.055   3.186   6.120 -2.0292  0.1761  0.2557
 2407SOL    HW218681   0.042   3.129   5.985 -0.6072  3.8833  0.8905
 2408SOL     OW18682   2.089   4.435   5.317  0.2618 -0.0694 -0.1985
 2408SOL    HW118683   2.119   4.364   5.261 -0.6619 -0.0801 -0.6887
 2408SOL    HW218684   2.007   4.403   5.355  1.1919 -1.3951  0.6592
 2409SOL     OW18685   1.549   3.514  13.434  0.5164  0.6555  0.2803
 2409SOL    HW118686   1.521   3.425  13.457 -0.0682  0.4348 -1.2657
 2409SOL    HW218687   1.592   3.494  13.350 -0.1812 -1.0778  0.3384
 2410SOL     OW18688   4.029   4.336   2.239  0.1888 -0.1864  0.1360
 2410SOL    HW118689   3.995   4.412   2.286  0.4037  0.1995 -0.3353
 2410SOL    HW218690   4.028   4.363   2.147 -0.0133 -0.8744 -0.0636
 2411SOL     OW18691   4.033   2.898  13.826 -0.1374 -0.3936 -0.7986
 2411SOL    HW118692   4.060   2.806  13.820 -1.1519 -0.6521 -1.4165
 2411SOL    HW218693   3.938   2.901  13.835 -0.1453 -0.4954 -0.8462
 2412SOL     OW18694   0.831   1.524  15.459  0.2947 -0.5000  0.4010
 2412SOL    HW118695   0.795   1.553  15.543  0.7309  0.2497  0.3238
 2412SOL    HW218696   0.764   1.465  15.424  1.6482 -0.6954 -1.8690
 2413SOL     OW18697   2.802   1.243   2.155  0.4037 -0.2815 -0.3508
 2413SOL    HW118698   2.857   1.278   2.084  1.8389 -2.2707 -0.2071
 2413SOL    HW218699   2.837   1.155   2.169  0.7372 -0.2390 -0.8872
 2414SOL     OW18700   0.536   2.853   2.365 -0.0749 -0.8271 -0.1680
 2414SOL    HW118701   0.508   2.911   2.436 -0.4167 -0.8541 -0.2813
 2414SOL    HW218702   0.457   2.825   2.319 -0.6663 -0.0370  0.3690
 2415SOL     OW18703   4.464   0.501   8.237 -0.2279  0.0181  0.6057
 2415SOL    HW118704   4.479   0.422   8.289 -0.1626  0.2614  0.9520
 2415SOL    HW218705   4.459   0.566   8.306  0.9529  0.0315  0.6777
 2416SOL     OW18706   2.430   2.727   5.513 -0.5799 -0.3040 -0.1760
 2416SOL    HW118707   2.490   2.659   5.544  0.0636 -0.1156 -0.9981
 2416SOL    HW218708   2.360   2.683   5.465 -0.3193 -0.9385  0.0351
 2417SOL     OW18709   4.355   4.494   0.718 -0.0771  0.5868  0.3041
 2417SOL    HW118710   4.281   4.506   0.777  0.8234 -0.0839  1.5693
 2417SOL    HW218711   4.319   4.434   0.654 -1.6002  1.6582  0.1696
 2418SOL     OW18712   3.744   1.336   0.322 -0.2752  0.0315 -0.2718
 2418SOL    HW118713   3.823   1.389   0.307  0.0697 -0.7812 -1.3069
 2418SOL    HW218714   3.706   1.402   0.381  0.6033  0.1732  0.1316
 2419SOL     OW18715   0.662   4.684  17.531 -0.1453  0.5219  0.8489
 2419SOL    HW118716   0.619   0.033  17.487  3.2929  0.5485 -2.4229
 2419SOL    HW218717   0.610   4.609  17.500  1.3685 -0.4980  0.7553
 2420SOL     OW18718   0.523   2.662   6.857  0.2064  0.0167 -0.4182
 2420SOL    HW118719   0.496   2.606   6.784  0.4424 -1.8011  0.8922
 2420SOL    HW218720   0.612   2.686   6.831  0.8318 -0.8035  0.9969
 2421SOL     OW18721   1.640   3.587   3.746 -0.2442  0.2796 -0.0347
 2421SOL    HW118722   1.614   3.533   3.821 -1.3368  0.2379 -0.4374
 2421SOL    HW218723   1.733   3.569   3.737 -0.2537 -0.2754  0.9513
 2422SOL     OW18724   0.098   3.740   3.512 -0.2929 -0.2049 -0.2143
 2422SOL    HW118725   0.030   3.763   3.576  0.2816 -0.7769  0.5904
 2422SOL    HW218726   0.174   3.753   3.568 -0.6415  0.1414  0.1773
 2423SOL     OW18727   2.264   0.243  11.227  0.4481  0.1088  0.1271
 2423SOL    HW118728   2.304   0.164  11.191 -0.5287 -0.4556  0.2676
 2423SOL    HW218729   2.336   0.306  11.227 -1.1111  1.8972  1.9061
 2424SOL     OW18730   3.480   3.629   9.263 -0.0935  0.6613 -0.5494
 2424SOL    HW118731   3.564   3.604   9.225  0.1937 -0.1882  0.6630
 2424SOL    HW218732   3.474   3.713   9.217  2.6685  2.2425  1.9088
 2425SOL     OW18733   3.155   2.711   3.485  0.3433  0.4504 -0.0847
 2425SOL    HW118734   3.237   2.754   3.508 -1.4337  1.8940  3.7145
 2425SOL    HW218735   3.090   2.781   3.489 -2.1616 -1.9874  1.9419
 2426SOL     OW18736   4.692   2.328   3.320  0.3922 -0.2642 -0.1752
 2426SOL    HW118737   0.047   2.382   3.321  0.9225 -1.0599  2.0925
 2426SOL    HW218738   4.687   2.291   3.232  3.8580  0.3789 -0.6365
 2427SOL     OW18739   0.959   1.111   8.329 -0.5069 -0.1112  0.1274
 2427SOL    HW118740   1.049   1.121   8.361 -1.0564 -2.0262  2.2176
 2427SOL    HW218741   0.931   1.200   8.347 -0.2838 -0.0760  0.2984
 2428SOL     OW18742   3.918   3.652   8.575  0.6568 -0.3680 -0.4333
 2428SOL    HW118743   3.888   3.591   8.508 -0.6833 -1.0685  0.8133
 2428SOL    HW218744   3.862   3.729   8.566 -0.3833 -1.0315  0.4240
 2429SOL     OW18745   3.244   3.007   3.813  0.0372 -0.3639  0.5266
 2429SOL    HW118746   3.271   2.963   3.732  1.2170 -3.1509  2.4463
 2429SOL    HW218747   3.163   2.962   3.837 -1.4099  1.4570 -0.9474
 2430SOL     OW18748   0.278   3.305   7.632  0.4856  0.2468  0.0799
 2430SOL    HW118749   0.214   3.234   7.637 -1.5681  2.0098 -0.7915
 2430SOL    HW218750   0.338   3.291   7.705  1.1863 -0.3022 -0.5934
 2431SOL     OW18751   3.457   2.669   3.172  0.2094  0.3124 -0.3089
 2431SOL    HW118752   3.367   2.697   3.187 -0.8535 -1.9893 -2.1910
 2431SOL    HW218753   3.472   2.672   3.077 -1.6930 -0.2824 -0.6241
 2432SOL     OW18754   2.984   1.718   3.813 -0.5152 -0.3041  0.1250
 2432SOL    HW118755   3.042   1.767   3.872 -1.6889  1.8899 -0.5237
 2432SOL    HW218756   2.991   1.629   3.847 -2.0473 -0.5852 -0.2879
 2433SOL     OW18757   3.594   2.863   6.761  0.1101 -0.0715  0.5145
 2433SOL    HW118758   3.592   2.883   6.667  2.0013 -0.2751  0.4366
 2433SOL    HW218759   3.502   2.862   6.786 -0.6802 -1.8520 -2.3688
 2434SOL     OW18760   3.956   2.927   8.074  0.0337  0.0473 -0.1172
 2434SOL    HW118761   3.983   3.011   8.037  2.4117 -0.5243  0.3379
 2434SOL    HW218762   4.008   2.855   8.039  1.6781  1.2103 -0.1166
 2435SOL     OW18763   4.521   1.538  15.061 -0.3704  0.7171  0.0418
 2435SOL    HW118764   4.592   1.496  15.110 -0.7762  1.3063  1.1372
 2435SOL    HW218765   4.455   1.548  15.130 -0.4808  0.0972  0.0232
 2436SOL     OW18766   3.066   0.285   4.977 -0.4442 -0.5071 -0.3766
 2436SOL    HW118767   3.131   0.294   4.907 -0.8359 -1.3424 -0.8482
 2436SOL    HW218768   2.983   0.316   4.940  0.4614  1.8953 -0.3972
 2437SOL     OW18769   3.103   1.093  15.422  0.4862  0.3142  0.9643
 2437SOL    HW118770   3.066   1.063  15.338  1.4945  1.0861  0.2402
 2437SOL    HW218771   3.187   1.134  15.400  1.1502 -1.0024  0.9919
 2438SOL     OW18772   0.677   4.385   3.884  0.0707  0.2936  0.4096
 2438SOL    HW118773   0.583   4.395   3.871  0.0595 -0.5565 -0.1692
 2438SOL    HW218774   0.705   4.344   3.802 -0.9731  1.7958 -0.7046
 2439SOL     OW18775   2.128   4.646   6.252  0.1602  0.3218  0.5321
 2439SOL    HW118776   2.214   4.688   6.243 -0.0881  0.4597 -1.0636
 2439SOL    HW218777   2.151   4.575   6.312 -1.2205 -0.0106  0.6615
 2440SOL     OW18778   4.711   3.734  13.339  0.5361 -0.1345  0.0337
 2440SOL    HW118779   4.677   3.659  13.290  1.2482 -0.4924  0.0875
 2440SOL    HW218780   4.699   3.810  13.283 -2.4148 -0.6703 -0.0543
 2441SOL     OW18781   2.892   1.417   4.684  0.5340 -0.0466 -0.0544
 2441SOL    HW118782   2.876   1.366   4.605 -1.5751  0.8300 -0.2025
 2441SOL    HW218783   2.845   1.497   4.662  0.5233 -0.7235 -2.4310
 2442SOL     OW18784   0.849   0.177   8.414 -0.7709 -0.7556  0.0472
 2442SOL    HW118785   0.910   0.123   8.464 -0.9899 -1.8782 -0.8792
 2442SOL    HW218786   0.883   0.263   8.435  0.1981 -0.4916 -2.5967
 2443SOL     OW18787   3.494   0.119   7.805 -0.4489  0.7697 -0.1111
 2443SOL    HW118788   3.442   0.172   7.865 -1.1033 -1.8694  1.6415
 2443SOL    HW218789   3.435   0.044   7.795 -0.0484  0.3774  0.5391
 2444SOL     OW18790   1.978   0.802   3.433 -0.1400  0.2183  0.4227
 2444SOL    HW118791   1.947   0.742   3.501  1.2568 -0.5689  0.3658
 2444SOL    HW218792   2.040   0.741   3.392 -1.5408 -1.8477  1.3571
 2445SOL     OW18793   2.963   4.141   3.301 -0.6160 -0.4092  0.2411
 2445SOL    HW118794   2.903   4.188   3.243  0.9801  0.0946 -0.9952
 2445SOL    HW218795   2.989   4.064   3.249  0.1096 -0.2714  0.3932
 2446SOL     OW18796   3.433   0.036   2.308 -0.1761  0.8681  0.3429
 2446SOL    HW118797   3.381   0.100   2.259 -2.5194  1.8619  4.1504
 2446SOL    HW218798   3.368   4.697   2.341  0.3840 -1.4698 -3.0462
 2447SOL     OW18799   0.187   3.491   7.338  0.1143  0.1658  0.2591
 2447SOL    HW118800   0.259   3.443   7.380  0.0537  0.1382  0.3318
 2447SOL    HW218801   0.133   3.515   7.414 -1.9182  0.5660 -1.3195
 2448SOL     OW18802   2.615   4.144   5.139  0.2811 -0.0555  0.4771
 2448SOL    HW118803   2.638   4.224   5.092 -0.0709 -0.2893 -0.0862
 2448SOL    HW218804   2.545   4.109   5.085  0.9018 -2.2014  1.0103
 2449SOL     OW18805   0.977   2.761   3.590  0.1584 -0.0564 -0.0587
 2449SOL    HW118806   0.903   2.792   3.642  0.5794 -1.7142  1.5138
 2449SOL    HW218807   1.052   2.775   3.648  1.4338  1.4889 -2.0866
 2450SOL     OW18808   1.736   0.115  17.216  0.3808  0.2612 -0.3946
 2450SOL    HW118809   1.647   0.137  17.189 -0.1317 -2.7720 -1.2523
 2450SOL    HW218810   1.776   0.125  17.129  1.0873  0.4088 -0.0571
 2451SOL     OW18811   0.473   1.970  12.764  0.1258 -0.0439 -0.3177
 2451SOL    HW118812   0.543   1.918  12.724  1.9303  1.6444  0.6327
 2451SOL    HW218813   0.484   2.048  12.709  2.5843 -0.0866  0.1206
 2452SOL     OW18814   0.716   0.221  10.086 -0.6863 -0.5600  0.1322
 2452SOL    HW118815   0.627   0.200  10.114 -0.6266 -1.6350 -0.4685
 2452SOL    HW218816   0.693   0.273  10.009 -0.6322 -0.7589 -0.0185
 2453SOL     OW18817   0.947   4.328   4.557  0.2540  0.2254 -0.0998
 2453SOL    HW118818   0.901   4.409   4.534  1.2444  0.6916 -0.4340
 2453SOL    HW218819   1.037   4.346   4.530 -0.2473  2.1665 -0.4687
 2454SOL     OW18820   0.180   1.066  14.104 -0.2191  0.4907  0.3461
 2454SOL    HW118821   0.230   1.033  14.179 -2.4978 -0.3751  1.4702
 2454SOL    HW218822   0.145   1.146  14.143 -1.0181  0.3756 -0.1458
 2455SOL     OW18823   4.611   3.626   2.671 -0.2507  0.1997 -0.0271
 2455SOL    HW118824   4.689   3.582   2.636 -0.2881  1.4672 -1.7003
 2455SOL    HW218825   4.616   3.710   2.625 -0.5060 -0.8075 -1.8812
 2456SOL     OW18826   1.707   2.291   3.796  0.1217 -0.2531  0.0979
 2456SOL    HW118827   1.669   2.358   3.853 -1.0688 -1.4297  0.6703
 2456SOL    HW218828   1.758   2.241   3.860 -0.0126 -0.0986  0.3254
 2457SOL     OW18829   0.453   0.038   6.081  0.5938 -0.6581 -0.5470
 2457SOL    HW118830   0.540   0.058   6.046  0.1608  1.4105 -0.4533
 2457SOL    HW218831   0.408   0.045   5.997 -0.2764 -1.5729 -0.1486
 2458SOL     OW18832   3.506   0.625   5.448  0.2723 -0.2344  0.2183
 2458SOL    HW118833   3.428   0.611   5.503 -1.1662  3.5392 -0.8757
 2458SOL    HW218834   3.504   0.541   5.403 -0.5753 -0.3226  0.4136
 2459SOL     OW18835   1.874   1.057  12.309  0.3967  0.5373 -0.1875
 2459SOL    HW118836   1.850   0.993  12.241 -0.5247  0.4924  0.1878
 2459SOL    HW218837   1.961   1.092  12.286  0.5945  0.5396  0.5631
 2460SOL     OW18838   1.414   0.411   5.083 -0.4927 -0.2669  0.2925
 2460SOL    HW118839   1.410   0.493   5.132  1.0460  0.7604 -1.2925
 2460SOL    HW218840   1.509   0.399   5.085 -0.3926 -0.0044 -2.3013
 2461SOL     OW18841   2.623   0.001   2.296  0.0834 -0.1173  0.1865
 2461SOL    HW118842   2.664   0.084   2.318 -1.8422  1.0510 -0.6432
 2461SOL    HW218843   2.645   4.702   2.206 -0.8362  0.9956 -0.3144
 2462SOL     OW18844   2.752   4.194  10.738 -0.0330  0.9511  0.2155
 2462SOL    HW118845   2.734   4.100  10.730  0.6599  0.8471 -0.2092
 2462SOL    HW218846   2.712   4.220  10.821  2.0206 -0.7257  1.7148
 2463SOL     OW18847   4.519   0.435  16.500 -0.4295  0.0126  0.0671
 2463SOL    HW118848   4.516   0.360  16.441 -2.0859 -0.1761  0.3986
 2463SOL    HW218849   4.581   0.481  16.443  0.2283 -0.7203  0.1907
 2464SOL     OW18850   1.962   2.476  14.669 -0.1603 -0.0339 -0.1182
 2464SOL    HW118851   2.020   2.495  14.743 -3.1009  2.2928  1.6175
 2464SOL    HW218852   1.998   2.534  14.602  0.7727 -0.6892 -0.1848
 2465SOL     OW18853   2.750   0.339   7.535 -0.2100  0.4435 -0.0402
 2465SOL    HW118854   2.816   0.309   7.473  0.7282  1.8744  0.2615
 2465SOL    HW218855   2.808   0.319   7.608 -1.7322  0.4347  1.1608
 2466SOL     OW18856   1.512   4.469   2.259 -0.3374 -0.0766 -0.3123
 2466SOL    HW118857   1.606   4.480   2.268 -0.0497 -2.0680 -0.7824
 2466SOL    HW218858   1.480   4.556   2.282 -0.3598 -0.2923  0.4760
 2467SOL     OW18859   3.126   3.357   7.160 -0.2045  0.1473  0.3867
 2467SOL    HW118860   3.123   3.364   7.255 -0.0447 -0.6736  0.4536
 2467SOL    HW218861   3.217   3.385   7.147 -0.3257 -0.7233 -2.5596
 2468SOL     OW18862   0.572   2.061   2.699 -0.2066  0.5222 -0.0609
 2468SOL    HW118863   0.545   2.136   2.645 -0.2493  0.1078 -0.6219
 2468SOL    HW218864   0.507   1.994   2.681 -0.2992  0.6829 -0.3265
 2469SOL     OW18865   0.250   0.520   7.474 -0.2687 -0.5320 -0.4077
 2469SOL    HW118866   0.203   0.577   7.535  1.3739 -1.7753  2.0603
 2469SOL    HW218867   0.339   0.540   7.504 -1.5491  3.3827  0.7281
 2470SOL     OW18868   4.291   0.569   6.969  0.1526 -0.1667  0.5223
 2470SOL    HW118869   4.241   0.645   6.997 -0.1865 -0.0144 -0.5326
 2470SOL    HW218870   4.224   0.502   6.984 -0.4352 -0.1165 -2.0009
 2471SOL     OW18871   2.476   3.973   8.562 -0.1711  0.1560 -0.4940
 2471SOL    HW118872   2.450   3.897   8.511  1.2667 -1.8038  1.6806
 2471SOL    HW218873   2.464   3.933   8.648 -1.1665  0.6276 -0.4130
 2472SOL     OW18874   2.045   4.049   1.724  0.1747  0.7320 -0.1149
 2472SOL    HW118875   1.990   4.127   1.720 -1.0919 -0.3053 -2.8478
 2472SOL    HW218876   1.985   3.996   1.776 -0.9515  1.4303 -0.7098
 2473SOL     OW18877   1.114   4.238   1.484 -0.3067 -0.6624 -0.1383
 2473SOL    HW118878   1.091   4.152   1.450  1.1347 -0.3084 -1.9944
 2473SOL    HW218879   1.171   4.208   1.555 -0.7825 -1.0749  0.0627
 2474SOL     OW18880   1.808   3.869   3.510 -0.2340  0.3638 -0.3902
 2474SOL    HW118881   1.838   3.864   3.419 -1.0274  1.9890 -0.7499
 2474SOL    HW218882   1.713   3.875   3.497 -0.5801 -1.4607  1.4076
 2475SOL     OW18883   4.248   2.277   7.620 -0.0892  0.1500 -0.5086
 2475SOL    HW118884   4.152   2.282   7.624 -0.1542 -0.8434 -0.8226
 2475SOL    HW218885   4.263   2.286   7.526 -1.0399 -1.2805 -0.7992
 2476SOL     OW18886   1.297   1.379   7.555  0.1909 -0.0741  0.2351
 2476SOL    HW118887   1.336   1.429   7.483  0.0276  1.3356  1.1205
 2476SOL    HW218888   1.345   1.297   7.546 -1.9891 -1.2930 -0.2275
 2477SOL     OW18889   3.377   0.028   0.053 -0.2361 -0.0594  0.0959
 2477SOL    HW118890   3.357   0.090  17.681  0.4968 -2.1156 -1.9508
 2477SOL    HW218891   3.432   4.688   0.007 -0.4616 -0.7631  0.7966
 2478SOL     OW18892   3.699   1.218  14.685 -0.4802  0.1301  0.2074
 2478SOL    HW118893   3.605   1.233  14.679 -0.2070  1.3496 -0.8781
 2478SOL    HW218894   3.727   1.302  14.649 -1.6901  0.2008 -0.5702
 2479SOL     OW18895   3.588   1.032   7.186 -0.0714 -0.4836 -0.3871
 2479SOL    HW118896   3.569   1.057   7.096 -0.6981  1.1720  0.2139
 2479SOL    HW218897   3.541   0.950   7.203  1.3772 -0.9832  1.2841
 2480SOL     OW18898   2.855   3.938   7.241  0.4416 -0.0947  0.1665
 2480SOL    HW118899   2.919   3.939   7.312 -0.4240 -1.1279  0.9662
 2480SOL    HW218900   2.885   3.864   7.188 -1.7958 -0.8495 -0.0265
 2481SOL     OW18901   2.973   2.909  13.238 -0.2516  0.2036 -0.1090
 2481SOL    HW118902   2.997   2.955  13.157  0.4793 -0.5892 -0.3389
 2481SOL    HW218903   2.879   2.918  13.256 -0.7469 -1.8122 -1.5761
 2482SOL     OW18904   4.471   1.387  14.828 -0.4704  0.0392  0.7418
 2482SOL    HW118905   4.542   1.419  14.772 -0.9664 -0.2147 -0.0437
 2482SOL    HW218906   4.486   1.434  14.909  1.1176  0.7670  0.0252
 2483SOL     OW18907   3.376   4.644   3.173  0.0586  0.2303 -0.3097
 2483SOL    HW118908   3.394   4.679   3.086  0.8632  2.6909  0.8529
 2483SOL    HW218909   3.285   4.617   3.158  0.3238 -0.5250 -0.5556
 2484SOL     OW18910   2.797   3.667  14.372 -0.3139 -0.4675  1.0253
 2484SOL    HW118911   2.863   3.727  14.407  0.7099 -1.0725  0.1484
 2484SOL    HW218912   2.764   3.634  14.456 -0.4203 -0.3815  1.0172
 2485SOL     OW18913   3.511   0.905  15.724  0.4042 -0.0408 -0.4130
 2485SOL    HW118914   3.435   0.939  15.771  0.0958  0.5975 -1.3640
 2485SOL    HW218915   3.497   0.933  15.634 -0.7230  2.5604  0.5832
 2486SOL     OW18916   2.208   3.149  11.431 -0.3181 -0.0582 -0.2264
 2486SOL    HW118917   2.248   3.219  11.379  0.9299 -2.2060 -2.1612
 2486SOL    HW218918   2.264   3.082  11.391 -1.3928 -2.0469  1.6219
 2487SOL     OW18919   1.879   1.241   9.040  0.1526 -0.5692  0.0737
 2487SOL    HW118920   1.854   1.287   9.120 -1.8324 -2.0332  0.3110
 2487SOL    HW218921   1.809   1.175   9.038 -0.4601  0.0700  0.3141
 2488SOL     OW18922   3.591   3.960   5.291  0.2632  0.0520 -0.3906
 2488SOL    HW118923   3.563   3.915   5.211  0.5920 -0.5060 -0.1909
 2488SOL    HW218924   3.611   4.042   5.246  0.1065 -2.0186 -4.2336
 2489SOL     OW18925   2.791   3.309   4.388  0.7330 -0.1771  0.1600
 2489SOL    HW118926   2.835   3.304   4.303 -1.1991 -1.9252 -0.7291
 2489SOL    HW218927   2.789   3.404   4.391 -1.7977 -0.2412  0.1099
 2490SOL     OW18928   2.917   2.412   9.617  0.0726 -0.2765 -0.2418
 2490SOL    HW118929   2.928   2.489   9.674 -1.5802 -0.4364  0.3015
 2490SOL    HW218930   2.866   2.463   9.554  0.8831  1.1350  0.2191
 2491SOL     OW18931   4.444   1.820  16.046 -0.1625 -0.1141 -0.8861
 2491SOL    HW118932   4.480   1.732  16.034  0.3876 -0.0578  0.3323
 2491SOL    HW218933   4.516   1.854  16.100 -0.7581 -0.8334  0.3825
 2492SOL     OW18934   1.621   0.402   3.228  0.5674 -0.5850 -0.5919
 2492SOL    HW118935   1.542   0.348   3.235  0.2918  0.2180  2.5907
 2492SOL    HW218936   1.603   0.437   3.141 -0.8789  0.7238  0.2352
 2493SOL     OW18937   4.438   4.007  15.948 -0.3893  0.2967 -0.2327
 2493SOL    HW118938   4.444   4.067  15.874  3.1166 -0.1005 -0.2540
 2493SOL    HW218939   4.345   3.985  15.949 -0.7527  1.8890 -0.1483
 2494SOL     OW18940   3.089   2.335   8.982 -0.1695  0.1637  0.8739
 2494SOL    HW118941   3.159   2.397   9.002  0.3243 -0.2819  0.5329
 2494SOL    HW218942   3.100   2.328   8.887 -1.6781  1.1187  0.6306
 2495SOL     OW18943   3.372   3.311   9.656 -0.3418 -0.3539  0.0723
 2495SOL    HW118944   3.418   3.227   9.648 -1.1427 -0.9231  1.3982
 2495SOL    HW218945   3.442   3.375   9.669 -0.1060 -0.2928 -1.4804
 2496SOL     OW18946   3.732   1.649  16.130  0.4298 -0.0442  0.0145
 2496SOL    HW118947   3.735   1.708  16.206  3.6505 -0.1900  0.0265
 2496SOL    HW218948   3.824   1.661  16.104  0.9429 -0.8631  1.4191
 2497SOL     OW18949   3.774   1.616  15.705  0.3961 -0.8748 -0.3196
 2497SOL    HW118950   3.861   1.621  15.745  0.5254 -2.0663 -0.4726
 2497SOL    HW218951   3.787   1.695  15.651  1.6268  0.5975  2.1417
 2498SOL     OW18952   2.023   4.303   5.593 -0.1721  0.3163  0.4238
 2498SOL    HW118953   1.938   4.340   5.568  1.8071  3.8398 -1.0426
 2498SOL    HW218954   2.075   4.378   5.620  1.4568 -0.9438  0.7550
 2499SOL     OW18955   4.378   0.306   2.571 -0.4224 -0.0414  0.7567
 2499SOL    HW118956   4.415   0.332   2.655 -1.3497  0.4774  0.9906
 2499SOL    HW218957   4.400   0.213   2.562  2.1238  0.5652  0.6063
 2500SOL     OW18958   2.699   4.630   2.036  0.2957  0.0105  0.4455
 2500SOL    HW118959   2.762   4.686   1.990  1.6223 -1.0011  1.0297
 2500SOL    HW218960   2.754   4.552   2.043 -1.1772 -0.8081  2.6633
 2501SOL     OW18961   0.751   0.354   2.258 -0.2215  0.2219  0.3164
 2501SOL    HW118962   0.684   0.380   2.195 -0.4438  0.9802  0.8578
 2501SOL    HW218963   0.756   0.259   2.251 -3.6060  0.1738 -1.1434
 2502SOL     OW18964   2.415   1.662   5.956  0.0483  0.3648 -0.1452
 2502SOL    HW118965   2.503   1.664   5.919 -0.1336 -0.0107 -0.5818
 2502SOL    HW218966   2.428   1.708   6.040 -0.9539 -0.8788  0.6895
 2503SOL     OW18967   1.559   4.326   7.146 -0.2741 -0.7722 -0.6953
 2503SOL    HW118968   1.535   4.323   7.053 -0.2650 -3.1578 -0.6229
 2503SOL    HW218969   1.586   4.234   7.153 -1.2187 -1.0947 -1.1507
 2504SOL     OW18970   1.890   0.824  10.820 -0.2782 -0.4335  0.6289
 2504SOL    HW118971   1.961   0.767  10.790  1.2558  1.9744 -0.2628
 2504SOL    HW218972   1.930   0.908  10.798  2.4637 -2.0374 -0.5083
 2505SOL     OW18973   1.703   0.783   7.264 -0.1541 -0.2957  0.1638
 2505SOL    HW118974   1.760   0.730   7.208 -2.3487 -1.2106 -1.2428
 2505SOL    HW218975   1.618   0.739   7.263 -0.8613  1.0239  1.7228
 2506SOL     OW18976   0.256   0.729   3.052 -0.0067 -0.2041  0.0403
 2506SOL    HW118977   0.217   0.770   2.975  0.5630 -0.9908 -0.6773
 2506SOL    HW218978   0.330   0.790   3.061  0.4008 -0.4370 -1.6858
 2507SOL     OW18979   1.707   4.194   0.784 -0.0211  0.1406  0.1274
 2507SOL    HW118980   1.709   4.258   0.714  0.7321  0.6816  0.6450
 2507SOL    HW218981   1.789   4.146   0.774  1.0283  1.9083  0.3354
 2508SOL     OW18982   2.177   0.389  17.421  0.5458 -0.1927  0.1441
 2508SOL    HW118983   2.097   0.397  17.368  0.3332 -0.3303  0.4490
 2508SOL    HW218984   2.203   0.299  17.403  1.0867  0.1387 -0.7520
 2509SOL     OW18985   1.290   0.491   8.239 -0.6634 -0.9241 -0.6620
 2509SOL    HW118986   1.336   0.552   8.297 -1.2262 -0.1815 -0.9830
 2509SOL    HW218987   1.253   0.549   8.172  0.3975 -0.0906 -0.5205
 2510SOL     OW18988   0.619   0.750  10.068 -0.3937 -0.0236  0.1922
 2510SOL    HW118989   0.659   0.782  10.149  0.4874 -0.8021  0.0694
 2510SOL    HW218990   0.537   0.799  10.057 -0.3011  0.7221  2.9342
 2511SOL     OW18991   2.723   3.482   3.110 -0.3231 -0.0492  0.0067
 2511SOL    HW118992   2.719   3.552   3.045 -0.5943 -0.3429 -0.2903
 2511SOL    HW218993   2.788   3.524   3.167 -0.8406  0.6206  0.1118
 2512SOL     OW18994   3.703   3.169  17.465 -0.2997 -0.5056  0.4395
 2512SOL    HW118995   3.730   3.141  17.552 -0.4983  0.6288  0.8645
 2512SOL    HW218996   3.783   3.200  17.424  0.0088  0.7343  1.9760
 2513SOL     OW18997   1.601   1.360   5.812 -0.0756 -0.3835 -0.2654
 2513SOL    HW118998   1.671   1.367   5.877  0.2933  2.3900 -0.9562
 2513SOL    HW218999   1.545   1.304   5.865 -1.2253  3.0339  2.0545
 2514SOL     OW19000   1.980   0.207   5.824  0.0478 -0.4310  0.0641
 2514SOL    HW119001   1.936   0.144   5.767 -2.1251  1.3895 -0.2619
 2514SOL    HW219002   1.916   0.277   5.831 -0.3191 -0.4451 -3.2732
 2515SOL     OW19003   4.079   4.316   5.758  0.1868  0.3672  0.0440
 2515SOL    HW119004   4.108   4.261   5.831 -0.2749 -0.9966 -0.8076
 2515SOL    HW219005   4.051   4.250   5.694  2.1063 -1.6012  1.2309
 2516SOL     OW19006   2.881   0.889   6.661  0.7240  0.4165  0.4483
 2516SOL    HW119007   2.833   0.907   6.580  1.3811  2.8204  0.5889
 2516SOL    HW219008   2.958   0.946   6.660  0.9527  0.0837 -0.5142
 2517SOL     OW19009   4.213   1.298   2.272 -0.5024 -0.6532 -0.5542
 2517SOL    HW119010   4.168   1.222   2.308  2.5796 -1.0950  2.4348
 2517SOL    HW219011   4.142   1.345   2.229 -1.0319  1.2036  2.3058
 2518SOL     OW19012   3.485   3.981   4.786  0.7139  0.5228  0.2765
 2518SOL    HW119013   3.534   4.046   4.735  0.2893  0.7255  0.1294
 2518SOL    HW219014   3.407   4.026   4.819 -0.7398 -1.3086 -0.6777
 2519SOL     OW19015   0.599   4.475  14.289 -0.1977 -0.4720  0.1695
 2519SOL    HW119016   0.612   4.570  14.286  2.2149 -0.7819  0.3597
 2519SOL    HW219017   0.687   4.436  14.296 -0.2999 -0.5199  1.1423
 2520SOL     OW19018   2.087   3.114   7.921  0.4330  0.2352  0.3953
 2520SOL    HW119019   2.090   3.210   7.926  2.1537  0.1846  0.4832
 2520SOL    HW219020   2.042   3.106   7.837  1.5525 -0.1506 -0.1645
 2521SOL     OW19021   2.331   2.379   0.649  0.2316 -0.3972 -0.5090
 2521SOL    HW119022   2.345   2.331   0.567 -1.1839  1.4058 -1.8171
 2521SOL    HW219023   2.415   2.415   0.676  0.4974 -1.8385  0.5873
 2522SOL     OW19024   1.640   3.450   3.991  0.3884  0.5540 -0.2932
 2522SOL    HW119025   1.558   3.415   4.027 -1.3895  0.4265 -4.4791
 2522SOL    HW219026   1.640   3.543   4.011  1.2595  0.7706 -1.3209
 2523SOL     OW19027   3.861   2.223   3.659 -0.0937  0.1156  0.0286
 2523SOL    HW119028   3.802   2.172   3.603 -0.4048 -0.6594  1.0551
 2523SOL    HW219029   3.803   2.288   3.699  1.3196  0.6263  1.2145
 2524SOL     OW19030   1.905   0.606   2.583  0.5352 -0.0910 -0.5329
 2524SOL    HW119031   1.851   0.675   2.620 -1.2165 -0.0517 -3.1564
 2524SOL    HW219032   1.935   0.640   2.498  0.8095 -0.0649 -0.4244
 2525SOL     OW19033   1.687   3.725  12.256  0.1793 -0.1856  0.3358
 2525SOL    HW119034   1.655   3.763  12.337  0.3203  0.5948  0.0291
 2525SOL    HW219035   1.781   3.746  12.256  0.1391 -0.0151 -0.6803
 2526SOL     OW19036   1.431   4.712  14.835  0.1018  0.3834 -0.5534
 2526SOL    HW119037   1.351   0.040  14.843 -1.2550 -1.9544  0.9375
 2526SOL    HW219038   1.400   4.641  14.778 -0.9546  1.1458 -0.9317
 2527SOL     OW19039   3.329   1.696   1.481  0.1099  0.8596  0.2198
 2527SOL    HW119040   3.397   1.763   1.482 -1.9823  3.0015  0.0762
 2527SOL    HW219041   3.261   1.732   1.425 -0.0373 -2.5829 -1.8455
 2528SOL     OW19042   2.569   4.072   1.408 -0.7056 -0.2085  0.2422
 2528SOL    HW119043   2.632   4.036   1.345  0.0217 -0.7741  1.2838
 2528SOL    HW219044   2.485   4.035   1.382  0.6358 -1.2485 -2.6617
 2529SOL     OW19045   4.336   4.666  16.318  0.4784 -0.1661 -0.7473
 2529SOL    HW119046   4.267   4.612  16.356  1.8703 -0.9140  0.7505
 2529SOL    HW219047   4.356   4.623  16.235 -1.6098 -2.5281 -0.0227
 2530SOL     OW19048   1.860   1.928  12.140 -0.2578 -0.9319 -0.1719
 2530SOL    HW119049   1.878   1.866  12.068  0.8651 -1.2754  0.3972
 2530SOL    HW219050   1.875   2.013  12.099  0.3285 -0.3543  1.2524
 2531SOL     OW19051   2.192   1.644  17.150 -0.5015  0.3606  0.3918
 2531SOL    HW119052   2.259   1.699  17.191  0.4844  0.3310 -1.1503
 2531SOL    HW219053   2.160   1.607  17.232 -2.3086 -0.5212 -0.7038
 2532SOL     OW19054   0.528   4.213  17.068 -0.1501  0.0091  0.0624
 2532SOL    HW119055   0.553   4.138  17.015 -0.5150  0.1987 -0.3725
 2532SOL    HW219056   0.446   4.230  17.023 -0.5818 -2.0708  0.0537
 2533SOL     OW19057   2.047   2.833   7.037  0.3305  0.2971  0.3913
 2533SOL    HW119058   2.110   2.904   7.026  1.2985 -0.4629  1.0088
 2533SOL    HW219059   2.051   2.822   7.132 -0.6169  0.6489  0.4792
 2534SOL     OW19060   2.520   0.274   7.919 -0.5364 -0.4889  0.3810
 2534SOL    HW119061   2.513   0.191   7.966  1.9374  0.5597  2.6082
 2534SOL    HW219062   2.614   0.276   7.900 -0.7490 -0.2668 -0.6298
 2535SOL     OW19063   4.653   2.495   4.415  0.2748 -0.3563 -0.2502
 2535SOL    HW119064   4.627   2.421   4.470  0.0067 -0.6718 -0.8002
 2535SOL    HW219065   4.678   2.450   4.334  1.8858  1.4639 -0.7493
 2536SOL     OW19066   3.706   3.122   3.130  0.5058 -0.3846 -0.4106
 2536SOL    HW119067   3.761   3.046   3.151 -1.2228 -1.5858 -0.2621
 2536SOL    HW219068   3.678   3.106   3.040 -0.9685 -2.6925  0.4687
 2537SOL     OW19069   1.138   2.243   7.985 -0.7482  0.5115 -0.6696
 2537SOL    HW119070   1.131   2.234   7.890  1.8158 -2.8551 -0.5337
 2537SOL    HW219071   1.213   2.301   7.990 -1.6938  1.6579  0.3636
 2538SOL     OW19072   1.979   0.867   5.828  0.2917 -0.0354 -0.3416
 2538SOL    HW119073   2.037   0.842   5.900  2.3099  0.6880 -1.7050
 2538SOL    HW219074   1.891   0.859   5.866  0.6301  0.8459  0.6178
 2539SOL     OW19075   3.702   0.705   4.296  0.4424  0.4594  0.3041
 2539SOL    HW119076   3.775   0.765   4.315  2.1008 -1.1956 -0.8701
 2539SOL    HW219077   3.618   0.748   4.312  0.8052  1.0457  0.6480
 2540SOL     OW19078   0.174   2.641   9.188 -0.2988 -0.3125 -0.3823
 2540SOL    HW119079   0.087   2.601   9.180 -0.8870  0.8140  0.3689
 2540SOL    HW219080   0.180   2.630   9.283 -1.4238  1.1808 -0.1293
 2541SOL     OW19081   2.846   4.670   4.468  0.0863 -0.7041  0.4357
 2541SOL    HW119082   2.839   4.588   4.420  1.7983 -0.9782  0.6619
 2541SOL    HW219083   2.848   0.004   4.393  0.2977  1.5474  2.1881
 2542SOL     OW19084   1.809   3.133  12.282 -0.3275  0.1814  0.7927
 2542SOL    HW119085   1.764   3.212  12.249 -0.7404 -0.3666  0.0334
 2542SOL    HW219086   1.792   3.141  12.376  0.4367  1.6355  0.8063
 2543SOL     OW19087   2.151   1.629   2.770  0.4041  0.1835  0.5083
 2543SOL    HW119088   2.097   1.695   2.725  0.9063  0.4701  0.3181
 2543SOL    HW219089   2.201   1.683   2.832  0.7575  0.6574 -0.1772
 2544SOL     OW19090   3.335   2.259   7.320 -0.0229  0.3708 -0.0665
 2544SOL    HW119091   3.249   2.290   7.292  0.6091  2.0654 -0.1353
 2544SOL    HW219092   3.401   2.325   7.298  0.3018  0.0804  0.0372
 2545SOL     OW19093   3.817   2.324   8.519  0.2363  0.0542  0.5881
 2545SOL    HW119094   3.791   2.315   8.427  1.0734 -2.3613  0.5743
 2545SOL    HW219095   3.775   2.407   8.540 -1.4544 -0.8156  0.6795
 2546SOL     OW19096   3.525   4.360   8.942  0.1265 -0.1073 -0.4983
 2546SOL    HW119097   3.445   4.318   8.974  0.2378  1.1873  1.5047
 2546SOL    HW219098   3.590   4.292   8.959 -0.2186 -0.5988 -1.1223
 2547SOL     OW19099   2.471   2.009  15.223 -0.4228  0.7299  0.1658
 2547SOL    HW119100   2.419   2.085  15.197 -0.3013  0.8124  0.1631
 2547SOL    HW219101   2.556   2.052  15.228 -0.8699  1.6454 -0.1950
 2548SOL     OW19102   2.568   0.766   7.671  0.1709  0.1221  0.5211
 2548SOL    HW119103   2.611   0.752   7.755 -0.6080  0.1942  0.9371
 2548SOL    HW219104   2.576   0.680   7.629 -0.0606  0.4729 -0.2587
 2549SOL     OW19105   4.342   4.555  11.448  0.0187  0.4532 -0.1158
 2549SOL    HW119106   4.307   4.528  11.363  0.2974  0.5288 -0.2563
 2549SOL    HW219107   4.425   4.519  11.418  0.0634  0.2302  0.2781
 2550SOL     OW19108   3.115   0.478   6.209  0.2972  0.1015  0.2787
 2550SOL    HW119109   3.133   0.469   6.116  0.8978  0.0054  0.4002
 2550SOL    HW219110   3.039   0.536   6.207  2.6910  3.2751  0.2248
 2551SOL     OW19111   1.573   1.794   8.328  0.3939 -0.1625  0.2858
 2551SOL    HW119112   1.656   1.825   8.365 -0.7836  1.7564  1.3207
 2551SOL    HW219113   1.533   1.763   8.409  0.2789  0.3178  0.4111
 2552SOL     OW19114   3.244   0.232   7.622  0.2217 -0.5295  0.2972
 2552SOL    HW119115   3.267   0.241   7.714  1.0306 -0.9031  0.1299
 2552SOL    HW219116   3.301   0.161   7.591  0.1393 -0.5786  0.2582
 2553SOL     OW19117   0.564   2.653   2.030  0.2052  0.1248  0.4819
 2553SOL    HW119118   0.514   2.695   2.100  1.3749  1.6772  0.3787
 2553SOL    HW219119   0.643   2.705   2.047  0.7965 -0.2996 -0.9706
 2554SOL     OW19120   2.148   1.735  13.736  0.0180  0.1037 -0.4514
 2554SOL    HW119121   2.130   1.801  13.803 -0.1483 -0.7198  0.3128
 2554SOL    HW219122   2.175   1.667  13.798 -1.6111  0.2114  0.3725
 2555SOL     OW19123   3.773   4.570  13.440 -0.0836 -0.2641  0.1903
 2555SOL    HW119124   3.821   4.487  13.436  2.1588  1.0932 -0.7473
 2555SOL    HW219125   3.828   4.638  13.403  0.8477 -0.9459  0.3127
 2556SOL     OW19126   1.363   2.953   6.492 -0.0738  0.2353 -0.0594
 2556SOL    HW119127   1.336   2.950   6.401 -0.6393  1.4463  0.0662
 2556SOL    HW219128   1.453   2.984   6.487  0.7895 -2.5685 -1.8722
 2557SOL     OW19129   0.282   3.827  13.739  0.1057 -0.5794  0.0218
 2557SOL    HW119130   0.352   3.892  13.742 -0.4130  0.0053 -0.5611
 2557SOL    HW219131   0.299   3.792  13.826 -2.4477 -0.5636  0.5185
 2558SOL     OW19132   0.840   4.156   3.473  0.0201  0.8363 -0.2946
 2558SOL    HW119133   0.922   4.155   3.521  2.2148  0.0341 -4.0436
 2558SOL    HW219134   0.791   4.080   3.503 -1.2157  1.5276 -0.5545
 2559SOL     OW19135   3.776   1.918   7.987  0.2186 -0.2242  0.6745
 2559SOL    HW119136   3.774   1.981   7.914  0.2066 -0.1102  0.7723
 2559SOL    HW219137   3.870   1.919   8.004  0.3279  2.2152 -0.0072
 2560SOL     OW19138   0.621   2.368   8.143 -0.6504 -0.3066  0.0172
 2560SOL    HW119139   0.648   2.369   8.235  0.2037  1.8151 -0.2462
 2560SOL    HW219140   0.608   2.273   8.135  0.6360 -0.4551 -0.3821
 2561SOL     OW19141   0.717   1.326   9.730 -0.0789  0.5581 -0.5874
 2561SOL    HW119142   0.710   1.416   9.699 -1.4874  1.2274  1.7003
 2561SOL    HW219143   0.771   1.345   9.806 -2.0961 -0.4004  1.0914
 2562SOL     OW19144   0.114   1.667   9.331 -0.0418 -0.1589 -0.5387
 2562SOL    HW119145   0.073   1.587   9.299 -1.9561  0.8938 -0.7079
 2562SOL    HW219146   0.091   1.657   9.423  0.9309 -1.1287 -0.4031
 2563SOL     OW19147   2.977   0.722   3.006  0.1121 -0.2321 -0.8027
 2563SOL    HW119148   3.024   0.673   2.939  0.6683  3.7622 -3.3520
 2563SOL    HW219149   2.924   0.778   2.948 -3.4101 -4.9223 -2.1072
 2564SOL     OW19150   2.090   1.601   4.260  0.2911 -0.2000 -0.6451
 2564SOL    HW119151   2.062   1.554   4.339 -0.8503  1.8189  0.1544
 2564SOL    HW219152   2.019   1.574   4.203 -1.1545 -0.7304  1.4106
 2565SOL     OW19153   3.645   0.545  14.485 -0.2479  0.4643  0.4388
 2565SOL    HW119154   3.739   0.524  14.479  0.4386  3.5056  0.5775
 2565SOL    HW219155   3.643   0.622  14.542 -1.2935  1.4632 -0.9501
 2566SOL     OW19156   2.597   1.578   1.352 -0.0777  0.1778 -0.0968
 2566SOL    HW119157   2.597   1.553   1.260  1.4002 -3.0193  0.7882
 2566SOL    HW219158   2.586   1.495   1.398 -0.3833 -1.4554 -3.1136
 2567SOL     OW19159   0.136   3.967   7.609  0.0215 -0.6369 -0.3216
 2567SOL    HW119160   0.195   3.895   7.632 -0.3081 -0.5744  0.6814
 2567SOL    HW219161   0.144   4.033   7.678 -0.8547 -0.1635 -0.6674
 2568SOL     OW19162   4.308   3.285   8.601  0.0752 -0.6725 -0.4436
 2568SOL    HW119163   4.329   3.195   8.626  0.7429 -0.3779  0.0598
 2568SOL    HW219164   4.224   3.269   8.558 -0.9624 -1.9018  2.0237
 2569SOL     OW19165   0.834   1.232   7.528 -0.0218 -0.3098 -0.1286
 2569SOL    HW119166   0.816   1.140   7.510  2.1908 -1.1398  1.9084
 2569SOL    HW219167   0.785   1.271   7.456 -1.0392 -1.5324 -0.0882
 2570SOL     OW19168   2.808   0.560  13.960 -0.3188  0.2112  0.0484
 2570SOL    HW119169   2.728   0.591  14.002 -0.3692  0.9890 -0.6254
 2570SOL    HW219170   2.811   0.623  13.889  0.0011  0.1887  0.0448
 2571SOL     OW19171   1.384   3.808  17.197  0.8374 -0.5016  0.0170
 2571SOL    HW119172   1.398   3.878  17.133  3.2915 -0.2079  0.8824
 2571SOL    HW219173   1.301   3.773  17.165 -0.6501 -0.3650  3.7253
 2572SOL     OW19174   0.236   0.404  10.025  0.2101 -0.4368 -0.4099
 2572SOL    HW119175   0.239   0.442  10.112  2.0771 -2.4097  0.3783
 2572SOL    HW219176   0.156   0.351  10.029  0.4430 -0.5923  2.1279
 2573SOL     OW19177   3.972   3.146  14.478 -0.6455 -0.2946  0.1319
 2573SOL    HW119178   3.994   3.081  14.410  0.7681 -1.2155  1.4727
 2573SOL    HW219179   4.034   3.217  14.461 -2.0815  0.5055 -1.8316
 2574SOL     OW19180   2.870   2.943  15.662  0.3767 -0.6611  0.1144
 2574SOL    HW119181   2.828   2.999  15.728  2.0607 -0.1591  0.7605
 2574SOL    HW219182   2.931   2.887  15.709 -1.3470 -1.8076  0.9645
 2575SOL     OW19183   1.112   1.354   6.175 -0.5747  0.1587  0.5816
 2575SOL    HW119184   1.129   1.260   6.171  1.7123  0.5998 -0.2591
 2575SOL    HW219185   1.130   1.374   6.083 -2.6573  0.6829  0.2670
 2576SOL     OW19186   1.370   1.303   9.527 -0.5244  0.0783 -0.1967
 2576SOL    HW119187   1.406   1.233   9.582  1.9915 -0.3281 -2.3863
 2576SOL    HW219188   1.419   1.371   9.572  1.2500 -0.6907 -0.9692
 2577SOL     OW19189   2.240   0.301   7.879  0.2634  0.6922  0.2290
 2577SOL    HW119190   2.322   0.279   7.921  0.7135  0.2489 -0.8864
 2577SOL    HW219191   2.277   0.332   7.797  0.1527 -1.1507 -0.5245
 2578SOL     OW19192   0.254   0.269  12.293 -0.6617 -0.2547 -0.3047
 2578SOL    HW119193   0.166   0.307  12.296 -0.4987  0.1278 -0.4164
 2578SOL    HW219194   0.235   0.177  12.274  1.5064 -1.3654  2.9649
 2579SOL     OW19195   3.519   3.265   1.617  0.3439  0.1504  0.5552
 2579SOL    HW119196   3.480   3.336   1.567 -0.6113  0.5967  1.9161
 2579SOL    HW219197   3.475   3.292   1.698  0.1322  1.0838  0.1275
 2580SOL     OW19198   4.721   2.684  11.593 -0.5027  0.4743  0.5452
 2580SOL    HW119199   0.068   2.654  11.537 -1.1544  1.4511 -0.7901
 2580SOL    HW219200   0.023   2.773  11.618 -0.2951  0.4076  0.5729
 2581SOL     OW19201   3.148   3.598   0.756 -0.0937 -0.3834 -0.1110
 2581SOL    HW119202   3.071   3.559   0.796 -2.0085  0.5136 -2.9157
 2581SOL    HW219203   3.199   3.523   0.725  2.1742  1.8835 -1.9002
 2582SOL     OW19204   3.107   1.923   5.949 -0.3286 -0.4148 -0.4033
 2582SOL    HW119205   3.100   1.948   5.857  0.9252 -1.9527 -0.9102
 2582SOL    HW219206   3.188   1.966   5.975 -0.9433  0.6821 -0.2962
 2583SOL     OW19207   2.028   0.071   8.481 -0.3452  0.0078  0.4710
 2583SOL    HW119208   2.096   0.008   8.505  1.5455  2.7552  2.2938
 2583SOL    HW219209   2.044   0.141   8.544  2.4011 -0.9422  0.8427
 2584SOL     OW19210   3.720   3.096  14.574 -0.1003  0.3003 -0.3917
 2584SOL    HW119211   3.809   3.092  14.537 -0.4837 -2.2668 -1.0506
 2584SOL    HW219212   3.747   3.144  14.652 -0.0177 -1.0182  0.3836
 2585SOL     OW19213   0.499   1.350  17.420  0.2794  0.0684 -0.0903
 2585SOL    HW119214   0.501   1.289  17.494  0.2185  0.8804  0.5856
 2585SOL    HW219215   0.408   1.339  17.394  0.7150  0.4018 -1.7509
 2586SOL     OW19216   1.558   3.684   0.034  0.4139  0.6788  0.3184
 2586SOL    HW119217   1.522   3.757  17.682  1.0623 -0.8347 -2.3903
 2586SOL    HW219218   1.614   3.729   0.097 -1.6955 -1.4477  3.7107
 2587SOL     OW19219   3.868   4.604   0.510  0.0956 -0.0301  0.1115
 2587SOL    HW119220   3.864   4.603   0.606  0.6261  0.3107  0.1366
 2587SOL    HW219221   3.773   4.593   0.500  0.3828 -1.5340 -0.8859
 2588SOL     OW19222   1.228   0.240  10.888  0.4439 -0.3557  0.1009
 2588SOL    HW119223   1.205   0.222  10.979 -1.2615  0.9638 -0.0858
 2588SOL    HW219224   1.321   0.217  10.882  0.7878  1.3216 -1.0813
 2589SOL     OW19225   4.259   4.239   5.994  0.2182  0.3310 -0.1786
 2589SOL    HW119226   4.291   4.149   6.002 -3.5856 -1.1772 -1.5639
 2589SOL    HW219227   4.304   4.272   5.917 -1.2223 -1.0283 -1.6161
 2590SOL     OW19228   2.495   0.826  10.497  0.3929  0.2353 -0.2425
 2590SOL    HW119229   2.490   0.759  10.565  2.3530 -1.3736 -1.6644
 2590SOL    HW219230   2.408   0.806  10.464  0.3606  1.1942 -0.7632
 2591SOL     OW19231   4.037   1.366   8.155  0.1658 -0.4257 -0.2841
 2591SOL    HW119232   3.961   1.423   8.168  1.8826  1.4787  1.2837
 2591SOL    HW219233   4.081   1.406   8.080 -0.5168  1.8510  0.5311
 2592SOL     OW19234   1.750   2.329   4.178  0.4425 -0.3838 -0.5918
 2592SOL    HW119235   1.836   2.289   4.177  1.2075  1.2524 -0.6763
 2592SOL    HW219236   1.780   2.412   4.141 -2.9831  0.8694 -0.5735
 2593SOL     OW19237   2.934   3.909   4.411 -0.5038 -0.0874 -0.1869
 2593SOL    HW119238   3.002   3.891   4.476 -0.3224 -1.5847 -0.8057
 2593SOL    HW219239   2.967   3.863   4.334 -0.0610 -2.3399  1.3646
 2594SOL     OW19240   3.196   3.237   7.590  0.0480 -0.0453 -0.1546
 2594SOL    HW119241   3.244   3.288   7.655  0.0796 -0.6106  0.2668
 2594SOL    HW219242   3.248   3.157   7.582 -0.0319 -0.1237  0.1264
 2595SOL     OW19243   3.288   0.305   2.229  0.0588  0.0303  0.5301
 2595SOL    HW119244   3.247   0.284   2.313  0.7481 -2.0987  0.3344
 2595SOL    HW219245   3.334   0.383   2.260  0.9771 -0.4812  0.4833
 2596SOL     OW19246   3.936   1.290  13.811 -0.0427  0.1461  0.0031
 2596SOL    HW119247   3.993   1.215  13.796  0.2391  0.4623 -0.5254
 2596SOL    HW219248   3.974   1.313  13.896 -1.5182 -1.5626  1.1145
 2597SOL     OW19249   0.064   2.265  16.398 -0.2824  0.0776 -0.0727
 2597SOL    HW119250   0.097   2.206  16.465  0.5281  0.0966 -0.4513
 2597SOL    HW219251   0.099   2.352  16.421  1.9874 -1.1046  0.9737
 2598SOL     OW19252   3.855   1.650   6.810  0.3196  0.3499 -0.0312
 2598SOL    HW119253   3.895   1.594   6.876 -1.3692 -0.1520  0.5754
 2598SOL    HW219254   3.913   1.724   6.829  0.5076  0.5922 -1.5233
 2599SOL     OW19255   0.651   0.428  10.824  0.2463  0.1456 -0.1105
 2599SOL    HW119256   0.639   0.392  10.912 -0.6084  0.5781 -0.0514
 2599SOL    HW219257   0.728   0.483  10.835  0.0742  0.1019  1.3657
 2600SOL     OW19258   0.279   4.715  10.167  0.5342 -0.3057 -0.0376
 2600SOL    HW119259   0.249   4.629  10.139 -1.0666  0.6083 -1.1894
 2600SOL    HW219260   0.343   4.686  10.232 -0.0020 -2.2827 -0.3933
 2601SOL     OW19261   2.899   2.144   8.523  0.3045  0.6832 -0.5363
 2601SOL    HW119262   2.979   2.105   8.487 -1.5982 -1.7693 -2.0934
 2601SOL    HW219263   2.928   2.235   8.521 -1.0135  1.1005 -0.7267
 2602SOL     OW19264   1.602   4.111   5.706  0.4404 -0.6380 -0.3027
 2602SOL    HW119265   1.569   4.022   5.714  1.7078 -1.2647 -1.9672
 2602SOL    HW219266   1.693   4.090   5.728  0.7184 -1.1145 -1.9579
 2603SOL     OW19267   3.667   3.185  15.736  0.8057  0.0041  0.2951
 2603SOL    HW119268   3.700   3.148  15.818  1.3979 -0.5547 -0.1934
 2603SOL    HW219269   3.663   3.103  15.686  1.5777 -0.1092  0.4228
 2604SOL     OW19270   1.446   1.918   9.791  0.1616 -0.3336  0.6480
 2604SOL    HW119271   1.473   1.831   9.821  2.4441  0.3119  0.4586
 2604SOL    HW219272   1.488   1.929   9.705 -2.0847  0.8793 -0.2979
 2605SOL     OW19273   2.564   2.451   9.086 -1.1409  0.0013  0.1708
 2605SOL    HW119274   2.658   2.457   9.104 -1.5347 -2.4398  3.1490
 2605SOL    HW219275   2.533   2.480   9.172 -0.9638  0.1775  0.1756
 2606SOL     OW19276   3.717   4.441   8.078 -0.7008  0.1282  0.3245
 2606SOL    HW119277   3.811   4.452   8.067 -1.2064  1.2386 -2.9839
 2606SOL    HW219278   3.688   4.495   8.004 -0.3649 -0.0701  0.0509
 2607SOL     OW19279   2.978   0.115  13.135  0.1320 -0.4943 -0.2379
 2607SOL    HW119280   3.052   0.073  13.179  0.6843  0.2806 -0.4116
 2607SOL    HW219281   2.974   0.192  13.192 -3.3247  0.7558 -2.1752
 2608SOL     OW19282   2.683   3.893   5.151  0.0963  0.4394  0.0313
 2608SOL    HW119283   2.671   3.987   5.160  1.4843  0.7993 -2.0373
 2608SOL    HW219284   2.704   3.885   5.058 -0.1292 -0.6011  0.0674
 2609SOL     OW19285   0.092   2.488   4.916 -0.4007 -0.6859 -0.1271
 2609SOL    HW119286   0.121   2.568   4.961 -1.6318 -0.6745  0.6458
 2609SOL    HW219287   0.137   2.478   4.832 -0.9323 -0.5821 -0.4274
 2610SOL     OW19288   4.698   4.720   8.277  0.3522  0.2449 -0.3664
 2610SOL    HW119289   4.682   0.056   8.349  1.4084  0.9679 -0.7480
 2610SOL    HW219290   0.006   4.640   8.318 -0.6728 -0.8982 -1.7544
 2611SOL     OW19291   1.753   3.882   6.806  0.3432 -0.1874 -0.4149
 2611SOL    HW119292   1.847   3.899   6.819  0.5367 -1.3102 -0.3233
 2611SOL    HW219293   1.732   3.816   6.873  0.6751  1.7216  1.5495
 2612SOL     OW19294   3.035   2.082   7.772  0.1699  0.3190  0.2301
 2612SOL    HW119295   2.992   2.033   7.843 -0.5283  0.9090  0.2077
 2612SOL    HW219296   3.056   2.160   7.823  0.1795  0.5510 -0.1299
 2613SOL     OW19297   2.542   0.241   4.201 -0.3402 -0.6129  0.1869
 2613SOL    HW119298   2.459   0.287   4.188  0.6648  1.5116  1.2976
 2613SOL    HW219299   2.598   0.277   4.133 -0.1587 -3.2114 -1.0491
 2614SOL     OW19300   0.036   2.908   8.510 -0.1177  0.3221 -0.0375
 2614SOL    HW119301   0.084   2.832   8.543 -0.1506  0.5214  0.4683
 2614SOL    HW219302   4.679   2.869   8.477 -0.4286  0.4248  0.6005
 2615SOL     OW19303   4.494   2.137   8.814  0.1363 -0.4105 -0.3475
 2615SOL    HW119304   4.579   2.128   8.858 -0.6042 -2.8191  0.5716
 2615SOL    HW219305   4.443   2.176   8.885  0.2435 -1.4860  0.3178
 2616SOL     OW19306   4.541   3.332   4.113  0.2053  0.5447  0.1052
 2616SOL    HW119307   4.488   3.355   4.190 -0.2431  0.0964 -0.0709
 2616SOL    HW219308   4.556   3.239   4.132  1.2015  0.4326 -1.2279
 2617SOL     OW19309   2.212   2.922   8.814  0.0326 -0.1696  0.0856
 2617SOL    HW119310   2.160   2.948   8.738 -0.1969  0.0067  0.3029
 2617SOL    HW219311   2.142   2.903   8.877 -1.0683 -0.0438 -1.0975
 2618SOL     OW19312   0.540   3.630  11.205 -0.1726  0.2651 -0.0778
 2618SOL    HW119313   0.451   3.660  11.186 -0.6242 -1.5836 -0.8682
 2618SOL    HW219314   0.543   3.664  11.294 -2.3553  0.7694 -0.2108
 2619SOL     OW19315   2.509   0.604   9.775  0.0719 -0.0711  0.3947
 2619SOL    HW119316   2.592   0.645   9.801  0.9368  0.2101 -2.8302
 2619SOL    HW219317   2.471   0.670   9.717 -1.5688 -0.7918  0.6661
 2620SOL     OW19318   4.197   3.305   7.111 -0.1316  0.1206 -0.1808
 2620SOL    HW119319   4.144   3.282   7.188  0.2886  1.8073  0.6284
 2620SOL    HW219320   4.269   3.359   7.144 -2.3586  2.6672  0.5914
 2621SOL     OW19321   4.657   0.455   7.295  0.2591  0.3420 -0.0716
 2621SOL    HW119322   4.587   0.509   7.259 -0.1069 -0.9195 -1.2390
 2621SOL    HW219323   4.716   0.443   7.221 -1.1466  2.1606 -1.4671
 2622SOL     OW19324   2.261   1.008   6.379  0.0299 -0.4630  0.2566
 2622SOL    HW119325   2.296   1.001   6.468 -0.2183 -1.1208  0.3060
 2622SOL    HW219326   2.289   1.097   6.356 -1.0630  0.3183  1.9571
 2623SOL     OW19327   4.633   2.463   5.095 -0.2811  0.7534  0.6030
 2623SOL    HW119328   4.684   2.456   5.015 -2.2252  1.7563 -0.7158
 2623SOL    HW219329   4.572   2.528   5.061 -0.1294 -0.9814 -2.9946
 2624SOL     OW19330   0.514   3.824   5.778  0.2535  0.3388 -0.1063
 2624SOL    HW119331   0.516   3.826   5.683  0.0305  1.8013 -0.0843
 2624SOL    HW219332   0.593   3.776   5.801  0.8691  1.8369  0.8806
 2625SOL     OW19333   3.452   3.047   5.299  0.2884 -0.0582  0.0706
 2625SOL    HW119334   3.390   2.989   5.254  0.5249  0.8445 -1.4025
 2625SOL    HW219335   3.535   3.009   5.269  0.0152 -2.5274  2.3517
 2626SOL     OW19336   3.696   1.591   6.397  1.0116  0.3685  0.4180
 2626SOL    HW119337   3.752   1.650   6.348 -0.0028  1.7811  0.9617
 2626SOL    HW219338   3.764   1.535   6.434  0.6354  1.0046  2.1116
 2627SOL     OW19339   4.453   4.437  16.717  0.4492  0.0913  0.3003
 2627SOL    HW119340   4.412   4.506  16.770  0.7214  0.7875 -0.3946
 2627SOL    HW219341   4.467   4.478  16.632  0.3862 -1.8981 -0.6586
 2628SOL     OW19342   0.105   3.368   3.930 -0.6326 -0.1593 -0.3506
 2628SOL    HW119343   0.045   3.361   3.855 -0.1466 -0.4958 -0.7035
 2628SOL    HW219344   0.061   3.428   3.990 -0.5447  0.5179 -0.9561
 2629SOL     OW19345   1.559   3.100   7.433  0.0913  0.8485 -0.1571
 2629SOL    HW119346   1.495   3.032   7.454  1.6615 -0.5486  0.1280
 2629SOL    HW219347   1.501   3.157   7.384 -1.6330  0.3284  1.2691
 2630SOL     OW19348   0.407   0.307   2.274  0.7413 -0.0797 -0.6173
 2630SOL    HW119349   0.445   0.220   2.274 -2.5917 -1.5156 -1.1771
 2630SOL    HW219350   0.461   0.355   2.211 -0.1368 -0.5609 -1.7328
 2631SOL     OW19351   4.723   1.620   9.833 -0.1772  0.1447 -0.1625
 2631SOL    HW119352   4.700   1.707   9.867 -1.4430  0.4765 -1.9086
 2631SOL    HW219353   4.647   1.567   9.858 -0.2982  0.3502 -0.0905
 2632SOL     OW19354   4.343   2.769   8.769  0.2569  0.7074  0.1671
 2632SOL    HW119355   4.307   2.684   8.794 -1.0536  0.7144 -1.7053
 2632SOL    HW219356   4.353   2.812   8.854  1.3843 -1.0967  0.9493
 2633SOL     OW19357   3.967   0.377  11.435  0.6402  0.9003 -0.1030
 2633SOL    HW119358   3.966   0.315  11.508  1.2821 -3.0285 -3.4429
 2633SOL    HW219359   3.876   0.367  11.411  0.6901 -2.1652  1.0559
 2634SOL     OW19360   3.522   3.401   4.237 -0.6763 -0.6186 -0.2506
 2634SOL    HW119361   3.613   3.373   4.236  0.1549  1.9652  4.8452
 2634SOL    HW219362   3.487   3.326   4.286  1.1671 -1.4189 -0.1783
 2635SOL     OW19363   0.297   3.802   4.631  0.7646 -0.2318 -0.2654
 2635SOL    HW119364   0.252   3.719   4.646  0.6395 -0.2083 -0.5045
 2635SOL    HW219365   0.300   3.836   4.720  1.2565 -0.5761 -0.1514
 2636SOL     OW19366   1.048   2.779  11.422  0.1930 -0.1948 -0.0440
 2636SOL    HW119367   1.095   2.801  11.342  1.0484  0.6364  0.6894
 2636SOL    HW219368   0.965   2.751  11.384  0.3675 -0.7741 -0.0055
 2637SOL     OW19369   3.841   2.540   5.895  0.3474  0.1445  0.0636
 2637SOL    HW119370   3.879   2.576   5.974  1.4643  0.6808 -0.7187
 2637SOL    HW219371   3.916   2.495   5.857 -0.2497 -1.2517  0.5443
 2638SOL     OW19372   1.660   4.472  15.225  0.0546 -0.2490 -0.3670
 2638SOL    HW119373   1.742   4.520  15.238 -1.7415  1.7816  3.2937
 2638SOL    HW219374   1.665   4.452  15.131 -1.4352  0.1028 -0.5121
 2639SOL     OW19375   3.232   3.136  12.705  0.2938  0.1813 -0.5394
 2639SOL    HW119376   3.238   3.230  12.718  2.3434 -0.2755  1.9702
 2639SOL    HW219377   3.247   3.106  12.795 -2.0535 -2.4450 -1.0178
 2640SOL     OW19378   2.694   2.385   3.969 -0.7922  0.1538  0.2420
 2640SOL    HW119379   2.605   2.387   4.002 -0.5437  1.4680  0.8315
 2640SOL    HW219380   2.685   2.382   3.874 -1.6683  2.9744  0.2518
 2641SOL     OW19381   1.784   0.633   4.566  0.2811  0.0341 -0.0985
 2641SOL    HW119382   1.872   0.626   4.602 -0.3533 -3.3379  0.7937
 2641SOL    HW219383   1.787   0.719   4.524  0.2128 -0.6762 -1.5563
 2642SOL     OW19384   3.911   3.771   4.558  0.4192  0.9473 -0.4498
 2642SOL    HW119385   3.877   3.851   4.518 -1.6666  1.4576  2.3635
 2642SOL    HW219386   3.831   3.732   4.595  0.8908 -1.1938 -1.6824
 2643SOL     OW19387   0.176   2.490   6.344 -0.2727 -0.3034  0.2130
 2643SOL    HW119388   0.271   2.495   6.331 -0.3387  1.3099  0.3876
 2643SOL    HW219389   0.137   2.577   6.338  2.4052  0.8986  0.2356
 2644SOL     OW19390   3.701   3.619   4.670  0.2120 -0.2590  0.5025
 2644SOL    HW119391   3.702   3.638   4.763  3.6854  2.1187 -0.0176
 2644SOL    HW219392   3.689   3.524   4.665 -1.0659 -0.0542 -0.2340
 2645SOL     OW19393   0.812   3.705   2.901  0.3529  0.1754 -0.3241
 2645SOL    HW119394   0.768   3.637   2.849  0.3932 -1.5098  1.8539
 2645SOL    HW219395   0.895   3.719   2.857  0.2367 -2.4608 -1.3823
 2646SOL     OW19396   4.121   0.022   8.892 -0.8326 -0.0943  0.1134
 2646SOL    HW119397   4.114   4.716   8.983 -1.8475 -0.8725 -0.2249
 2646SOL    HW219398   4.033   4.721   8.864 -0.7252 -0.9297  0.4939
 2647SOL     OW19399   4.553   3.097  12.567  0.6344 -0.2351  0.0217
 2647SOL    HW119400   4.477   3.064  12.519  0.6015  2.2718 -1.6373
 2647SOL    HW219401   4.620   3.049  12.518  0.9253 -1.4054  1.5641
 2648SOL     OW19402   4.443   1.582  11.868 -0.2391 -0.7633 -0.1175
 2648SOL    HW119403   4.395   1.519  11.921  0.2726 -2.0420 -1.1623
 2648SOL    HW219404   4.388   1.660  11.874  0.2018 -0.3958 -0.9511
 2649SOL     OW19405   3.001   2.968   7.141  0.4361 -0.1906 -0.6225
 2649SOL    HW119406   2.968   2.879   7.132  0.9683 -0.3885 -0.6275
 2649SOL    HW219407   2.992   2.990   7.234 -2.2129 -0.2324 -0.8854
 2650SOL     OW19408   3.317   4.670  10.168  0.6019  0.2649 -0.3253
 2650SOL    HW119409   3.233   4.672  10.122 -0.3440  0.4545  1.3990
 2650SOL    HW219410   3.380   4.643  10.102  0.9992  1.0441 -0.2636
 2651SOL     OW19411   3.456   0.822   2.904  0.4040  0.1446  1.3335
 2651SOL    HW119412   3.521   0.886   2.933 -0.0672  1.4885 -0.5611
 2651SOL    HW219413   3.379   0.880   2.903  0.1077 -0.2920 -0.2192
 2652SOL     OW19414   1.312   3.895   3.340 -0.1975 -0.5864  0.3037
 2652SOL    HW119415   1.327   3.907   3.246  0.6621 -1.8865  0.2656
 2652SOL    HW219416   1.258   3.816   3.337  0.0470 -0.7167 -0.7228
 2653SOL     OW19417   1.619   3.856  16.348  0.5172  0.0548 -0.0234
 2653SOL    HW119418   1.534   3.827  16.381 -0.0285  3.0456  1.1496
 2653SOL    HW219419   1.646   3.776  16.303  2.1101 -0.1912  1.3630
 2654SOL     OW19420   4.666   4.544  17.397  0.0088  0.0913  0.0390
 2654SOL    HW119421   0.014   4.540  17.460 -0.6436 -0.0398  0.7919
 2654SOL    HW219422   4.708   4.605  17.337 -1.0400  1.3462  0.5637
 2655SOL     OW19423   3.377   2.864   3.601  0.4106 -0.2253 -0.1514
 2655SOL    HW119424   3.421   2.828   3.678  0.2930 -2.1572 -0.9943
 2655SOL    HW219425   3.439   2.856   3.528 -1.1180  2.6802 -1.7701
 2656SOL     OW19426   1.215   1.126  10.525 -0.4751  0.4142  0.2788
 2656SOL    HW119427   1.166   1.173  10.593 -1.5543  0.4487 -0.5288
 2656SOL    HW219428   1.187   1.186  10.456  0.3689 -0.1110 -0.5215
 2657SOL     OW19429   2.370   1.105   4.416  0.1097  0.7419 -0.4972
 2657SOL    HW119430   2.451   1.125   4.463 -0.8089  0.6146  1.1309
 2657SOL    HW219431   2.340   1.028   4.463  0.9289  0.0040 -1.1796
 2658SOL     OW19432   0.613   0.252   2.492 -0.2431 -0.5407  0.0230
 2658SOL    HW119433   0.598   0.331   2.440 -0.8404  0.1476  1.2730
 2658SOL    HW219434   0.604   0.181   2.428 -1.0922  1.7526 -2.4046
 2659SOL     OW19435   3.661   4.534  10.583  0.5334 -0.8216 -0.8080
 2659SOL    HW119436   3.587   4.505  10.635 -0.4835  3.7236  0.2825
 2659SOL    HW219437   3.620   4.577  10.508  2.0730 -0.5710 -1.5088
 2660SOL     OW19438   2.393   4.040  11.181  0.3606 -0.7504 -0.0791
 2660SOL    HW119439   2.385   3.989  11.262 -0.0960 -3.6821 -1.9555
 2660SOL    HW219440   2.304   4.023  11.148  0.6051 -2.7818  0.3200
 2661SOL     OW19441   3.310   3.168  17.138  0.0949  0.3643 -0.7631
 2661SOL    HW119442   3.280   3.082  17.108 -0.9536 -0.1665  1.8190
 2661SOL    HW219443   3.311   3.217  17.055 -1.0043 -1.4054 -1.8215
 2662SOL     OW19444   1.199   2.204   6.163  0.7395 -0.3070 -0.1442
 2662SOL    HW119445   1.151   2.128   6.196 -1.8141  0.7886 -1.2945
 2662SOL    HW219446   1.155   2.272   6.214 -0.1683 -2.0679  1.4335
 2663SOL     OW19447   3.115   0.455  10.248  0.6639 -0.4913  0.0343
 2663SOL    HW119448   3.144   0.533  10.296  0.0829  0.4198 -1.1183
 2663SOL    HW219449   3.125   0.473  10.155 -0.9893 -0.2116 -0.0862
 2664SOL     OW19450   0.903   3.529  13.485  0.3050 -0.0316  0.5858
 2664SOL    HW119451   0.823   3.582  13.486 -0.3232 -0.9566 -0.5394
 2664SOL    HW219452   0.869   3.466  13.421 -0.4899 -0.5683  1.5487
 2665SOL     OW19453   3.602   3.645   6.811  0.2140 -0.8640  1.3221
 2665SOL    HW119454   3.687   3.656   6.769 -0.4587  3.3771  1.1031
 2665SOL    HW219455   3.634   3.625   6.899  2.2642  1.0158  1.0054
 2666SOL     OW19456   2.602   3.857   6.995 -0.0299 -0.0865  0.0935
 2666SOL    HW119457   2.660   3.879   6.921 -0.0615 -1.3570 -0.3133
 2666SOL    HW219458   2.656   3.809   7.057  1.7695 -0.9814 -2.1520
 2667SOL     OW19459   1.468   3.147   4.317 -0.2080 -0.4399 -0.1653
 2667SOL    HW119460   1.534   3.105   4.262  0.7210 -2.2825  2.4051
 2667SOL    HW219461   1.388   3.101   4.291  0.2561 -1.3306  0.0143
 2668SOL     OW19462   4.075   2.588   7.585  0.1397 -1.0024  0.1004
 2668SOL    HW119463   4.074   2.500   7.550  1.4200  0.5638 -3.8432
 2668SOL    HW219464   4.141   2.627   7.527  0.4321 -1.8836 -0.1533
 2669SOL     OW19465   3.377   4.213   7.382  0.0463 -0.0457  0.1298
 2669SOL    HW119466   3.290   4.187   7.352  0.3993  1.0862 -1.8738
 2669SOL    HW219467   3.356   4.270   7.456 -0.2830 -1.9270  1.4975
 2670SOL     OW19468   0.101   1.504   4.702  0.5740 -0.5492 -0.5013
 2670SOL    HW119469   0.079   1.501   4.609  1.5788  1.8795 -0.8144
 2670SOL    HW219470   0.028   1.446   4.725 -0.0012 -0.1524 -1.3121
 2671SOL     OW19471   1.758   1.583   9.344 -0.2681 -1.4207  0.6954
 2671SOL    HW119472   1.753   1.497   9.302 -1.3090  0.1008 -2.3064
 2671SOL    HW219473   1.779   1.555   9.433  0.7261  0.4161  1.0436
 2672SOL     OW19474   3.362   0.039  17.340 -0.9342  0.1487 -0.4385
 2672SOL    HW119475   3.308   0.072  17.268 -0.4455  2.2791  0.1650
 2672SOL    HW219476   3.424   4.701  17.301 -0.5978 -1.7684  3.1673
 2673SOL     OW19477   3.605   4.421   7.087  0.7026 -0.3395  0.1849
 2673SOL    HW119478   3.588   4.341   7.036 -0.1730 -1.1804  1.7981
 2673SOL    HW219479   3.620   4.375   7.169 -1.5135 -0.1411  0.7125
 2674SOL     OW19480   3.319   1.156   7.392  0.1167  0.0110  0.3692
 2674SOL    HW119481   3.273   1.159   7.308 -2.4474  0.7492  1.8295
 2674SOL    HW219482   3.383   1.227   7.387  0.2981 -0.2227 -0.7426
 2675SOL     OW19483   2.664   2.662  12.019  0.0517 -0.0933  0.4324
 2675SOL    HW119484   2.598   2.683  12.086  0.9486  0.7252  1.0659
 2675SOL    HW219485   2.630   2.582  11.979 -2.2041 -0.3311  2.8239
 2676SOL     OW19486   0.095   3.453   2.554 -0.3641  0.1284  0.2641
 2676SOL    HW119487   0.156   3.521   2.527 -0.2410 -1.1673 -2.6397
 2676SOL    HW219488   0.027   3.469   2.488 -0.0851 -1.6546 -0.4628
 2677SOL     OW19489   1.703   2.954   8.659  0.3797 -0.4480  0.2966
 2677SOL    HW119490   1.698   2.974   8.565  2.3020 -2.2409 -0.1956
 2677SOL    HW219491   1.611   2.931   8.671 -0.1430  1.0967 -0.7064
 2678SOL     OW19492   2.520   0.285   6.284 -0.0322 -0.1624  0.5708
 2678SOL    HW119493   2.596   0.257   6.232 -1.0254  0.6193 -1.3087
 2678SOL    HW219494   2.566   0.315   6.362 -1.4410  0.4391  1.1599
 2679SOL     OW19495   4.270   0.251  13.999  0.1883  0.3645  0.5218
 2679SOL    HW119496   4.351   0.207  13.972  0.5507  1.3674 -0.0531
 2679SOL    HW219497   4.242   0.289  13.915  0.4638 -2.1267 -0.7066
 2680SOL     OW19498   0.384   0.764  15.673 -0.0094  0.2770  0.5039
 2680SOL    HW119499   0.473   0.766  15.708 -0.3573 -0.6419  1.4136
 2680SOL    HW219500   0.372   0.681  15.627  2.4287  0.3229 -0.2563
 2681SOL     OW19501   3.821   2.102   8.307  0.3730 -0.4926  0.3111
 2681SOL    HW119502   3.914   2.119   8.294  0.5026 -1.2889  0.1946
 2681SOL    HW219503   3.790   2.130   8.221 -0.5910  0.3889  0.9474
 2682SOL     OW19504   3.194   0.026   0.443 -0.1407 -0.7494  0.9195
 2682SOL    HW119505   3.185   0.056   0.533  1.0157  0.0262  0.7807
 2682SOL    HW219506   3.211   4.656   0.445  0.4989 -0.6311  0.9836
 2683SOL     OW19507   0.416   3.022   2.561 -0.1533  0.0766  0.1441
 2683SOL    HW119508   0.447   3.090   2.502  0.0615 -0.8200 -0.7831
 2683SOL    HW219509   0.359   3.070   2.622 -0.5996 -1.1076  0.6659
 2684SOL     OW19510   1.904   2.434  16.636 -0.2679  0.7417 -0.0807
 2684SOL    HW119511   1.813   2.463  16.635 -1.1402 -2.2522 -3.9074
 2684SOL    HW219512   1.944   2.512  16.676  1.4195 -1.2174  2.0922
 2685SOL     OW19513   0.385   3.008   0.858 -0.7211 -0.2752 -0.7858
 2685SOL    HW119514   0.464   3.062   0.854 -0.4171 -0.6018  0.7430
 2685SOL    HW219515   0.334   3.049   0.788 -2.6174 -1.6855 -0.2269
 2686SOL     OW19516   2.771   3.385  15.430  0.8724  0.0850  0.0528
 2686SOL    HW119517   2.866   3.382  15.419  0.6448 -0.6786 -1.5419
 2686SOL    HW219518   2.748   3.295  15.453  0.7992  0.0158 -0.2997
 2687SOL     OW19519   1.680   3.054   7.687  0.6731  0.6683 -0.2310
 2687SOL    HW119520   1.618   3.065   7.759  1.0160  0.7869  0.0499
 2687SOL    HW219521   1.621   3.046   7.613  0.5893  0.4341 -0.1393
 2688SOL     OW19522   4.157   1.829   4.640  0.2623  0.7449 -0.3505
 2688SOL    HW119523   4.237   1.784   4.615 -0.7366 -0.2693 -1.6909
 2688SOL    HW219524   4.089   1.762   4.646  1.6063 -0.5369  0.3544
 2689SOL     OW19525   2.352   1.279  16.177  0.6383  0.1360 -0.0178
 2689SOL    HW119526   2.361   1.225  16.255 -0.8548 -1.4406 -0.9163
 2689SOL    HW219527   2.424   1.238  16.129  0.4881 -0.8479  0.6174
 2690SOL     OW19528   0.651   1.702  14.360  0.8540  0.3277  0.4050
 2690SOL    HW119529   0.600   1.770  14.314  2.7737  0.5581 -1.4071
 2690SOL    HW219530   0.737   1.705  14.318 -0.6407 -1.3997 -2.8013
 2691SOL     OW19531   2.917   1.090   4.688 -0.0414 -0.4872  0.0188
 2691SOL    HW119532   2.955   1.002   4.677  2.4031  0.4617  0.9042
 2691SOL    HW219533   2.960   1.110   4.771 -0.5872  1.9087 -0.2885
 2692SOL     OW19534   0.216   3.150   1.069 -0.3603  0.1648  0.0347
 2692SOL    HW119535   0.192   3.192   0.987 -0.3430  2.6103  1.2973
 2692SOL    HW219536   0.244   3.226   1.120  0.9238 -1.3334  1.6094
 2693SOL     OW19537   0.656   3.233   6.227 -0.8223  0.0289 -0.0586
 2693SOL    HW119538   0.622   3.153   6.265  0.9056 -0.0599  1.3430
 2693SOL    HW219539   0.751   3.217   6.224 -1.0267 -0.7723 -1.9509
 2694SOL     OW19540   0.669   0.904   7.669  0.1706  0.0460  0.0299
 2694SOL    HW119541   0.750   0.888   7.622 -1.1497  1.7452 -2.7748
 2694SOL    HW219542   0.696   0.887   7.760 -0.6648 -0.0770  0.2641
 2695SOL     OW19543   1.851   1.192  14.814  0.0205  0.5904 -0.4835
 2695SOL    HW119544   1.914   1.135  14.858  0.2788  2.2069  1.2353
 2695SOL    HW219545   1.797   1.128  14.766  2.0439 -2.0346  0.7202
 2696SOL     OW19546   1.877   0.239  14.426 -0.1613 -0.3023 -0.0309
 2696SOL    HW119547   1.817   0.167  14.408  0.5590 -1.4517  2.1963
 2696SOL    HW219548   1.872   0.293  14.347 -0.5078 -1.0784 -0.5349
 2697SOL     OW19549   3.096   2.424  13.408 -0.0659 -0.6567 -0.2068
 2697SOL    HW119550   3.042   2.464  13.340 -0.3610 -1.1024 -0.2381
 2697SOL    HW219551   3.124   2.509  13.443  0.6828  0.2867 -3.1175
 2698SOL     OW19552   0.326   1.038   7.055  0.2728  0.2911  0.0475
 2698SOL    HW119553   0.367   0.991   6.983 -1.7438 -0.4706 -0.5995
 2698SOL    HW219554   0.383   1.115   7.047  0.3151  0.3587  1.0636
 2699SOL     OW19555   0.080   4.408   4.932  0.0005  1.2925  0.0434
 2699SOL    HW119556   0.131   4.401   4.851  0.4356 -0.7110  0.4754
 2699SOL    HW219557   0.091   4.499   4.957 -0.5586  1.7637 -1.4399
 2700SOL     OW19558   3.169   1.825   3.015  0.1143 -0.1734 -0.2836
 2700SOL    HW119559   3.122   1.756   3.062  0.7216 -1.4533 -1.5380
 2700SOL    HW219560   3.253   1.820   3.061  0.0724 -1.3415 -0.3387
 2701SOL     OW19561   4.153   0.770   1.693  0.0268  0.1192  0.0804
 2701SOL    HW119562   4.157   0.686   1.740 -2.3909  0.0306  0.1224
 2701SOL    HW219563   4.067   0.767   1.650 -0.3659 -2.0496  1.0111
 2702SOL     OW19564   4.304   4.451   1.570 -0.2334  0.2667 -0.2475
 2702SOL    HW119565   4.213   4.430   1.593  0.1670 -0.4982  0.6077
 2702SOL    HW219566   4.297   4.433   1.476  1.3265 -3.7099  0.4300
 2703SOL     OW19567   4.321   2.334   7.358 -0.4216  0.2675 -0.0045
 2703SOL    HW119568   4.332   2.257   7.302 -2.3119  0.7497 -1.0118
 2703SOL    HW219569   4.233   2.361   7.331 -0.8878 -1.1980  0.0682
 2704SOL     OW19570   0.630   4.471   8.315 -0.1927  0.0768  0.0015
 2704SOL    HW119571   0.712   4.422   8.313  1.4561  2.8586 -0.3512
 2704SOL    HW219572   0.632   4.493   8.408 -0.4161 -1.4815  0.3711
 2705SOL     OW19573   3.785   2.758   7.491 -0.4062  0.2153  0.7871
 2705SOL    HW119574   3.834   2.839   7.499 -0.2341  0.1921 -0.0266
 2705SOL    HW219575   3.816   2.717   7.410  0.2217  0.1742  1.0534
 2706SOL     OW19576   2.438   0.600  11.625  0.1710  0.3458 -0.4333
 2706SOL    HW119577   2.456   0.635  11.712 -2.2386 -1.2877  0.7286
 2706SOL    HW219578   2.471   0.675  11.576 -0.4194  0.8127 -0.1074
 2707SOL     OW19579   1.282   3.324  10.257 -0.1894 -0.0199  0.6788
 2707SOL    HW119580   1.285   3.327  10.353  1.5515 -2.1183  0.7008
 2707SOL    HW219581   1.206   3.381  10.245 -0.8789 -0.7125  1.7043
 2708SOL     OW19582   4.277   0.118   6.313  0.2471  0.2123  0.1490
 2708SOL    HW119583   4.188   0.101   6.284 -0.0753  1.6356  0.2873
 2708SOL    HW219584   4.321   0.066   6.246  1.4143  0.1001  0.9770
 2709SOL     OW19585   4.418   0.137  13.232  0.2799 -0.2893  0.3838
 2709SOL    HW119586   4.362   0.106  13.161 -0.8535  0.6467  0.8782
 2709SOL    HW219587   4.373   0.218  13.255 -0.6998 -1.4458  2.4885
 2710SOL     OW19588   3.740   3.907   7.720 -0.7140 -0.3049 -0.5040
 2710SOL    HW119589   3.800   3.842   7.756 -0.2169  0.0609 -0.6551
 2710SOL    HW219590   3.712   3.953   7.799  2.5828  1.6050 -0.4273
 2711SOL     OW19591   3.117   4.395   3.501  0.4690  0.4656 -0.1654
 2711SOL    HW119592   3.173   4.334   3.453  0.4387 -0.8726  1.4837
 2711SOL    HW219593   3.188   4.458   3.509 -0.4118  1.2260  1.6714
 2712SOL     OW19594   0.268   4.133   3.476 -0.0101 -0.3469 -0.3672
 2712SOL    HW119595   0.193   4.102   3.426  1.3396 -0.8846 -2.0878
 2712SOL    HW219596   0.325   4.176   3.412 -0.9713  0.3221 -0.7819
 2713SOL     OW19597   0.394   1.581   0.498  0.3186 -0.6076 -0.5422
 2713SOL    HW119598   0.324   1.598   0.435  1.1933 -0.5562 -1.5029
 2713SOL    HW219599   0.467   1.552   0.443 -0.4534 -2.7718 -0.4514
 2714SOL     OW19600   3.007   2.253   6.806  0.6837 -0.0671  0.0555
 2714SOL    HW119601   2.940   2.314   6.837  1.9572  2.6126 -2.4958
 2714SOL    HW219602   3.080   2.315   6.798  0.1288  1.0237  3.4241
 2715SOL     OW19603   0.470   0.555   9.629 -0.3414  0.1465 -0.2554
 2715SOL    HW119604   0.429   0.573   9.713  2.6451  0.1912  1.1746
 2715SOL    HW219605   0.408   0.501   9.581 -0.0908  0.4134 -0.8871
 2716SOL     OW19606   1.062   3.742   9.115 -0.2198 -0.2208 -0.2845
 2716SOL    HW119607   1.145   3.788   9.100  0.2951 -1.7290 -1.9957
 2716SOL    HW219608   1.009   3.820   9.132  0.4873  0.0945  0.5122
 2717SOL     OW19609   2.955   0.597  17.583 -0.0115  0.2197  0.6256
 2717SOL    HW119610   3.050   0.590  17.579  0.0469  1.6491 -0.5341
 2717SOL    HW219611   2.921   0.619  17.497 -0.6145  0.8976  1.0303
 2718SOL     OW19612   3.730   4.192   0.849  0.7586 -0.5348  0.1867
 2718SOL    HW119613   3.793   4.198   0.777  2.2429 -1.4220  1.4144
 2718SOL    HW219614   3.785   4.233   0.916 -1.3642  1.1576  0.9202
 2719SOL     OW19615   1.270   0.863  15.853  1.0556  0.4742 -0.0825
 2719SOL    HW119616   1.231   0.815  15.779 -1.0673  0.4286  1.0654
 2719SOL    HW219617   1.291   0.799  15.921  0.2450 -0.9290 -1.1243
 2720SOL     OW19618   0.230   0.269   5.429  0.3437 -0.0511  0.8144
 2720SOL    HW119619   0.138   0.292   5.440  0.2200  0.1211 -0.5155
 2720SOL    HW219620   0.231   0.174   5.418  3.1878  0.0491  0.2663
 2721SOL     OW19621   4.592   2.371   3.756  0.6700  1.0149  0.6566
 2721SOL    HW119622   4.646   2.297   3.784 -0.7761 -0.3512 -0.1748
 2721SOL    HW219623   4.589   2.433   3.829  0.5648  0.4811  1.1026
 2722SOL     OW19624   1.131   4.524   0.811  0.1817  0.0885  0.0664
 2722SOL    HW119625   1.116   4.445   0.760  0.8052 -1.2421  1.9589
 2722SOL    HW219626   1.076   4.583   0.759  1.1048 -0.4366 -1.5380
 2723SOL     OW19627   1.178   0.318   7.736  0.6575 -0.1225 -0.0376
 2723SOL    HW119628   1.163   0.333   7.829  1.8161 -0.4045  0.1942
 2723SOL    HW219629   1.106   0.372   7.702  0.2163 -1.4088 -1.1671
 2724SOL     OW19630   1.304   4.301  11.754  0.7561  0.1744  0.2374
 2724SOL    HW119631   1.311   4.207  11.737 -0.6845  0.0960  0.0977
 2724SOL    HW219632   1.243   4.302  11.828  0.2691  1.0487 -0.1728
 2725SOL     OW19633   2.605   0.742   4.020  0.2944  0.0840 -0.4409
 2725SOL    HW119634   2.524   0.762   4.067  0.0878 -1.6093 -0.0720
 2725SOL    HW219635   2.585   0.810   3.955  0.8025 -0.2911 -0.9848
 2726SOL     OW19636   3.798   4.060   5.093  0.2399  0.1298 -0.3491
 2726SOL    HW119637   3.797   4.007   5.014 -0.2891  0.0912 -0.3205
 2726SOL    HW219638   3.777   4.143   5.049 -0.9208 -0.4470 -0.8950
 2727SOL     OW19639   1.742   4.577   7.921  0.1485  0.1187 -0.3930
 2727SOL    HW119640   1.683   4.514   7.963  0.3916  0.9892  1.2231
 2727SOL    HW219641   1.780   4.523   7.851 -2.2817 -0.9658 -0.8843
 2728SOL     OW19642   1.647   2.213   5.384 -0.5046 -0.1729 -0.1416
 2728SOL    HW119643   1.581   2.160   5.339 -0.7513  0.9103 -1.0402
 2728SOL    HW219644   1.726   2.160   5.370  1.1121  2.0382  0.5497
 2729SOL     OW19645   0.345   2.287   4.343  0.2166  0.0336  0.3605
 2729SOL    HW119646   0.356   2.352   4.274 -1.2215 -2.1864 -1.9484
 2729SOL    HW219647   0.420   2.315   4.396  2.0034 -0.5363 -1.8790
 2730SOL     OW19648   1.451   2.809   2.175 -0.4003 -0.0232 -0.1627
 2730SOL    HW119649   1.428   2.722   2.207  0.4509  0.6871  2.4177
 2730SOL    HW219650   1.526   2.785   2.120 -1.0184  1.2806 -1.5841
 2731SOL     OW19651   4.003   4.254   6.585 -0.1820  0.2149 -0.2209
 2731SOL    HW119652   3.957   4.194   6.527  1.8980  0.0289 -1.6694
 2731SOL    HW219653   3.952   4.246   6.666 -0.4244 -0.4928 -0.4415
 2732SOL     OW19654   0.179   0.184   2.320  0.1479  0.3040  0.4314
 2732SOL    HW119655   0.212   0.097   2.294 -0.1991  0.3439 -0.1544
 2732SOL    HW219656   0.258   0.233   2.298  1.4961 -2.0102  0.0713
 2733SOL     OW19657   1.045   4.181  15.313 -0.0914  0.3024  0.0534
 2733SOL    HW119658   1.062   4.244  15.382 -1.6755 -0.7635  1.4297
 2733SOL    HW219659   0.974   4.131  15.354  0.2132 -1.8835 -2.0463
 2734SOL     OW19660   2.534   1.357   2.122 -0.4924 -0.5602  0.2743
 2734SOL    HW119661   2.619   1.320   2.147 -0.0435  0.0121 -0.3963
 2734SOL    HW219662   2.469   1.329   2.187 -0.3620 -0.0584  0.6223
 2735SOL     OW19663   4.614   3.406   9.313  0.0428 -0.0417  1.0418
 2735SOL    HW119664   4.679   3.451   9.259  1.1144 -1.7925  0.8608
 2735SOL    HW219665   4.634   3.315   9.291 -0.9590 -0.0747  0.2794
 2736SOL     OW19666   4.080   1.925   5.056 -0.0284 -0.4706  0.1436
 2736SOL    HW119667   4.100   2.008   5.099 -2.3009  0.8001 -1.2488
 2736SOL    HW219668   4.165   1.881   5.045  1.3487  2.2579 -0.1599
 2737SOL     OW19669   4.005   3.023  16.001  0.8839 -0.1044  0.6413
 2737SOL    HW119670   4.045   3.110  16.007 -0.8872  0.5342  3.1328
 2737SOL    HW219671   3.998   2.994  16.092  0.1150 -3.2037 -0.4140
 2738SOL     OW19672   3.515   1.834   2.835  0.0720 -0.3501  0.0368
 2738SOL    HW119673   3.474   1.795   2.912 -0.1317  1.5580  0.8900
 2738SOL    HW219674   3.434   1.879   2.810 -0.7625 -1.1243  1.3439
 2739SOL     OW19675   3.750   2.140   5.148 -0.1577  0.0785 -0.4200
 2739SOL    HW119676   3.828   2.096   5.114  1.0295  1.8784 -0.0561
 2739SOL    HW219677   3.777   2.228   5.173  1.0543 -0.3267 -0.2949
 2740SOL     OW19678   1.017   4.516  11.902 -0.4128  0.1835 -0.2642
 2740SOL    HW119679   0.986   4.501  11.813  0.0677 -1.4167 -0.1696
 2740SOL    HW219680   1.079   4.445  11.920 -0.3379  0.8483  2.0937
 2741SOL     OW19681   0.898   1.048   8.076  0.0654 -0.1206 -0.5755
 2741SOL    HW119682   0.911   1.067   8.169 -0.3676  1.1955 -0.7885
 2741SOL    HW219683   0.883   1.134   8.038  0.3061 -0.1216 -0.6737
 2742SOL     OW19684   2.578   1.768   4.799  0.3032  0.4011  0.0060
 2742SOL    HW119685   2.548   1.781   4.889 -0.4375  1.6940 -0.4187
 2742SOL    HW219686   2.634   1.846   4.797  1.8322 -0.6549  1.3720
 2743SOL     OW19687   4.519   4.182   3.791 -0.0782  0.2541  0.4648
 2743SOL    HW119688   4.546   4.177   3.882 -2.5991  1.2224  1.2629
 2743SOL    HW219689   4.598   4.216   3.750 -1.7299  2.3540 -1.0240
 2744SOL     OW19690   4.697   2.452   8.054 -0.1937  0.4414  0.3362
 2744SOL    HW119691   4.627   2.517   8.047 -0.0051  0.5934 -0.1365
 2744SOL    HW219692   4.649   2.376   8.088 -0.8340 -1.0781 -3.9141
 2745SOL     OW19693   3.101   3.826  13.177 -0.2570 -0.4980  0.5688
 2745SOL    HW119694   3.133   3.875  13.252  0.6441 -0.5414  0.2132
 2745SOL    HW219695   3.156   3.855  13.104 -3.5800  1.5221 -1.1158
 2746SOL     OW19696   2.144   1.577   9.003 -0.4384  0.5613 -0.6462
 2746SOL    HW119697   2.066   1.619   9.040 -0.8392 -0.8209  0.0955
 2746SOL    HW219698   2.182   1.662   8.983 -0.4587  0.7480  0.0883
 2747SOL     OW19699   2.379   1.746   4.626  0.5173 -0.2934 -0.1916
 2747SOL    HW119700   2.360   1.655   4.605  0.2698 -0.2210 -0.2794
 2747SOL    HW219701   2.450   1.746   4.691 -0.4490  2.0316  0.8560
 2748SOL     OW19702   4.638   1.622  16.043  0.1798  0.2038  0.7646
 2748SOL    HW119703   4.599   1.536  16.058 -2.1141  0.4810 -3.5074
 2748SOL    HW219704   4.678   1.641  16.128  1.9459 -3.8188  0.7939
 2749SOL     OW19705   1.304   2.232   5.661 -0.4122 -0.2982 -0.4480
 2749SOL    HW119706   1.243   2.236   5.735  1.4034 -1.4891  1.0970
 2749SOL    HW219707   1.331   2.323   5.652 -2.2017  0.1745 -1.1209
 2750SOL     OW19708   3.944   3.300   8.073  0.0442  0.9449  0.5655
 2750SOL    HW119709   3.974   3.358   8.143  0.9220  1.3379 -0.1365
 2750SOL    HW219710   4.001   3.327   8.001 -0.4038 -0.2564 -0.2394
 2751SOL     OW19711   3.587   0.255   2.896  0.2510 -0.5328 -0.3942
 2751SOL    HW119712   3.657   0.236   2.834  0.0788 -1.8367 -0.1797
 2751SOL    HW219713   3.510   0.225   2.847  0.8570  0.3124 -1.8693
 2752SOL     OW19714   1.465   3.810   2.228  0.1862 -0.1449 -0.4377
 2752SOL    HW119715   1.478   3.728   2.180  1.2808  0.9451 -2.0161
 2752SOL    HW219716   1.553   3.848   2.232 -0.8426  2.5372 -3.0852
 2753SOL     OW19717   1.999   1.765   7.014  0.5978  0.1753 -0.1009
 2753SOL    HW119718   1.954   1.728   6.938  1.3149 -2.9251  0.9720
 2753SOL    HW219719   2.072   1.809   6.971 -0.4636  0.5988 -1.4760
 2754SOL     OW19720   4.164   0.991   7.293  0.4256 -0.3200 -0.7961
 2754SOL    HW119721   4.104   0.991   7.368 -0.9309  1.3181 -1.8747
 2754SOL    HW219722   4.156   0.910   7.242 -0.8149 -0.9256  0.3638
 2755SOL     OW19723   1.217   0.229   8.060  0.1106  0.1648 -0.2700
 2755SOL    HW119724   1.250   0.233   8.149  1.0259 -0.2731 -0.5936
 2755SOL    HW219725   1.196   0.322   8.055 -0.0250  0.1652  0.2923
 2756SOL     OW19726   3.189   3.055  15.300 -0.1156 -0.5369 -0.5027
 2756SOL    HW119727   3.253   2.984  15.306  0.8896  0.4572  0.5649
 2756SOL    HW219728   3.171   3.072  15.208  0.3542  2.2285 -0.0825
 2757SOL     OW19729   4.137   3.205   3.659 -0.1058  0.2430 -0.3398
 2757SOL    HW119730   4.125   3.125   3.607 -0.1593  0.3308 -0.4638
 2757SOL    HW219731   4.107   3.181   3.746  1.2021 -0.6967 -0.1484
 2758SOL     OW19732   4.521   4.663   5.496  0.5035  0.0581 -0.1345
 2758SOL    HW119733   4.564   4.621   5.421  1.3447 -1.2338  1.0586
 2758SOL    HW219734   4.444   4.692   5.447 -0.2517 -1.6261  0.0294
 2759SOL     OW19735   1.020   3.750  16.724 -0.2981 -0.2276  0.0927
 2759SOL    HW119736   1.023   3.656  16.705  0.4972 -0.4185  1.1361
 2759SOL    HW219737   0.972   3.775  16.645  1.8458  1.6912 -0.5932
 2760SOL     OW19738   2.335   3.266  10.098 -0.3932  0.4090 -0.0673
 2760SOL    HW119739   2.379   3.344  10.132 -0.0866  1.0048 -1.8027
 2760SOL    HW219740   2.247   3.299  10.118 -0.1197 -0.1673  2.0694
 2761SOL     OW19741   1.550   2.538   2.637  0.0520  0.1891 -0.0719
 2761SOL    HW119742   1.604   2.461   2.615  0.7139 -0.0247  2.3436
 2761SOL    HW219743   1.464   2.510   2.605  0.0214 -0.3404  0.4763
 2762SOL     OW19744   3.709   0.735   2.646  0.5224 -0.8485 -0.5322
 2762SOL    HW119745   3.659   0.742   2.564 -0.0453 -0.3552 -0.1415
 2762SOL    HW219746   3.725   0.828   2.666 -0.5407 -1.1634  1.7329
 2763SOL     OW19747   0.903   4.615  10.413 -0.1160 -0.3994  0.7171
 2763SOL    HW119748   0.862   4.596  10.329  3.4994 -0.4165 -1.0528
 2763SOL    HW219749   0.995   4.592  10.397  0.5147  2.8029 -0.2090
 2764SOL     OW19750   3.898   2.319  13.651 -0.5375 -0.2004  0.4193
 2764SOL    HW119751   3.886   2.228  13.678  0.8355 -0.4827  0.0640
 2764SOL    HW219752   3.860   2.367  13.724 -0.9281  0.5353 -0.2642
 2765SOL     OW19753   3.569   0.200  11.986 -0.7694 -0.2193 -0.2400
 2765SOL    HW119754   3.628   0.217  11.913  0.6369 -0.4607  0.8444
 2765SOL    HW219755   3.530   0.287  11.996  1.1848  0.4351  1.5808
 2766SOL     OW19756   0.160   0.796   5.021 -0.1919 -0.3085  0.3373
 2766SOL    HW119757   0.128   0.723   5.073 -1.4065 -0.0814 -0.0657
 2766SOL    HW219758   0.080   0.831   4.981  1.5555  1.8167 -1.3410
 2767SOL     OW19759   0.522   3.005  14.162  0.4685  0.0011 -0.1047
 2767SOL    HW119760   0.533   2.942  14.234  1.1669 -0.2676 -0.4508
 2767SOL    HW219761   0.459   3.061  14.208 -0.6217 -1.6862  0.4188
 2768SOL     OW19762   3.579   2.418   3.210 -0.1158  0.0133 -0.2585
 2768SOL    HW119763   3.618   2.395   3.126 -1.0990  2.0890 -1.2875
 2768SOL    HW219764   3.575   2.513   3.217 -1.6376 -0.0210 -0.5892
 2769SOL     OW19765   0.846   2.770   2.842  0.3784 -0.2028 -0.8582
 2769SOL    HW119766   0.799   2.810   2.768  0.5857  1.5320 -0.0579
 2769SOL    HW219767   0.785   2.699   2.864 -0.9477  1.8868  2.1560
 2770SOL     OW19768   1.983   2.865   7.974 -0.2306 -0.3861 -0.0345
 2770SOL    HW119769   2.020   2.953   7.977  1.8856 -1.3142  0.4716
 2770SOL    HW219770   2.051   2.813   8.015 -1.1551  0.2303  2.2616
 2771SOL     OW19771   3.003   3.196   3.696 -0.0789 -0.7759 -0.1703
 2771SOL    HW119772   2.988   3.237   3.610 -0.7947  1.3352  0.9530
 2771SOL    HW219773   2.933   3.249   3.736 -0.7229 -1.6216 -0.1815
 2772SOL     OW19774   2.243   3.783  12.296  0.1287 -0.6374 -0.1959
 2772SOL    HW119775   2.283   3.739  12.371 -0.8436 -1.0794  0.0747
 2772SOL    HW219776   2.271   3.724  12.226 -0.5775  0.0903 -1.0892
 2773SOL     OW19777   1.526   4.111  17.385  0.5627  0.0281  0.5624
 2773SOL    HW119778   1.462   4.173  17.350  1.1655  1.0765  1.3235
 2773SOL    HW219779   1.533   4.141  17.475  0.2540 -0.3846  0.7262
 2774SOL     OW19780   0.476   1.080  14.771  0.5289 -0.1477 -0.0729
 2774SOL    HW119781   0.566   1.107  14.750  0.0506  1.4578 -0.0992
 2774SOL    HW219782   0.478   1.061  14.865 -1.4244 -0.5981 -0.1440
 2775SOL     OW19783   2.010   3.913  15.258  0.6537 -0.4846  0.4084
 2775SOL    HW119784   2.089   3.964  15.268  1.7966 -2.0225 -0.7725
 2775SOL    HW219785   2.039   3.821  15.258 -2.9170 -1.6119  2.2936
 2776SOL     OW19786   3.879   3.076  14.050  0.1163  0.0639  0.4037
 2776SOL    HW119787   3.821   3.022  13.996 -0.3956  0.3365  0.6927
 2776SOL    HW219788   3.827   3.086  14.129 -0.5315 -3.2647  0.3967
 2777SOL     OW19789   1.673   0.460   0.480  0.4388 -0.1834  0.3813
 2777SOL    HW119790   1.709   0.392   0.424 -0.1133 -0.7032  0.6608
 2777SOL    HW219791   1.695   0.542   0.436 -0.8951  0.0412  0.1169
 2778SOL     OW19792   2.697   2.956  17.157 -0.2879 -0.0431  0.2061
 2778SOL    HW119793   2.685   2.895  17.084 -0.4196  0.3704 -0.1141
 2778SOL    HW219794   2.617   3.007  17.159 -0.5113 -0.3414 -1.6043
 2779SOL     OW19795   2.393   2.957  11.286 -0.5420  0.4089  0.2229
 2779SOL    HW119796   2.444   3.023  11.332 -0.0628  0.7368 -0.7940
 2779SOL    HW219797   2.462   2.925  11.229 -0.5404  2.2125 -0.7776
 2780SOL     OW19798   0.643   1.057   6.880  0.3847 -0.2214  0.3295
 2780SOL    HW119799   0.614   0.968   6.901 -1.0796  0.4167  1.0611
 2780SOL    HW219800   0.645   1.039   6.786 -0.3055  2.0903 -0.1307
 2781SOL     OW19801   4.435   2.939   3.017  0.1893  0.4889  0.1660
 2781SOL    HW119802   4.446   2.900   3.103  0.5441 -0.4984 -0.3295
 2781SOL    HW219803   4.374   3.012   3.030  0.3145  0.6535 -0.1552
 2782SOL     OW19804   3.333   2.352   3.106  0.0069 -0.3042  0.2815
 2782SOL    HW119805   3.363   2.264   3.084 -1.2949 -0.7595  0.3084
 2782SOL    HW219806   3.414   2.372   3.152  0.8690 -0.0929 -1.3081
 2783SOL     OW19807   3.592   3.731  11.813 -0.1845  0.5002  0.7686
 2783SOL    HW119808   3.673   3.721  11.863  1.8412  1.6682 -2.3274
 2783SOL    HW219809   3.608   3.814  11.768 -0.1868  0.2550  0.3186
 2784SOL     OW19810   4.138   1.182  10.830 -0.4780 -0.8144  0.0224
 2784SOL    HW119811   4.079   1.184  10.755  0.1506 -0.4237 -0.4571
 2784SOL    HW219812   4.221   1.199  10.785  0.3320 -2.2285  0.9865
 2785SOL     OW19813   1.074   1.837   1.570 -0.3653 -0.2946  0.3419
 2785SOL    HW119814   0.984   1.804   1.569 -0.0400 -1.1674 -1.6473
 2785SOL    HW219815   1.113   1.777   1.634 -0.1668 -0.3138  0.2027
 2786SOL     OW19816   3.461   0.161   6.631  0.2761 -0.0576  0.2048
 2786SOL    HW119817   3.422   0.110   6.560  0.4535 -0.2606  0.2553
 2786SOL    HW219818   3.402   0.146   6.705  0.5918 -1.0596  0.2481
 2787SOL     OW19819   3.760   3.143   4.228 -0.6806  0.5832 -0.9262
 2787SOL    HW119820   3.823   3.072   4.218 -1.0930 -0.2754  2.8782
 2787SOL    HW219821   3.688   3.088   4.258  1.7827 -2.2582 -0.2080
 2788SOL     OW19822   2.004   1.444   5.898  0.2923  0.1333  0.2329
 2788SOL    HW119823   2.054   1.513   5.941  1.9940 -0.1483 -1.2878
 2788SOL    HW219824   2.063   1.369   5.900 -0.7797 -0.6166  3.9164
 2789SOL     OW19825   0.350   4.461   4.737 -0.3018  0.0063  0.2530
 2789SOL    HW119826   0.419   4.414   4.784  0.2884 -1.3731 -1.9728
 2789SOL    HW219827   0.346   4.412   4.655  1.0720  0.6747 -0.2120
 2790SOL     OW19828   2.913   3.368   3.525 -0.5607 -0.3069 -0.6984
 2790SOL    HW119829   2.904   3.428   3.599 -1.2879 -0.7204 -0.4461
 2790SOL    HW219830   2.919   3.435   3.457 -1.9603  0.0252 -0.4848
 2791SOL     OW19831   1.938   4.158  11.506  0.0367  0.2522  0.1961
 2791SOL    HW119832   1.863   4.187  11.557 -0.3136  0.6022 -0.5128
 2791SOL    HW219833   1.964   4.078  11.552 -0.7833 -1.0820 -1.6559
 2792SOL     OW19834   0.885   0.375   7.452 -0.1042 -0.0594 -0.1711
 2792SOL    HW119835   0.839   0.373   7.536 -0.6711  1.2547 -0.4489
 2792SOL    HW219836   0.953   0.438   7.477 -1.0232  0.2819  1.5280
 2793SOL     OW19837   3.675   0.874   6.394  0.2056 -0.3879 -0.3466
 2793SOL    HW119838   3.627   0.792   6.396  2.5641 -1.7612 -0.6761
 2793SOL    HW219839   3.763   0.855   6.361  0.8522  2.2754 -0.1995
 2794SOL     OW19840   0.517   1.318  14.584  0.2990  0.0412  0.1970
 2794SOL    HW119841   0.587   1.383  14.574 -0.6759  0.9075 -0.9107
 2794SOL    HW219842   0.576   1.257  14.630  3.6496  2.8234 -0.3795
 2795SOL     OW19843   3.443   0.292   5.765  0.0396  0.2797  0.4982
 2795SOL    HW119844   3.424   0.301   5.858  0.3056 -0.8445  0.6689
 2795SOL    HW219845   3.354   0.283   5.732  0.8591 -0.3903 -1.5340
 2796SOL     OW19846   0.476   2.476   4.735  0.3722 -0.3493 -0.3931
 2796SOL    HW119847   0.470   2.569   4.757  0.3265 -1.0020  2.4283
 2796SOL    HW219848   0.400   2.431   4.773 -0.2609  0.5671 -0.5874
 2797SOL     OW19849   1.772   2.876   7.055 -0.8230 -0.1354  0.1207
 2797SOL    HW119850   1.760   2.908   7.144  0.0333 -1.0459  0.5602
 2797SOL    HW219851   1.866   2.861   7.047 -0.5276  1.4227  0.7980
 2798SOL     OW19852   3.589   3.542   4.005 -0.0913  0.2919 -0.0580
 2798SOL    HW119853   3.537   3.509   4.078  1.8165 -2.8559 -0.1203
 2798SOL    HW219854   3.661   3.479   4.013  1.0559  1.9941  3.0854
 2799SOL     OW19855   3.176   2.134  13.387  0.6235  0.0350 -0.0628
 2799SOL    HW119856   3.187   2.223  13.421 -0.6107  0.1185  0.1169
 2799SOL    HW219857   3.171   2.141  13.292  2.1573  0.4273 -0.1202
 2800SOL     OW19858   1.714   2.329   2.583  0.5460 -0.6108  0.0783
 2800SOL    HW119859   1.774   2.323   2.509  1.2166  0.2476  0.5342
 2800SOL    HW219860   1.712   2.238   2.613  0.1896 -0.7061 -0.2415
 2801SOL     OW19861   2.947   0.146   8.843  0.2602 -0.2026 -0.2629
 2801SOL    HW119862   2.913   0.102   8.921 -1.4925  1.3174 -0.1474
 2801SOL    HW219863   2.953   0.239   8.868  1.0782  0.5085 -3.1915
 2802SOL     OW19864   0.774   3.445   4.088  0.0299  0.1084  0.0802
 2802SOL    HW119865   0.724   3.458   4.007 -1.2192 -4.3832  0.1486
 2802SOL    HW219866   0.835   3.519   4.088  0.9840 -0.6803 -0.2472
 2803SOL     OW19867   1.681   3.881   4.915  0.2393 -0.2833 -0.3984
 2803SOL    HW119868   1.731   3.934   4.853 -0.3340 -0.8072 -1.2963
 2803SOL    HW219869   1.724   3.796   4.899  0.9438 -0.3171  1.6440
 2804SOL     OW19870   3.768   3.248   2.050  0.5129  0.1180  0.1011
 2804SOL    HW119871   3.711   3.216   1.980 -1.6499  2.1326  0.9723
 2804SOL    HW219872   3.728   3.204   2.125 -0.3267  1.3547  0.3694
 2805SOL     OW19873   0.200   1.605   4.230 -0.0854  0.0413  0.2192
 2805SOL    HW119874   0.179   1.692   4.264  0.9703 -1.4407  4.6396
 2805SOL    HW219875   0.293   1.608   4.211 -0.1753  0.2464 -0.1890
 2806SOL     OW19876   1.071   0.771   4.058 -0.1581  0.2986 -0.4726
 2806SOL    HW119877   1.157   0.777   4.016  1.2174  0.5090  2.3556
 2806SOL    HW219878   1.006   0.763   3.988 -0.4993  2.5910 -0.4386
 2807SOL     OW19879   3.617   0.573   8.619 -0.2479 -0.4816 -0.1777
 2807SOL    HW119880   3.577   0.647   8.574 -0.4734 -1.8322 -2.2041
 2807SOL    HW219881   3.679   0.559   8.547  0.5101  0.2827  0.3294
 2808SOL     OW19882   0.427   1.754  10.666  0.1139  0.7442  0.3748
 2808SOL    HW119883   0.406   1.712  10.750  0.8922 -1.9428 -0.7706
 2808SOL    HW219884   0.352   1.723  10.617  0.9238  1.9615 -1.6357
 2809SOL     OW19885   0.190   2.100   2.183 -0.3580  0.0527 -0.1451
 2809SOL    HW119886   0.196   2.144   2.098 -0.7667  1.1906  0.4142
 2809SOL    HW219887   0.180   2.010   2.152  0.1154  0.3830 -1.2614
 2810SOL     OW19888   2.352   4.579   1.731 -0.6293 -0.0765 -0.4294
 2810SOL    HW119889   2.279   4.521   1.709 -1.6113  0.1332  2.3137
 2810SOL    HW219890   2.400   4.536   1.803 -1.0264 -0.8577 -0.6300
 2811SOL     OW19891   1.379   4.457   6.457  0.7000 -0.2256 -0.5974
 2811SOL    HW119892   1.371   4.362   6.468 -0.6421 -0.2672 -1.9569
 2811SOL    HW219893   1.435   4.464   6.379 -1.8431  0.6889 -2.3371
 2812SOL     OW19894   3.898   4.532   2.648 -0.2738  0.3139 -0.2245
 2812SOL    HW119895   3.805   4.535   2.672 -0.5869  1.6494 -1.6178
 2812SOL    HW219896   3.895   4.575   2.562 -1.7080  0.7175  0.0250
 2813SOL     OW19897   4.467   0.365   7.748  0.3105 -0.0764 -0.7370
 2813SOL    HW119898   4.505   0.286   7.787 -0.4807 -0.8001 -1.4165
 2813SOL    HW219899   4.536   0.428   7.765  1.5562 -1.3222 -1.1617
 2814SOL     OW19900   4.226   0.097   5.598  0.4444  0.0824  0.5147
 2814SOL    HW119901   4.141   0.073   5.635  0.5272  0.6047  1.0441
 2814SOL    HW219902   4.233   0.032   5.528 -0.6060 -0.5963  1.0406
 2815SOL     OW19903   4.095   1.633   8.313  0.1600 -0.0487 -0.2560
 2815SOL    HW119904   4.156   1.559   8.311  1.3636  0.9118  1.3749
 2815SOL    HW219905   4.139   1.699   8.260 -0.7704  1.0545  0.3548
 2816SOL     OW19906   3.844   2.657   5.491 -0.0440  0.3846  0.2091
 2816SOL    HW119907   3.750   2.645   5.501 -0.0017 -1.0148 -1.1253
 2816SOL    HW219908   3.863   2.685   5.581  0.2396  2.1692 -0.3967
 2817SOL     OW19909   4.528   2.924   5.800  0.2509  0.2883 -0.2651
 2817SOL    HW119910   4.589   2.997   5.809  2.9480 -2.1605  1.2215
 2817SOL    HW219911   4.550   2.877   5.880 -0.4442 -2.0406 -1.4364
 2818SOL     OW19912   4.073   4.518   8.532 -0.0911  0.1040  0.3757
 2818SOL    HW119913   4.145   4.509   8.596 -0.8955 -0.7658  1.1581
 2818SOL    HW219914   3.990   4.506   8.577 -0.5496 -0.1380 -0.5553
 2819SOL     OW19915   1.618   3.827  11.198  0.5306 -0.2644 -0.1121
 2819SOL    HW119916   1.596   3.779  11.118  1.8245 -1.6483  0.3677
 2819SOL    HW219917   1.551   3.799  11.261  1.4852 -1.1279  0.5104
 2820SOL     OW19918   3.132   3.959   7.711  0.7279  0.0254 -0.3379
 2820SOL    HW119919   3.142   3.931   7.802 -0.4364  1.8421  0.3294
 2820SOL    HW219920   3.057   4.017   7.719 -0.2641 -0.8844 -3.0095
 2821SOL     OW19921   2.078   2.461   2.127  0.1588  0.4465 -0.2848
 2821SOL    HW119922   2.146   2.425   2.070 -0.8062 -0.2674 -0.9634
 2821SOL    HW219923   2.009   2.477   2.063  0.3059  1.0167 -0.3090
 2822SOL     OW19924   1.839   4.677   4.738  0.0483 -0.1345  0.5096
 2822SOL    HW119925   1.850   4.696   4.644  1.7371  2.6566  1.2661
 2822SOL    HW219926   1.924   4.646   4.769 -0.9412 -0.9879  2.3351
 2823SOL     OW19927   2.358   3.983   6.989 -0.2695 -0.3724 -0.5346
 2823SOL    HW119928   2.438   3.937   7.014 -1.5210 -3.6005 -2.5611
 2823SOL    HW219929   2.400   4.041   6.926  2.0315 -0.9341  0.4753
 2824SOL     OW19930   3.091   4.201   9.093 -0.3862 -0.1183 -0.5301
 2824SOL    HW119931   3.026   4.271   9.083  0.0954  0.3112 -0.6236
 2824SOL    HW219932   3.081   4.172   9.184  1.0580  1.0177  0.0021
 2825SOL     OW19933   0.200   0.906   9.861  0.7650 -0.3279  0.4970
 2825SOL    HW119934   0.170   0.950   9.782 -0.6871 -1.7514  0.2816
 2825SOL    HW219935   0.137   0.950   9.918 -0.1564 -1.8573  0.6565
 2826SOL     OW19936   0.706   1.387  13.752 -0.1270 -0.0933  0.4031
 2826SOL    HW119937   0.772   1.420  13.812  1.2917  2.2516 -2.4651
 2826SOL    HW219938   0.653   1.330  13.807 -1.4869  2.1107  1.3800
 2827SOL     OW19939   0.675   0.804   7.336  0.2053 -0.5320  0.3129
 2827SOL    HW119940   0.606   0.866   7.355 -0.0825 -0.3035 -1.4263
 2827SOL    HW219941   0.648   0.721   7.375 -0.5407 -1.3668 -1.9347
 2828SOL     OW19942   4.425   1.484  13.316 -0.3350 -0.3898  0.4459
 2828SOL    HW119943   4.450   1.561  13.265  0.7985 -1.2921 -0.3693
 2828SOL    HW219944   4.450   1.421  13.249  2.0546  1.4819 -0.4256
 2829SOL     OW19945   1.032   4.365   8.578 -0.0610 -0.0998 -0.8098
 2829SOL    HW119946   1.045   4.286   8.631 -0.4688 -0.9061 -1.9166
 2829SOL    HW219947   1.069   4.434   8.634  0.9738 -0.4317 -1.0884
 2830SOL     OW19948   0.698   2.283   4.664  0.1624 -0.0767  0.1135
 2830SOL    HW119949   0.631   2.216   4.674 -1.3002  1.5238  1.0924
 2830SOL    HW219950   0.668   2.347   4.599  0.7736  2.2589  2.1201
 2831SOL     OW19951   0.704   3.443   8.477 -0.0646 -0.1135 -1.0543
 2831SOL    HW119952   0.672   3.498   8.405 -0.5995  2.1504  0.9271
 2831SOL    HW219953   0.719   3.503   8.550 -0.0178  1.0586 -2.0347
 2832SOL     OW19954   2.054   0.435  13.757  0.1037  0.3857  0.2101
 2832SOL    HW119955   2.043   0.352  13.712  1.2298  1.1962 -1.5573
 2832SOL    HW219956   2.013   0.422  13.842 -1.8230 -1.6321 -1.0138
 2833SOL     OW19957   0.976   1.619  10.077  0.4150  0.4129  0.0962
 2833SOL    HW119958   0.928   1.647  10.154 -0.2854  0.2472 -0.2773
 2833SOL    HW219959   1.064   1.656  10.079  0.5684  0.0421  0.3523
 2834SOL     OW19960   3.022   4.137   0.823 -0.0161 -0.1138 -0.7369
 2834SOL    HW119961   3.060   4.128   0.736  1.8920  0.0380  0.0703
 2834SOL    HW219962   3.085   4.200   0.857  0.9928 -1.2530 -0.4897
 2835SOL     OW19963   4.164   2.066  11.852  0.5375 -0.1131  0.3974
 2835SOL    HW119964   4.152   1.974  11.875  1.3170 -0.2858  0.1046
 2835SOL    HW219965   4.247   2.083  11.896  2.3928 -2.8438 -1.9923
 2836SOL     OW19966   4.550   4.600   3.941  0.5614  0.2097  0.4858
 2836SOL    HW119967   4.558   4.619   3.847  0.0502 -0.2917  0.3418
 2836SOL    HW219968   4.485   4.531   3.947  0.2464  0.5057  0.5061
 2837SOL     OW19969   3.216   1.977   6.319 -0.1353  0.1786  0.4976
 2837SOL    HW119970   3.186   2.003   6.406 -1.7694 -1.4694  0.4042
 2837SOL    HW219971   3.154   1.910   6.292  0.0550 -0.0051  0.5097
 2838SOL     OW19972   2.122   2.364   3.882  0.0689  0.0264 -0.2445
 2838SOL    HW119973   2.163   2.400   3.804 -1.2148  2.9530  0.4388
 2838SOL    HW219974   2.154   2.412   3.959 -0.1621  1.1826 -0.8662
 2839SOL     OW19975   0.631   1.838  11.462 -0.0132  0.5921  0.1826
 2839SOL    HW119976   0.727   1.849  11.461  0.1540 -0.7021  1.7319
 2839SOL    HW219977   0.605   1.899  11.393 -1.3242 -0.2776 -0.0964
 2840SOL     OW19978   2.063   3.085   2.305  0.0512 -0.2592 -0.0574
 2840SOL    HW119979   2.004   3.113   2.235  0.8869  2.8399  0.4952
 2840SOL    HW219980   2.078   3.169   2.348  0.2674 -0.5657  0.4728
 2841SOL     OW19981   1.480   3.480   1.613 -0.6387  0.2758  0.5688
 2841SOL    HW119982   1.542   3.438   1.553 -1.1661 -0.5735  0.6125
 2841SOL    HW219983   1.402   3.463   1.562 -0.0668 -0.9213  0.1010
 2842SOL     OW19984   3.661   2.719   5.795  0.1521  0.7930 -0.6760
 2842SOL    HW119985   3.722   2.789   5.771  1.5088  1.1689  3.8443
 2842SOL    HW219986   3.715   2.664   5.850 -0.1946  0.9980 -0.1264
 2843SOL     OW19987   1.926   3.622   3.293 -0.0161  0.1253 -0.4258
 2843SOL    HW119988   1.922   3.716   3.276 -0.5976  0.3760  1.1220
 2843SOL    HW219989   1.974   3.593   3.215  0.5887 -2.1040  0.7747
 2844SOL     OW19990   3.517   2.201   8.078 -0.3475 -0.7960  0.1736
 2844SOL    HW119991   3.609   2.223   8.066 -0.8831  1.4545  0.0592
 2844SOL    HW219992   3.481   2.225   7.993 -1.8704 -0.9929  0.7536
 2845SOL     OW19993   3.569   1.765   6.085 -0.5814  0.0244  0.2157
 2845SOL    HW119994   3.536   1.815   6.159  2.1466  0.0164  1.4544
 2845SOL    HW219995   3.490   1.715   6.065  0.7307 -1.3704 -1.5080
 2846SOL     OW19996   0.624   0.686  14.210 -0.0490 -0.1807  0.1543
 2846SOL    HW119997   0.602   0.752  14.144  1.1078 -0.2931 -0.3458
 2846SOL    HW219998   0.697   0.730  14.253  0.5740  1.6358 -2.7157
 2847SOL     OW19999   4.088   3.190   8.430 -0.4129  0.0584  0.3728
 2847SOL    HW120000   3.999   3.226   8.433 -0.3659  0.4162 -2.5866
 2847SOL    HW220001   4.071   3.106   8.386  0.8005  1.1096 -2.0627
 2848SOL     OW20002   0.139   4.104   7.352 -0.3385  0.1019 -0.6468
 2848SOL    HW120003   0.155   4.197   7.368 -1.8220  0.4136 -1.0047
 2848SOL    HW220004   0.146   4.069   7.441  0.3205  0.6477 -0.4784
 2849SOL     OW20005   1.215   3.811   1.430  0.7432  0.3813  0.0118
 2849SOL    HW120006   1.147   3.761   1.475  1.0723 -0.9403 -0.9571
 2849SOL    HW220007   1.268   3.833   1.507  1.8091 -3.8600  0.5083
 2850SOL     OW20008   1.535   2.160   2.287  0.1879  0.4530  0.3489
 2850SOL    HW120009   1.629   2.172   2.298  0.5807  2.1869 -5.1180
 2850SOL    HW220010   1.522   2.207   2.205  0.0371 -0.9420 -0.4130
 2851SOL     OW20011   2.324   3.185  13.610 -0.3695  0.1282 -0.4456
 2851SOL    HW120012   2.319   3.092  13.631 -0.7829  0.3210  0.2861
 2851SOL    HW220013   2.404   3.210  13.656 -0.1500 -0.8890 -0.2765
 2852SOL     OW20014   2.308   4.191   5.787  0.1611 -0.1208  0.5873
 2852SOL    HW120015   2.384   4.157   5.834  0.9497 -0.8648 -1.2420
 2852SOL    HW220016   2.300   4.123   5.720 -2.3725 -1.0945  1.8269
 2853SOL     OW20017   2.806   2.973   4.743  0.0615 -0.1479  0.0203
 2853SOL    HW120018   2.803   2.923   4.824 -0.9358  1.3539  0.8978
 2853SOL    HW220019   2.830   3.062   4.771  1.2274 -0.9017  1.4190
 2854SOL     OW20020   0.234   1.121   8.312  0.5701 -0.1613  0.3361
 2854SOL    HW120021   0.261   1.038   8.352  1.1412  0.6986  1.7324
 2854SOL    HW220022   0.244   1.103   8.219  0.0033 -0.0222  0.2499
 2855SOL     OW20023   1.528   4.710   5.616 -0.1958 -0.2942 -0.4291
 2855SOL    HW120024   1.517   0.007   5.523  0.2894  0.1583 -0.3819
 2855SOL    HW220025   1.553   4.618   5.624 -1.6109 -0.5569  0.9196
 2856SOL     OW20026   1.140   3.019  17.505 -0.1166 -0.1876 -0.4015
 2856SOL    HW120027   1.192   3.072  17.566  0.7224 -0.5185 -0.8195
 2856SOL    HW220028   1.201   2.945  17.501  0.1888 -0.0353  1.4489
 2857SOL     OW20029   2.137   2.990  15.868 -0.3728  0.5350  0.4489
 2857SOL    HW120030   2.052   3.011  15.829 -0.8031 -1.4666  0.3241
 2857SOL    HW220031   2.121   2.996  15.962 -0.1280  1.7857  0.4166
 2858SOL     OW20032   0.446   3.690  11.905  0.2490  1.0637  0.2060
 2858SOL    HW120033   0.449   3.666  11.813  1.4637 -1.6752  0.9750
 2858SOL    HW220034   0.449   3.786  11.903 -1.2762  1.0859 -0.8519
 2859SOL     OW20035   4.373   4.450   1.869  0.6185  0.2814  0.7133
 2859SOL    HW120036   4.355   4.436   1.776  0.4698  0.3201  0.7357
 2859SOL    HW220037   4.285   4.462   1.906  0.9431  2.9993  0.6069
 2860SOL     OW20038   1.052   4.112   6.881 -0.2468  0.1237  0.2319
 2860SOL    HW120039   1.078   4.079   6.967 -0.8207  0.9120  0.7068
 2860SOL    HW220040   1.067   4.032   6.831  1.6912  1.3585 -1.1759
 2861SOL     OW20041   1.811   0.181  14.751  0.2839  0.2876  0.6857
 2861SOL    HW120042   1.812   0.155  14.658 -1.8576  1.4286  0.3476
 2861SOL    HW220043   1.831   0.274  14.742 -2.0132  0.6729 -0.5130
 2862SOL     OW20044   4.078   1.094   2.389 -0.2355  0.3708 -0.0778
 2862SOL    HW120045   3.983   1.088   2.382 -0.6261  3.0034  2.6716
 2862SOL    HW220046   4.101   1.002   2.376 -0.3440  0.0544  1.9979
 2863SOL     OW20047   2.014   1.336   5.414 -0.3379 -0.1427 -0.1328
 2863SOL    HW120048   1.969   1.311   5.495  1.3587  0.1056  0.8822
 2863SOL    HW220049   2.076   1.400   5.449  0.1687 -1.2228  0.9510
 2864SOL     OW20050   2.014   4.206   0.257 -0.2375  0.3405 -0.0793
 2864SOL    HW120051   2.097   4.199   0.211 -0.8771 -1.5694 -0.9183
 2864SOL    HW220052   2.019   4.125   0.307  1.9937  0.0709 -0.7597
 2865SOL     OW20053   1.469   1.390   8.096 -0.4389 -0.3877  0.4328
 2865SOL    HW120054   1.436   1.479   8.079 -0.1392 -0.6550 -1.4996
 2865SOL    HW220055   1.395   1.334   8.075  0.2085 -1.3900  0.8335
 2866SOL     OW20056   1.606   1.794   8.832 -0.5945  0.4530 -0.6513
 2866SOL    HW120057   1.527   1.814   8.781 -1.6551 -2.4793 -0.1519
 2866SOL    HW220058   1.603   1.836   8.918  3.4829 -0.2300 -0.1760
 2867SOL     OW20059   1.129   1.439   3.625  0.2857 -0.2917  0.5224
 2867SOL    HW120060   1.135   1.344   3.610  2.0868 -0.3002  1.2386
 2867SOL    HW220061   1.219   1.472   3.623  0.8984 -1.7542  2.8264
 2868SOL     OW20062   0.240   0.261   5.710  0.2619 -0.6154  0.3091
 2868SOL    HW120063   0.263   0.253   5.617 -0.3163 -0.6635  0.1671
 2868SOL    HW220064   0.181   0.335   5.692  0.9677  0.0569  0.7902
 2869SOL     OW20065   2.187   2.256   4.334  0.0903 -0.0483 -0.4486
 2869SOL    HW120066   2.271   2.288   4.367 -0.2910  1.2407 -0.7085
 2869SOL    HW220067   2.145   2.225   4.414 -1.3826  1.9095 -0.4476
 2870SOL     OW20068   1.983   3.714  17.202 -0.5779  0.1029 -0.0584
 2870SOL    HW120069   2.048   3.676  17.262  0.0510  0.8893 -0.2500
 2870SOL    HW220070   2.031   3.793  17.179 -0.1002  0.2457  1.4361
 2871SOL     OW20071   3.529   1.212   3.488 -0.2689  0.6555 -0.2269
 2871SOL    HW120072   3.443   1.254   3.487  0.7429  2.7837  1.8695
 2871SOL    HW220073   3.523   1.170   3.574 -1.5553 -0.8595 -1.0646
 2872SOL     OW20074   4.311   0.392   3.559 -0.4176  0.0493  0.0217
 2872SOL    HW120075   4.260   0.379   3.638 -0.8038  1.8829  0.0788
 2872SOL    HW220076   4.300   0.487   3.561  0.5232  0.1326  1.0141
 2873SOL     OW20077   2.643   3.488   7.789  0.5296  0.2073  0.3832
 2873SOL    HW120078   2.628   3.395   7.801  1.7348  0.2331  2.0779
 2873SOL    HW220079   2.730   3.481   7.750  1.8126  1.3986  3.0174
 2874SOL     OW20080   1.786   3.440   1.194 -0.4347  0.6249 -0.3405
 2874SOL    HW120081   1.815   3.349   1.195  0.4758  0.9126 -0.0923
 2874SOL    HW220082   1.846   3.485   1.254  1.0434  0.2719 -1.5538
 2875SOL     OW20083   3.938   2.514   8.113  0.4018  0.1238  0.3881
 2875SOL    HW120084   3.945   2.554   8.200  0.9458 -0.3981  0.5813
 2875SOL    HW220085   4.024   2.537   8.077  0.4474  1.8787  1.5893
 2876SOL     OW20086   0.534   0.045   4.569  0.2406 -0.4185 -0.4799
 2876SOL    HW120087   0.629   0.037   4.584 -0.3164 -3.0213  1.5613
 2876SOL    HW220088   0.516   0.116   4.630 -0.4945 -0.5592 -0.5371
 2877SOL     OW20089   4.408   4.467  13.189  0.6832 -0.0512  0.0977
 2877SOL    HW120090   4.402   4.395  13.251 -2.1015  0.3531  0.3213
 2877SOL    HW220091   4.498   4.495  13.202  1.5748 -2.8568 -0.1946
 2878SOL     OW20092   1.362   2.781  13.612 -0.0406 -0.0554 -0.1097
 2878SOL    HW120093   1.372   2.703  13.667 -1.3040 -0.9501 -1.1443
 2878SOL    HW220094   1.306   2.747  13.542  2.8100 -1.3369 -1.7987
 2879SOL     OW20095   3.025   1.095   3.701 -0.3357 -0.5753  0.3481
 2879SOL    HW120096   3.009   1.064   3.790  0.0110  0.8999  0.9265
 2879SOL    HW220097   2.945   1.069   3.655  0.1912 -0.0369 -0.8819
 2880SOL     OW20098   2.194   4.565   1.377 -0.1081  0.6209  0.0942
 2880SOL    HW120099   2.246   4.496   1.418 -0.6881 -0.1752 -0.5103
 2880SOL    HW220100   2.261   4.602   1.321 -0.0807 -0.8621 -0.8381
 2881SOL     OW20101   2.101   3.742   8.496 -0.4928  0.3066 -0.0025
 2881SOL    HW120102   2.057   3.787   8.568  2.8194  0.6449  1.8006
 2881SOL    HW220103   2.146   3.676   8.548  1.2258  0.5727 -1.1551
 2882SOL     OW20104   2.979   2.441   6.364 -0.4630  0.2638 -0.3137
 2882SOL    HW120105   3.047   2.395   6.414  1.2258  0.4508 -2.4366
 2882SOL    HW220106   2.944   2.367   6.314  0.2620  0.4864 -1.1574
 2883SOL     OW20107   1.561   2.114   0.677 -0.4544  0.0403  0.3667
 2883SOL    HW120108   1.495   2.109   0.608 -0.7250 -0.1542  0.6397
 2883SOL    HW220109   1.568   2.209   0.676  1.1787 -0.1035 -1.8342
 2884SOL     OW20110   0.759   2.344   6.694 -0.6513 -0.2552 -0.2464
 2884SOL    HW120111   0.683   2.375   6.645 -1.5182 -1.0574  0.5783
 2884SOL    HW220112   0.720   2.336   6.782 -2.2218  1.2008 -0.8235
 2885SOL     OW20113   3.577   4.306  17.590  0.4336 -0.0648 -0.7022
 2885SOL    HW120114   3.595   4.246  17.517 -2.1308  0.2189 -1.5762
 2885SOL    HW220115   3.592   4.391  17.550 -0.3472 -0.4025 -1.7071
 2886SOL     OW20116   2.597   4.164  15.695 -0.9845  0.2482 -0.1504
 2886SOL    HW120117   2.515   4.125  15.664  0.0229 -1.9096 -0.1034
 2886SOL    HW220118   2.666   4.102  15.671 -0.0443  1.2082  0.1151
 2887SOL     OW20119   0.457   4.057  15.762 -0.3133 -0.5234  0.0367
 2887SOL    HW120120   0.507   3.988  15.807 -0.7895 -2.1641 -1.9566
 2887SOL    HW220121   0.436   4.011  15.681  0.6966  1.7219 -1.4875
 2888SOL     OW20122   2.169   3.105   5.660 -0.2658  0.6263 -0.0295
 2888SOL    HW120123   2.170   3.011   5.680 -0.7698  0.3582 -1.2482
 2888SOL    HW220124   2.212   3.130   5.742 -0.8052  1.9200 -0.1443
 2889SOL     OW20125   3.564   4.238   8.192 -0.4301  0.6120  0.0471
 2889SOL    HW120126   3.648   4.220   8.234 -0.0134 -1.1534 -1.5954
 2889SOL    HW220127   3.601   4.271   8.110  1.8503 -1.0054  0.4505
 2890SOL     OW20128   2.376   2.976   5.167 -0.2496  0.2829  0.0038
 2890SOL    HW120129   2.313   2.963   5.238 -0.7152  2.0003 -0.1119
 2890SOL    HW220130   2.354   2.914   5.098 -1.4063  0.2513  0.4071
 2891SOL     OW20131   1.982   4.595   1.010 -0.3460  0.4273  0.2164
 2891SOL    HW120132   1.971   4.524   1.074 -0.3444  0.8834  0.7250
 2891SOL    HW220133   2.078   4.602   1.006 -0.5166  1.8838 -1.0968
 2892SOL     OW20134   1.959   0.785   5.576 -0.7143  0.1103 -0.2744
 2892SOL    HW120135   1.990   0.697   5.594  1.1246  0.6387 -0.9044
 2892SOL    HW220136   1.977   0.821   5.663  4.4794  1.6629 -2.0084
 2893SOL     OW20137   1.020   1.150  14.043  0.2294 -0.5095  0.4470
 2893SOL    HW120138   1.072   1.090  14.098 -0.9017  0.5042  2.6368
 2893SOL    HW220139   0.960   1.089  14.000 -0.1459  1.1073 -1.3151
 2894SOL     OW20140   4.539   1.699  12.150 -0.4237 -0.3014  0.0688
 2894SOL    HW120141   4.548   1.746  12.233 -0.7454  2.0242 -1.2134
 2894SOL    HW220142   4.459   1.735  12.111 -0.5438  0.1190  0.7003
 2895SOL     OW20143   3.537   3.745   5.983 -0.2731  0.8073  0.3942
 2895SOL    HW120144   3.514   3.677   5.921  0.5595  2.0385 -1.2599
 2895SOL    HW220145   3.488   3.727   6.063 -0.6138 -1.4639 -0.3440
 2896SOL     OW20146   0.996   4.559   3.042  0.4583 -0.4672 -0.4114
 2896SOL    HW120147   0.901   4.564   3.040  0.4715 -0.1014 -0.0402
 2896SOL    HW220148   1.007   4.503   3.119  0.5550  0.3421  0.1558
 2897SOL     OW20149   3.358   2.010  17.509 -0.5923  0.7024 -0.4329
 2897SOL    HW120150   3.431   2.060  17.546  0.1463 -0.4435 -0.3204
 2897SOL    HW220151   3.395   1.922  17.509 -2.7934 -0.2166  0.6002
 2898SOL     OW20152   1.311   2.492   5.647 -0.7252  0.0617  0.2864
 2898SOL    HW120153   1.274   2.508   5.560  1.1210 -1.0677 -0.7177
 2898SOL    HW220154   1.403   2.483   5.621 -0.6671 -3.2215  1.7216
 2899SOL     OW20155   0.034   3.141   7.666 -0.0253 -0.4834 -0.0540
 2899SOL    HW120156   0.006   3.077   7.731  0.4880  0.3374  0.9747
 2899SOL    HW220157   4.718   3.100   7.589  0.6548  1.6265 -1.5380
 2900SOL     OW20158   2.527   0.492   9.002 -0.1794  0.0592  0.7213
 2900SOL    HW120159   2.579   0.555   9.051  1.4167 -0.4010 -0.3751
 2900SOL    HW220160   2.484   0.554   8.943 -0.0392 -0.9136 -0.4074
 2901SOL     OW20161   3.224   0.187   0.226 -0.3340  0.5094  0.1299
 2901SOL    HW120162   3.233   0.138   0.307 -1.1833 -1.6388 -1.0798
 2901SOL    HW220163   3.252   0.117   0.167  0.6535  0.1951  0.9846
 2902SOL     OW20164   0.126   4.281   2.384 -0.5485  0.2347 -0.8390
 2902SOL    HW120165   0.059   4.339   2.347  0.7020  1.6114 -0.9129
 2902SOL    HW220166   0.205   4.332   2.368  0.2095 -0.5172  0.5351
 2903SOL     OW20167   1.515   3.451   4.318  0.3252  0.0260  0.6448
 2903SOL    HW120168   1.482   3.408   4.240  1.7163  0.3408 -0.1227
 2903SOL    HW220169   1.437   3.462   4.371 -0.6595  0.9873 -1.0144
 2904SOL     OW20170   3.083   4.574   5.066 -0.7778  0.5914 -0.1067
 2904SOL    HW120171   3.043   4.563   5.152  1.2489  0.5079  0.8262
 2904SOL    HW220172   2.997   4.560   5.028 -1.1817 -3.9038  2.4910
 2905SOL     OW20173   3.925   3.651   1.369  0.2963 -0.0852 -0.3081
 2905SOL    HW120174   3.868   3.583   1.406  0.8828 -0.2486  0.2978
 2905SOL    HW220175   3.852   3.711   1.357  1.5505  1.4710 -0.0678
 2906SOL     OW20176   2.017   0.783  12.911  0.3511  0.2929 -0.1022
 2906SOL    HW120177   2.025   0.742  12.997 -0.5300 -2.5503 -1.4067
 2906SOL    HW220178   1.978   0.867  12.936  0.3510  0.6738 -1.3964
 2907SOL     OW20179   1.979   2.425  12.598  0.2267 -0.3836 -0.7310
 2907SOL    HW120180   1.964   2.360  12.530  0.1249  0.2929 -1.3487
 2907SOL    HW220181   2.007   2.496  12.540 -1.1132 -0.6257 -1.6813
 2908SOL     OW20182   1.504   4.642   6.622 -0.2584 -0.0808 -0.2823
 2908SOL    HW120183   1.455   4.578   6.570 -0.1650 -0.3431 -0.0511
 2908SOL    HW220184   1.446   4.718   6.622 -1.0040 -0.6459 -1.0796
 2909SOL     OW20185   4.227   3.676   5.807 -0.1719  0.0977 -0.0064
 2909SOL    HW120186   4.279   3.632   5.874  1.2372  1.8249  0.0378
 2909SOL    HW220187   4.246   3.613   5.737 -1.4631 -1.4869  1.0632
 2910SOL     OW20188   2.536   3.111   5.688  0.5951 -0.2237  0.6464
 2910SOL    HW120189   2.595   3.100   5.613  0.2977 -0.1105  0.3961
 2910SOL    HW220190   2.481   3.033   5.678 -3.4648  2.9392 -1.6843
 2911SOL     OW20191   1.495   4.147   3.995 -0.5049 -0.0535 -0.0944
 2911SOL    HW120192   1.422   4.207   3.987 -2.1331 -1.7933  1.6352
 2911SOL    HW220193   1.452   4.069   4.029 -1.6606  0.2847 -0.7847
 2912SOL     OW20194   2.000   3.553   4.152 -0.5191 -0.5547  0.3312
 2912SOL    HW120195   2.012   3.458   4.159  2.5717 -0.1557  0.4024
 2912SOL    HW220196   1.908   3.555   4.180 -0.4103 -1.7134  0.7904
 2913SOL     OW20197   4.134   2.914  14.118 -0.0696 -0.0879 -0.5265
 2913SOL    HW120198   4.206   2.975  14.100 -0.4829  0.2831 -0.9244
 2913SOL    HW220199   4.090   2.927  14.034  0.4287  4.1116 -0.1539
 2914SOL     OW20200   2.932   0.846   6.117 -0.2695  0.1777 -0.1530
 2914SOL    HW120201   2.898   0.794   6.045  0.1049  0.2242 -0.3643
 2914SOL    HW220202   3.003   0.893   6.073 -1.1336 -0.5342 -2.3185
 2915SOL     OW20203   0.680   3.087   5.301 -0.3581 -0.5106  0.2401
 2915SOL    HW120204   0.708   3.138   5.376 -0.2481  0.8838 -0.7645
 2915SOL    HW220205   0.761   3.047   5.270  1.1866  1.3782  1.8963
 2916SOL     OW20206   4.388   1.007   8.576 -0.4444 -0.1247  0.0307
 2916SOL    HW120207   4.330   1.045   8.510  0.0879  0.8941  0.1580
 2916SOL    HW220208   4.334   0.972   8.647 -1.7880  0.2565 -0.8014
 2917SOL     OW20209   4.543   0.289   5.952 -0.3611 -0.0584  0.6573
 2917SOL    HW120210   4.529   0.294   5.858  0.2648 -0.5086  0.5389
 2917SOL    HW220211   4.520   0.197   5.964 -1.4946  0.1325 -0.0424
 2918SOL     OW20212   1.189   2.081   2.394 -0.1256  0.3729 -0.1476
 2918SOL    HW120213   1.224   2.039   2.315 -1.6595  0.8518 -1.0767
 2918SOL    HW220214   1.210   2.032   2.474 -0.3962  2.1686  1.0103
 2919SOL     OW20215   3.908   0.240  13.715 -0.3837 -0.6628 -0.2414
 2919SOL    HW120216   3.942   0.152  13.694  0.9037  0.3252 -2.2470
 2919SOL    HW220217   3.894   0.262  13.623  1.6192 -2.6914 -1.0451
 2920SOL     OW20218   0.903   0.985  14.799  0.4407 -0.3823  0.0103
 2920SOL    HW120219   0.872   0.933  14.873 -1.2752  0.5517 -0.0573
 2920SOL    HW220220   0.959   1.048  14.844 -0.5565  1.5524 -1.4577
 2921SOL     OW20221   0.123   3.529   7.614 -0.4040 -0.5665 -0.7271
 2921SOL    HW120222   0.184   3.458   7.633  0.4493  0.8441  1.7759
 2921SOL    HW220223   0.040   3.485   7.633 -1.2396  1.3861  0.0942
 2922SOL     OW20224   1.033   3.105   0.262 -0.3398  0.2058 -0.1201
 2922SOL    HW120225   0.975   3.050   0.209  0.9085 -0.1986 -1.0747
 2922SOL    HW220226   1.106   3.049   0.287  0.2351  0.6428 -0.8232
 2923SOL     OW20227   0.748   4.074   7.610  0.0079  0.3884 -0.5230
 2923SOL    HW120228   0.680   4.131   7.576 -2.0618 -1.6633  0.1329
 2923SOL    HW220229   0.689   4.011   7.652  0.2118  2.3181  2.6594
 2924SOL     OW20230   2.301   1.915   1.894  0.6513  0.7822 -0.1695
 2924SOL    HW120231   2.287   1.870   1.811  2.1735 -2.6102  1.4447
 2924SOL    HW220232   2.288   2.006   1.865 -2.4925  0.0929 -0.8654
 2925SOL     OW20233   1.601   4.164   8.578  0.3665 -0.2076 -0.3060
 2925SOL    HW120234   1.632   4.077   8.605 -2.2260 -1.1835 -0.5052
 2925SOL    HW220235   1.635   4.180   8.490  0.4002 -0.9434 -0.4305
 2926SOL     OW20236   4.482   2.353  13.426 -0.1164 -0.3122  0.2028
 2926SOL    HW120237   4.481   2.273  13.374  0.0616 -1.2818  1.6841
 2926SOL    HW220238   4.392   2.385  13.414 -0.9052 -2.4629  0.3191
 2927SOL     OW20239   1.888   0.456   3.808  0.4126 -0.0374 -0.4724
 2927SOL    HW120240   1.860   0.514   3.879 -0.7086  0.5571 -1.4133
 2927SOL    HW220241   1.907   0.373   3.852  1.1407 -0.5751 -1.8064
 2928SOL     OW20242   4.166   4.094  17.408 -0.7196 -0.1662 -0.6038
 2928SOL    HW120243   4.220   4.162  17.448 -0.9433  0.1713 -0.8812
 2928SOL    HW220244   4.105   4.070  17.478 -0.3451 -0.6897 -0.4534
 2929SOL     OW20245   3.941   3.968   3.670  0.1376  0.1487 -0.0603
 2929SOL    HW120246   3.869   3.905   3.682  0.4707 -0.3955 -0.9551
 2929SOL    HW220247   4.018   3.911   3.676 -0.4604 -0.6393  0.2139
 2930SOL     OW20248   2.821   3.242  16.094 -0.2968  0.5477 -0.0253
 2930SOL    HW120249   2.897   3.216  16.146 -1.6373 -1.1637  1.0727
 2930SOL    HW220250   2.775   3.289  16.162  0.5436 -0.2489  1.1064
 2931SOL     OW20251   0.507   2.940  15.179 -0.0343  0.3276 -0.6099
 2931SOL    HW120252   0.553   2.918  15.097  1.5384  1.1152  0.0611
 2931SOL    HW220253   0.569   2.908  15.244  1.8369 -0.1951 -2.6689
 2932SOL     OW20254   4.453   1.027   7.654 -0.4225  0.4734 -0.5554
 2932SOL    HW120255   4.471   0.994   7.566 -1.0641  0.7483 -0.7886
 2932SOL    HW220256   4.359   1.045   7.649 -0.5100  0.4772  1.0487
 2933SOL     OW20257   3.086   4.236   7.907  0.3071  0.2553  0.0719
 2933SOL    HW120258   3.068   4.310   7.849  2.1742  0.0009 -0.8355
 2933SOL    HW220259   3.001   4.202   7.934  0.4051 -1.3953 -1.6985
 2934SOL     OW20260   3.934   0.196   4.222  0.8235 -0.4228  0.6984
 2934SOL    HW120261   4.020   0.158   4.242  0.7236 -2.2049 -2.4020
 2934SOL    HW220262   3.946   0.236   4.136 -2.2333  3.8039  2.2368
 2935SOL     OW20263   1.348   4.469   3.274 -0.3099  0.7124  0.1597
 2935SOL    HW120264   1.338   4.556   3.311  1.5772  0.5188  1.1246
 2935SOL    HW220265   1.378   4.414   3.347  1.0962 -0.1021 -1.0278
 2936SOL     OW20266   2.138   1.101   8.396  0.1811  0.8114 -0.9819
 2936SOL    HW120267   2.075   1.030   8.382 -0.7601  1.5003 -0.2565
 2936SOL    HW220268   2.225   1.063   8.406  0.2933  1.2307 -0.3793
 2937SOL     OW20269   1.793   0.439   8.367  0.2802 -0.2732 -0.1550
 2937SOL    HW120270   1.828   0.391   8.292  1.1423 -0.1361  0.1539
 2937SOL    HW220271   1.744   0.506   8.320 -0.8900 -0.2196  1.1387
 2938SOL     OW20272   2.996   1.930   7.155  0.0683  0.2705 -0.6059
 2938SOL    HW120273   2.976   1.844   7.118  1.5457 -0.5031  0.3799
 2938SOL    HW220274   3.053   1.972   7.090  0.6134  0.7847  0.2133
 2939SOL     OW20275   3.761   2.450   6.281 -0.0135  0.5692 -0.2597
 2939SOL    HW120276   3.670   2.471   6.263 -0.7559 -2.1694  0.1940
 2939SOL    HW220277   3.800   2.533   6.308  1.3787  0.0063 -0.5203
 2940SOL     OW20278   1.102   4.345  10.795  0.0646  0.1053  0.4656
 2940SOL    HW120279   1.025   4.314  10.749  1.9643  0.6628 -3.0918
 2940SOL    HW220280   1.064   4.412  10.852  2.5718  0.8637  1.2527
 2941SOL     OW20281   0.035   1.804   4.743  0.0022  0.0173  0.1372
 2941SOL    HW120282   0.109   1.764   4.789 -0.3462 -1.3905 -0.5135
 2941SOL    HW220283   4.694   1.773   4.806 -1.2946  2.8274  0.1603
 2942SOL     OW20284   4.202   3.066   0.283 -0.5420 -0.2025 -0.1448
 2942SOL    HW120285   4.218   3.137   0.345 -1.7734 -0.2560  0.2355
 2942SOL    HW220286   4.255   2.990   0.308 -1.2029  0.0671  2.0956
 2943SOL     OW20287   4.202   0.473   2.273  0.1920  0.1493  0.3917
 2943SOL    HW120288   4.191   0.381   2.247  0.1577 -0.6522  3.2324
 2943SOL    HW220289   4.288   0.475   2.316  1.5700  0.3678 -2.4039
 2944SOL     OW20290   1.103   1.788   0.871 -0.3315  0.2044  0.1799
 2944SOL    HW120291   1.170   1.839   0.825 -1.7074  1.4299 -0.4672
 2944SOL    HW220292   1.132   1.807   0.960 -1.6547 -1.0918  0.8819
 2945SOL     OW20293   1.250   4.631  11.058  0.3302 -0.2756 -0.1096
 2945SOL    HW120294   1.328   4.584  11.028  0.5295 -0.3525  0.5161
 2945SOL    HW220295   1.281   4.721  11.058 -1.5899  0.3792 -1.1663
 2946SOL     OW20296   3.860   3.682   7.722 -0.3561  0.0227  0.1677
 2946SOL    HW120297   3.802   3.605   7.724  0.8403 -0.8913 -0.0118
 2946SOL    HW220298   3.857   3.700   7.628 -0.0898 -2.7642 -0.3973
 2947SOL     OW20299   0.318   3.285   5.457  0.7271  0.6486  0.1595
 2947SOL    HW120300   0.413   3.294   5.471  0.8494 -1.8971  0.9355
 2947SOL    HW220301   0.296   3.313   5.546 -1.9863 -0.3628 -0.2018
 2948SOL     OW20302   1.371   0.977   2.683 -0.2020  0.1322 -0.4941
 2948SOL    HW120303   1.295   0.932   2.646  2.0226 -1.8465 -2.5812
 2948SOL    HW220304   1.427   0.975   2.605  0.2162 -2.5421 -0.1367
 2949SOL     OW20305   0.579   3.266   5.537  0.2320 -0.4931 -0.0564
 2949SOL    HW120306   0.601   3.196   5.598 -1.5740 -0.9427  0.0548
 2949SOL    HW220307   0.668   3.301   5.524 -0.5217  0.3361 -3.1366
 2950SOL     OW20308   0.344   4.244  11.687 -0.2021  0.3329 -0.2948
 2950SOL    HW120309   0.335   4.333  11.720 -0.0280  0.9529 -1.9154
 2950SOL    HW220310   0.393   4.263  11.607  1.6068  0.1862  0.7655
 2951SOL     OW20311   0.612   0.878   4.386  0.2238 -0.3349  0.9379
 2951SOL    HW120312   0.687   0.877   4.327  1.2971  2.4619  2.2413
 2951SOL    HW220313   0.647   0.947   4.443 -3.0630  1.2589  1.0058
 2952SOL     OW20314   0.896   1.755   1.262 -0.3130  0.0683 -0.0744
 2952SOL    HW120315   0.809   1.767   1.299 -1.3803 -0.8685 -2.2917
 2952SOL    HW220316   0.914   1.848   1.249  0.4122 -0.0474  0.0835
 2953SOL     OW20317   2.382   3.792   8.374  0.0716  0.7449  0.6132
 2953SOL    HW120318   2.293   3.759   8.391 -0.7281  1.9312 -1.2188
 2953SOL    HW220319   2.415   3.728   8.311  0.3307  0.0745  1.4440
 2954SOL     OW20320   1.824   4.255   7.422 -0.2147  0.7847  0.3465
 2954SOL    HW120321   1.841   4.194   7.350  1.8194  0.2309  1.3168
 2954SOL    HW220322   1.859   4.199   7.491 -0.4220  0.1662 -0.0460
 2955SOL     OW20323   0.521   1.339   2.389 -0.0427  0.2242  0.3687
 2955SOL    HW120324   0.433   1.336   2.352  0.5526 -1.1201 -0.9578
 2955SOL    HW220325   0.523   1.251   2.428 -1.7026  0.2922  0.5824
 2956SOL     OW20326   4.452   0.739   1.645  0.0020  0.1815 -0.1951
 2956SOL    HW120327   4.482   0.754   1.734 -1.4739 -1.5606  0.6196
 2956SOL    HW220328   4.404   0.657   1.657  0.1265 -0.1356 -1.9021
 2957SOL     OW20329   1.514   0.431  17.296  0.6197  0.6865  0.3602
 2957SOL    HW120330   1.482   0.372  17.364 -0.8660  3.4897  2.0787
 2957SOL    HW220331   1.573   0.492  17.340 -1.2768  2.7459  0.0130
 2958SOL     OW20332   2.523   0.314   4.904 -0.3997  0.0026 -0.9084
 2958SOL    HW120333   2.475   0.326   4.986 -1.6620 -1.9231 -1.3635
 2958SOL    HW220334   2.452   0.300   4.842 -0.9060 -1.1534 -0.0784
 2959SOL     OW20335   0.935   0.080   6.789 -0.5860 -0.2168 -0.2621
 2959SOL    HW120336   0.945   4.713   6.761 -0.6299 -0.2869 -0.0556
 2959SOL    HW220337   0.999   0.093   6.860  0.0085  0.2492 -0.8857
 2960SOL     OW20338   0.979   4.050   5.973 -0.5377  0.1980  0.1244
 2960SOL    HW120339   0.991   3.962   6.008  1.5116  0.9340  1.2530
 2960SOL    HW220340   0.885   4.053   5.956 -0.7550  0.9902  1.4573
 2961SOL     OW20341   1.180   0.859   9.826 -0.0709  0.2312 -0.1305
 2961SOL    HW120342   1.195   0.891   9.737 -0.9517 -0.2774 -0.4644
 2961SOL    HW220343   1.087   0.836   9.823 -0.2116  0.6472  1.1250
 2962SOL     OW20344   3.331   0.513   2.017 -0.6755  0.6016  0.0615
 2962SOL    HW120345   3.348   0.529   1.924 -1.0456 -2.2695 -0.5201
 2962SOL    HW220346   3.270   0.440   2.004  0.6311 -0.4357 -0.2102
 2963SOL     OW20347   0.712   0.253  10.652 -0.6560 -0.0936 -0.5223
 2963SOL    HW120348   0.681   0.329  10.700  0.2217  1.2687 -2.0897
 2963SOL    HW220349   0.730   0.204  10.732 -0.2363  1.1672  0.1450
 2964SOL     OW20350   4.170   2.149   0.243 -0.1974  0.4355 -0.0165
 2964SOL    HW120351   4.169   2.059   0.211 -0.7577 -0.0037  1.2235
 2964SOL    HW220352   4.209   2.207   0.178 -0.3805 -0.6031 -1.0540
 2965SOL     OW20353   3.872   0.038   3.872 -0.4737  0.1171  0.8325
 2965SOL    HW120354   3.821   4.683   3.889 -2.4728  0.6862 -2.6396
 2965SOL    HW220355   3.810   0.105   3.901 -2.0817 -1.1101  0.2501
 2966SOL     OW20356   1.578   4.264   5.936  0.0973  0.9463 -0.1877
 2966SOL    HW120357   1.626   4.197   5.984  0.4701  0.6759 -0.9422
 2966SOL    HW220358   1.568   4.223   5.850  1.3810  0.1610  0.0445
 2967SOL     OW20359   4.587   4.662   4.207 -0.0885  0.3011 -0.1708
 2967SOL    HW120360   4.573   0.021   4.251 -2.3709 -0.4709  0.5312
 2967SOL    HW220361   4.582   4.688   4.115  0.4439 -0.8485 -0.5293
 2968SOL     OW20362   3.431   1.692   3.059 -0.1106 -0.4602 -0.4451
 2968SOL    HW120363   3.367   1.622   3.043 -1.1835 -0.1348  2.4189
 2968SOL    HW220364   3.458   1.677   3.150 -0.7173 -3.1274 -0.6936
 2969SOL     OW20365   1.408   2.195   8.435 -0.1300  0.2887 -0.2641
 2969SOL    HW120366   1.344   2.253   8.475  1.5770  1.7605  0.2919
 2969SOL    HW220367   1.354   2.119   8.457 -0.2965  0.4204 -0.2169
 2970SOL     OW20368   3.737   1.359   7.712  0.0791  0.2173 -0.1353
 2970SOL    HW120369   3.779   1.425   7.767 -0.4432  1.5545 -1.3424
 2970SOL    HW220370   3.702   1.414   7.642 -1.0304  0.4948  0.6394
 2971SOL     OW20371   0.637   0.828  13.180 -0.2064 -0.1105 -0.1957
 2971SOL    HW120372   0.607   0.745  13.143 -0.1967 -0.1187 -0.1851
 2971SOL    HW220373   0.578   0.890  13.137  0.7228  0.6915 -0.3097
 2972SOL     OW20374   3.212   0.282   4.710 -0.0660 -0.8392  0.1171
 2972SOL    HW120375   3.143   0.218   4.693 -1.4146  0.0758  2.1590
 2972SOL    HW220376   3.284   0.219   4.700 -0.3837 -1.1871  0.0014
 2973SOL     OW20377   1.774   1.827   7.187 -0.2864  0.0181 -0.1824
 2973SOL    HW120378   1.778   1.918   7.158  0.1681  0.6519  1.8277
 2973SOL    HW220379   1.860   1.786   7.175 -1.4422 -2.6533  0.5564
 2974SOL     OW20380   3.646   0.330   4.725  0.2545 -0.3109 -0.2534
 2974SOL    HW120381   3.598   0.268   4.780 -1.7567  0.6775 -0.8913
 2974SOL    HW220382   3.723   0.279   4.699  1.0509  0.8617 -0.1805
 2975SOL     OW20383   3.808   4.552   3.108 -0.4478 -0.5622 -0.0010
 2975SOL    HW120384   3.795   4.542   3.014 -0.6748  1.2373 -0.1531
 2975SOL    HW220385   3.812   4.462   3.142 -0.7369 -0.2969  0.7514
 2976SOL     OW20386   2.438   1.604   7.189 -0.3935  0.0416 -0.3305
 2976SOL    HW120387   2.394   1.520   7.178  0.8331 -0.8795  1.7283
 2976SOL    HW220388   2.393   1.641   7.266 -0.1194  1.9348 -1.0886
 2977SOL     OW20389   0.132   4.111   6.632 -0.4118 -0.4908 -0.6279
 2977SOL    HW120390   0.071   4.151   6.571 -0.5322  1.0992  0.5384
 2977SOL    HW220391   0.209   4.107   6.575  0.7738 -0.1009  0.9590
 2978SOL     OW20392   0.033   1.593   3.550 -0.1322 -0.2037 -0.1310
 2978SOL    HW120393   0.038   1.517   3.493  2.3036 -0.3819  0.3368
 2978SOL    HW220394   4.698   1.648   3.498  1.6590 -0.6663 -2.6069
 2979SOL     OW20395   2.403   2.202   2.181  0.0425  0.0815 -0.0220
 2979SOL    HW120396   2.447   2.272   2.229 -0.8952  0.1685  0.7111
 2979SOL    HW220397   2.456   2.199   2.102 -1.0188  0.5264 -0.7504
 2980SOL     OW20398   0.489   1.972  11.661 -0.7322 -0.2285 -0.2145
 2980SOL    HW120399   0.542   1.917  11.602 -1.4066 -1.3151  0.1941
 2980SOL    HW220400   0.559   2.030  11.692 -1.0161 -0.2930  0.5427
 2981SOL     OW20401   0.954   4.437  12.803 -0.1306  0.2223  1.0178
 2981SOL    HW120402   0.969   4.446  12.897  0.5831 -0.3551  0.9570
 2981SOL    HW220403   0.994   4.517  12.769 -2.7300  1.3165  0.5040
 2982SOL     OW20404   3.672   1.523  11.923 -0.1152 -0.2216  0.1914
 2982SOL    HW120405   3.744   1.528  11.860  0.7607 -2.0842  1.0542
 2982SOL    HW220406   3.717   1.477  11.993 -1.0234 -0.4297  0.6331
 2983SOL     OW20407   2.482   1.507   6.310  0.3452 -0.1846 -0.5389
 2983SOL    HW120408   2.467   1.598   6.287  0.3249 -0.5657 -2.0424
 2983SOL    HW220409   2.439   1.460   6.238  0.6524 -0.0892 -0.7886
 2984SOL     OW20410   2.539   1.828   8.473 -0.2725 -0.1384  0.1814
 2984SOL    HW120411   2.592   1.800   8.547 -2.3442  1.8310  2.4226
 2984SOL    HW220412   2.462   1.872   8.509 -0.6628  0.5301 -1.4660
 2985SOL     OW20413   3.652   2.867   8.733  0.3603  0.2299  0.1406
 2985SOL    HW120414   3.650   2.959   8.758 -0.7338  0.6386 -1.5060
 2985SOL    HW220415   3.744   2.845   8.719  0.3465  0.6797 -0.6815
 2986SOL     OW20416   3.582   2.054   9.148 -0.0838  0.1540  0.2291
 2986SOL    HW120417   3.635   2.106   9.210  0.7720  2.9347 -2.8067
 2986SOL    HW220418   3.597   1.973   9.195 -0.9698 -0.3077 -0.2868
 2987SOL     OW20419   2.694   3.361  10.645  0.1263 -0.0840 -0.5833
 2987SOL    HW120420   2.747   3.284  10.625  0.9567  0.6629 -1.3050
 2987SOL    HW220421   2.760   3.428  10.626  1.2849 -1.0489  0.0195
 2988SOL     OW20422   1.640   0.379  12.771 -0.4745 -0.3799  0.7617
 2988SOL    HW120423   1.690   0.301  12.744  0.0710  0.5744 -1.0328
 2988SOL    HW220424   1.680   0.449  12.720 -0.5357  0.1741  1.4831
 2989SOL     OW20425   0.672   4.214   3.273 -0.3055 -0.0747  0.0673
 2989SOL    HW120426   0.706   4.149   3.211 -0.0359  0.2056 -0.0789
 2989SOL    HW220427   0.728   4.201   3.349  1.6147  3.8652 -0.7058
 2990SOL     OW20428   2.947   3.818   1.470  0.4559  0.3231  0.1384
 2990SOL    HW120429   2.922   3.726   1.464  2.4588 -0.1095 -1.6770
 2990SOL    HW220430   3.030   3.813   1.422  0.6777 -0.6506  0.6321
 2991SOL     OW20431   3.149   3.418  13.842  0.3274  0.7683  0.3446
 2991SOL    HW120432   3.083   3.386  13.780  0.0320  1.1048  0.4878
 2991SOL    HW220433   3.193   3.490  13.797  0.6010  0.9722  0.9449
 2992SOL     OW20434   2.513   2.943   5.945  0.6621  0.2753  0.3229
 2992SOL    HW120435   2.462   2.918   5.868  0.4260  0.2358  0.4919
 2992SOL    HW220436   2.523   2.854   5.980  0.7183  0.4291  0.7061
 2993SOL     OW20437   0.515   4.280  12.798 -0.5653  0.4101 -0.1924
 2993SOL    HW120438   0.424   4.267  12.772 -0.4152  1.3900 -1.1966
 2993SOL    HW220439   0.499   4.326  12.881  0.3786 -1.1361  0.8679
 2994SOL     OW20440   1.842   1.134  11.797 -0.4998 -0.0653  0.1072
 2994SOL    HW120441   1.936   1.115  11.790 -0.0357  2.7988 -1.5223
 2994SOL    HW220442   1.822   1.144  11.704 -1.7928  0.0133  0.3953
 2995SOL     OW20443   0.502   0.085   9.019  0.0193  0.4112  0.5209
 2995SOL    HW120444   0.578   0.106   9.073  1.6163 -4.0256 -0.0093
 2995SOL    HW220445   0.433   0.148   9.038 -0.0168  0.1516  1.2485
 2996SOL     OW20446   4.384   1.047   2.777  0.6998  0.1899  0.2360
 2996SOL    HW120447   4.404   1.014   2.864 -0.0541 -1.6372 -0.2653
 2996SOL    HW220448   4.320   0.981   2.751  0.6763  0.0817  0.5740
 2997SOL     OW20449   3.174   1.395  14.227 -0.2603  0.1041  0.3061
 2997SOL    HW120450   3.213   1.480  14.249  0.6284 -0.5430  1.2611
 2997SOL    HW220451   3.149   1.412  14.137  2.3045 -1.2535 -0.6747
 2998SOL     OW20452   0.013   0.849   1.670 -0.0893 -0.0221  0.0850
 2998SOL    HW120453   4.653   0.846   1.624 -0.6926  1.9394  1.0587
 2998SOL    HW220454   0.059   0.773   1.635 -0.0316  0.2382 -0.3974
 2999SOL     OW20455   0.652   0.146   5.943  0.0319 -0.0746 -0.0739
 2999SOL    HW120456   0.691   0.223   5.985 -0.8166  0.2133  0.1842
 2999SOL    HW220457   0.604   0.177   5.866 -0.2864 -1.2971 -0.3673
 3000SOL     OW20458   0.498   3.104  10.314 -0.7480  0.5339  0.0971
 3000SOL    HW120459   0.515   3.110  10.220 -2.8841 -0.6626 -0.3815
 3000SOL    HW220460   0.403   3.093  10.312 -0.6036 -0.4386 -1.4183
 3001SOL     OW20461   2.564   4.395   4.601  0.4452 -0.1487 -0.4546
 3001SOL    HW120462   2.655   4.369   4.611  0.7483  0.5669 -1.4019
 3001SOL    HW220463   2.528   4.330   4.663 -0.8528 -1.7090 -2.8405
 3002SOL     OW20464   0.913   3.968  15.386  0.6057 -0.9059 -0.5269
 3002SOL    HW120465   0.844   3.903  15.398 -0.3278  0.6469  2.3381
 3002SOL    HW220466   0.957   3.962  15.470 -0.7415  0.2500  0.2636
 3003SOL     OW20467   1.569   4.232   8.232 -0.0368 -0.5492  0.2211
 3003SOL    HW120468   1.520   4.273   8.303  0.5038  1.7198 -0.7155
 3003SOL    HW220469   1.648   4.208   8.282 -0.6427 -3.5233 -0.2983
 3004SOL     OW20470   1.541   1.727   7.206 -0.3720 -0.1159  0.3454
 3004SOL    HW120471   1.631   1.757   7.193  0.9127 -3.8444  0.5166
 3004SOL    HW220472   1.500   1.808   7.176  0.7419  0.3974  0.2258
 3005SOL     OW20473   4.420   1.744  16.979 -0.4901 -0.9538  0.2382
 3005SOL    HW120474   4.421   1.678  16.910  0.8111 -0.7714  0.0890
 3005SOL    HW220475   4.348   1.722  17.038  0.5475  0.0735  1.8825
 3006SOL     OW20476   4.700   0.794   5.634  0.2371 -0.5314 -0.9046
 3006SOL    HW120477   0.048   0.787   5.696 -0.6615 -0.4013  0.1443
 3006SOL    HW220478   4.654   0.712   5.648  1.2514 -1.2955 -2.0740
 3007SOL     OW20479   3.927   3.733   7.441 -0.6843 -0.3277  0.4283
 3007SOL    HW120480   3.866   3.743   7.368  1.6370 -1.9098 -1.7259
 3007SOL    HW220481   3.965   3.821   7.447 -2.8082  0.6714 -0.8723
 3008SOL     OW20482   2.037   0.861  16.577 -0.5452  0.7778  0.5193
 3008SOL    HW120483   1.958   0.909  16.555 -0.5870  0.0407 -0.9816
 3008SOL    HW220484   2.082   0.861  16.492 -0.3616  2.1987  0.6253
 3009SOL     OW20485   1.847   1.256   5.650  0.2374 -0.3996 -0.0325
 3009SOL    HW120486   1.817   1.165   5.654 -1.3484  0.0744 -1.0298
 3009SOL    HW220487   1.926   1.251   5.704 -0.7638  0.1541  1.4559
 3010SOL     OW20488   2.519   3.126  14.634 -0.4157  0.1981 -0.5522
 3010SOL    HW120489   2.487   3.085  14.554  0.7517 -1.6972 -0.0436
 3010SOL    HW220490   2.441   3.116  14.689 -0.1148  0.2342 -0.1208
 3011SOL     OW20491   1.986   4.469   2.350 -0.0052  0.8055  0.0617
 3011SOL    HW120492   1.984   4.484   2.444  0.2353  3.0871 -0.2761
 3011SOL    HW220493   2.079   4.446   2.344  0.0436  0.9247  0.3507
 3012SOL     OW20494   0.420   4.043   9.253  0.2671  0.3615  0.1458
 3012SOL    HW120495   0.493   3.981   9.265  0.9334  0.8321 -1.4732
 3012SOL    HW220496   0.371   4.013   9.177  0.1538  0.7311  0.0743
 3013SOL     OW20497   0.434   1.827   2.415  0.5033 -0.1309  0.2622
 3013SOL    HW120498   0.408   1.829   2.322  0.5361  0.1188  0.2598
 3013SOL    HW220499   0.386   1.906   2.441  0.0067 -0.1316 -0.6183
 3014SOL     OW20500   0.900   4.694   4.918 -0.1510  0.5283 -0.0245
 3014SOL    HW120501   0.824   4.672   4.866  1.1745 -1.4129 -1.1362
 3014SOL    HW220502   0.967   4.641   4.875  1.8531  1.3198  2.0992
 3015SOL     OW20503   2.143   1.759   3.728 -0.2932 -0.2306 -0.8659
 3015SOL    HW120504   2.197   1.820   3.677  1.2173 -0.4547  0.4353
 3015SOL    HW220505   2.054   1.769   3.695  0.4700  0.3421 -2.7310
 3016SOL     OW20506   2.088   0.649   4.662  0.1090 -0.7134  0.6336
 3016SOL    HW120507   2.049   0.565   4.635 -1.9339  0.4263  0.0650
 3016SOL    HW220508   2.140   0.614   4.734 -0.5008  1.3540  2.0683
 3017SOL     OW20509   0.979   1.585   9.612 -0.4381  0.2028  0.2256
 3017SOL    HW120510   0.888   1.614   9.618 -0.1883  0.9032  0.6245
 3017SOL    HW220511   0.972   1.495   9.645 -0.5977 -0.1570 -0.7947
 3018SOL     OW20512   2.239   3.202   3.639 -0.2233 -0.1218 -0.2347
 3018SOL    HW120513   2.224   3.284   3.687  0.9349 -1.4731  2.3994
 3018SOL    HW220514   2.321   3.223   3.593 -1.6661 -0.8564 -3.1572
 3019SOL     OW20515   1.676   2.975   9.147 -0.4707  0.7691  0.2788
 3019SOL    HW120516   1.614   2.922   9.198 -1.6439 -0.2499 -2.2092
 3019SOL    HW220517   1.632   2.976   9.062 -1.6697  1.2664  0.9047
 3020SOL     OW20518   0.557   2.072   3.501  0.4764 -0.1569  0.0904
 3020SOL    HW120519   0.480   2.092   3.448  1.3915  0.3137 -1.0549
 3020SOL    HW220520   0.577   1.982   3.476  0.3518 -0.2470  0.3175
 3021SOL     OW20521   0.916   2.063   8.488 -0.0454  0.2589  0.7088
 3021SOL    HW120522   0.857   2.131   8.519 -1.3798  0.0290 -1.3208
 3021SOL    HW220523   0.870   1.981   8.504  0.3032  0.1395  1.1000
 3022SOL     OW20524   2.860   1.965   3.385 -0.0686  0.3685 -0.1484
 3022SOL    HW120525   2.780   1.998   3.425 -0.6363  0.1515 -1.1088
 3022SOL    HW220526   2.893   2.054   3.371  0.4741  0.1669 -0.1448
 3023SOL     OW20527   0.643   1.838   3.388  0.6256  0.0365 -0.2436
 3023SOL    HW120528   0.597   1.755   3.403  2.7177 -0.6889  1.9723
 3023SOL    HW220529   0.715   1.799   3.338  2.9921  0.4042  2.9134
 3024SOL     OW20530   3.592   2.016  16.438  0.5007  0.4555  0.0906
 3024SOL    HW120531   3.516   2.066  16.409 -0.3332 -0.2172  1.1115
 3024SOL    HW220532   3.661   2.082  16.446 -0.2953  1.2096  0.6675
 3025SOL     OW20533   4.079   2.225   5.098  0.6022 -0.1663  0.0326
 3025SOL    HW120534   4.160   2.254   5.056 -0.0830  1.6674 -0.0268
 3025SOL    HW220535   4.072   2.268   5.183  1.6691 -0.3593  0.2093
 3026SOL     OW20536   1.710   1.368  17.620 -0.2907 -0.0242 -0.0499
 3026SOL    HW120537   1.647   1.386  17.690  1.2491  0.8449  1.1093
 3026SOL    HW220538   1.704   1.441  17.559  2.1038  0.0174 -0.2412
 3027SOL     OW20539   4.485   1.700   2.193 -0.3921 -0.3351 -0.0232
 3027SOL    HW120540   4.458   1.643   2.121 -1.6184  1.4668 -1.0258
 3027SOL    HW220541   4.579   1.697   2.177 -0.3570  2.4075 -0.4876
 3028SOL     OW20542   0.581   3.559   8.735  0.1289  0.0214  0.3780
 3028SOL    HW120543   0.599   3.499   8.808  1.1676  0.2849  0.3360
 3028SOL    HW220544   0.485   3.565   8.731  0.2390  1.0701 -0.6306
 3029SOL     OW20545   2.758   3.586  15.013 -0.0219 -0.3608  0.4253
 3029SOL    HW120546   2.763   3.676  14.980  0.6118 -0.3056  0.6690
 3029SOL    HW220547   2.851   3.575  15.032  0.4329  1.4994 -0.7377
 3030SOL     OW20548   3.499   1.222   7.660 -0.5848 -0.8879 -0.1594
 3030SOL    HW120549   3.571   1.281   7.683 -1.9453  0.4245  0.7364
 3030SOL    HW220550   3.491   1.237   7.566  2.1703 -0.7514 -0.3875
 3031SOL     OW20551   2.270   2.715   3.621 -0.2414 -0.1050  0.3058
 3031SOL    HW120552   2.320   2.795   3.637  0.7451 -0.8301  0.8973
 3031SOL    HW220553   2.230   2.743   3.538  0.6763  0.7330  0.1454
 3032SOL     OW20554   2.499   2.889   7.706 -0.0131 -0.1297 -0.2598
 3032SOL    HW120555   2.575   2.927   7.662  1.7462  1.3453  3.9889
 3032SOL    HW220556   2.541   2.861   7.788 -1.1954 -2.3865 -0.4407
 3033SOL     OW20557   1.971   1.306   5.151 -0.3346 -0.0471 -0.0670
 3033SOL    HW120558   1.886   1.341   5.123  0.5053  0.0304 -2.4685
 3033SOL    HW220559   1.989   1.326   5.243  1.3135 -0.5876 -0.2828
 3034SOL     OW20560   0.577   2.081   7.119  0.1011 -0.0079  0.7871
 3034SOL    HW120561   0.483   2.094   7.104  0.4251 -1.2494 -2.5116
 3034SOL    HW220562   0.587   1.987   7.100  4.6397  0.5468  0.3426
 3035SOL     OW20563   0.182   4.329   5.185  0.8745 -0.0764 -0.2053
 3035SOL    HW120564   0.143   4.338   5.098 -2.8653 -0.1666  1.4476
 3035SOL    HW220565   0.186   4.235   5.199 -1.1979  0.2245  2.3405
 3036SOL     OW20566   2.396   1.061   9.603 -0.0049 -0.1130  0.2422
 3036SOL    HW120567   2.439   1.140   9.570 -2.3765  0.3879 -1.6482
 3036SOL    HW220568   2.384   1.007   9.526 -1.3341 -1.0388  1.1014
 3037SOL     OW20569   0.966   2.998   4.262  0.4328  0.2670  0.3143
 3037SOL    HW120570   0.900   3.066   4.268  0.3057  0.3434 -1.8133
 3037SOL    HW220571   0.934   2.939   4.330 -0.8942 -0.7223 -1.1750
 3038SOL     OW20572   3.117   2.893  10.961  0.3673 -0.2305 -0.1772
 3038SOL    HW120573   3.065   2.829  11.008 -2.5561  1.5735 -0.9378
 3038SOL    HW220574   3.143   2.949  11.034 -0.7608 -0.3684  0.3186
 3039SOL     OW20575   2.098   0.513  16.984 -0.2872  0.4155 -0.1545
 3039SOL    HW120576   2.076   0.441  16.925  0.6642  1.7590 -2.1497
 3039SOL    HW220577   2.072   0.468  17.064  0.3975  2.7623  1.3696
 3040SOL     OW20578   4.030   0.260   2.361 -0.1568 -0.4526 -0.5222
 3040SOL    HW120579   3.951   0.296   2.320 -0.1224  2.1932  1.7765
 3040SOL    HW220580   4.046   0.306   2.443 -1.3586  0.1504 -0.6176
 3041SOL     OW20581   1.108   1.802   5.384 -0.0673  0.7626 -0.0527
 3041SOL    HW120582   1.149   1.727   5.340  0.8719  0.9438  0.5104
 3041SOL    HW220583   1.175   1.836   5.443  0.1009  0.0710  0.1533
 3042SOL     OW20584   2.417   0.531   3.411 -0.2156 -0.3231  0.2670
 3042SOL    HW120585   2.352   0.538   3.481  0.3982 -1.2600  0.9338
 3042SOL    HW220586   2.500   0.518   3.457  0.2290  1.0684 -0.1641
 3043SOL     OW20587   3.517   3.762   1.844 -0.2769 -0.0883  0.3034
 3043SOL    HW120588   3.558   3.695   1.788 -0.0251  1.3321 -1.2066
 3043SOL    HW220589   3.431   3.776   1.804  0.4521 -0.0902 -1.2920
 3044SOL     OW20590   1.206   1.583   3.001 -0.4977  0.4892 -0.3350
 3044SOL    HW120591   1.123   1.621   2.972  0.5384  0.1790 -3.7190
 3044SOL    HW220592   1.180   1.565   3.091 -1.6566  0.3617 -0.6920
 3045SOL     OW20593   4.023   0.917   5.768 -0.2728  0.7415 -0.7414
 3045SOL    HW120594   4.041   0.879   5.854 -1.2068 -0.3362 -1.0139
 3045SOL    HW220595   4.013   0.840   5.711  0.1156  0.6265 -0.6535
 3046SOL     OW20596   4.175   2.968  11.721 -0.4688 -0.1431  0.1188
 3046SOL    HW120597   4.140   2.945  11.808 -0.2203 -0.6961  0.0673
 3046SOL    HW220598   4.171   2.888  11.669 -3.7279  0.5291 -0.6943
 3047SOL     OW20599   3.182   4.028   1.807 -0.4414 -0.0621 -0.3280
 3047SOL    HW120600   3.183   3.978   1.726  2.9477  1.1202 -1.0100
 3047SOL    HW220601   3.259   4.080   1.785 -1.7214  1.3987 -1.4133
 3048SOL     OW20602   4.475   0.560   4.188 -0.1873  0.2483  0.4575
 3048SOL    HW120603   4.525   0.552   4.270 -1.5666  2.1233  1.4803
 3048SOL    HW220604   4.394   0.519   4.218 -0.4859 -0.1283 -0.8583
 3049SOL     OW20605   4.088   4.491   2.858 -0.4064 -0.1612 -0.2695
 3049SOL    HW120606   4.170   4.475   2.812 -0.3340 -0.0434 -0.1817
 3049SOL    HW220607   4.028   4.518   2.788 -1.8429 -0.1540  0.9615
 3050SOL     OW20608   0.271   1.916  14.117  0.6927  0.1001 -0.0922
 3050SOL    HW120609   0.212   1.962  14.058  0.3629  1.0818  0.9949
 3050SOL    HW220610   0.198   1.881  14.169  0.1794 -0.6460 -1.3257
 3051SOL     OW20611   0.669   4.451  17.028 -0.6662 -0.5133  0.1122
 3051SOL    HW120612   0.633   4.364  17.048  0.6732 -1.5366 -1.9523
 3051SOL    HW220613   0.590   4.506  17.023  0.8322  1.9124  3.5028
 3052SOL     OW20614   0.094   1.033   6.399 -0.3977  0.2230 -0.0414
 3052SOL    HW120615   0.110   0.940   6.415 -1.0305 -0.1272 -1.4795
 3052SOL    HW220616   0.007   1.028   6.359 -0.3604  0.4878 -0.1587
 3053SOL     OW20617   3.858   1.845   2.692  0.7044 -0.1728 -0.0841
 3053SOL    HW120618   3.835   1.931   2.656  1.7975  0.1477 -0.0172
 3053SOL    HW220619   3.916   1.807   2.627 -1.5240 -2.9022 -0.4757
 3054SOL     OW20620   1.587   2.621   7.919  0.4739  0.0809 -0.2177
 3054SOL    HW120621   1.496   2.635   7.946  0.1376 -1.5218 -0.5325
 3054SOL    HW220622   1.610   2.540   7.965 -0.8150 -0.1443  0.0183
 3055SOL     OW20623   2.651   1.589  16.173 -0.2825 -0.2661 -0.2315
 3055SOL    HW120624   2.728   1.593  16.116  2.0133  1.2570  2.9775
 3055SOL    HW220625   2.698   1.523  16.224  1.4822 -0.1292 -1.6539
 3056SOL     OW20626   4.362   1.339   2.042 -0.0500  0.0950  0.1249
 3056SOL    HW120627   4.302   1.323   2.115 -0.9835 -0.5606 -0.7943
 3056SOL    HW220628   4.449   1.329   2.081 -0.1219  1.8435  0.7129
 3057SOL     OW20629   3.988   0.383   7.961  0.3849 -0.0779 -0.3315
 3057SOL    HW120630   4.041   0.390   7.881 -0.3666  0.0097 -0.8172
 3057SOL    HW220631   4.054   0.389   8.030 -0.2259  1.6239  0.1122
 3058SOL     OW20632   0.989   2.511   7.872  0.3611  0.7262 -0.0105
 3058SOL    HW120633   1.020   2.586   7.821  2.9073  1.3635  2.4391
 3058SOL    HW220634   0.986   2.445   7.803 -1.0084  0.1365  0.6215
 3059SOL     OW20635   1.682   1.792  11.213 -0.0732  0.3689 -0.3359
 3059SOL    HW120636   1.739   1.763  11.142 -0.1424 -0.3285 -0.1099
 3059SOL    HW220637   1.733   1.866  11.246 -0.7386  1.8121 -2.5458
 3060SOL     OW20638   2.994   2.458  14.265  0.1402 -0.4313  0.2954
 3060SOL    HW120639   3.013   2.426  14.176  2.1655 -0.0500  0.5943
 3060SOL    HW220640   2.908   2.490  14.237  0.2616 -0.8229 -0.5473
 3061SOL     OW20641   3.460   0.110   5.569 -0.6426 -0.3165 -0.3812
 3061SOL    HW120642   3.473   0.017   5.592 -0.2720 -0.1345  0.1612
 3061SOL    HW220643   3.475   0.151   5.654 -1.1300  0.5773 -0.7343
 3062SOL     OW20644   4.618   4.117   5.818 -0.3649  0.4126  0.5059
 3062SOL    HW120645   4.591   4.028   5.839  3.4965 -0.3575  2.2202
 3062SOL    HW220646   4.681   4.090   5.751  1.0498  0.2685  1.9035
 3063SOL     OW20647   1.126   3.927   4.104 -0.0027 -0.1215  0.4656
 3063SOL    HW120648   1.137   3.980   4.025 -1.8047 -2.0238 -1.0556
 3063SOL    HW220649   1.212   3.885   4.112 -0.0952 -0.3069  0.4949
 3064SOL     OW20650   4.715   2.474  16.868 -0.0149  0.3040 -0.4806
 3064SOL    HW120651   4.645   2.440  16.813  0.2748 -0.7915 -0.1818
 3064SOL    HW220652   0.048   2.397  16.860 -1.3912 -0.7104 -0.4162
 3065SOL     OW20653   1.331   4.486  11.568 -0.4091  0.3357 -0.4404
 3065SOL    HW120654   1.300   4.457  11.482 -1.3039  2.5510 -0.8726
 3065SOL    HW220655   1.314   4.415  11.630  0.8104  0.4038 -0.0409
 3066SOL     OW20656   0.885   2.625   1.324  0.2349  0.0181  0.1748
 3066SOL    HW120657   0.888   2.709   1.369  0.3549 -0.0305  0.2565
 3066SOL    HW220658   0.809   2.586   1.366  0.8315  0.1817  1.3940
 3067SOL     OW20659   4.189   2.927   7.469  0.3361  0.5653 -0.5784
 3067SOL    HW120660   4.121   2.968   7.523 -0.2607  1.0818 -1.7284
 3067SOL    HW220661   4.191   3.005   7.414  1.3621  0.8452 -0.1448
 3068SOL     OW20662   3.987   3.213   5.987 -0.3479  0.3835  0.0235
 3068SOL    HW120663   4.073   3.188   5.954  0.3865  1.3623  1.1777
 3068SOL    HW220664   3.955   3.129   6.021  0.9628  0.2299  0.9039
 3069SOL     OW20665   2.173   4.686   5.238  0.1917  0.5535 -0.2663
 3069SOL    HW120666   2.129   4.610   5.275 -2.5220  2.6965  0.8045
 3069SOL    HW220667   2.110   0.008   5.184  0.0315  2.0900  1.2591
 3070SOL     OW20668   4.178   3.373  10.089 -0.4198 -0.0713  0.1764
 3070SOL    HW120669   4.262   3.411  10.066 -0.2078  0.2036  1.3958
 3070SOL    HW220670   4.204   3.282  10.100 -1.0554 -0.4526 -1.4563
 3071SOL     OW20671   4.602   2.626   8.676  0.2458  0.1112 -0.0811
 3071SOL    HW120672   4.532   2.691   8.683 -0.3062 -0.4137 -0.7362
 3071SOL    HW220673   4.551   2.563   8.727 -1.5324  1.0149 -0.7167
 3072SOL     OW20674   4.403   1.418  16.562 -0.5982  0.0427 -0.2069
 3072SOL    HW120675   4.418   1.414  16.468 -0.9759 -1.3912 -0.2106
 3072SOL    HW220676   4.418   1.326  16.588  0.6034  0.8241  1.9205
 3073SOL     OW20677   3.579   4.005  12.978  0.1353 -0.0770 -0.2678
 3073SOL    HW120678   3.551   3.923  13.020 -1.1244  0.2866 -0.3993
 3073SOL    HW220679   3.627   4.058  13.041  0.9941  0.4790 -1.3993
 3074SOL     OW20680   4.105   1.734  12.857 -0.1019  0.4336  0.3782
 3074SOL    HW120681   4.201   1.740  12.858 -0.0220 -0.8121 -0.8163
 3074SOL    HW220682   4.077   1.809  12.910  1.8777  2.2387 -1.1063
 3075SOL     OW20683   1.624   4.150   3.442 -0.0972 -0.1424 -0.0015
 3075SOL    HW120684   1.660   4.148   3.530 -0.7041  1.0084  0.2777
 3075SOL    HW220685   1.610   4.058   3.420 -1.4603  0.4479 -1.5830
 3076SOL     OW20686   2.292   2.101   6.474  0.0438  0.4809 -0.0371
 3076SOL    HW120687   2.242   2.173   6.512  0.3079 -0.3565  1.8939
 3076SOL    HW220688   2.242   2.026   6.506  1.2523  0.1046  0.9783
 3077SOL     OW20689   1.689   0.831   4.849  0.3914 -0.2772 -0.6230
 3077SOL    HW120690   1.620   0.886   4.885  0.8997  0.1263 -0.2747
 3077SOL    HW220691   1.732   0.886   4.783  1.3419 -2.4667 -1.8652
 3078SOL     OW20692   1.410   3.869  17.559 -0.3583 -0.3156  0.5402
 3078SOL    HW120693   1.436   3.910  17.477 -3.9981  0.7493 -0.1134
 3078SOL    HW220694   1.390   3.940  17.621  0.2090  1.2802 -1.1284
 3079SOL     OW20695   2.146   4.541  11.210 -0.9796 -0.6517 -0.1214
 3079SOL    HW120696   2.154   4.546  11.305 -0.9040  1.2297 -0.2337
 3079SOL    HW220697   2.065   4.586  11.187  0.0403 -0.2779 -2.9721
 3080SOL     OW20698   1.615   2.605  12.889  0.1570 -0.1282 -0.0964
 3080SOL    HW120699   1.697   2.568  12.857 -0.7525 -1.9358 -0.3124
 3080SOL    HW220700   1.604   2.687  12.842  2.2632  0.4384  0.3605
 3081SOL     OW20701   4.065   0.411   6.968 -0.0621 -0.1631 -0.0442
 3081SOL    HW120702   4.022   0.328   6.991 -2.3662  0.9110 -0.4084
 3081SOL    HW220703   3.987   0.467   6.967 -0.4600 -0.7383 -0.6460
 3082SOL     OW20704   2.412   2.669  12.175  0.0834 -0.3013 -0.3781
 3082SOL    HW120705   2.360   2.618  12.237  0.6190 -2.4919 -1.7273
 3082SOL    HW220706   2.347   2.682  12.106  0.0360 -0.8014 -0.4309
 3083SOL     OW20707   1.300   0.541  12.722 -0.2174 -0.3657  0.7971
 3083SOL    HW120708   1.264   0.630  12.726 -0.9246 -0.5022 -1.9082
 3083SOL    HW220709   1.344   0.543  12.637 -0.2797 -2.8287  0.7079
 3084SOL     OW20710   0.778   3.126   9.470 -0.9229 -0.0971  0.4348
 3084SOL    HW120711   0.698   3.158   9.511  0.4661 -0.5672  3.5424
 3084SOL    HW220712   0.791   3.183   9.394  2.0560  0.1610  1.1504
 3085SOL     OW20713   4.295   3.592   9.128 -0.3470  0.1970 -0.3168
 3085SOL    HW120714   4.200   3.602   9.136 -0.5803 -0.3756 -2.1519
 3085SOL    HW220715   4.317   3.520   9.186  0.1145  1.3713  0.9464
 3086SOL     OW20716   3.319   1.984   9.434  0.6514 -0.1446 -0.5513
 3086SOL    HW120717   3.402   1.978   9.387  1.2631 -0.6016  0.6073
 3086SOL    HW220718   3.268   1.912   9.397  1.3519 -0.4961 -0.8231
 3087SOL     OW20719   3.711   3.199   9.792 -0.1934  0.1600 -0.4684
 3087SOL    HW120720   3.683   3.290   9.802 -2.6294 -0.7260  0.8641
 3087SOL    HW220721   3.804   3.203   9.813 -0.1771  2.0854 -0.9109
 3088SOL     OW20722   2.181   4.545   8.315  0.5425  0.3556  0.3130
 3088SOL    HW120723   2.087   4.547   8.297  0.5944 -1.2281 -0.1062
 3088SOL    HW220724   2.211   4.610   8.251  0.8106 -1.8475 -1.7910
 3089SOL     OW20725   2.365   3.393   4.796  0.2757 -0.0120  0.1923
 3089SOL    HW120726   2.318   3.420   4.875  1.2826 -0.6273  1.0039
 3089SOL    HW220727   2.442   3.449   4.809 -0.0016  0.2057  0.8728
 3090SOL     OW20728   3.900   3.898  16.228  0.3733  0.1643  0.0814
 3090SOL    HW120729   3.809   3.894  16.258 -0.0367  1.4335 -0.9602
 3090SOL    HW220730   3.940   3.859  16.305  0.0633  0.9325  0.6271
 3091SOL     OW20731   0.144   1.956   3.637 -0.3445 -0.2947 -0.2055
 3091SOL    HW120732   0.124   1.869   3.670 -0.4555  0.3419  1.4128
 3091SOL    HW220733   0.237   1.964   3.656 -0.6695 -0.5491  1.4719
 3092SOL     OW20734   1.962   0.238  13.127  0.2831 -0.0342 -0.1901
 3092SOL    HW120735   1.891   0.276  13.076  0.0167 -0.3085 -0.0220
 3092SOL    HW220736   1.973   0.299  13.200 -1.2979  0.4709 -0.3729
 3093SOL     OW20737   1.243   1.498   9.234 -0.3647  0.2242  0.5215
 3093SOL    HW120738   1.189   1.445   9.293 -0.7226  0.0178  0.0039
 3093SOL    HW220739   1.282   1.436   9.173 -2.2678  0.0759 -0.5137
 3094SOL     OW20740   2.114   4.214   0.924 -0.2815  0.0672  0.0196
 3094SOL    HW120741   2.148   4.302   0.908 -2.4947  1.4873  3.0400
 3094SOL    HW220742   2.194   4.178   0.962  0.2791  1.4121  0.0767
 3095SOL     OW20743   3.574   2.495   0.989 -0.2888  0.1180  0.3234
 3095SOL    HW120744   3.576   2.400   0.987  4.5499  0.2107  0.9499
 3095SOL    HW220745   3.562   2.513   1.083 -0.6864  1.6709 -0.0202
 3096SOL     OW20746   2.170   0.770  13.300  0.5826 -0.4130  0.1705
 3096SOL    HW120747   2.099   0.719  13.260 -0.6697  0.2815  1.5053
 3096SOL    HW220748   2.240   0.763  13.235 -2.2680 -3.3132 -2.6261
 3097SOL     OW20749   4.375   1.205   0.713 -0.6640 -0.5837 -0.6350
 3097SOL    HW120750   4.353   1.152   0.637 -2.7331 -0.5629 -0.0520
 3097SOL    HW220751   4.469   1.222   0.712 -0.2485 -2.7380  0.7754
 3098SOL     OW20752   1.505   3.395   1.876  0.1008  0.3011  0.6967
 3098SOL    HW120753   1.497   3.423   1.785  3.0089  3.3267  1.3724
 3098SOL    HW220754   1.410   3.386   1.879 -0.1438  2.2724 -1.3406
 3099SOL     OW20755   0.921   0.593   0.050  0.6098 -0.1894  0.7053
 3099SOL    HW120756   0.941   0.516  17.694  1.1966  0.5058 -0.0903
 3099SOL    HW220757   0.984   0.656   0.014  0.0858 -1.0474 -1.6998
 3100SOL     OW20758   0.787   2.518   3.873 -0.1047 -0.2214  0.1196
 3100SOL    HW120759   0.750   2.525   3.961  0.6699 -1.1842  0.5283
 3100SOL    HW220760   0.826   2.430   3.882 -0.1365 -0.1682  0.7962
 3101SOL     OW20761   1.320   2.162   9.357  0.2713 -0.1576  0.0148
 3101SOL    HW120762   1.363   2.106   9.293 -1.8209 -1.1229 -0.5471
 3101SOL    HW220763   1.256   2.100   9.392  2.0903 -1.1774  1.5055
 3102SOL     OW20764   1.419   0.361  12.913  0.0336 -0.2684  0.4025
 3102SOL    HW120765   1.497   0.383  12.863 -0.4319 -0.9925 -0.6467
 3102SOL    HW220766   1.349   0.395  12.857  2.2050 -0.5012 -2.4703
 3103SOL     OW20767   4.514   4.623  12.102  0.5249 -0.1489  0.5231
 3103SOL    HW120768   4.573   4.697  12.083  0.0686  0.5597  1.8712
 3103SOL    HW220769   4.473   4.651  12.183 -1.9503  0.7428 -1.0279
 3104SOL     OW20770   2.893   1.928   4.537 -0.5393 -0.7421  0.7246
 3104SOL    HW120771   2.961   1.979   4.581 -1.4838 -0.1807  1.5361
 3104SOL    HW220772   2.922   1.838   4.549  1.3048 -0.1430  0.7424
 3105SOL     OW20773   0.907   0.675  16.799  0.6122  0.4795  0.1194
 3105SOL    HW120774   0.967   0.745  16.773  2.4461 -1.0614  0.1553
 3105SOL    HW220775   0.831   0.716  16.841 -1.1621 -1.2403 -1.4101
 3106SOL     OW20776   3.958   1.567   9.921  0.1678  0.1954  0.4331
 3106SOL    HW120777   4.001   1.610   9.995  2.8981 -1.5152 -0.1474
 3106SOL    HW220778   4.037   1.520   9.895 -1.2814 -0.3501 -2.9890
 3107SOL     OW20779   4.578   0.742   6.926 -0.8557 -0.4497  0.6127
 3107SOL    HW120780   4.660   0.792   6.929  0.0841 -2.0886  2.5003
 3107SOL    HW220781   4.617   0.655   6.929  2.7404  1.0387 -2.3994
 3108SOL     OW20782   3.793   2.741  15.827  0.1082  0.0221  0.3087
 3108SOL    HW120783   3.881   2.717  15.857  0.5866 -0.9406 -1.8973
 3108SOL    HW220784   3.802   2.730  15.732  1.5441  2.5853  0.1329
 3109SOL     OW20785   4.445   3.685   5.623 -0.3102 -0.5320 -0.1070
 3109SOL    HW120786   4.480   3.712   5.708  0.6254  1.0562 -0.9960
 3109SOL    HW220787   4.524   3.653   5.581  0.6004  1.4561  0.0990
 3110SOL     OW20788   0.093   1.143   5.789  0.1672 -0.3284  0.1895
 3110SOL    HW120789   0.013   1.187   5.815  0.0259  0.8463 -2.2275
 3110SOL    HW220790   0.079   1.102   5.704  0.9329  0.2306 -0.2078
 3111SOL     OW20791   0.513   4.543   8.648 -0.2636 -0.1345 -0.6062
 3111SOL    HW120792   0.499   4.544   8.743  2.9789 -0.5876 -0.1401
 3111SOL    HW220793   0.556   4.458   8.637  0.3513  0.1972 -0.7726
 3112SOL     OW20794   3.061   0.069   4.621 -0.2759  0.2613 -0.1984
 3112SOL    HW120795   3.040   4.699   4.625  0.3964  0.1168  0.0588
 3112SOL    HW220796   2.997   0.103   4.559  1.5982 -0.1474 -2.3523
 3113SOL     OW20797   2.713   3.782  13.110 -0.0288 -0.0534  0.0221
 3113SOL    HW120798   2.665   3.791  13.028  1.8859  0.6945 -1.0082
 3113SOL    HW220799   2.656   3.839  13.161  0.1499  0.0643  0.0897
 3114SOL     OW20800   2.846   0.603  17.314  0.0239  0.0215 -0.1064
 3114SOL    HW120801   2.751   0.605  17.311 -0.0876 -1.2486  2.2986
 3114SOL    HW220802   2.863   0.519  17.356  1.0786  0.4740  0.3930
 3115SOL     OW20803   2.473   2.226   7.383 -0.9433 -0.3862  0.0105
 3115SOL    HW120804   2.390   2.211   7.338 -0.3217 -1.5469 -0.7282
 3115SOL    HW220805   2.451   2.221   7.477 -0.8183  0.3820  0.0824
 3116SOL     OW20806   1.837   3.494  17.286 -0.4714  0.0363  0.0287
 3116SOL    HW120807   1.874   3.563  17.231  0.2229  0.3895  0.9362
 3116SOL    HW220808   1.881   3.505  17.371  1.5656  0.1173 -1.0369
 3117SOL     OW20809   3.769   1.344   6.741 -0.2382  0.3302  0.6678
 3117SOL    HW120810   3.751   1.265   6.792  2.5433 -1.2155 -0.7621
 3117SOL    HW220811   3.820   1.389   6.808 -1.7782  1.4051  1.1104
 3118SOL     OW20812   2.077   2.633  12.424 -0.0006  0.0348  0.7519
 3118SOL    HW120813   2.041   2.720  12.444 -2.6467 -0.7778 -0.4941
 3118SOL    HW220814   2.080   2.640  12.329  1.0610  1.3387  0.8823
 3119SOL     OW20815   0.726   2.877   4.022 -0.4374 -0.0690  0.3566
 3119SOL    HW120816   0.658   2.896   3.957 -1.9978 -1.3018  1.6132
 3119SOL    HW220817   0.774   2.960   4.024 -0.5087 -0.0440  0.9826
 3120SOL     OW20818   1.718   0.491   1.199 -0.4648 -0.1366 -0.2716
 3120SOL    HW120819   1.766   0.493   1.116  1.4262  1.4554  0.8540
 3120SOL    HW220820   1.625   0.495   1.179 -0.3329 -0.6558 -0.9898
 3121SOL     OW20821   2.151   0.500   8.084  0.4193  0.6808  0.6234
 3121SOL    HW120822   2.135   0.437   8.013  0.5671  2.0083 -0.6006
 3121SOL    HW220823   2.235   0.469   8.117  1.0092  1.9042  0.2714
 3122SOL     OW20824   0.902   2.518   8.602  0.3765 -0.2287  0.3349
 3122SOL    HW120825   0.932   2.488   8.688  0.2106  0.6520  0.6907
 3122SOL    HW220826   0.896   2.611   8.623 -1.7133 -0.2234 -0.2815
 3123SOL     OW20827   0.720   1.961   3.829 -0.8527 -0.1391  0.0441
 3123SOL    HW120828   0.691   2.052   3.833 -2.6500 -0.7740  1.8074
 3123SOL    HW220829   0.705   1.933   3.919 -0.6754  0.0944  0.1439
 3124SOL     OW20830   2.540   2.444  14.768 -0.0090  0.6464 -0.0702
 3124SOL    HW120831   2.471   2.394  14.813  0.3447 -1.3929 -1.7588
 3124SOL    HW220832   2.556   2.511  14.833  1.3167  0.5837 -0.3385
 3125SOL     OW20833   4.441   2.672   4.467  0.2794  0.1169  0.2387
 3125SOL    HW120834   4.493   2.591   4.468  1.3792  0.8228  0.7567
 3125SOL    HW220835   4.431   2.693   4.560  0.8127 -1.5907  0.6874
 3126SOL     OW20836   1.003   0.635  15.835  0.0767 -0.1943 -0.1906
 3126SOL    HW120837   1.078   0.615  15.779  0.7535 -0.0346  0.6546
 3126SOL    HW220838   0.945   0.688  15.780  0.0836 -0.9345 -0.9150
 3127SOL     OW20839   1.491   3.649   5.287  0.1032  0.3699 -0.4146
 3127SOL    HW120840   1.465   3.569   5.241 -0.3595 -0.7759  1.8349
 3127SOL    HW220841   1.569   3.678   5.240  1.4722 -0.9886  1.0608
 3128SOL     OW20842   2.645   3.210  10.079  0.0794 -0.1314  0.5359
 3128SOL    HW120843   2.663   3.200  10.173  2.6083  0.1183  0.0719
 3128SOL    HW220844   2.549   3.210  10.081  0.0676  0.8357 -0.1610
 3129SOL     OW20845   0.719   3.221   1.602 -0.1907  0.4557 -0.0660
 3129SOL    HW120846   0.678   3.163   1.667 -0.7974 -2.0840 -2.7073
 3129SOL    HW220847   0.749   3.289   1.662  0.6737 -0.0446  0.0771
 3130SOL     OW20848   3.327   3.983  13.182  0.5077  0.0537  0.2775
 3130SOL    HW120849   3.387   3.919  13.145  0.4939 -0.3401  0.9340
 3130SOL    HW220850   3.351   3.980  13.275 -0.2776 -1.0723  0.4455
 3131SOL     OW20851   4.665   0.502   7.541  0.2867 -0.3130  0.0774
 3131SOL    HW120852   4.648   0.475   7.451 -1.2289 -2.7104  1.0932
 3131SOL    HW220853   0.008   0.438   7.564  1.8296  2.4579  3.2564
 3132SOL     OW20854   2.967   2.428   8.541  0.2758 -0.2443  0.5213
 3132SOL    HW120855   3.003   2.458   8.458 -0.2006  1.8842  1.0715
 3132SOL    HW220856   2.936   2.503   8.592  1.0865 -0.3489  1.1641
 3133SOL     OW20857   3.143   3.121  13.390 -0.6156 -0.0050 -0.0014
 3133SOL    HW120858   3.128   3.206  13.349 -0.1392 -0.3520 -0.9028
 3133SOL    HW220859   3.070   3.067  13.359 -2.7310  1.9003  1.7560
 3134SOL     OW20860   0.812   4.699   2.384  0.4068 -0.1560 -0.1870
 3134SOL    HW120861   0.833   4.624   2.329 -1.1089 -0.4704 -0.3328
 3134SOL    HW220862   0.721   4.673   2.395  0.0896  0.5872 -0.9543
 3135SOL     OW20863   3.677   3.762  11.151  0.3018 -0.1574  0.1226
 3135SOL    HW120864   3.653   3.803  11.068 -2.1605 -1.1974  0.3075
 3135SOL    HW220865   3.772   3.751  11.144  0.0530 -1.7580 -0.9211
 3136SOL     OW20866   3.150   1.610   1.711  0.0463 -0.5368  0.2259
 3136SOL    HW120867   3.142   1.657   1.794  1.0965  0.3738 -0.1778
 3136SOL    HW220868   3.195   1.675   1.657 -0.2526 -0.7103 -0.2315
 3137SOL     OW20869   1.328   3.823   9.476  0.0706  0.0465 -0.1486
 3137SOL    HW120870   1.241   3.858   9.454  1.7016  3.7382 -0.6828
 3137SOL    HW220871   1.345   3.737   9.438 -2.6032 -0.4673 -0.1542
 3138SOL     OW20872   1.130   2.471   4.573 -0.2589  0.3193 -0.0666
 3138SOL    HW120873   1.042   2.490   4.605 -0.6442  0.0321 -0.9383
 3138SOL    HW220874   1.184   2.538   4.615  0.6396  1.5396 -3.1490
 3139SOL     OW20875   3.341   4.402  13.760  0.3403  0.1458  0.0617
 3139SOL    HW120876   3.418   4.426  13.709 -0.3128 -0.4671 -1.2217
 3139SOL    HW220877   3.400   4.379  13.832  1.1013 -0.3358 -0.7100
 3140SOL     OW20878   2.677   4.055   5.640  0.1622  0.6144 -0.1699
 3140SOL    HW120879   2.612   4.053   5.710  0.0222  0.7645 -0.2977
 3140SOL    HW220880   2.658   4.115   5.568 -0.2569  0.8840  0.1682
 3141SOL     OW20881   4.124   1.920   3.256  0.1972  0.0096  0.5497
 3141SOL    HW120882   4.071   1.950   3.330 -1.0009  0.3001 -0.4179
 3141SOL    HW220883   4.092   1.983   3.190 -1.6747 -2.3326 -0.7725
 3142SOL     OW20884   0.813   4.153   4.004  0.0373  0.1227  0.0976
 3142SOL    HW120885   0.765   4.236   4.011  0.4498  0.4188 -0.5573
 3142SOL    HW220886   0.816   4.128   4.096 -1.7463  2.5378  0.8221
 3143SOL     OW20887   3.642   0.268   5.095  0.0690  0.3039 -0.0457
 3143SOL    HW120888   3.581   0.328   5.052  2.6436  3.4511  0.6917
 3143SOL    HW220889   3.621   0.194   5.038 -1.7553  1.9329 -1.4893
 3144SOL     OW20890   3.747   0.197   0.275 -0.0139  0.0877  0.7609
 3144SOL    HW120891   3.733   0.287   0.248  1.3311 -0.8190 -2.8778
 3144SOL    HW220892   3.667   0.175   0.324 -0.9700  1.6356 -0.1160
 3145SOL     OW20893   0.058   1.203   5.335  0.1340 -0.2452 -0.2237
 3145SOL    HW120894   0.043   1.121   5.289  0.8578 -0.0490 -0.8133
 3145SOL    HW220895   0.147   1.227   5.309  0.0786  0.1302 -0.0790
 3146SOL     OW20896   4.105   4.538  16.386  0.2474 -0.0340  0.7117
 3146SOL    HW120897   4.043   4.566  16.454 -0.4801  2.2402 -0.9078
 3146SOL    HW220898   4.038   4.502  16.328  1.7894 -1.1055 -0.3701
 3147SOL     OW20899   1.709   0.659   6.110 -0.1504  0.1158  0.3134
 3147SOL    HW120900   1.675   0.657   6.021  1.5153  1.4553 -0.3580
 3147SOL    HW220901   1.791   0.610   6.100 -0.5200 -0.4712  0.1561
 3148SOL     OW20902   0.817   1.691   6.030  0.3828 -0.6169  0.0202
 3148SOL    HW120903   0.813   1.595   6.039 -1.8751 -0.2681  2.6378
 3148SOL    HW220904   0.803   1.719   6.120 -0.1269 -2.4947  0.5382
 3149SOL     OW20905   3.460   0.587   3.664 -0.2498  0.4410 -0.2839
 3149SOL    HW120906   3.495   0.563   3.750 -0.6084 -1.4402 -0.6656
 3149SOL    HW220907   3.373   0.614   3.692 -0.5210 -1.8838  1.0420
 3150SOL     OW20908   0.530   2.809   3.466  0.0362 -0.0955 -0.8743
 3150SOL    HW120909   0.482   2.879   3.511  0.6468 -2.0524  2.8532
 3150SOL    HW220910   0.611   2.804   3.516  0.2812 -0.2944 -1.2989
 3151SOL     OW20911   4.689   0.190   0.244 -0.4817 -0.9506  0.0732
 3151SOL    HW120912   4.652   0.250   0.179  0.7281 -0.3239 -0.0378
 3151SOL    HW220913   4.615   0.190   0.304  0.5445  0.1745  1.3423
 3152SOL     OW20914   1.140   0.710  10.341 -0.5327 -0.0277 -0.4173
 3152SOL    HW120915   1.166   0.790  10.385  0.2340  0.4584 -1.7633
 3152SOL    HW220916   1.159   0.731  10.249  0.2052 -1.5036 -0.6050
 3153SOL     OW20917   1.728   3.925   2.193  0.1003  0.7855 -0.1273
 3153SOL    HW120918   1.804   3.938   2.250  0.1572  3.0155 -0.7043
 3153SOL    HW220919   1.772   3.935   2.109  1.8116 -0.8781  0.5707
 3154SOL     OW20920   3.421   3.074   3.225  0.1375 -0.3673  0.7477
 3154SOL    HW120921   3.453   2.993   3.264  1.5436 -0.8739 -1.4314
 3154SOL    HW220922   3.501   3.126   3.214 -0.1441 -0.7257 -2.9671
 3155SOL     OW20923   3.433   3.529   7.102  0.2473  0.3886 -0.4558
 3155SOL    HW120924   3.422   3.617   7.138 -2.4706 -0.1054 -0.0718
 3155SOL    HW220925   3.528   3.536   7.094  0.1097  2.5766 -0.2521
 3156SOL     OW20926   4.248   0.820   8.334  0.1137  0.5914 -0.2604
 3156SOL    HW120927   4.275   0.903   8.295  1.2452  0.5720  0.4798
 3156SOL    HW220928   4.336   0.787   8.349 -0.1559  0.5784  1.3587
 3157SOL     OW20929   3.222   0.250  14.615  0.4468  0.2028 -0.0935
 3157SOL    HW120930   3.267   0.282  14.537  1.5782  1.5499  1.1085
 3157SOL    HW220931   3.147   0.309  14.623 -0.1939 -0.7788  1.1269
 3158SOL     OW20932   3.952   3.277   0.695 -0.3037  0.5347  0.0179
 3158SOL    HW120933   3.953   3.196   0.644 -2.4669 -0.1328  1.0603
 3158SOL    HW220934   3.889   3.257   0.764 -0.3042  1.2059  0.2094
 3159SOL     OW20935   1.639   2.372   4.438 -0.0442  0.3606 -0.4063
 3159SOL    HW120936   1.557   2.349   4.396  0.3185  0.3696 -1.1282
 3159SOL    HW220937   1.711   2.341   4.383  0.4041  2.1678 -0.8308
 3160SOL     OW20938   4.688   0.620   8.105  0.3752  0.0088  0.2691
 3160SOL    HW120939   0.014   0.649   8.180 -2.4054  2.3919  1.2032
 3160SOL    HW220940   4.614   0.578   8.149 -1.3909 -1.3793 -4.0270
 3161SOL     OW20941   2.750   0.413  11.479 -0.1588  0.4723  0.0316
 3161SOL    HW120942   2.812   0.485  11.494  0.9525  0.1384 -3.0267
 3161SOL    HW220943   2.723   0.435  11.390  2.0169  0.8776 -0.5027
 3162SOL     OW20944   3.070   4.535  16.941 -1.4344  0.1265 -0.0432
 3162SOL    HW120945   3.103   4.586  16.867  0.5727  0.3389  1.0137
 3162SOL    HW220946   3.076   4.595  17.016 -0.8489 -0.2718  0.2258
 3163SOL     OW20947   0.004   0.283   7.062 -0.0429 -0.2152  0.1099
 3163SOL    HW120948   0.092   0.298   7.094 -0.1446  0.7602 -0.0428
 3163SOL    HW220949   4.723   0.344   6.988 -1.6845  2.5194  2.4463
 3164SOL     OW20950   0.548   4.218   3.660 -0.6879  0.5461 -0.2841
 3164SOL    HW120951   0.466   4.206   3.708 -0.4092  1.0678  0.3263
 3164SOL    HW220952   0.535   4.309   3.632  1.5455  0.7502 -0.6146
 3165SOL     OW20953   3.893   2.484  13.377  0.0332  0.3127  0.1334
 3165SOL    HW120954   3.870   2.392  13.374  0.1999  0.2362  1.1086
 3165SOL    HW220955   3.941   2.495  13.460  0.5890  1.3390 -0.3117
 3166SOL     OW20956   0.317   1.097  15.064 -0.4637  0.3301  0.3297
 3166SOL    HW120957   0.250   1.150  15.020 -0.7533  0.9416  1.5206
 3166SOL    HW220958   0.304   1.011  15.024 -2.0475  1.2175 -1.0887
 3167SOL     OW20959   4.547   0.995   6.088  0.2784 -0.4130  0.2946
 3167SOL    HW120960   4.597   0.918   6.060 -1.2921 -0.3116 -2.7543
 3167SOL    HW220961   4.578   0.994   6.178 -2.3462  1.4308  1.2080
 3168SOL     OW20962   0.541   2.996   0.038  0.1451 -0.2679  0.0881
 3168SOL    HW120963   0.626   3.020   0.076  0.0211  0.6163 -0.1783
 3168SOL    HW220964   0.504   2.938   0.105  2.1730  1.3629  2.6287
 3169SOL     OW20965   3.381   1.469   9.242 -0.3360  0.4504 -0.2376
 3169SOL    HW120966   3.345   1.380   9.234 -0.2166  0.3251  0.6991
 3169SOL    HW220967   3.317   1.515   9.187 -0.6673  1.0839  0.6817
 3170SOL     OW20968   3.023   3.760   8.576  0.3148 -0.4151 -0.1458
 3170SOL    HW120969   3.085   3.767   8.504  1.0517 -0.3119  0.5006
 3170SOL    HW220970   3.001   3.852   8.589  1.2085 -0.1508 -0.5215
 3171SOL     OW20971   4.637   3.767   7.905  0.7052  0.1913  0.0843
 3171SOL    HW120972   4.662   3.837   7.844  3.1628 -3.0493 -2.6409
 3171SOL    HW220973   4.582   3.807   7.972  0.6058  1.1531 -0.5775
 3172SOL     OW20974   2.373   4.715  12.461  0.0165 -0.4067 -0.2363
 3172SOL    HW120975   2.427   0.055  12.413  1.2530 -0.4594  1.1040
 3172SOL    HW220976   2.384   4.633  12.413 -2.5178 -0.2621 -1.0852
 3173SOL     OW20977   3.667   1.232   5.886 -0.1228  0.0162  0.2302
 3173SOL    HW120978   3.711   1.162   5.933 -2.3855 -1.2738  0.4380
 3173SOL    HW220979   3.733   1.266   5.825 -1.0506  1.3351 -0.0325
 3174SOL     OW20980   2.758   2.801   3.543 -0.3350  0.0150  0.4934
 3174SOL    HW120981   2.839   2.852   3.549 -0.1641 -0.2763  0.6793
 3174SOL    HW220982   2.695   2.856   3.496  0.7198 -0.2243 -1.2128
 3175SOL     OW20983   4.490   0.166   7.064 -0.5007 -0.3434  0.3489
 3175SOL    HW120984   4.517   0.098   7.125  0.7463 -0.6445 -0.5496
 3175SOL    HW220985   4.580   0.199   7.059  0.0253 -1.6945  0.8831
 3176SOL     OW20986   2.165   4.155   8.968 -0.5753  0.1864  0.2207
 3176SOL    HW120987   2.224   4.141   8.894 -1.3680  0.0682 -0.3833
 3176SOL    HW220988   2.105   4.224   8.941 -0.7503  0.4135  1.1773
 3177SOL     OW20989   4.196   1.256   6.668 -0.1770 -0.0618  0.2918
 3177SOL    HW120990   4.252   1.301   6.604  0.9905 -2.0366 -0.1019
 3177SOL    HW220991   4.223   1.302   6.747  0.1189  0.4457 -0.1034
 3178SOL     OW20992   2.236   1.564  16.306 -0.4979 -0.1292 -0.0770
 3178SOL    HW120993   2.233   1.659  16.310  0.0635 -0.1918  2.2013
 3178SOL    HW220994   2.325   1.550  16.273  0.0710 -0.8549  1.7352
 3179SOL     OW20995   0.049   1.929   0.121 -0.2973  0.3564 -0.1239
 3179SOL    HW120996   0.070   1.837   0.106 -3.1196 -0.1006 -1.2255
 3179SOL    HW220997   4.720   1.939   0.042 -0.3661 -2.2151 -0.4003
 3180SOL     OW20998   4.419   3.774  15.596 -0.6579 -0.8162  0.0532
 3180SOL    HW120999   4.464   3.729  15.668 -0.9620 -0.6550  0.3408
 3180SOL    HW221000   4.482   3.795  15.527 -2.1725  0.7130 -0.8646
 3181SOL     OW21001   1.554   4.552   6.279 -0.0074  0.1273 -0.4814
 3181SOL    HW121002   1.531   4.645   6.272  0.2274  0.1300 -1.2543
 3181SOL    HW221003   1.650   4.561   6.281 -0.2072  1.6712  1.8241
 3182SOL     OW21004   3.922   4.087   2.246 -0.8228  0.3886 -0.2309
 3182SOL    HW121005   3.931   4.174   2.286  0.1236  0.6833 -1.0834
 3182SOL    HW221006   3.996   4.094   2.185  0.9521  0.4614  1.9592
 3183SOL     OW21007   2.265   3.506   5.711  0.2408 -0.4508  0.9426
 3183SOL    HW121008   2.351   3.493   5.672 -1.4527 -3.7421 -1.6408
 3183SOL    HW221009   2.208   3.486   5.637  0.1248 -0.4929  1.0413
 3184SOL     OW21010   0.399   2.009  15.864 -0.4522 -0.6099 -0.1905
 3184SOL    HW121011   0.407   1.988  15.771  1.2323 -0.9797  0.0440
 3184SOL    HW221012   0.332   1.942  15.876 -1.3071  0.3172  0.1906
 3185SOL     OW21013   1.611   2.735  11.303  0.1797 -0.0396  0.1904
 3185SOL    HW121014   1.689   2.782  11.272  0.4974 -0.6720  0.0331
 3185SOL    HW221015   1.578   2.800  11.365  2.4501  1.0127  0.2985
 3186SOL     OW21016   3.390   0.147   2.719  0.3404 -0.3931  0.3933
 3186SOL    HW121017   3.387   0.064   2.671 -0.6480 -0.3100  0.2987
 3186SOL    HW221018   3.340   0.188   2.648  0.7995 -2.7471 -1.2675
 3187SOL     OW21019   1.555   3.747   6.594 -0.4212 -0.1889  0.0807
 3187SOL    HW121020   1.549   3.830   6.547  1.5352  1.4858  2.7591
 3187SOL    HW221021   1.633   3.773   6.644 -0.0879 -0.1437 -0.4550
 3188SOL     OW21022   1.603   0.095   7.419  0.2633  0.3762 -0.3900
 3188SOL    HW121023   1.513   0.102   7.387  1.2264 -1.7381 -3.5255
 3188SOL    HW221024   1.611   0.173   7.474 -0.6126 -0.4190  0.8373
 3189SOL     OW21025   0.561   0.199   7.411 -0.0088 -0.4939  0.5447
 3189SOL    HW121026   0.471   0.188   7.440 -0.0227  0.4356  0.8387
 3189SOL    HW221027   0.555   0.187   7.316 -1.2200 -1.4317  0.7315
 3190SOL     OW21028   3.168   3.048   1.591 -0.3253  0.2026 -0.2575
 3190SOL    HW121029   3.234   3.073   1.527  0.8280 -0.0639  0.8262
 3190SOL    HW221030   3.223   3.013   1.660 -1.6880 -0.5102  0.4769
 3191SOL     OW21031   1.425   1.752   8.558 -0.6061  0.0470 -0.1099
 3191SOL    HW121032   1.382   1.672   8.528 -0.1787 -0.0815 -0.3680
 3191SOL    HW221033   1.397   1.743   8.650 -1.4657  3.2968 -0.0486
 3192SOL     OW21034   1.752   2.506   8.498 -0.6962  0.4356  0.0962
 3192SOL    HW121035   1.696   2.439   8.537  0.0751  0.1311  0.6659
 3192SOL    HW221036   1.779   2.558   8.573 -0.7100 -0.8101  0.9611
 3193SOL     OW21037   0.210   0.198   3.137 -0.7620 -0.5231  0.0896
 3193SOL    HW121038   0.267   0.202   3.061  0.3159  0.4714  0.9566
 3193SOL    HW221039   0.268   0.229   3.206  2.1591 -1.1404 -2.0854
 3194SOL     OW21040   0.198   1.330   7.920 -0.1535 -0.5669  0.1137
 3194SOL    HW121041   0.210   1.258   7.982  0.1490 -0.4683  0.1697
 3194SOL    HW221042   0.207   1.277   7.840  0.8444  0.3679 -0.3924
 3195SOL     OW21043   2.080   0.668  12.683  0.2183  0.6039 -1.1225
 3195SOL    HW121044   2.001   0.694  12.636 -0.7370 -0.6340 -0.2014
 3195SOL    HW221045   2.062   0.724  12.759  0.0015 -0.8961 -0.0676
 3196SOL     OW21046   3.009   1.671   7.034  0.1255  0.1963 -0.2813
 3196SOL    HW121047   2.972   1.589   7.066 -0.2780  0.6923  0.5173
 3196SOL    HW221048   3.090   1.633   7.000  1.2067 -1.0817  3.7975
 3197SOL     OW21049   1.665   1.244  12.999 -0.0416  0.2941 -0.3233
 3197SOL    HW121050   1.661   1.174  13.064 -0.9091 -0.7849 -1.5397
 3197SOL    HW221051   1.673   1.184  12.924  0.3306 -0.3220  0.2067
 3198SOL     OW21052   2.485   3.221  15.317 -0.8642  0.1938 -0.1030
 3198SOL    HW121053   2.493   3.196  15.225  0.9212 -1.3347  0.4711
 3198SOL    HW221054   2.557   3.182  15.367  0.5143  0.0609 -2.1689
 3199SOL     OW21055   0.338   2.541   7.508 -0.3302 -0.1478  0.6368
 3199SOL    HW121056   0.251   2.579   7.492 -0.1430  0.0722  0.1458
 3199SOL    HW221057   0.322   2.455   7.548 -1.2626  1.3099  3.4280
 3200SOL     OW21058   4.316   3.588  11.232 -0.4785  0.1183 -0.5970
 3200SOL    HW121059   4.313   3.673  11.187 -1.8022  0.4492  0.1262
 3200SOL    HW221060   4.372   3.607  11.307 -0.6667 -4.2093  0.6667
 3201SOL     OW21061   4.287   0.773   9.580  0.4240 -0.3687 -0.0648
 3201SOL    HW121062   4.216   0.792   9.519  2.4983  0.4857 -2.2330
 3201SOL    HW221063   4.248   0.695   9.618 -1.0673  1.2183  1.6950
 3202SOL     OW21064   3.399   0.394   4.079  0.5389 -0.1258 -0.3154
 3202SOL    HW121065   3.356   0.462   4.027 -2.1420 -1.6937 -0.1314
 3202SOL    HW221066   3.376   0.320   4.023 -0.0543  1.4292 -2.1186
 3203SOL     OW21067   3.591   0.889   7.864  0.2421 -1.0345  0.0492
 3203SOL    HW121068   3.572   0.873   7.957 -1.1674 -0.2188 -0.1044
 3203SOL    HW221069   3.576   0.799   7.833  0.6108 -1.4187  0.9909
 3204SOL     OW21070   3.891   0.993   1.887  0.1987  0.1651 -0.0219
 3204SOL    HW121071   3.859   0.918   1.837 -0.2804  0.2549  0.1492
 3204SOL    HW221072   3.895   1.058   1.816  0.4143  0.0416 -0.1254
 3205SOL     OW21073   4.616   2.574   3.933 -0.0802  0.4104  0.0399
 3205SOL    HW121074   4.580   2.660   3.951 -0.5437  0.3113 -0.4050
 3205SOL    HW221075   4.708   2.585   3.909  0.2247  0.2991  1.1929
 3206SOL     OW21076   2.676   0.934  16.221 -0.2944 -0.1285 -0.0267
 3206SOL    HW121077   2.625   0.943  16.302 -1.8770  0.0045 -1.0428
 3206SOL    HW221078   2.755   0.884  16.238  0.6369  1.3331 -0.0022
 3207SOL     OW21079   0.175   3.623  14.298  0.4314 -0.3914 -0.6659
 3207SOL    HW121080   0.260   3.664  14.285 -0.8272  2.2963 -0.4243
 3207SOL    HW221081   0.125   3.705  14.304  0.9271 -0.2233  1.0048
 3208SOL     OW21082   1.504   1.814   4.047 -0.1974  0.1651  0.0139
 3208SOL    HW121083   1.501   1.764   4.129 -2.3493 -2.6448 -1.7981
 3208SOL    HW221084   1.446   1.757   3.997  1.6219 -2.0672  0.4398
 3209SOL     OW21085   0.400   2.586  10.583  0.3090  0.4470  0.2072
 3209SOL    HW121086   0.442   2.613  10.501  0.2322  0.3000  0.1180
 3209SOL    HW221087   0.325   2.644  10.591 -0.4023 -0.5960  1.1291
 3210SOL     OW21088   0.328   1.020  13.883 -0.0055  0.7461 -0.1646
 3210SOL    HW121089   0.261   1.001  13.818 -1.1497 -0.4528  1.3730
 3210SOL    HW221090   0.278   1.030  13.964 -3.1478  1.0800 -2.1428
 3211SOL     OW21091   0.792   2.054   6.241  0.3115  0.5078 -0.3595
 3211SOL    HW121092   0.815   2.040   6.333 -1.1949  2.8880  0.3624
 3211SOL    HW221093   0.738   1.976   6.228  1.5288 -0.7540  2.0563
 3212SOL     OW21094   0.838   3.458  15.258  0.0016 -0.8165 -0.4467
 3212SOL    HW121095   0.925   3.460  15.297 -0.1400 -1.7457 -0.0742
 3212SOL    HW221096   0.854   3.379  15.206  2.5583 -1.0201  0.6658
 3213SOL     OW21097   4.536   3.722   9.260  0.1861  0.7204 -0.2775
 3213SOL    HW121098   4.580   3.650   9.216  1.0529  1.1236 -0.0642
 3213SOL    HW221099   4.448   3.693   9.285  0.9643  0.1154  1.6723
 3214SOL     OW21100   0.118   4.388   5.847  0.5926  0.1959 -0.4929
 3214SOL    HW121101   0.201   4.393   5.799  0.5948  2.3084 -0.2717
 3214SOL    HW221102   0.067   4.442   5.787 -1.4383  2.3529  3.2023
 3215SOL     OW21103   2.634   4.582   6.521 -0.0597  0.2679 -0.4199
 3215SOL    HW121104   2.578   4.659   6.528 -1.0452 -0.6679  2.3233
 3215SOL    HW221105   2.712   4.618   6.563 -1.1434  0.2733  1.6014
 3216SOL     OW21106   1.274   2.450   8.504 -0.9354 -0.0284  0.2003
 3216SOL    HW121107   1.271   2.533   8.457  2.9440 -0.7769 -1.3920
 3216SOL    HW221108   1.186   2.426   8.475 -1.5974  2.5523  0.0877
 3217SOL     OW21109   0.832   4.550   7.365 -0.7372 -0.1176 -0.3188
 3217SOL    HW121110   0.887   4.495   7.421  2.1659  4.5195  1.3466
 3217SOL    HW221111   0.846   4.633   7.409  1.8118 -1.2557  1.0201
 3218SOL     OW21112   3.274   1.996   8.810  0.5307  0.1179  0.1499
 3218SOL    HW121113   3.310   2.060   8.749  1.3277 -2.0475 -1.6238
 3218SOL    HW221114   3.305   1.911   8.779  3.3706  0.9115  0.8079
 3219SOL     OW21115   3.048   0.653   3.576 -0.2594  0.3804 -0.0924
 3219SOL    HW121116   3.101   0.676   3.499  0.3293  0.3557  0.3045
 3219SOL    HW221117   3.119   0.674   3.637  1.1015 -1.6739 -0.9599
 3220SOL     OW21118   4.072   1.176   7.097  0.6692 -0.2728  0.1284
 3220SOL    HW121119   4.112   1.107   7.151  0.6622 -0.2232  0.1969
 3220SOL    HW221120   4.093   1.250   7.155  0.5534  1.3765 -1.9514
 3221SOL     OW21121   1.212   0.616   7.256 -0.9576  0.0471  0.1505
 3221SOL    HW121122   1.172   0.653   7.178  1.5513  1.4321 -0.4762
 3221SOL    HW221123   1.140   0.558   7.283  0.9596 -2.9590 -1.1534
 3222SOL     OW21124   1.637   1.920   1.137 -0.0899 -0.5439  0.0359
 3222SOL    HW121125   1.613   1.911   1.045 -2.6906  1.4505  0.5057
 3222SOL    HW221126   1.575   1.862   1.182 -0.0251 -1.2075 -0.7202
 3223SOL     OW21127   0.446   2.286  12.854  0.5857  0.3567 -0.1575
 3223SOL    HW121128   0.461   2.259  12.764  1.6865 -0.4896  0.2852
 3223SOL    HW221129   0.351   2.295  12.859  0.3103 -1.6399 -2.1105
 3224SOL     OW21130   0.848   2.506   4.602 -0.6099 -0.1853 -0.0359
 3224SOL    HW121131   0.809   2.437   4.655  1.1947 -0.9070  0.3659
 3224SOL    HW221132   0.777   2.567   4.580 -0.3802 -0.2951 -1.0673
 3225SOL     OW21133   0.180   1.853  15.899 -0.0580  0.1869 -0.0744
 3225SOL    HW121134   0.155   1.849  15.992 -0.9002  0.3014 -0.2970
 3225SOL    HW221135   0.098   1.832  15.855  1.1980 -2.4327 -1.1832
 3226SOL     OW21136   1.267   1.465   1.484 -0.0291 -0.2962  0.1410
 3226SOL    HW121137   1.262   1.561   1.491  1.2264 -0.5085  3.5917
 3226SOL    HW221138   1.290   1.452   1.392 -0.0300 -1.9747  0.3787
 3227SOL     OW21139   2.049   0.629   7.831  0.2078 -0.3492 -0.1112
 3227SOL    HW121140   2.036   0.534   7.822 -0.7020 -0.2163 -0.2486
 3227SOL    HW221141   2.102   0.632   7.910  1.0819 -1.6757 -0.6545
 3228SOL     OW21142   4.077   1.672  15.557 -0.2837 -0.4915  0.3816
 3228SOL    HW121143   4.148   1.690  15.619 -1.2855 -1.5452  1.8665
 3228SOL    HW221144   4.114   1.598  15.509  0.7447  0.3904 -0.1844
 3229SOL     OW21145   3.207   3.068   2.589 -0.4120  0.5508  0.0589
 3229SOL    HW121146   3.121   3.099   2.618 -0.5258  0.0146  0.2977
 3229SOL    HW221147   3.246   3.053   2.675  0.8259 -0.7587 -0.7395
 3230SOL     OW21148   3.951   1.171   5.851  0.1602 -0.5572 -0.2434
 3230SOL    HW121149   3.974   1.184   5.943 -1.5510  0.9279 -0.0045
 3230SOL    HW221150   3.993   1.089   5.827  2.3858  0.4761  0.1394
 3231SOL     OW21151   3.629   1.396   1.699  1.0968 -0.2672  0.0413
 3231SOL    HW121152   3.685   1.461   1.656 -0.0198  0.6851  0.0559
 3231SOL    HW221153   3.560   1.391   1.633  1.4511  0.7455 -0.4057
 3232SOL     OW21154   1.929   0.285   4.221 -0.3258  0.2166 -0.0797
 3232SOL    HW121155   2.004   0.229   4.202  0.4208  0.8485  0.9988
 3232SOL    HW221156   1.969   0.369   4.197 -1.2928  0.6466 -0.1778
 3233SOL     OW21157   0.307   0.956   5.366 -0.8104 -0.1450 -0.1018
 3233SOL    HW121158   0.323   1.013   5.441 -3.3014  1.8347 -1.0835
 3233SOL    HW221159   0.347   0.878   5.406  0.3012 -1.0062 -2.9047
 3234SOL     OW21160   1.802   1.348   7.612 -0.1883 -0.0113 -0.0149
 3234SOL    HW121161   1.881   1.339   7.665 -0.1901 -1.1826 -0.1952
 3234SOL    HW221162   1.810   1.434   7.573  0.4721 -1.0894 -2.2366
 3235SOL     OW21163   2.506   4.436  12.353 -0.6929 -0.7086 -0.2675
 3235SOL    HW121164   2.525   4.474  12.268 -0.6130 -2.3818 -1.0019
 3235SOL    HW221165   2.434   4.377  12.333 -0.3856 -1.6193  1.2339
 3236SOL     OW21166   0.763   3.106   7.683 -0.1958  0.1462 -0.0991
 3236SOL    HW121167   0.747   3.200   7.681 -1.5054 -0.0921 -0.4783
 3236SOL    HW221168   0.713   3.077   7.607  1.2640 -1.4813 -0.4588
 3237SOL     OW21169   0.417   4.691   2.799  0.7656  0.6921 -0.0451
 3237SOL    HW121170   0.494   4.721   2.751 -0.2832  0.9717 -1.5320
 3237SOL    HW221171   0.400   0.050   2.843 -2.1379 -0.2755  0.6481
 3238SOL     OW21172   4.059   0.727   5.300 -0.0217  0.3783 -0.6939
 3238SOL    HW121173   4.051   0.654   5.237 -3.8355  0.7395 -0.6351
 3238SOL    HW221174   4.105   0.693   5.376  0.1273  1.6258 -0.2288
 3239SOL     OW21175   4.349   1.909   6.682  0.0386  0.0187  0.4162
 3239SOL    HW121176   4.379   1.922   6.592 -1.1430 -1.5370 -0.2026
 3239SOL    HW221177   4.263   1.871   6.667 -0.2541  0.9562 -0.3015
 3240SOL     OW21178   4.259   0.124   8.074  0.0877  0.0663  0.2153
 3240SOL    HW121179   4.290   0.109   8.164  2.4047 -1.3840 -0.8061
 3240SOL    HW221180   4.265   0.219   8.080  2.4364 -0.0107 -0.7252
 3241SOL     OW21181   0.973   0.856   5.310 -0.2366  0.0705 -0.1643
 3241SOL    HW121182   1.067   0.873   5.302 -0.1762 -0.2896 -0.2540
 3241SOL    HW221183   0.972   0.764   5.336 -1.5347 -0.2334 -1.2881
 3242SOL     OW21184   0.087   1.443   4.405  0.5125 -0.7172 -0.0620
 3242SOL    HW121185   0.133   1.508   4.351  1.1143 -0.5657  0.6391
 3242SOL    HW221186   0.137   1.364   4.383  1.6201  0.5199 -1.9879
 3243SOL     OW21187   4.576   3.617  13.515 -0.1942  0.2562  0.2680
 3243SOL    HW121188   4.601   3.666  13.438  0.9886 -0.1452  0.3916
 3243SOL    HW221189   4.631   3.653  13.584  0.1974 -0.0222  0.0972
 3244SOL     OW21190   1.956   0.577   8.982 -0.6789  0.5890 -0.0302
 3244SOL    HW121191   1.911   0.661   8.970 -0.8940  0.3312 -1.0230
 3244SOL    HW221192   1.928   0.530   8.903 -0.2932  0.1862  0.0766
 3245SOL     OW21193   1.119   2.182   2.836 -0.4238 -0.2471  0.3688
 3245SOL    HW121194   1.161   2.263   2.867  2.3530 -0.7770 -2.0015
 3245SOL    HW221195   1.031   2.215   2.817 -1.1434 -2.2409  0.2228
 3246SOL     OW21196   3.352   2.751   8.900 -0.1657  0.4005  0.2976
 3246SOL    HW121197   3.296   2.776   8.826 -0.0069  1.4860  0.5475
 3246SOL    HW221198   3.371   2.839   8.934 -0.7549  0.2727  0.9459
 3247SOL     OW21199   2.805   0.002   8.161  0.2503  0.4798 -0.0601
 3247SOL    HW121200   2.797   4.664   8.234  1.2366  1.5606  0.9591
 3247SOL    HW221201   2.711   0.012   8.144 -0.7236 -3.8963  2.7704
 3248SOL     OW21202   2.777   2.118   2.338  0.1360 -0.5903 -0.2187
 3248SOL    HW121203   2.849   2.082   2.286 -0.2704 -1.4181 -0.2060
 3248SOL    HW221204   2.704   2.074   2.295 -0.3282 -0.2836  0.2507
 3249SOL     OW21205   1.388   2.369   3.426  0.0918  0.0844  0.1367
 3249SOL    HW121206   1.380   2.276   3.449 -0.2288  0.0311 -0.1814
 3249SOL    HW221207   1.380   2.361   3.331  0.2997 -1.7217  0.2741
 3250SOL     OW21208   0.045   0.439   0.062 -0.1243  0.1854  0.0806
 3250SOL    HW121209   0.055   0.507  17.693  2.3734  0.4407  0.7454
 3250SOL    HW221210   4.675   0.418   0.065  0.1998 -1.3888 -1.4420
 3251SOL     OW21211   0.842   2.309   5.790  0.2153 -0.0438  0.3258
 3251SOL    HW121212   0.880   2.253   5.723  3.0844  1.1600  0.9106
 3251SOL    HW221213   0.858   2.252   5.865 -1.5388 -0.3605  0.4567
 3252SOL     OW21214   0.095   2.411  12.012  0.5218 -0.1862 -0.8864
 3252SOL    HW121215   0.153   2.423  12.087  0.8752 -3.1748 -0.6936
 3252SOL    HW221216   0.094   2.494  11.965 -0.7346  1.6477  2.3457
 3253SOL     OW21217   0.476   2.856  14.384 -0.4882  0.3791  0.1975
 3253SOL    HW121218   0.450   2.843  14.475 -1.5848  0.0133 -0.1715
 3253SOL    HW221219   0.436   2.785  14.334  1.5128  0.0898 -1.0112
 3254SOL     OW21220   2.415   1.374  13.943 -0.3452  0.7667  0.0666
 3254SOL    HW121221   2.401   1.364  14.037 -0.9576  0.1313 -0.0907
 3254SOL    HW221222   2.420   1.470  13.938  0.8175  0.5227 -3.4548
 3255SOL     OW21223   1.278   3.584   7.296 -0.1451  0.0011 -0.0324
 3255SOL    HW121224   1.271   3.673   7.330 -0.6319 -0.0748  0.0558
 3255SOL    HW221225   1.240   3.605   7.211 -2.0419 -0.4809  0.6941
 3256SOL     OW21226   0.600   3.826   5.519 -0.0139 -0.3563  0.0816
 3256SOL    HW121227   0.616   3.817   5.425  0.7911 -0.4315  0.2228
 3256SOL    HW221228   0.685   3.866   5.539 -0.7984  1.9149 -1.0681
 3257SOL     OW21229   2.560   4.480   3.427 -0.3286  0.0331 -0.3947
 3257SOL    HW121230   2.631   4.489   3.364  0.5312 -0.4510  0.5051
 3257SOL    HW221231   2.603   4.418   3.486 -1.9920 -1.1825 -0.4500
 3258SOL     OW21232   3.093   3.718   4.180  0.5485 -0.0731  0.1360
 3258SOL    HW121233   3.141   3.775   4.240  1.2477 -0.9944  0.4417
 3258SOL    HW221234   3.145   3.638   4.173  1.7012  0.6003  1.0212
 3259SOL     OW21235   4.510   4.577  11.717 -0.3640 -0.3541  0.1487
 3259SOL    HW121236   4.446   4.627  11.666  0.1673  1.0392  0.8464
 3259SOL    HW221237   4.522   4.644  11.784 -1.1713 -1.3451  1.2838
 3260SOL     OW21238   3.394   0.568   2.754  0.5121 -1.0657 -0.0346
 3260SOL    HW121239   3.412   0.659   2.776 -2.8573 -0.1330 -1.2720
 3260SOL    HW221240   3.416   0.527   2.838  0.0887 -0.5458  0.3253
 3261SOL     OW21241   0.155   3.722  16.713 -0.0914 -0.2295 -0.3532
 3261SOL    HW121242   0.185   3.635  16.688  1.1533 -0.1069  0.6967
 3261SOL    HW221243   0.181   3.730  16.805  0.3609  0.8700 -0.5662
 3262SOL     OW21244   2.810   3.628   5.720  0.5439 -0.2735 -0.2751
 3262SOL    HW121245   2.817   3.555   5.659  2.5723 -0.5680  0.3177
 3262SOL    HW221246   2.792   3.700   5.660  1.0043 -1.2630 -1.6103
 3263SOL     OW21247   0.968   2.397   4.959  0.6242  0.3958  0.4172
 3263SOL    HW121248   0.967   2.302   4.945 -0.2196  0.7997 -2.3377
 3263SOL    HW221249   0.878   2.426   4.950  0.0888 -0.5718  2.6928
 3264SOL     OW21250   4.328   4.299   4.988 -0.0112 -0.2566 -0.1550
 3264SOL    HW121251   4.319   4.306   4.893 -0.4739  0.2066 -0.0792
 3264SOL    HW221252   4.313   4.207   5.009 -0.6631  0.1149  0.9935
 3265SOL     OW21253   0.206   1.392   1.215  0.0474  0.2485  0.1602
 3265SOL    HW121254   0.187   1.486   1.209  0.2214  0.3509  1.1494
 3265SOL    HW221255   0.172   1.371   1.128 -2.2457 -2.9376  1.8311
 3266SOL     OW21256   1.972   2.802   0.706  0.2008  0.0781  0.0517
 3266SOL    HW121257   1.949   2.838   0.792 -0.5073 -2.5160  0.9178
 3266SOL    HW221258   1.958   2.870   0.639 -1.2108  0.5599  0.8374
 3267SOL     OW21259   2.837   3.775   7.566  0.2455  0.1644  0.2236
 3267SOL    HW121260   2.755   3.811   7.533  1.4116  0.5332 -2.2541
 3267SOL    HW221261   2.830   3.790   7.660 -1.2700 -0.5360  0.2067
 3268SOL     OW21262   2.741   2.310  15.814  0.0964  0.4650  0.0222
 3268SOL    HW121263   2.712   2.347  15.897  0.1191  1.9691 -0.6493
 3268SOL    HW221264   2.769   2.222  15.839  1.2748  0.5582 -0.9829
 3269SOL     OW21265   4.129   3.604   4.634 -0.3247  0.0105  0.2748
 3269SOL    HW121266   4.060   3.663   4.607 -2.0035 -2.8122 -1.6051
 3269SOL    HW221267   4.077   3.542   4.686 -1.1395  0.9356  0.5478
 3270SOL     OW21268   3.732   1.496   0.050  0.3781  0.0154 -0.0577
 3270SOL    HW121269   3.644   1.480   0.015 -0.5044  1.4798  1.4653
 3270SOL    HW221270   3.780   1.474  17.669  1.0019  2.8189 -0.4754
 3271SOL     OW21271   2.249   1.357   4.404 -0.1506 -0.4612  0.0066
 3271SOL    HW121272   2.321   1.295   4.413 -1.7444 -1.7976  3.4278
 3271SOL    HW221273   2.187   1.298   4.361 -0.8278  0.0921  0.2233
 3272SOL     OW21274   2.860   1.366   2.404 -0.3382  0.1437 -0.1375
 3272SOL    HW121275   2.837   1.356   2.312  0.1879  0.0567 -0.2574
 3272SOL    HW221276   2.874   1.461   2.410 -2.5306  0.3036  2.7160
 3273SOL     OW21277   4.131   3.169   5.508 -0.3731  0.4272 -0.2838
 3273SOL    HW121278   4.212   3.120   5.519 -1.4168 -1.4459 -0.9373
 3273SOL    HW221279   4.057   3.111   5.524 -1.0419  1.8851  1.8810
 3274SOL     OW21280   1.093   2.731  15.210  0.2337 -0.3273 -0.0900
 3274SOL    HW121281   1.184   2.703  15.209  0.5987  0.9268 -2.0224
 3274SOL    HW221282   1.068   2.749  15.301  0.5454 -1.0614  0.1374
 3275SOL     OW21283   0.076   2.225   3.869 -0.5448 -0.0821  0.2539
 3275SOL    HW121284   0.167   2.255   3.874 -0.9798  1.1896  0.4442
 3275SOL    HW221285   0.094   2.131   3.858 -1.2828 -0.2481  0.5033
 3276SOL     OW21286   4.528   2.408   9.251  0.2811 -0.0520 -0.3748
 3276SOL    HW121287   4.493   2.358   9.324 -0.0353 -0.3698 -0.7440
 3276SOL    HW221288   4.539   2.342   9.183 -1.1733 -1.3574  0.6529
 3277SOL     OW21289   3.299   1.751   6.543  0.1967  0.3432  0.2003
 3277SOL    HW121290   3.262   1.664   6.552 -0.8255  0.8252  0.5995
 3277SOL    HW221291   3.303   1.781   6.633  1.7522  1.8899 -0.3714
 3278SOL     OW21292   3.074   2.854   8.809 -0.1779  0.3302 -0.4809
 3278SOL    HW121293   3.065   2.844   8.714  0.2435 -1.0780 -0.3757
 3278SOL    HW221294   3.070   2.950   8.815  2.6062  0.2942  1.9495
 3279SOL     OW21295   4.321   0.052  13.597 -0.3829  0.1956 -0.3206
 3279SOL    HW121296   4.296   0.024  13.509 -0.7484 -0.0061 -0.1500
 3279SOL    HW221297   4.309   0.147  13.591  3.7695  0.6322 -1.8844
 3280SOL     OW21298   1.625   4.113   0.242  0.4819 -0.4031  0.0742
 3280SOL    HW121299   1.579   4.193   0.264  0.2612 -1.1239  2.1885
 3280SOL    HW221300   1.682   4.097   0.318 -1.3600 -0.0339  1.5182
 3281SOL     OW21301   3.523   3.974  12.098  0.3697 -0.4672  0.0239
 3281SOL    HW121302   3.582   4.049  12.102  1.8325 -1.6721  0.8267
 3281SOL    HW221303   3.589   3.905  12.098  1.0340  0.1666 -0.1129
 3282SOL     OW21304   2.323   1.814  16.847 -0.0123 -0.0318 -0.1061
 3282SOL    HW121305   2.358   1.726  16.834  1.3168  0.5885 -0.7165
 3282SOL    HW221306   2.379   1.850  16.916  2.4606 -0.7061 -1.7875
 3283SOL     OW21307   3.913   2.069   3.915  0.5530 -0.0615 -0.2987
 3283SOL    HW121308   3.993   2.016   3.912  0.2327 -0.5291 -0.4815
 3283SOL    HW221309   3.900   2.085   3.821 -0.2531  0.0126 -0.1706
 3284SOL     OW21310   2.860   2.176   5.819  0.2134  0.4077  0.3490
 3284SOL    HW121311   2.860   2.180   5.914  3.4657 -3.7552  0.5580
 3284SOL    HW221312   2.768   2.151   5.809  1.0690 -1.8517 -2.1439
 3285SOL     OW21313   1.081   0.608   0.303 -0.1441  0.5436 -0.3444
 3285SOL    HW121314   1.062   0.626   0.395  0.5414 -0.5809  0.0287
 3285SOL    HW221315   1.001   0.634   0.258  0.9963 -0.5199 -3.0449
 3286SOL     OW21316   4.066   2.080   6.138  0.0920  0.2947  0.4714
 3286SOL    HW121317   3.987   2.119   6.176  1.2626  0.0587  3.1691
 3286SOL    HW221318   4.093   2.010   6.197  2.2644  0.4450 -0.3403
 3287SOL     OW21319   0.541   1.678   5.903  0.4651 -0.8179 -0.4443
 3287SOL    HW121320   0.504   1.591   5.919  2.6245 -1.7507 -0.5870
 3287SOL    HW221321   0.620   1.684   5.956  0.2181  0.1693 -0.1934
 3288SOL     OW21322   1.285   0.046  11.368  0.3815  0.1342 -0.4443
 3288SOL    HW121323   1.326   4.688  11.397 -1.0459 -0.8494 -1.1568
 3288SOL    HW221324   1.301   0.104  11.442  0.0899  0.2301 -0.4576
 3289SOL     OW21325   4.668   4.569   0.773  0.5392  0.0493 -0.5784
 3289SOL    HW121326   4.597   4.548   0.712 -0.7611  1.2292  0.5358
 3289SOL    HW221327   4.699   4.482   0.801 -0.0090 -0.1015 -0.4430
 3290SOL     OW21328   0.971   0.415   3.579 -0.0675 -0.5841  0.5253
 3290SOL    HW121329   1.065   0.410   3.601  0.0725 -1.2394 -0.2338
 3290SOL    HW221330   0.935   0.334   3.615 -0.9302 -0.4860 -0.1364
 3291SOL     OW21331   3.329   2.294  15.510 -0.3798 -0.3322  0.0627
 3291SOL    HW121332   3.418   2.326  15.498 -1.0520  1.9073  1.1072
 3291SOL    HW221333   3.353   2.211  15.552  0.9934  0.0686  0.0734
 3292SOL     OW21334   0.617   2.099   7.444 -0.6696 -0.3408  0.8615
 3292SOL    HW121335   0.555   2.065   7.379  0.4347 -0.0272 -0.3597
 3292SOL    HW221336   0.569   2.108   7.526 -1.4324  0.8937  0.2795
 3293SOL     OW21337   4.330   3.776   1.659 -0.1318  0.0526  0.5552
 3293SOL    HW121338   4.391   3.724   1.712 -0.2098 -0.1382  0.4593
 3293SOL    HW221339   4.279   3.702   1.626  0.9967 -1.1374  1.4657
 3294SOL     OW21340   3.484   0.488   4.924  0.0591  0.0734  0.2526
 3294SOL    HW121341   3.393   0.478   4.952  0.4103 -1.2206  0.9557
 3294SOL    HW221342   3.477   0.488   4.829  0.1091 -1.4230  0.2529
 3295SOL     OW21343   0.910   2.449  10.523 -0.1002  0.1612  0.1435
 3295SOL    HW121344   0.918   2.514  10.453 -0.1560  0.3718  0.3321
 3295SOL    HW221345   0.855   2.379  10.488  1.1708 -0.1126 -1.2985
 3296SOL     OW21346   2.917   0.404  13.619  0.0958  0.4264  0.1677
 3296SOL    HW121347   2.901   0.498  13.633 -0.4575  0.8530 -3.2723
 3296SOL    HW221348   3.000   0.388  13.664  1.1341  0.5019 -1.7166
 3297SOL     OW21349   0.182   4.653   4.933  0.4191 -0.0722 -0.1880
 3297SOL    HW121350   0.238   4.631   4.858  2.0320  1.9254  0.4358
 3297SOL    HW221351   0.250   4.643   5.000 -2.7609  1.5217  3.2731
 3298SOL     OW21352   1.035   4.581   8.109  0.1364  0.1188  0.4441
 3298SOL    HW121353   0.980   4.634   8.051  0.2593  0.7456  0.8987
 3298SOL    HW221354   0.984   4.582   8.190  1.2735 -1.0202  1.1639
 3299SOL     OW21355   0.417   4.024  16.330 -0.5818 -0.0348 -1.3708
 3299SOL    HW121356   0.333   4.060  16.359 -0.4729  1.2544 -2.6377
 3299SOL    HW221357   0.477   4.097  16.344  0.5517 -1.2376 -0.0154
 3300SOL     OW21358   1.948   2.447  13.979  0.6181 -0.2790 -0.6820
 3300SOL    HW121359   1.910   2.379  14.034  1.8637  1.4518  2.3075
 3300SOL    HW221360   1.878   2.452  13.914 -1.1708  0.5921  1.3188
 3301SOL     OW21361   4.552   2.914  17.581  0.6458 -0.4633 -0.0979
 3301SOL    HW121362   4.606   2.905  17.660 -0.2084  0.7459  0.6201
 3301SOL    HW221363   4.582   2.832  17.540 -0.6280 -0.5544 -0.8320
 3302SOL     OW21364   3.153   0.177   8.641  0.3146  0.0819  0.4614
 3302SOL    HW121365   3.119   0.267   8.640  2.0897  0.7345 -0.7280
 3302SOL    HW221366   3.088   0.148   8.705  0.6085 -1.2256  0.1647
 3303SOL     OW21367   2.327   0.411   4.602 -0.3890 -0.2834 -0.4153
 3303SOL    HW121368   2.277   0.387   4.524  0.9695  1.5280 -1.8547
 3303SOL    HW221369   2.419   0.386   4.590  0.2050  0.0162  3.5966
 3304SOL     OW21370   3.717   3.548   2.800  0.2361  0.3907  0.3726
 3304SOL    HW121371   3.642   3.487   2.799  0.1405  0.5103  0.2019
 3304SOL    HW221372   3.780   3.501   2.746  0.6627  2.5619 -0.9912
 3305SOL     OW21373   1.435   0.672   7.862 -0.5730 -0.1118 -0.1599
 3305SOL    HW121374   1.375   0.704   7.929 -1.8762 -1.4555 -0.6864
 3305SOL    HW221375   1.503   0.738   7.876 -1.4756  0.2076  2.7443
 3306SOL     OW21376   3.896   0.641   9.157 -0.5257  0.0392  0.1611
 3306SOL    HW121377   3.962   0.596   9.105 -0.2412  1.4781 -0.7232
 3306SOL    HW221378   3.818   0.587   9.144 -0.0560 -0.1525 -1.8394
 3307SOL     OW21379   3.003   0.636   7.200 -0.2770  0.1864 -0.2767
 3307SOL    HW121380   3.050   0.583   7.134  0.6454  1.0040 -0.2831
 3307SOL    HW221381   3.016   0.718   7.152 -1.4685  0.5768  0.0761
 3308SOL     OW21382   0.190   4.353   8.782  0.1422 -0.2913  0.2314
 3308SOL    HW121383   0.149   4.349   8.695  0.0875  0.6842  0.2111
 3308SOL    HW221384   0.166   4.266   8.814  1.1999 -0.6482  0.0393
 3309SOL     OW21385   0.337   2.172   5.559  0.5830 -1.0959  0.5781
 3309SOL    HW121386   0.257   2.225   5.564  0.0055 -1.6572 -2.7637
 3309SOL    HW221387   0.331   2.168   5.463  0.0512 -0.9211  0.6008
 3310SOL     OW21388   3.521   0.429   9.494 -0.2071  0.3812  0.2119
 3310SOL    HW121389   3.529   0.469   9.408 -2.1785  0.3069  0.0091
 3310SOL    HW221390   3.547   0.495   9.559 -0.5654  0.0288  0.7190
 3311SOL     OW21391   0.630   1.949   4.398  0.1187  0.0684  0.1381
 3311SOL    HW121392   0.589   1.985   4.476  1.9035  0.3104  0.9800
 3311SOL    HW221393   0.707   2.006   4.393 -0.2456  0.2391 -3.5263
 3312SOL     OW21394   1.072   2.776   7.467 -0.0739  0.4703  0.2853
 3312SOL    HW121395   1.123   2.739   7.395 -2.0412 -1.6180 -0.0646
 3312SOL    HW221396   0.989   2.734   7.444  0.4726  0.1224 -1.0567
 3313SOL     OW21397   4.205   4.484   1.062  1.0745 -0.0345  0.4293
 3313SOL    HW121398   4.158   4.548   1.008  0.4180 -1.4837 -0.7111
 3313SOL    HW221399   4.296   4.508   1.042  1.1161  0.2133  0.9118
 3314SOL     OW21400   1.834   0.739   7.515  0.3638  0.3838 -0.3920
 3314SOL    HW121401   1.806   0.648   7.503 -0.3419  0.7165 -1.2862
 3314SOL    HW221402   1.786   0.777   7.441 -0.4826 -0.3061 -0.1978
 3315SOL     OW21403   1.490   1.611   6.345 -0.6524 -0.0623  0.3977
 3315SOL    HW121404   1.505   1.609   6.439  2.7228  1.1483 -0.1343
 3315SOL    HW221405   1.394   1.603   6.345 -0.6273 -0.3640 -2.2906
 3316SOL     OW21406   0.169   0.488   7.972 -0.6163 -0.2832  0.1429
 3316SOL    HW121407   0.098   0.549   7.993 -2.2089 -1.7090 -1.0700
 3316SOL    HW221408   0.197   0.462   8.060 -0.5671 -0.5056  0.0606
 3317SOL     OW21409   2.107   2.764   3.863 -0.2440 -0.1331 -0.1108
 3317SOL    HW121410   2.163   2.730   3.794  0.4373 -1.2385  0.9957
 3317SOL    HW221411   2.022   2.736   3.829  0.6939 -2.5284 -0.4786
 3318SOL     OW21412   4.508   3.987  14.261 -0.3462  0.7674 -0.1586
 3318SOL    HW121413   4.532   3.952  14.176  1.3164  2.2932 -0.2990
 3318SOL    HW221414   4.563   4.065  14.260  3.0404 -1.5900  2.2534
 3319SOL     OW21415   3.568   0.520   9.920 -0.1083 -0.3897  0.0783
 3319SOL    HW121416   3.546   0.613   9.922  0.8212 -0.1198 -2.1941
 3319SOL    HW221417   3.646   0.517   9.974  0.0777 -1.7514 -0.2506
 3320SOL     OW21418   3.312   0.906  15.914 -0.5392 -0.1306  0.5504
 3320SOL    HW121419   3.287   0.889  16.005 -1.1561 -1.6855  0.1064
 3320SOL    HW221420   3.243   0.856  15.870  1.2195 -2.9054  0.9409
 3321SOL     OW21421   1.105   4.558   5.467 -0.1368 -0.5100 -0.7479
 3321SOL    HW121422   1.166   4.551   5.393 -0.2558 -2.8088 -0.6545
 3321SOL    HW221423   1.015   4.562   5.433  0.0766  1.6480 -1.0140
 3322SOL     OW21424   1.864   2.047   3.090  0.5208  0.2115  0.1910
 3322SOL    HW121425   1.868   2.127   3.142  2.5737  0.9695 -1.1371
 3322SOL    HW221426   1.930   2.075   3.026  0.0894 -0.3772 -0.5227
 3323SOL     OW21427   4.226   1.136   7.996 -0.3925  0.0022  0.3842
 3323SOL    HW121428   4.173   1.198   7.946 -0.2594 -0.3037 -0.1326
 3323SOL    HW221429   4.215   1.050   7.957  0.2798  0.0157  0.1657
 3324SOL     OW21430   2.501   3.357  12.535 -0.2483 -0.0021  0.0538
 3324SOL    HW121431   2.515   3.401  12.619 -2.0382  2.3297 -0.8559
 3324SOL    HW221432   2.570   3.392  12.478  0.3426  0.9568  1.3645
 3325SOL     OW21433   0.846   2.574   8.115  0.1481 -0.1827 -0.2166
 3325SOL    HW121434   0.891   2.567   8.031 -0.3431 -2.3546 -0.3119
 3325SOL    HW221435   0.773   2.514   8.097 -0.8792  0.5459  1.5705
 3326SOL     OW21436   4.436   0.703   2.777  0.2178 -0.0153  0.0919
 3326SOL    HW121437   4.521   0.695   2.734  0.1711  1.5272 -0.2815
 3326SOL    HW221438   4.455   0.664   2.862 -0.3593  0.1387  0.2969
 3327SOL     OW21439   1.573   3.724  10.932  0.1390  0.3201 -0.1085
 3327SOL    HW121440   1.590   3.804  10.882  0.6825 -0.5061 -1.2314
 3327SOL    HW221441   1.477   3.714  10.931  0.3140 -1.2499 -1.5249
 3328SOL     OW21442   2.918   3.405   2.004 -0.2927 -0.0278 -0.8409
 3328SOL    HW121443   2.987   3.347   2.037 -0.4904 -0.4378 -1.1524
 3328SOL    HW221444   2.972   3.469   1.957 -1.7575 -0.6519 -3.3601
 3329SOL     OW21445   0.566   1.582   2.035  0.2182 -0.3824 -0.3234
 3329SOL    HW121446   0.612   1.652   2.081 -0.2527 -0.1331 -0.2325
 3329SOL    HW221447   0.634   1.529   1.995  1.4013 -1.5783  3.3385
 3330SOL     OW21448   4.324   0.301   7.265 -0.3520 -0.3110 -0.3324
 3330SOL    HW121449   4.410   0.305   7.224  0.2402 -2.3295  0.7218
 3330SOL    HW221450   4.286   0.250   7.194  0.5979 -0.8530 -0.4471
 3331SOL     OW21451   1.962   1.433   4.073 -0.2741  0.1568  0.7116
 3331SOL    HW121452   1.959   1.508   4.014  0.4778 -1.2674 -1.1151
 3331SOL    HW221453   2.056   1.416   4.081 -0.3347  0.0306  1.1836
 3332SOL     OW21454   4.571   1.983  17.634 -0.2517  0.2285 -0.0866
 3332SOL    HW121455   4.491   1.955  17.679 -0.0321  1.8240  1.3261
 3332SOL    HW221456   4.546   1.952  17.547  0.9053 -1.2272  0.1013
 3333SOL     OW21457   4.658   2.675   3.317  0.1591  0.1300 -0.2629
 3333SOL    HW121458   4.618   2.612   3.377  2.8428  0.2125  1.6225
 3333SOL    HW221459   4.712   2.613   3.268  0.4809 -0.6235  1.0448
 3334SOL     OW21460   3.767   1.332   3.431 -0.3135  0.5729 -0.0995
 3334SOL    HW121461   3.676   1.303   3.440 -0.1041  0.0765  0.4104
 3334SOL    HW221462   3.757   1.415   3.477  0.7450  1.8003 -2.1065
 3335SOL     OW21463   1.492   2.932   5.255 -0.6962 -0.0070 -0.0740
 3335SOL    HW121464   1.438   2.863   5.216 -0.9180  0.7245 -1.0430
 3335SOL    HW221465   1.573   2.881   5.268 -1.9976 -1.8993  0.6796
 3336SOL     OW21466   1.244   3.287   8.162 -0.6198  0.0237 -0.2505
 3336SOL    HW121467   1.312   3.253   8.103  2.2250  0.9490  2.4502
 3336SOL    HW221468   1.168   3.277   8.106 -2.1559 -0.7705  1.9603
 3337SOL     OW21469   0.110   0.954  17.501  0.1901 -0.3015  0.7178
 3337SOL    HW121470   0.157   0.956  17.418 -1.7043 -4.4893 -0.4512
 3337SOL    HW221471   0.093   1.049  17.501 -0.1376 -0.3501 -2.1813
 3338SOL     OW21472   1.614   0.904   7.864  0.4678 -0.2072  0.0668
 3338SOL    HW121473   1.680   0.943   7.806  0.7228  0.3721  0.7429
 3338SOL    HW221474   1.668   0.885   7.941 -0.2629  1.5064  1.0124
 3339SOL     OW21475   3.706   2.392   0.673  0.0751  0.0069 -0.2388
 3339SOL    HW121476   3.664   2.386   0.588  0.1109 -0.8447 -0.1951
 3339SOL    HW221477   3.675   2.477   0.706 -2.3476 -1.2902  0.8189
 3340SOL     OW21478   4.051   2.421   3.725 -0.6416  0.1214  0.1078
 3340SOL    HW121479   3.986   2.352   3.711 -2.4953  1.3693  2.5239
 3340SOL    HW221480   4.133   2.371   3.726 -0.9699 -0.4153  0.4242
 3341SOL     OW21481   4.348   3.939   2.861  0.3622  0.2918 -0.1791
 3341SOL    HW121482   4.388   4.016   2.819  1.4910  0.0551  0.4672
 3341SOL    HW221483   4.304   3.984   2.932  0.5580  1.3588 -0.7291
 3342SOL     OW21484   3.252   0.784  13.538  0.2406 -0.0272  0.6443
 3342SOL    HW121485   3.345   0.800  13.519  0.2118 -1.6045 -0.8154
 3342SOL    HW221486   3.254   0.738  13.622  1.5956 -1.3939 -0.1227
 3343SOL     OW21487   0.127   1.555   8.086  0.2912 -0.2601 -0.1647
 3343SOL    HW121488   0.139   1.480   8.028  0.5107 -0.5632  0.2743
 3343SOL    HW221489   0.179   1.616   8.034  1.1561  0.8143  1.9875
 3344SOL     OW21490   0.870   3.229   8.424 -0.0725  0.1492  0.2736
 3344SOL    HW121491   0.799   3.290   8.445 -0.0595 -0.1164  1.0877
 3344SOL    HW221492   0.949   3.280   8.407 -0.3131  0.2635 -0.5157
 3345SOL     OW21493   2.119   4.259  11.344  0.2242 -0.4726  0.1203
 3345SOL    HW121494   2.127   4.328  11.409 -2.0793 -0.1255 -0.0001
 3345SOL    HW221495   2.064   4.203  11.399  0.6024  0.6475  1.6351
 3346SOL     OW21496   0.066   4.633   4.512  0.4308 -0.2945 -0.9163
 3346SOL    HW121497   0.151   4.668   4.487 -0.5671  1.9330 -1.1773
 3346SOL    HW221498   0.086   4.551   4.559 -0.9443  0.4502  0.9469
 3347SOL     OW21499   1.982   3.143   0.514  0.1345 -0.3530 -0.2111
 3347SOL    HW121500   2.042   3.179   0.449  0.4674  0.9416  0.8070
 3347SOL    HW221501   1.956   3.062   0.469 -1.6712 -0.6700  1.3853
 3348SOL     OW21502   3.159   2.151  17.345 -0.4108  0.0781  0.0340
 3348SOL    HW121503   3.242   2.112  17.372 -0.0204  0.5760 -0.4684
 3348SOL    HW221504   3.115   2.159  17.430  1.0780 -2.3771  1.0429
 3349SOL     OW21505   4.057   0.079   1.758  0.2866 -0.5641  0.0721
 3349SOL    HW121506   3.964   0.057   1.770  0.3213  1.6044  4.0627
 3349SOL    HW221507   4.061   0.159   1.809 -0.6370  1.0762 -2.4435
 3350SOL     OW21508   3.549   3.509  11.625  0.5243  0.1930 -0.4703
 3350SOL    HW121509   3.536   3.569  11.699  1.2380  0.9838 -0.9780
 3350SOL    HW221510   3.600   3.566  11.566 -0.3813  0.9946 -0.4738
 3351SOL     OW21511   1.338   1.382   5.094 -0.3250  0.6826  0.1275
 3351SOL    HW121512   1.419   1.387   5.044 -1.7326  0.7604 -2.1214
 3351SOL    HW221513   1.378   1.375   5.181 -2.2835  1.1656  1.0804
 3352SOL     OW21514   3.588   4.082   8.475 -0.1269  0.1112 -0.0051
 3352SOL    HW121515   3.638   4.003   8.452  0.9134  0.1419  2.1485
 3352SOL    HW221516   3.573   4.120   8.389 -0.5373 -0.4476 -0.1834
 3353SOL     OW21517   0.764   3.177  12.741  0.6042  0.1725 -0.2661
 3353SOL    HW121518   0.746   3.133  12.657  0.9988 -1.5875  0.5726
 3353SOL    HW221519   0.681   3.222  12.757  0.6403  0.3962 -0.7002
 3354SOL     OW21520   4.373   3.461   2.132  0.0864  0.4080 -0.3177
 3354SOL    HW121521   4.285   3.428   2.112  1.1501 -2.0011 -1.0080
 3354SOL    HW221522   4.372   3.554   2.110  0.1319  0.2522 -0.9812
 3355SOL     OW21523   1.398   3.879   3.094  0.3693 -0.6680  0.7674
 3355SOL    HW121524   1.418   3.799   3.046 -0.6685 -0.8686  0.6899
 3355SOL    HW221525   1.390   3.937   3.018  2.1165 -0.9162  0.3855
 3356SOL     OW21526   1.381   1.568   3.552 -0.0383  0.3453  0.1490
 3356SOL    HW121527   1.410   1.644   3.502  2.4195  1.3741  3.0588
 3356SOL    HW221528   1.429   1.494   3.514  1.3117  1.2554  0.0672
 3357SOL     OW21529   1.917   1.402  10.545  0.2823  0.1515  0.1276
 3357SOL    HW121530   1.888   1.459  10.616 -2.2224  0.5944 -1.2477
 3357SOL    HW221531   2.013   1.403  10.553  0.2607 -1.2394  0.4995
 3358SOL     OW21532   4.333   0.798   6.775 -0.2194 -0.1526 -0.7696
 3358SOL    HW121533   4.408   0.783   6.717 -1.2813 -3.2154 -1.3534
 3358SOL    HW221534   4.372   0.736   6.836  2.6288  1.1943 -1.2259
 3359SOL     OW21535   4.283   4.349  10.670 -0.0994  0.3049  0.0952
 3359SOL    HW121536   4.260   4.417  10.732  0.7922  0.8140 -0.1275
 3359SOL    HW221537   4.202   4.351  10.619  0.0632 -0.4997 -0.2000
 3360SOL     OW21538   1.892   3.873   1.874  0.1455  0.2476 -0.6816
 3360SOL    HW121539   1.807   3.831   1.859  0.2091  0.5116 -1.7983
 3360SOL    HW221540   1.955   3.801   1.881 -0.2444 -0.0452 -0.1660
 3361SOL     OW21541   3.773   3.900   4.883 -0.4362  0.1819  0.1980
 3361SOL    HW121542   3.781   3.805   4.869 -1.4158  0.0596  0.4972
 3361SOL    HW221543   3.712   3.943   4.824 -1.6139  0.5944  1.7127
 3362SOL     OW21544   4.646   2.472  17.656  0.0543 -0.5094  0.7537
 3362SOL    HW121545   4.692   2.396  17.620  2.2402  1.1902 -0.0069
 3362SOL    HW221546   4.609   2.513  17.578 -0.2134 -0.0105  1.1434
 3363SOL     OW21547   3.923   1.901  15.696  0.3826 -0.4085  0.2920
 3363SOL    HW121548   4.018   1.904  15.682  0.0648 -0.7243 -1.9496
 3363SOL    HW221549   3.918   1.920  15.790  0.4779 -1.4417  0.5102
 3364SOL     OW21550   4.294   1.198  11.043 -0.1553  0.1202 -0.1482
 3364SOL    HW121551   4.282   1.116  11.092 -0.0603  2.2973  3.5656
 3364SOL    HW221552   4.227   1.188  10.976 -0.7639 -1.4134  0.6842
 3365SOL     OW21553   0.835   3.112  10.104  0.2505  0.5352  0.0944
 3365SOL    HW121554   0.880   3.188  10.141  0.6844 -0.6029  1.8963
 3365SOL    HW221555   0.749   3.154  10.097  0.0922  0.3182  0.8055
 3366SOL     OW21556   1.450   1.301   7.240  0.4817  0.0785 -0.1811
 3366SOL    HW121557   1.486   1.246   7.309  2.9387 -0.2298 -1.6818
 3366SOL    HW221558   1.477   1.390   7.263  1.4670  0.0451 -1.2294
 3367SOL     OW21559   2.784   3.665   1.832  0.3026  0.0441 -0.1060
 3367SOL    HW121560   2.868   3.685   1.875 -0.9894  1.8841  1.5752
 3367SOL    HW221561   2.720   3.704   1.891 -1.2976 -0.1690 -1.7343
 3368SOL     OW21562   4.275   4.407   8.744  0.4446 -0.2565  0.3230
 3368SOL    HW121563   4.200   4.416   8.804  1.9223  1.9349  1.8291
 3368SOL    HW221564   4.321   4.330   8.777 -2.7571 -1.6621  1.5118
 3369SOL     OW21565   2.641   1.148   4.219 -0.0296 -0.2149 -0.3236
 3369SOL    HW121566   2.701   1.157   4.145  0.8798  2.2125  0.7131
 3369SOL    HW221567   2.706   1.131   4.288 -0.8541  1.6652  0.8994
 3370SOL     OW21568   1.467   3.232  13.081 -0.0978  0.0204  0.2711
 3370SOL    HW121569   1.451   3.211  13.173  0.0654  1.5690  0.6491
 3370SOL    HW221570   1.421   3.315  13.073  2.1671  1.2147 -0.3015
 3371SOL     OW21571   1.081   1.389  14.169 -0.2423 -0.2087 -0.0622
 3371SOL    HW121572   1.168   1.368  14.133  0.7188 -0.0030  2.1519
 3371SOL    HW221573   1.037   1.317  14.123 -0.3199 -0.4774  0.4300
 3372SOL     OW21574   3.791   1.211   7.212 -0.1931 -0.2831 -0.4521
 3372SOL    HW121575   3.727   1.141   7.197  0.9683 -1.4095 -0.1277
 3372SOL    HW221576   3.846   1.165   7.275  1.5358  0.0713 -1.7200
 3373SOL     OW21577   4.540   0.800   3.847  0.0129 -0.3378  0.1554
 3373SOL    HW121578   4.498   0.714   3.839  0.1818 -0.3411 -0.6401
 3373SOL    HW221579   4.609   0.794   3.780  0.0410 -1.2091  0.2607
 3374SOL     OW21580   0.291   1.908   2.966 -0.0745 -0.1071 -0.2259
 3374SOL    HW121581   0.335   1.910   2.881 -0.0303 -1.0860 -0.2193
 3374SOL    HW221582   0.365   1.874   3.016 -0.1532  0.4290  0.2521
 3375SOL     OW21583   4.103   3.573   1.549  0.7676  0.0159 -0.5267
 3375SOL    HW121584   4.044   3.615   1.487  0.6349  0.4767 -0.0866
 3375SOL    HW221585   4.144   3.500   1.503  0.3033  0.7554 -2.1168
 3376SOL     OW21586   1.313   1.064  14.727 -0.0012 -0.1035  0.1107
 3376SOL    HW121587   1.360   1.052  14.644 -0.6250  0.5413 -0.3339
 3376SOL    HW221588   1.309   0.972  14.753 -0.8216 -0.4218 -1.1290
 3377SOL     OW21589   0.893   0.651   1.509 -0.8172 -0.3669 -0.4536
 3377SOL    HW121590   0.906   0.623   1.418 -0.7371 -2.1173  0.0828
 3377SOL    HW221591   0.961   0.716   1.526  0.2032 -1.4706 -0.3196
 3378SOL     OW21592   0.507   0.742   3.784  0.2987 -0.0219 -0.3069
 3378SOL    HW121593   0.452   0.771   3.857  0.2538 -2.1893  0.5247
 3378SOL    HW221594   0.489   0.812   3.721 -1.5314 -0.1181  0.1137
 3379SOL     OW21595   2.369   0.052   6.257 -0.8656 -0.0002 -0.4108
 3379SOL    HW121596   2.407   0.061   6.345 -1.5477 -1.8744  0.0680
 3379SOL    HW221597   2.383   0.142   6.230  0.5250  0.3204  1.3628
 3380SOL     OW21598   3.981   0.110   0.382  0.2491 -0.4667  0.3188
 3380SOL    HW121599   3.904   0.153   0.347  0.0758 -0.1149  1.1287
 3380SOL    HW221600   3.937   0.043   0.435  2.3488 -2.6992 -0.7754
 3381SOL     OW21601   3.489   2.266   4.596 -0.7786  0.6275  0.0564
 3381SOL    HW121602   3.487   2.359   4.618  1.8535  0.3209  1.5529
 3381SOL    HW221603   3.523   2.226   4.676 -3.3081 -1.3049  0.1487
 3382SOL     OW21604   1.442   0.353   1.787  0.1675  0.1546  0.0845
 3382SOL    HW121605   1.359   0.400   1.794 -0.4046 -0.7427 -0.5636
 3382SOL    HW221606   1.486   0.407   1.721  0.2949 -2.2576 -1.8274
 3383SOL     OW21607   3.083   2.449   1.949  0.2050 -0.0027 -0.5303
 3383SOL    HW121608   3.050   2.497   1.873 -0.9076 -0.7430 -0.5201
 3383SOL    HW221609   3.144   2.393   1.901  0.1712 -1.5614  1.2434
 3384SOL     OW21610   0.039   2.199   6.956  0.0215  0.3506  0.5945
 3384SOL    HW121611   0.086   2.235   7.031 -0.1905 -0.0615  0.9326
 3384SOL    HW221612   0.092   2.243   6.890  1.9295 -0.4750  1.5795
 3385SOL     OW21613   4.408   2.029   3.679 -0.2912  0.4564 -0.2304
 3385SOL    HW121614   4.439   2.086   3.749  0.2277 -1.1102  0.8006
 3385SOL    HW221615   4.438   2.078   3.602  0.4856 -2.5794 -1.8881
 3386SOL     OW21616   3.349   3.027   8.988  0.2290  0.3966 -0.4026
 3386SOL    HW121617   3.441   3.006   9.006  0.1680 -0.0090 -0.5829
 3386SOL    HW221618   3.348   3.123   8.980  0.2904  0.2911 -1.5913
 3387SOL     OW21619   0.442   0.860  10.320  0.0239  0.0865 -0.0175
 3387SOL    HW121620   0.416   0.865  10.228  2.4601  2.2591 -0.5960
 3387SOL    HW221621   0.532   0.892  10.314  0.6568 -0.9084  3.7102
 3388SOL     OW21622   0.195   0.805   6.069  0.1749  0.0100  0.0454
 3388SOL    HW121623   0.186   0.715   6.101 -1.3592 -0.1325 -0.7767
 3388SOL    HW221624   0.275   0.840   6.108  0.1312 -0.2048  0.3297
 3389SOL     OW21625   0.272   0.527   2.371 -0.0145  0.4163  0.3961
 3389SOL    HW121626   0.190   0.514   2.418  0.4674  0.5863  1.2871
 3389SOL    HW221627   0.286   0.441   2.333 -0.7149  0.3532  0.2819
 3390SOL     OW21628   0.997   1.515   4.283  0.1258 -0.5928  0.1075
 3390SOL    HW121629   1.003   1.442   4.222  2.9325  0.3431 -0.7497
 3390SOL    HW221630   0.992   1.591   4.226 -0.2131 -0.7224 -0.0363
 3391SOL     OW21631   1.760   3.129   2.739 -0.2097 -0.1334 -0.1367
 3391SOL    HW121632   1.793   3.158   2.824  1.4999 -0.7422 -0.6009
 3391SOL    HW221633   1.804   3.181   2.672 -2.6399  1.7062 -0.3465
 3392SOL     OW21634   2.119   3.100   7.116  0.1499 -0.0179 -0.3024
 3392SOL    HW121635   2.166   3.183   7.110 -1.4377  1.0357  1.8290
 3392SOL    HW221636   2.028   3.128   7.108  0.1748 -0.0521 -0.6904
 3393SOL     OW21637   0.856   1.866   6.727 -0.3752 -0.2771  0.3974
 3393SOL    HW121638   0.914   1.904   6.793  0.2457  0.5186 -0.6064
 3393SOL    HW221639   0.905   1.784   6.717  0.5961  0.2658  0.7670
 3394SOL     OW21640   0.151   2.025   4.907 -0.6809 -0.2940  0.2331
 3394SOL    HW121641   0.075   2.071   4.872  1.7772  4.3065  0.8974
 3394SOL    HW221642   0.102   1.972   4.971 -0.4830 -2.4209 -1.4010
 3395SOL     OW21643   0.265   2.813   0.982  0.0674  0.1055  0.4037
 3395SOL    HW121644   0.285   2.902   0.954  0.9581 -0.6870 -1.5123
 3395SOL    HW221645   0.354   2.778   0.976 -0.0056  0.0283 -0.2543
 3396SOL     OW21646   2.379   3.715  10.204 -0.1697  0.4052 -0.2311
 3396SOL    HW121647   2.391   3.805  10.174 -0.5958  0.1242 -1.2355
 3396SOL    HW221648   2.292   3.718  10.243  0.2349 -0.0317  0.7260
 3397SOL     OW21649   2.652   0.300  15.750 -0.4234  0.6356 -0.4354
 3397SOL    HW121650   2.622   0.332  15.665 -0.6542 -0.8219 -0.8993
 3397SOL    HW221651   2.670   0.382  15.797 -1.2837 -0.7335  2.2646
 3398SOL     OW21652   4.476   0.201  16.332  0.0134 -0.2470  0.8118
 3398SOL    HW121653   4.506   0.184  16.243 -0.7013 -0.1235  0.5554
 3398SOL    HW221654   4.443   0.114  16.354 -0.2983 -0.2386  0.3630
 3399SOL     OW21655   3.351   3.030  14.127  0.8356  0.1241  0.2085
 3399SOL    HW121656   3.305   3.114  14.134 -1.7866 -1.2380 -0.4781
 3399SOL    HW221657   3.286   2.981  14.177  0.5131 -2.1865 -2.4590
 3400SOL     OW21658   2.260   2.077   0.742  0.1278  0.3696  0.3767
 3400SOL    HW121659   2.274   1.987   0.712 -0.3431 -0.0688  1.4723
 3400SOL    HW221660   2.353   2.091   0.760  0.5737  0.1560 -1.7726
 3401SOL     OW21661   0.808   1.983   1.771 -0.4735 -0.0439  0.6505
 3401SOL    HW121662   0.757   2.062   1.752  2.8831  1.8956 -0.4398
 3401SOL    HW221663   0.748   1.940   1.831  1.0477  0.6256  2.6787
 3402SOL     OW21664   0.663   3.223  10.822 -0.1187 -0.0264  0.0443
 3402SOL    HW121665   0.609   3.252  10.748 -0.9661  1.0736  1.0805
 3402SOL    HW221666   0.748   3.203  10.784 -0.3798 -0.3569 -0.3674
 3403SOL     OW21667   0.804   4.542   4.386  0.1491  0.1983  0.1176
 3403SOL    HW121668   0.767   4.583   4.308  1.7908 -2.4181 -2.0474
 3403SOL    HW221669   0.827   4.607   4.453  1.6158 -0.2313  0.0417
 3404SOL     OW21670   2.015   1.486  16.440  0.1374  0.0223 -0.0372
 3404SOL    HW121671   2.100   1.506  16.402 -0.6196 -0.5135 -2.0460
 3404SOL    HW221672   2.029   1.446  16.525  0.0551  0.8302  0.3613
 3405SOL     OW21673   1.185   1.503   4.500 -0.2958 -0.1807  0.0853
 3405SOL    HW121674   1.143   1.515   4.414  1.4575 -1.8167 -0.9807
 3405SOL    HW221675   1.124   1.448   4.550 -0.0112  1.3821  2.1309
 3406SOL     OW21676   3.267   4.493   8.282 -0.2496  0.0240 -0.5523
 3406SOL    HW121677   3.224   4.566   8.327 -1.0659 -1.4000  0.9793
 3406SOL    HW221678   3.306   4.534   8.205  1.1083  0.3747  0.3254
 3407SOL     OW21679   2.279   3.929   9.287 -0.0622 -0.3589  0.3069
 3407SOL    HW121680   2.288   3.873   9.210 -0.7856  2.1623 -1.5937
 3407SOL    HW221681   2.189   3.909   9.314  0.8267 -1.4868  2.4346
 3408SOL     OW21682   3.784   3.346   4.037  0.0747  0.0935 -0.2420
 3408SOL    HW121683   3.867   3.395   4.037 -0.7805  1.5278  0.0831
 3408SOL    HW221684   3.793   3.275   4.101 -1.8694  0.1138  0.0410
 3409SOL     OW21685   2.535   3.297   1.060 -0.1300 -0.2625  0.0032
 3409SOL    HW121686   2.504   3.220   1.109  0.0964  0.3453  1.0988
 3409SOL    HW221687   2.452   3.343   1.051 -0.3787 -0.7473 -0.1821
 3410SOL     OW21688   1.428   1.873   2.173 -0.3433  0.1235 -0.5037
 3410SOL    HW121689   1.349   1.926   2.160  0.5014  1.6227  0.5039
 3410SOL    HW221690   1.484   1.947   2.198  0.2476 -0.2703 -0.6769
 3411SOL     OW21691   0.889   4.043   1.655 -0.1424  0.0568  0.1969
 3411SOL    HW121692   0.821   4.101   1.688  1.2146  0.8029  1.6615
 3411SOL    HW221693   0.857   4.038   1.564  0.1419  0.6648  0.0672
 3412SOL     OW21694   4.194   1.810   1.401  0.2379  0.4483 -0.4229
 3412SOL    HW121695   4.235   1.883   1.447 -2.2521  1.7794 -0.2560
 3412SOL    HW221696   4.244   1.808   1.320 -0.3420 -0.4976 -0.7555
 3413SOL     OW21697   1.792   0.151   4.902  1.1658  0.8673 -0.1583
 3413SOL    HW121698   1.804   0.073   4.848 -0.3286  1.1546 -0.9097
 3413SOL    HW221699   1.773   0.203   4.823  1.3946 -0.2701 -0.9622
 3414SOL     OW21700   1.694   4.093  16.008  0.0133 -0.2884 -0.0235
 3414SOL    HW121701   1.693   3.997  16.004  2.2104 -0.2437 -1.6084
 3414SOL    HW221702   1.726   4.123  15.923  0.0346  0.6309  0.3154
 3415SOL     OW21703   2.378   1.044   4.132  0.0732  0.0646 -0.2060
 3415SOL    HW121704   2.473   1.056   4.131  0.2159 -0.9906 -0.2708
 3415SOL    HW221705   2.363   1.052   4.226  0.6063 -0.1044 -0.1082
 3416SOL     OW21706   3.020   1.047   7.803  0.0232 -0.1244 -0.0170
 3416SOL    HW121707   2.934   1.059   7.762  0.6192 -1.1794 -1.5282
 3416SOL    HW221708   3.034   1.142   7.811  0.4166 -0.1593 -0.3141
 3417SOL     OW21709   4.661   3.401   3.709 -0.7069  0.1693  0.2137
 3417SOL    HW121710   4.591   3.354   3.663 -0.1009  1.5553 -2.1352
 3417SOL    HW221711   4.704   3.443   3.635  1.9350 -2.9239  0.0107
 3418SOL     OW21712   1.077   3.214  10.526  0.5927 -0.4837  0.6256
 3418SOL    HW121713   1.109   3.144  10.469 -0.5132 -0.5102  0.0413
 3418SOL    HW221714   1.148   3.278  10.527  1.1146 -1.0681  0.4269
 3419SOL     OW21715   1.827   3.229   0.244 -0.2518  0.0936 -0.1746
 3419SOL    HW121716   1.916   3.197   0.256  0.1665  1.3499  0.0671
 3419SOL    HW221717   1.806   3.178   0.165  0.4597  0.1949 -0.4278
 3420SOL     OW21718   0.952   3.363   9.984 -0.2648 -0.1144  0.1180
 3420SOL    HW121719   0.914   3.314   9.912  0.8511 -0.2779 -0.3701
 3420SOL    HW221720   0.900   3.441  10.002 -0.5926 -0.4912  0.7764
 3421SOL     OW21721   4.681   3.045  14.928  0.2886  0.0632  0.0414
 3421SOL    HW121722   4.622   3.072  14.998 -1.6462 -0.8263 -1.2288
 3421SOL    HW221723   4.660   3.109  14.859  3.5448 -0.6303 -1.5752
 3422SOL     OW21724   2.623   4.483   5.870 -0.1365 -0.2325  0.0256
 3422SOL    HW121725   2.602   4.503   5.962  1.4040 -0.4386  0.4298
 3422SOL    HW221726   2.542   4.518   5.834  0.0573  1.1013  0.8585
 3423SOL     OW21727   2.913   0.810   8.571  0.0330  0.0093  0.0275
 3423SOL    HW121728   2.874   0.869   8.507  0.7812  0.8934  0.3840
 3423SOL    HW221729   2.968   0.757   8.514  1.7829  1.1293  0.6687
 3424SOL     OW21730   3.664   2.800   9.319  0.1552  0.1592 -0.1397
 3424SOL    HW121731   3.588   2.845   9.357  1.1959  0.8954  1.0622
 3424SOL    HW221732   3.638   2.709   9.335  0.5654  0.0148 -0.2984
 3425SOL     OW21733   0.083   3.370   5.370 -0.2326  0.2560 -0.3725
 3425SOL    HW121734   0.007   3.333   5.415 -1.2628  1.2965 -1.2437
 3425SOL    HW221735   0.158   3.314   5.392 -1.3982 -0.6873  1.1723
 3426SOL     OW21736   1.298   2.459   2.545  0.0754 -0.0487 -0.1128
 3426SOL    HW121737   1.220   2.428   2.590  0.5616 -0.5236  0.4126
 3426SOL    HW221738   1.283   2.430   2.455  0.2919 -1.4790  0.3109
 3427SOL     OW21739   1.569   1.108   3.003 -0.0862 -0.2696  0.0792
 3427SOL    HW121740   1.525   1.039   2.953 -1.1326  0.3582  0.1298
 3427SOL    HW221741   1.520   1.111   3.086 -0.9987 -0.1937 -0.4687
 3428SOL     OW21742   1.467   4.262   4.990 -0.3291  0.3690 -0.2918
 3428SOL    HW121743   1.476   4.170   5.017 -0.6698 -0.3324 -2.5504
 3428SOL    HW221744   1.557   4.294   4.996  0.1834 -1.6851  2.9806
 3429SOL     OW21745   1.814   0.705   3.235  0.4818  0.5633  0.8555
 3429SOL    HW121746   1.889   0.666   3.280  2.4900  2.7791 -0.6130
 3429SOL    HW221747   1.811   0.653   3.155 -0.1076 -0.1006  1.2956
 3430SOL     OW21748   1.331   0.432   5.378  0.5875 -0.0236 -0.5503
 3430SOL    HW121749   1.363   0.455   5.466 -1.0530 -1.3760  0.4068
 3430SOL    HW221750   1.376   0.501   5.328 -1.9348  2.2267  0.2919
 3431SOL     OW21751   1.967   0.538   9.924 -0.1707  0.0248 -0.0378
 3431SOL    HW121752   2.026   0.518   9.996  0.7833 -1.5487 -1.2641
 3431SOL    HW221753   1.887   0.565   9.969 -0.0539  0.1058  0.1210
 3432SOL     OW21754   3.746   4.536   3.910  0.3841  0.6269  0.3436
 3432SOL    HW121755   3.774   4.507   3.824  2.2494  2.7496  0.2338
 3432SOL    HW221756   3.657   4.502   3.900  0.8669  0.4639 -3.3048
 3433SOL     OW21757   0.418   3.357   8.435 -0.2420 -0.6049  0.6318
 3433SOL    HW121758   0.487   3.418   8.460 -0.3312 -0.1685 -0.1782
 3433SOL    HW221759   0.457   3.275   8.402 -3.6773 -1.4464 -1.3064
 3434SOL     OW21760   1.133   1.246   1.256 -0.2797 -0.7649 -0.1220
 3434SOL    HW121761   1.183   1.283   1.183 -1.7379  0.4064 -0.5468
 3434SOL    HW221762   1.171   1.158   1.254  2.0085  0.2408 -1.1811
 3435SOL     OW21763   2.597   1.710  17.228  0.2471  0.5641  0.4967
 3435SOL    HW121764   2.572   1.750  17.145  1.7946 -1.2969 -0.8580
 3435SOL    HW221765   2.520   1.728  17.282  1.7126  0.1579  2.7474
 3436SOL     OW21766   1.547   0.615   2.507 -0.5633  0.2145 -0.2884
 3436SOL    HW121767   1.574   0.532   2.547 -2.9512 -1.7980 -2.8295
 3436SOL    HW221768   1.553   0.603   2.413 -2.0220  3.3593 -0.7621
 3437SOL     OW21769   2.809   3.130   7.818 -0.5809  0.1029  0.0480
 3437SOL    HW121770   2.743   3.151   7.883  0.1996 -3.2644  1.8863
 3437SOL    HW221771   2.889   3.174   7.847  0.7537 -0.6840 -2.3869
 3438SOL     OW21772   3.029   0.978   7.332 -0.0146  0.0599 -0.1562
 3438SOL    HW121773   3.028   0.947   7.242 -2.2575 -0.9800  0.2222
 3438SOL    HW221774   3.075   1.061   7.322  1.4903 -1.0950 -2.7155
 3439SOL     OW21775   4.000   2.159  13.135  0.0038  0.0818 -0.0083
 3439SOL    HW121776   3.935   2.169  13.205  1.4020 -0.5901  1.3774
 3439SOL    HW221777   3.970   2.240  13.094 -1.7273  0.0348  1.1498
 3440SOL     OW21778   4.272   0.852   3.410 -0.0949  0.1579 -0.0880
 3440SOL    HW121779   4.238   0.937   3.440 -0.4120 -0.1328  0.3596
 3440SOL    HW221780   4.366   0.867   3.398 -0.1601  0.6336 -0.0041
 3441SOL     OW21781   0.348   3.482   8.889  0.2580  0.5689  0.6972
 3441SOL    HW121782   0.277   3.471   8.952  0.8710 -1.2297  1.0751
 3441SOL    HW221783   0.417   3.470   8.954 -0.4089 -0.1093  1.2857
 3442SOL     OW21784   4.365   0.034   0.568 -0.2064  0.3227  0.1494
 3442SOL    HW121785   4.384   4.674   0.609  0.1155  1.1494  1.6834
 3442SOL    HW221786   4.316   0.006   0.490 -1.7902  0.0174  1.2658
 3443SOL     OW21787   4.521   4.023  11.166  0.4459  0.0815  0.7100
 3443SOL    HW121788   4.480   3.993  11.084  2.0133 -0.2433  0.0371
 3443SOL    HW221789   4.604   4.057  11.133 -0.1643 -0.3614 -1.2864
 3444SOL     OW21790   3.126   2.417   7.256  0.5928 -0.8024 -0.3863
 3444SOL    HW121791   3.079   2.456   7.182  1.5628  0.0584 -0.5494
 3444SOL    HW221792   3.162   2.499   7.289 -2.1135 -0.3221  1.3533
 3445SOL     OW21793   4.361   2.275   6.021  0.0441 -1.1916  0.0013
 3445SOL    HW121794   4.440   2.262   5.968  0.6670 -1.0249  0.8991
 3445SOL    HW221795   4.348   2.369   6.009  3.7305 -0.7674 -0.6639
 3446SOL     OW21796   1.737   1.384   5.050  0.4667  0.3003 -1.0020
 3446SOL    HW121797   1.696   1.470   5.041  0.2437  0.2861 -0.1058
 3446SOL    HW221798   1.772   1.376   4.961 -0.8386 -0.5856 -1.4374
 3447SOL     OW21799   0.164   3.577   5.549  0.0440 -0.1814 -0.2796
 3447SOL    HW121800   0.138   3.530   5.469 -0.6108  0.4158 -0.4107
 3447SOL    HW221801   0.259   3.579   5.534  0.1521  1.4708  0.5990
 3448SOL     OW21802   2.168   2.158  15.524 -0.0396  0.7437 -0.0332
 3448SOL    HW121803   2.089   2.137  15.573  1.7275 -2.9272  1.2212
 3448SOL    HW221804   2.196   2.077  15.480 -1.3753  0.1871  0.1295
 3449SOL     OW21805   0.147   3.375  16.025  0.5205 -0.3302  0.3443
 3449SOL    HW121806   0.097   3.443  15.980  2.0180  1.2943  1.1470
 3449SOL    HW221807   0.198   3.424  16.089  0.2469  0.3481  0.0474
 3450SOL     OW21808   4.674   3.214   8.714  0.4745  0.2843 -0.3435
 3450SOL    HW121809   4.643   3.153   8.780  1.5218 -1.4125 -1.4084
 3450SOL    HW221810   4.688   3.294   8.764  1.4955 -0.6783  0.9171
 3451SOL     OW21811   0.986   0.416   5.969 -0.6249  0.1760  0.3415
 3451SOL    HW121812   0.900   0.383   5.996  1.3836 -1.5179  4.6592
 3451SOL    HW221813   0.979   0.410   5.874  1.6001 -0.3307  0.2072
 3452SOL     OW21814   2.362   2.905   5.720 -0.0932 -0.4067  0.1901
 3452SOL    HW121815   2.369   2.847   5.644 -3.8722  0.7940 -1.0853
 3452SOL    HW221816   2.286   2.856   5.751  1.3978 -2.9242 -0.1180
 3453SOL     OW21817   1.809   1.254   2.252  0.5442  0.6348 -0.3016
 3453SOL    HW121818   1.715   1.237   2.247  1.1422 -2.7393 -0.1853
 3453SOL    HW221819   1.837   1.241   2.161 -0.1487 -0.5421 -0.3366
 3454SOL     OW21820   4.660   0.284   0.758  0.2841  0.6124 -0.7070
 3454SOL    HW121821   4.590   0.345   0.780  0.8260  0.7789  0.5232
 3454SOL    HW221822   4.718   0.335   0.702  0.6415  1.9029  0.8532
 3455SOL     OW21823   4.183   1.450  15.458  0.3557 -0.0166  0.0656
 3455SOL    HW121824   4.223   1.414  15.537 -1.5834  1.6994  1.8446
 3455SOL    HW221825   4.141   1.373  15.419  0.6925  0.3925 -1.1197
 3456SOL     OW21826   4.334   1.774  12.991  0.1129 -0.2786 -0.1711
 3456SOL    HW121827   4.313   1.848  13.048 -0.6107 -0.9073  0.3793
 3456SOL    HW221828   4.413   1.739  13.033 -0.2148 -0.5697  0.1970
 3457SOL     OW21829   0.776   4.707   0.573 -0.0819 -0.4835 -0.2469
 3457SOL    HW121830   0.719   4.636   0.545  0.8523 -1.1027 -0.5660
 3457SOL    HW221831   0.714   0.051   0.601  1.3405  1.0238 -0.7217
 3458SOL     OW21832   0.044   3.366   5.688 -0.4305 -0.3057 -0.1250
 3458SOL    HW121833   4.705   3.389   5.620 -0.9123  2.4635  1.2694
 3458SOL    HW221834   0.104   3.439   5.676  1.6367 -2.2199 -1.3823
 3459SOL     OW21835   2.818   2.495   5.995 -0.5878  0.4253  0.4405
 3459SOL    HW121836   2.856   2.554   6.059 -0.1903  0.6809 -0.0301
 3459SOL    HW221837   2.876   2.419   5.991  0.4522  1.3414 -2.1150
 3460SOL     OW21838   0.539   2.844   8.724 -0.2283  0.2875 -0.2537
 3460SOL    HW121839   0.496   2.772   8.678 -1.9424  0.1554  1.5516
 3460SOL    HW221840   0.612   2.866   8.666  1.6713  1.3077  2.5065
 3461SOL     OW21841   4.669   0.453   3.410  0.0608  0.4536 -0.1050
 3461SOL    HW121842   0.015   0.395   3.443  0.1326  0.6854  0.1520
 3461SOL    HW221843   4.718   0.514   3.356 -2.4649  1.6245 -1.0449
 3462SOL     OW21844   1.217   3.703   5.219  0.4687  0.1149 -0.3803
 3462SOL    HW121845   1.307   3.707   5.252  1.0220  2.8490 -2.2248
 3462SOL    HW221846   1.176   3.629   5.264 -0.9711  1.2781  0.2228
 3463SOL     OW21847   1.206   1.343   2.851  0.3515  0.8043  0.2559
 3463SOL    HW121848   1.282   1.300   2.814 -0.2460  0.2157 -0.2888
 3463SOL    HW221849   1.244   1.406   2.911  1.3996  0.5391 -0.1400
 3464SOL     OW21850   3.976   1.804   2.431 -0.1445  0.0846  0.7185
 3464SOL    HW121851   3.950   1.712   2.437  1.5356 -0.5577 -1.8421
 3464SOL    HW221852   4.069   1.787   2.418 -0.1537 -0.3831  1.2151
 3465SOL     OW21853   2.758   2.852   4.978 -0.1645  0.0920  0.4103
 3465SOL    HW121854   2.836   2.824   5.025  1.4167  0.5315 -1.9385
 3465SOL    HW221855   2.723   2.911   5.045  3.4499  2.2296  0.4138
 3466SOL     OW21856   4.723   0.223   3.673 -0.0818  0.2129 -0.2911
 3466SOL    HW121857   0.025   0.157   3.610 -0.8563  0.1100 -0.5076
 3466SOL    HW221858   0.062   0.291   3.649  1.9673 -1.1485  1.3017
 3467SOL     OW21859   3.858   1.191  17.495  0.2956 -0.2712 -0.1624
 3467SOL    HW121860   3.847   1.286  17.494 -0.7829 -0.3566  2.1068
 3467SOL    HW221861   3.806   1.172  17.417  1.5205  0.7563 -1.2373
 3468SOL     OW21862   1.172   2.632   6.070 -0.1931 -0.4339 -0.2057
 3468SOL    HW121863   1.133   2.604   5.987  0.4723  1.3832 -1.1124
 3468SOL    HW221864   1.101   2.602   6.128  0.1048 -1.3298 -0.3004
 3469SOL     OW21865   3.056   0.183  16.920  0.1452 -0.2757  0.0400
 3469SOL    HW121866   3.111   0.135  16.858 -1.5669  0.4423 -2.0413
 3469SOL    HW221867   3.018   0.127  16.988  0.8129 -0.2448  0.4365
 3470SOL     OW21868   1.294   0.601  17.275  0.6743  0.0471 -0.2146
 3470SOL    HW121869   1.358   0.531  17.266  0.1553 -0.4553  0.0136
 3470SOL    HW221870   1.294   0.610  17.370  0.4865  0.7363 -0.2804
 3471SOL     OW21871   2.587   0.622   6.590 -0.1824 -0.3008  0.6333
 3471SOL    HW121872   2.511   0.589   6.637  0.3331 -1.4988  0.6377
 3471SOL    HW221873   2.545   0.698   6.550 -1.0882 -0.4257  1.3549
 3472SOL     OW21874   0.778   1.104   9.555 -0.4439 -0.0297 -0.4363
 3472SOL    HW121875   0.870   1.115   9.531 -0.4116  1.3845  0.3605
 3472SOL    HW221876   0.772   1.174   9.620 -0.6007  0.3009 -0.8038
 3473SOL     OW21877   2.415   0.154  14.126 -0.1971 -0.5509  0.0997
 3473SOL    HW121878   2.384   0.172  14.037  0.2213  0.7049  0.2170
 3473SOL    HW221879   2.498   0.200  14.130  0.9988 -2.6912 -0.1397
 3474SOL     OW21880   2.877   0.634   6.567  0.4300  0.1745 -0.3698
 3474SOL    HW121881   2.900   0.721   6.599 -0.1257  0.4352 -0.6877
 3474SOL    HW221882   2.795   0.627   6.616  0.2210 -1.7901 -1.0050
 3475SOL     OW21883   4.244   1.556   1.924 -0.0972 -0.1831 -0.3460
 3475SOL    HW121884   4.154   1.524   1.929 -0.6009  1.1425 -0.8385
 3475SOL    HW221885   4.295   1.476   1.937 -0.0549  0.2981  2.6334
 3476SOL     OW21886   4.031   0.591   0.489  0.6954 -0.1550  0.1122
 3476SOL    HW121887   3.965   0.530   0.522 -2.2477  3.0778  0.2126
 3476SOL    HW221888   4.064   0.543   0.413 -1.8578  0.6272 -1.5379
 3477SOL     OW21889   3.462   2.749   4.413  0.0549  0.3004 -0.4978
 3477SOL    HW121890   3.393   2.758   4.347 -1.5556  0.1801  1.1889
 3477SOL    HW221891   3.526   2.815   4.385  0.0469  0.2923 -0.5355
 3478SOL     OW21892   1.498   3.263   3.766  0.1062  0.3104  0.3878
 3478SOL    HW121893   1.488   3.185   3.820  1.1466 -0.3644 -0.3798
 3478SOL    HW221894   1.588   3.249   3.736 -0.4005  0.2088 -1.0821
 3479SOL     OW21895   3.452   1.513   7.628  0.0196  0.2635 -0.2084
 3479SOL    HW121896   3.471   1.477   7.714 -0.4301 -0.8566 -0.5731
 3479SOL    HW221897   3.461   1.607   7.644 -2.7870  0.5539 -0.4883
 3480SOL     OW21898   2.747   2.818   9.301 -0.1715 -0.3406 -0.4565
 3480SOL    HW121899   2.840   2.837   9.301 -0.1342 -0.5330 -0.2370
 3480SOL    HW221900   2.719   2.888   9.241  1.4816  0.8295  0.1495
 3481SOL     OW21901   3.282   0.810   3.663 -0.4756 -0.2779 -0.1674
 3481SOL    HW121902   3.365   0.843   3.696  0.4705 -1.5959 -1.2006
 3481SOL    HW221903   3.293   0.842   3.573  0.2981 -0.9931 -0.3357
 3482SOL     OW21904   3.948   2.713  17.284  0.4657 -0.3261  0.3978
 3482SOL    HW121905   4.038   2.716  17.319  0.5570  0.4757  0.0965
 3482SOL    HW221906   3.945   2.801  17.245  1.1881 -0.1613  0.7135
 3483SOL     OW21907   0.621   1.760  13.126 -0.6331  0.0061  0.0056
 3483SOL    HW121908   0.613   1.666  13.140  0.2166 -0.1756 -0.6874
 3483SOL    HW221909   0.531   1.782  13.147 -0.6653 -2.0385  1.9800
 3484SOL     OW21910   0.239   4.295  15.885 -0.1549  0.0362  0.3885
 3484SOL    HW121911   0.300   4.368  15.876 -1.8427  1.5028  0.8621
 3484SOL    HW221912   0.206   4.271  15.798  0.6218  0.8057 -0.1111
 3485SOL     OW21913   3.434   4.475   8.548  0.5087 -0.0660  0.7148
 3485SOL    HW121914   3.385   4.459   8.467 -0.8331 -1.1780  1.7559
 3485SOL    HW221915   3.402   4.562   8.573 -0.9666 -1.3021  3.0533
 3486SOL     OW21916   2.939   4.450   7.364 -0.3248  0.3039 -0.4155
 3486SOL    HW121917   2.846   4.463   7.347  0.0876  2.3564 -1.1193
 3486SOL    HW221918   2.982   4.534   7.350 -0.1188  0.2109 -0.3417
 3487SOL     OW21919   2.890   2.049   1.774  0.2135  0.1083 -0.0292
 3487SOL    HW121920   2.864   2.131   1.816 -0.0904  0.2106 -0.4122
 3487SOL    HW221921   2.950   2.076   1.704  0.6275 -0.3716  0.1424
 3488SOL     OW21922   1.985   1.517  16.113 -0.0974  0.0470  0.1360
 3488SOL    HW121923   2.023   1.583  16.055  1.2165 -0.3949  0.5025
 3488SOL    HW221924   1.937   1.573  16.174 -0.9649  1.8105 -2.1608
 3489SOL     OW21925   0.309   3.763   7.659 -0.3325 -0.4327 -0.3555
 3489SOL    HW121926   0.317   3.745   7.753 -0.4401 -2.7252 -0.7786
 3489SOL    HW221927   0.260   3.685   7.633  1.1656 -2.1251  1.8538
 3490SOL     OW21928   1.093   3.576   0.763  0.6001 -0.3469  0.3554
 3490SOL    HW121929   1.164   3.566   0.826  0.1351  0.8299  1.0616
 3490SOL    HW221930   1.096   3.671   0.756  0.1642 -0.4074 -0.5734
 3491SOL     OW21931   3.086   0.199   8.178  0.4853  0.1804  0.3088
 3491SOL    HW121932   3.084   0.247   8.260 -1.3208  0.4173  0.1067
 3491SOL    HW221933   3.057   0.273   8.124  3.5223 -0.2808 -1.9510
 3492SOL     OW21934   3.319   2.177  17.007 -0.2466  0.2794 -0.1642
 3492SOL    HW121935   3.378   2.155  17.079 -2.2970 -2.3430  0.6729
 3492SOL    HW221936   3.335   2.268  16.982  1.7215 -0.0627 -0.1655
 3493SOL     OW21937   2.086   2.674  12.160  0.1673  0.3974 -0.4620
 3493SOL    HW121938   2.115   2.607  12.098  0.6637 -1.2615  1.5576
 3493SOL    HW221939   2.048   2.741  12.103 -1.6235 -1.1211 -1.0646
 3494SOL     OW21940   2.674   1.458   6.983 -0.2413 -0.0942  0.1797
 3494SOL    HW121941   2.750   1.464   7.040 -1.1952  0.9942  1.3312
 3494SOL    HW221942   2.673   1.546   6.945 -0.3442 -0.1779 -0.0091
 3495SOL     OW21943   2.604   1.213   3.776  0.0711  0.1386  0.3234
 3495SOL    HW121944   2.556   1.243   3.699  0.6478 -0.2864 -0.1977
 3495SOL    HW221945   2.649   1.295   3.796  1.6370 -0.1826 -1.9238
 3496SOL     OW21946   0.411   2.055  13.013 -0.3705 -0.2304 -0.0414
 3496SOL    HW121947   0.446   2.013  12.934 -1.3305 -0.1522 -0.5072
 3496SOL    HW221948   0.433   2.148  13.001  0.0469 -0.0409  2.1544
 3497SOL     OW21949   2.116   2.715   5.780  0.2662  0.5020  0.3732
 3497SOL    HW121950   2.127   2.730   5.874 -1.5407 -0.8460  0.8011
 3497SOL    HW221951   2.051   2.645   5.780  1.5753 -0.7249 -1.0627
 3498SOL     OW21952   3.610   3.020   9.078  0.2454 -0.5019 -0.0074
 3498SOL    HW121953   3.565   3.070   9.147 -1.0731  0.2315 -1.3948
 3498SOL    HW221954   3.697   3.012   9.117  0.3868  1.1051  0.0074
 3499SOL     OW21955   0.977   0.730   6.331  0.8678  1.0039 -0.0622
 3499SOL    HW121956   1.053   0.787   6.322  1.7050  0.0906  1.1781
 3499SOL    HW221957   0.964   0.730   6.425 -0.1235  1.9019 -0.2061
 3500SOL     OW21958   4.535   1.384   4.403 -0.5077 -0.0661  0.5613
 3500SOL    HW121959   4.625   1.415   4.392 -0.5201 -0.7585 -1.4285
 3500SOL    HW221960   4.482   1.441   4.347  1.7314  0.9426 -0.5260
 3501SOL     OW21961   3.521   2.444   7.264  0.2841  0.4786  0.4462
 3501SOL    HW121962   3.525   2.527   7.312 -2.7008 -1.3717  3.8843
 3501SOL    HW221963   3.615   2.433   7.248  0.2992 -1.5333  1.9762
 3502SOL     OW21964   0.716   1.499  14.539 -0.2182 -0.3807 -0.1785
 3502SOL    HW121965   0.704   1.558  14.464 -2.5078 -0.5952  0.0165
 3502SOL    HW221966   0.782   1.547  14.590  0.8601 -0.8262 -1.1535
 3503SOL     OW21967   1.468   2.079   4.342  0.0744  0.7682 -0.3653
 3503SOL    HW121968   1.486   2.118   4.256 -1.5707 -2.8372 -2.3219
 3503SOL    HW221969   1.465   2.160   4.392 -1.0558  1.5563 -1.7027
 3504SOL     OW21970   2.423   3.235   4.588 -0.4036 -0.3281 -0.0187
 3504SOL    HW121971   2.498   3.293   4.576  1.6862 -3.4161 -2.0240
 3504SOL    HW221972   2.386   3.285   4.660  2.2515  1.0643  0.3718
 3505SOL     OW21973   4.705   2.574   0.765 -0.2094 -0.3466  0.5042
 3505SOL    HW121974   4.636   2.598   0.827  0.1399 -1.4515  1.3328
 3505SOL    HW221975   0.010   2.497   0.815 -0.1622 -0.8117 -0.2466
 3506SOL     OW21976   1.665   3.108   6.849  0.2201 -0.3179  0.4127
 3506SOL    HW121977   1.681   3.018   6.819 -0.6077  0.6895 -3.1037
 3506SOL    HW221978   1.655   3.159   6.768 -0.6881 -2.0043 -0.5593
 3507SOL     OW21979   2.161   2.414   8.602  0.2665 -0.8848 -0.5945
 3507SOL    HW121980   2.085   2.428   8.659  0.3937 -0.6311 -0.4869
 3507SOL    HW221981   2.230   2.424   8.669 -0.7273  1.0307  0.1380
 3508SOL     OW21982   0.620   0.895  11.427  1.1822 -0.2037  0.1310
 3508SOL    HW121983   0.553   0.903  11.496 -0.6754 -0.7489 -1.6199
 3508SOL    HW221984   0.570   0.866  11.351  0.4999  3.7003 -0.9146
 3509SOL     OW21985   3.315   4.229  13.085  0.1303 -0.2050 -0.0354
 3509SOL    HW121986   3.356   4.272  13.160 -0.9008  0.5223  0.1101
 3509SOL    HW221987   3.303   4.142  13.123  0.0900  0.4792  1.4888
 3510SOL     OW21988   4.251   0.628  15.392  0.6703 -0.1098 -0.1943
 3510SOL    HW121989   4.307   0.700  15.364 -0.3612  0.7012 -0.1588
 3510SOL    HW221990   4.294   0.552  15.351  3.1362  0.5731  1.1293
 3511SOL     OW21991   2.116   1.023   2.001 -0.4071 -0.0161 -0.1264
 3511SOL    HW121992   2.203   1.059   2.016 -0.1490 -0.1538 -1.3381
 3511SOL    HW221993   2.092   1.084   1.932 -0.4425 -3.4409 -3.1562
 3512SOL     OW21994   3.863   4.175   7.894 -0.2924  0.4645 -0.6007
 3512SOL    HW121995   3.884   4.210   7.808 -1.7695  0.5514 -0.9141
 3512SOL    HW221996   3.773   4.207   7.897  0.1178  1.3318  2.9209
 3513SOL     OW21997   2.248   2.540   4.037 -0.8331  0.6421 -0.0685
 3513SOL    HW121998   2.256   2.616   3.979 -2.5910  0.2501 -0.8461
 3513SOL    HW221999   2.188   2.572   4.105 -0.8311 -0.5355  0.4827
 3514SOL     OW22000   2.405   0.768   9.166  0.3599  0.5772 -0.5388
 3514SOL    HW122001   2.420   0.681   9.204 -1.7992  0.7436  0.6772
 3514SOL    HW222002   2.318   0.754   9.129 -0.5516  1.0668  1.3972
 3515SOL     OW22003   4.152   3.579   6.820 -0.0045  0.9000  0.2534
 3515SOL    HW122004   4.236   3.626   6.817  0.5508 -0.0046  1.4882
 3515SOL    HW222005   4.179   3.487   6.821 -0.6954  0.7008 -0.4015
 3516SOL     OW22006   2.908   2.371  11.070 -0.0184  0.4699 -1.1378
 3516SOL    HW122007   2.968   2.343  11.139 -0.8917  2.1809  0.3160
 3516SOL    HW222008   2.854   2.293  11.060 -2.5467  2.3332 -2.0107
 3517SOL     OW22009   0.497   0.095  12.834  0.1777  0.2023 -0.3874
 3517SOL    HW122010   0.592   0.110  12.833  0.7209 -3.1176 -0.1992
 3517SOL    HW222011   0.495   0.025  12.770 -0.8700 -1.5046  1.5096
 3518SOL     OW22012   3.938   1.365   5.029  0.1144 -0.1111 -0.1163
 3518SOL    HW122013   3.956   1.455   5.056  0.8207 -0.0080 -0.9051
 3518SOL    HW222014   3.866   1.346   5.089 -0.3875  1.7283 -0.1472
 3519SOL     OW22015   3.423   1.338   6.902  0.0236  0.1920 -0.2735
 3519SOL    HW122016   3.484   1.266   6.919  0.0094  0.3114  0.2691
 3519SOL    HW222017   3.474   1.384   6.835 -1.1673 -0.6707 -1.7722
 3520SOL     OW22018   1.801   2.731   0.020  0.0731  0.4637 -0.0455
 3520SOL    HW122019   1.879   2.678   0.004  1.1748  2.1640 -0.2884
 3520SOL    HW222020   1.790   2.757  17.626 -1.8103  0.6698  0.2299
 3521SOL     OW22021   1.452   2.072   8.752 -0.0469  0.1589 -0.2493
 3521SOL    HW122022   1.392   2.043   8.683  0.2536 -0.1144 -0.3954
 3521SOL    HW222023   1.530   2.068   8.697  0.2785  0.1378  0.2176
 3522SOL     OW22024   1.167   3.202   9.815 -0.2224 -0.4555  0.5906
 3522SOL    HW122025   1.140   3.284   9.856  2.3215 -0.2982  1.9406
 3522SOL    HW222026   1.248   3.186   9.863  0.2329 -0.9091 -0.3299
 3523SOL     OW22027   2.582   2.720   5.206  0.1774  0.3080  0.1495
 3523SOL    HW122028   2.607   2.688   5.119 -1.6640 -1.7567  0.3798
 3523SOL    HW222029   2.486   2.715   5.205  0.2050 -0.2251  0.2030
 3524SOL     OW22030   4.377   0.418  14.480  0.4196 -0.0030 -0.1812
 3524SOL    HW122031   4.471   0.430  14.473  0.6324 -1.2389  0.7904
 3524SOL    HW222032   4.346   0.416  14.389  0.4579  1.6610 -0.2375
 3525SOL     OW22033   2.992   0.777   7.881 -0.1828 -0.1070  0.2563
 3525SOL    HW122034   3.071   0.740   7.841 -0.1600  1.3907 -1.0708
 3525SOL    HW222035   3.012   0.870   7.873 -1.0462  0.0111 -0.5287
 3526SOL     OW22036   2.128   4.086   3.606 -0.0545 -0.7049 -0.2024
 3526SOL    HW122037   2.204   4.143   3.597 -0.9864  0.4157 -1.0149
 3526SOL    HW222038   2.099   4.123   3.690  3.1687  0.2250  0.4908
 3527SOL     OW22039   1.987   3.896   9.361 -0.5203 -0.5197  0.0911
 3527SOL    HW122040   1.982   3.992   9.366 -1.4868 -0.5563 -0.2823
 3527SOL    HW222041   1.974   3.872   9.453  1.2091  0.3208  0.5626
 3528SOL     OW22042   2.303   4.187   4.536  0.1126  0.1139 -0.4203
 3528SOL    HW122043   2.367   4.228   4.478 -0.3965 -2.6002 -2.8812
 3528SOL    HW222044   2.342   4.193   4.624 -0.2368 -2.4175 -0.1084
 3529SOL     OW22045   3.309   0.342   6.926  0.1403 -0.2828 -0.4224
 3529SOL    HW122046   3.402   0.326   6.943  0.8333  2.9791 -1.2241
 3529SOL    HW222047   3.288   0.255   6.959 -1.0248 -0.1425 -0.8080
 3530SOL     OW22048   4.348   3.353   5.686 -0.0204 -0.0819  0.1468
 3530SOL    HW122049   4.272   3.314   5.641  1.1744 -0.0308 -1.9137
 3530SOL    HW222050   4.324   3.328   5.775  0.4767 -0.8017  0.0750
 3531SOL     OW22051   4.491   1.589   7.449  0.2764 -0.1675  0.1729
 3531SOL    HW122052   4.571   1.624   7.410 -0.5049  1.2330 -0.1790
 3531SOL    HW222053   4.467   1.514   7.395  0.1761  0.3577 -0.5067
 3532SOL     OW22054   4.301   2.105   9.020 -0.1967 -0.3135 -0.5883
 3532SOL    HW122055   4.250   2.071   8.946 -1.8316  1.8206 -0.4184
 3532SOL    HW222056   4.240   2.170   9.055  0.8452 -0.8480  2.2131
 3533SOL     OW22057   2.049   2.978   3.504 -1.0526  0.4754  0.5721
 3533SOL    HW122058   2.111   3.042   3.538  1.9994 -1.9985 -0.4190
 3533SOL    HW222059   2.073   2.987   3.412 -0.9215  0.3277  0.5923
 3534SOL     OW22060   1.089   0.924   3.760 -0.1152 -0.3408 -0.2079
 3534SOL    HW122061   1.079   0.896   3.669  0.2513  0.3453 -0.4611
 3534SOL    HW222062   1.160   0.987   3.745  0.3304 -1.9171 -4.7613
 3535SOL     OW22063   0.599   0.258   9.571 -0.1588  0.3968  0.6585
 3535SOL    HW122064   0.592   0.270   9.476  0.5460 -0.2359  0.5227
 3535SOL    HW222065   0.585   0.165   9.591  0.8905 -0.4144 -2.4344
 3536SOL     OW22066   1.744   1.874   4.046 -0.0851  0.2086  0.0018
 3536SOL    HW122067   1.655   1.842   4.034 -1.1369  2.7657  1.1670
 3536SOL    HW222068   1.770   1.902   3.958  2.7674 -2.2052  0.0593
 3537SOL     OW22069   2.621   4.665   8.433 -0.6685 -0.2695 -0.0316
 3537SOL    HW122070   2.674   4.711   8.497  0.8722 -2.6031  0.3647
 3537SOL    HW222071   2.549   0.003   8.428 -1.1881 -0.6617  2.6736
 3538SOL     OW22072   1.518   1.799   6.625  0.0224  0.3457 -0.0894
 3538SOL    HW122073   1.489   1.783   6.715  2.8273 -0.7377  0.6392
 3538SOL    HW222074   1.434   1.827   6.590 -0.0624  0.9401  0.5930
 3539SOL     OW22075   0.253   4.225   3.742 -0.0801  0.2471  0.0012
 3539SOL    HW122076   0.244   4.182   3.656  1.4573  1.9297 -1.0060
 3539SOL    HW222077   0.177   4.194   3.790 -0.3235 -0.8228 -1.0720
 3540SOL     OW22078   4.429   4.158   2.741  0.0262 -0.2049  0.2019
 3540SOL    HW122079   4.506   4.160   2.684 -1.5096 -0.7850 -1.9075
 3540SOL    HW222080   4.387   4.239   2.713  1.5369  1.1298  1.8380
 3541SOL     OW22081   4.010   1.118   6.816  0.5333  0.2970  0.3602
 3541SOL    HW122082   4.029   1.158   6.901 -1.1818  1.8582  0.0131
 3541SOL    HW222083   4.056   1.183   6.762 -0.2535  1.6015  1.2486
 3542SOL     OW22084   0.054   0.847  11.791 -0.3925 -0.2508  0.3015
 3542SOL    HW122085   0.126   0.808  11.840  0.1747  1.2544  0.6839
 3542SOL    HW222086   0.097   0.921  11.746 -0.5361  0.1721  0.8584
 3543SOL     OW22087   2.676   4.127  17.243 -0.2556  0.1248  0.0636
 3543SOL    HW122088   2.745   4.117  17.178  1.2216  0.8446  1.5346
 3543SOL    HW222089   2.624   4.203  17.217  2.6971  1.7178 -1.1606
 3544SOL     OW22090   1.796   1.992   2.214 -0.3423 -0.0624 -0.1986
 3544SOL    HW122091   1.750   2.018   2.134  0.8485  0.1134 -0.8271
 3544SOL    HW222092   1.877   1.973   2.168 -0.0320 -0.5936  0.5759
 3545SOL     OW22093   3.344   4.358   5.703  0.2770 -0.3865 -0.2968
 3545SOL    HW122094   3.337   4.266   5.729  1.9408 -0.3308  0.3232
 3545SOL    HW222095   3.253   4.382   5.723  0.6697 -0.5969  1.6715
 3546SOL     OW22096   2.486   0.447  13.809 -0.4677  0.0709  0.7931
 3546SOL    HW122097   2.439   0.531  13.801  0.8173  0.7245  0.1228
 3546SOL    HW222098   2.563   0.460  13.754 -0.6268 -1.7168  0.1670
 3547SOL     OW22099   2.656   0.909  13.276 -0.2933  0.0830 -0.2072
 3547SOL    HW122100   2.638   0.924  13.183  0.0156  1.6067 -0.0270
 3547SOL    HW222101   2.719   0.979  13.293 -1.2086  1.7488 -3.4869
 3548SOL     OW22102   3.321   2.750  10.454  0.4536 -0.4364 -0.2877
 3548SOL    HW122103   3.403   2.789  10.423 -0.3139  0.0101 -1.7705
 3548SOL    HW222104   3.332   2.750  10.549 -0.6195 -2.5096 -0.1577
 3549SOL     OW22105   2.872   4.310   1.043 -0.2203  0.0904  0.0325
 3549SOL    HW122106   2.885   4.270   1.129 -2.3219 -2.4605 -0.8088
 3549SOL    HW222107   2.914   4.250   0.982 -1.2649 -1.4313  0.7959
 3550SOL     OW22108   0.312   3.332   1.229  0.1617  0.2194  0.8566
 3550SOL    HW122109   0.295   3.410   1.283  1.9448  1.2239 -0.0551
 3550SOL    HW222110   0.339   3.271   1.298 -0.0631 -0.6264  0.1933
 3551SOL     OW22111   0.332   3.223   2.041 -0.3515  0.4357 -0.9056
 3551SOL    HW122112   0.277   3.300   2.024 -0.3524  1.1162  2.2108
 3551SOL    HW222113   0.265   3.164   2.077  0.6185 -0.6152 -0.8305
 3552SOL     OW22114   3.123   2.333   3.316  0.1015  0.2388 -0.2954
 3552SOL    HW122115   3.211   2.330   3.278  0.5791 -0.9163  0.8880
 3552SOL    HW222116   3.095   2.243   3.299 -0.2147  0.0246  1.3884
 3553SOL     OW22117   3.617   3.098   3.958  0.8636  0.2813  0.1004
 3553SOL    HW122118   3.668   3.174   3.985 -0.0003  1.4444 -1.5419
 3553SOL    HW222119   3.587   3.138   3.876 -3.6457 -1.0883  1.1031
 3554SOL     OW22120   4.021   0.856   9.494  0.3580 -0.1605 -0.0564
 3554SOL    HW122121   4.008   0.761   9.484  2.2952 -0.4687  0.3169
 3554SOL    HW222122   3.938   0.886   9.529 -0.6845 -2.9544 -0.0750
 3555SOL     OW22123   1.210   4.542  14.960 -0.0534 -0.2266  0.4711
 3555SOL    HW122124   1.293   4.529  15.005 -1.8765  0.9126  4.1692
 3555SOL    HW222125   1.240   4.538  14.869  1.8787 -1.5699  1.1713
 3556SOL     OW22126   2.919   4.141   6.778 -0.5017 -0.1110  0.4800
 3556SOL    HW122127   2.940   4.227   6.742  0.0205  0.0018  1.0350
 3556SOL    HW222128   2.881   4.168   6.862 -0.4057 -0.7972  0.7521
 3557SOL     OW22129   4.490   1.814   3.938 -0.2294 -0.0220  0.2897
 3557SOL    HW122130   4.512   1.826   4.030 -0.6605  0.2824  0.3539
 3557SOL    HW222131   4.555   1.752   3.905 -1.9229 -0.3409 -2.4406
 3558SOL     OW22132   4.200   0.408  13.231  0.5628 -0.2035  0.6199
 3558SOL    HW122133   4.250   0.488  13.248  0.2223  0.5930 -2.1626
 3558SOL    HW222134   4.113   0.435  13.261 -0.1375 -1.5214 -0.1799
 3559SOL     OW22135   1.788   2.040   9.207  0.3465 -0.2198 -0.4697
 3559SOL    HW122136   1.742   1.966   9.247  0.5519 -1.0074 -1.6985
 3559SOL    HW222137   1.751   2.058   9.120  0.0185  0.9229 -0.0849
 3560SOL     OW22138   3.258   0.852   4.850  0.1869 -0.2080 -0.2174
 3560SOL    HW122139   3.273   0.845   4.945  1.3666 -1.3005 -0.4775
 3560SOL    HW222140   3.348   0.840   4.820 -0.0256 -0.0185 -0.9227
 3561SOL     OW22141   1.743   4.713   6.520  0.3697 -0.1456  0.2735
 3561SOL    HW122142   1.753   4.676   6.432  0.2206 -1.2874  0.7353
 3561SOL    HW222143   1.681   4.656   6.564 -1.0280 -0.2742 -1.8465
 3562SOL     OW22144   0.620   3.621   3.078  0.0695 -0.4269  0.8668
 3562SOL    HW122145   0.694   3.646   3.022 -0.8208 -3.5364 -1.7163
 3562SOL    HW222146   0.550   3.637   3.015  0.2125 -0.0592  0.8040
 3563SOL     OW22147   2.464   4.129   0.579  0.3169  0.2544 -0.0337
 3563SOL    HW122148   2.498   4.202   0.527 -1.1726  0.8316 -0.2072
 3563SOL    HW222149   2.521   4.057   0.551 -1.2908 -1.5717  1.3992
 3564SOL     OW22150   0.570   3.918   6.957 -0.1929  0.4033 -0.1119
 3564SOL    HW122151   0.549   3.955   6.872 -2.4661  1.2387  0.7988
 3564SOL    HW222152   0.492   3.928   7.012 -0.1017 -1.6276  0.4019
 3565SOL     OW22153   3.079   0.496   6.959  0.1958 -0.7268 -0.0571
 3565SOL    HW122154   3.158   0.441   6.959  0.2203 -0.6916 -0.4109
 3565SOL    HW222155   3.114   0.581   6.932  0.3249 -0.4415  1.0026
 3566SOL     OW22156   3.042   3.907  10.260 -0.2093 -0.1424  0.5583
 3566SOL    HW122157   2.961   3.949  10.289 -0.3976 -2.0444  2.8549
 3566SOL    HW222158   3.068   3.952  10.180 -1.6989  2.4917  1.5696
 3567SOL     OW22159   1.323   3.736   7.820  0.2510 -0.2413  0.1418
 3567SOL    HW122160   1.361   3.712   7.735  1.3056 -0.2504  0.6075
 3567SOL    HW222161   1.262   3.802   7.786 -0.1659 -1.0397 -0.6671
 3568SOL     OW22162   0.674   4.156   2.009  0.3955  0.2879  0.4719
 3568SOL    HW122163   0.623   4.236   2.022  0.5775  0.6989 -1.3862
 3568SOL    HW222164   0.760   4.176   2.044  0.8451 -0.4712 -0.1861
 3569SOL     OW22165   0.174   3.030   5.588  0.1747  0.6766  0.2240
 3569SOL    HW122166   0.241   3.044   5.521 -2.9417  2.3247 -2.5381
 3569SOL    HW222167   0.230   2.976   5.644  0.8425 -0.4631 -1.5666
 3570SOL     OW22168   2.632   3.890   8.159  0.0864 -0.0455 -0.8754
 3570SOL    HW122169   2.707   3.948   8.169 -1.1578  1.3219  0.4327
 3570SOL    HW222170   2.674   3.811   8.124  1.4109  1.2069 -2.1413
 3571SOL     OW22171   0.872   2.673   5.538  0.7662  0.5274  0.6038
 3571SOL    HW122172   0.838   2.665   5.628 -0.8291 -2.6874 -0.3042
 3571SOL    HW222173   0.829   2.596   5.502  2.8550  0.7825 -2.4421
 3572SOL     OW22174   2.816   0.980   8.097 -0.0994 -0.0176  0.4590
 3572SOL    HW122175   2.759   0.983   8.020  0.8985  1.7161 -0.2211
 3572SOL    HW222176   2.861   1.064   8.108 -1.4499  0.8545 -0.6013
 3573SOL     OW22177   0.170   2.506   5.274  0.3153 -0.0265 -0.0351
 3573SOL    HW122178   0.115   2.484   5.198 -0.0499  0.6011  0.0521
 3573SOL    HW222179   0.251   2.470   5.237 -1.6147 -2.6816 -1.6945
 3574SOL     OW22180   4.129   1.863   3.961  0.9836  0.2175 -0.0482
 3574SOL    HW122181   4.067   1.790   3.966 -0.2144  1.2449  0.0988
 3574SOL    HW222182   4.183   1.826   3.891  1.0365  0.9680 -0.4078
 3575SOL     OW22183   1.597   0.683   9.331 -0.0739 -0.7768 -0.3334
 3575SOL    HW122184   1.640   0.657   9.413 -0.1989 -1.0480 -0.3538
 3575SOL    HW222185   1.677   0.705   9.282 -0.6725  0.4017 -0.7805
 3576SOL     OW22186   1.999   3.529   3.036  0.1444 -0.2776 -0.2515
 3576SOL    HW122187   1.950   3.450   3.013  0.0737 -0.4875  0.6088
 3576SOL    HW222188   2.084   3.498   3.002  0.8914 -0.5599  1.8773
 3577SOL     OW22189   1.634   4.246  16.720  0.1684 -0.5236 -0.1085
 3577SOL    HW122190   1.673   4.200  16.794  0.9939  0.1010 -0.1595
 3577SOL    HW222191   1.568   4.190  16.680  0.8548 -0.9991 -0.5653
 3578SOL     OW22192   4.263   1.800   6.953 -0.2893 -0.0492 -0.0997
 3578SOL    HW122193   4.263   1.716   6.908 -0.0282  0.1985 -0.5716
 3578SOL    HW222194   4.329   1.852   6.907 -0.7744 -1.1380 -2.0216
 3579SOL     OW22195   4.608   0.817   3.086 -0.2464 -0.3141  0.1410
 3579SOL    HW122196   4.647   0.904   3.084 -0.1845 -0.3517 -0.1649
 3579SOL    HW222197   4.526   0.830   3.039  1.2246  1.1236 -2.0213
 3580SOL     OW22198   0.791   1.301   4.410 -0.1379 -0.0089  0.0988
 3580SOL    HW122199   0.834   1.367   4.355 -0.0619 -0.4005 -0.3046
 3580SOL    HW222200   0.864   1.243   4.434 -1.1876 -1.9151 -1.4045
 3581SOL     OW22201   3.551   0.769   1.913 -0.3228  0.2868  0.4123
 3581SOL    HW122202   3.559   0.836   1.980 -0.6962 -0.0615  0.8030
 3581SOL    HW222203   3.457   0.749   1.913 -0.3747  0.5390  3.2958
 3582SOL     OW22204   0.840   2.280   7.676  0.5556 -0.5751  0.1625
 3582SOL    HW122205   0.775   2.321   7.618  2.0960  1.3443 -0.2019
 3582SOL    HW222206   0.923   2.321   7.651 -1.4589  1.8226 -2.6062
 3583SOL     OW22207   1.661   3.082  13.401 -0.2141 -0.3868 -0.2689
 3583SOL    HW122208   1.634   2.997  13.368 -0.8171 -0.1960 -0.2756
 3583SOL    HW222209   1.679   3.127  13.318  1.4911  2.0058  1.4079
 3584SOL     OW22210   2.751   4.586  15.248 -0.2954 -0.1088  0.1717
 3584SOL    HW122211   2.747   4.501  15.204  0.0253  0.5425 -1.1155
 3584SOL    HW222212   2.807   4.571  15.324  0.3869  1.5452 -0.0003
 3585SOL     OW22213   2.250   1.073   6.017  0.1842  0.2138 -0.0781
 3585SOL    HW122214   2.166   1.118   6.011 -0.9745 -1.7713  1.1407
 3585SOL    HW222215   2.221   0.986   6.047 -0.0128 -0.2705 -1.6633
 3586SOL     OW22216   2.551   4.067  14.458  0.6647 -0.1447  0.6063
 3586SOL    HW122217   2.526   4.121  14.533 -2.5018  0.9500 -1.2533
 3586SOL    HW222218   2.485   4.109  14.404 -0.7132 -0.3554  2.1203
 3587SOL     OW22219   1.862   1.959   6.714  0.1589 -0.0524  0.4515
 3587SOL    HW122220   1.795   1.953   6.782  0.1634 -1.7426  0.3241
 3587SOL    HW222221   1.857   1.871   6.677  2.0880  0.2454 -0.5421
 3588SOL     OW22222   4.606   3.499   2.396 -0.2060  0.2625  0.0521
 3588SOL    HW122223   4.536   3.564   2.403  0.3438  0.9688 -0.9125
 3588SOL    HW222224   4.556   3.423   2.365  0.4483  0.1227 -0.6944
 3589SOL     OW22225   2.327   3.123   9.826  0.2956 -0.1889  0.1964
 3589SOL    HW122226   2.251   3.067   9.843  0.0897 -0.3602 -1.2665
 3589SOL    HW222227   2.346   3.145   9.917  1.9599 -2.0922  0.3140
 3590SOL     OW22228   0.690   1.280   7.311  0.5559  0.4135 -0.5339
 3590SOL    HW122229   0.649   1.327   7.238 -0.2385  1.9005  0.8646
 3590SOL    HW222230   0.733   1.209   7.263 -0.4364 -0.0237 -0.7839
 3591SOL     OW22231   4.410   3.743   2.117 -0.1676 -0.0712 -0.4893
 3591SOL    HW122232   4.315   3.747   2.130 -0.1084 -1.0761  0.2190
 3591SOL    HW222233   4.438   3.832   2.092  0.5798  0.2248  1.3974
 3592SOL     OW22234   3.973   3.726  16.051 -0.3924  0.3158 -0.0591
 3592SOL    HW122235   3.947   3.794  16.113  1.1663  0.1280  0.7981
 3592SOL    HW222236   4.009   3.787  15.986 -0.8472  2.2068  1.4913
 3593SOL     OW22237   2.885   4.657   5.889  0.3164 -0.0472  0.1797
 3593SOL    HW122238   2.800   4.615   5.904  0.1408  0.7213  1.3518
 3593SOL    HW222239   2.852   0.021   5.874  1.8852  1.0081  2.8220
 3594SOL     OW22240   1.241   1.544   6.336 -0.9023  0.5769  0.0785
 3594SOL    HW122241   1.204   1.484   6.271  1.5584  0.0544 -0.8450
 3594SOL    HW222242   1.183   1.525   6.410 -0.2445  0.2912  0.5175
 3595SOL     OW22243   0.228   0.038   8.582 -0.5505 -0.3233 -0.1772
 3595SOL    HW122244   0.209   0.103   8.650 -1.6604 -0.2977 -0.5056
 3595SOL    HW222245   0.323   0.030   8.589 -0.4292  0.0988 -1.3401
 3596SOL     OW22246   2.327   2.590  16.982 -0.5491  0.4262 -0.0715
 3596SOL    HW122247   2.300   2.537  17.057  0.1286 -1.0407 -0.8653
 3596SOL    HW222248   2.421   2.581  17.000 -0.0552  2.0562 -1.8921
 3597SOL     OW22249   2.660   3.306   2.568 -0.0831  0.1576 -0.1821
 3597SOL    HW122250   2.582   3.264   2.532 -0.8284  0.3826  1.1819
 3597SOL    HW222251   2.617   3.385   2.600 -0.8935 -0.4888  0.3460
 3598SOL     OW22252   3.895   2.362  14.303  0.0974  0.3873  0.3977
 3598SOL    HW122253   3.821   2.303  14.290  0.1505  1.0999 -3.3334
 3598SOL    HW222254   3.900   2.347  14.397  1.5846 -2.5416 -0.1132
 3599SOL     OW22255   4.044   3.283  12.184  0.3986  0.0298 -0.1508
 3599SOL    HW122256   4.074   3.356  12.130  0.2573  1.7824  2.1392
 3599SOL    HW222257   3.992   3.225  12.129  0.8484 -0.4278 -0.0982
 3600SOL     OW22258   3.166   4.512   5.484 -0.3620 -0.2802  0.0581
 3600SOL    HW122259   3.108   4.575   5.527  1.2243  0.0651  1.7093
 3600SOL    HW222260   3.206   4.576   5.425 -2.8204  0.4095 -0.8436
 3601SOL     OW22261   3.755   4.343  13.199 -0.4896  0.6324 -0.3280
 3601SOL    HW122262   3.759   4.254  13.236 -1.1592  0.4116 -0.7759
 3601SOL    HW222263   3.664   4.371  13.194 -1.3239 -2.3605 -2.0169
 3602SOL     OW22264   3.561   4.572   0.967 -0.4524  0.5474 -0.1064
 3602SOL    HW122265   3.553   4.555   1.061  1.2349 -2.8517 -0.5750
 3602SOL    HW222266   3.611   4.653   0.958  1.4870 -0.3998  2.1689
 3603SOL     OW22267   0.459   1.141   9.425 -0.5356 -0.3234 -0.3059
 3603SOL    HW122268   0.469   1.217   9.483  0.8801 -0.6560 -0.1054
 3603SOL    HW222269   0.453   1.178   9.337  2.2188  0.7777 -0.0408
 3604SOL     OW22270   0.347   2.712  15.222  0.3448  0.2318 -0.2294
 3604SOL    HW122271   0.401   2.661  15.283 -0.3096  0.1932  0.3338
 3604SOL    HW222272   0.363   2.802  15.250 -1.2037  0.1528  0.9606
 3605SOL     OW22273   3.952   0.935  11.471 -0.0120  0.3634 -0.3212
 3605SOL    HW122274   4.043   0.960  11.487 -0.1711 -0.4166  1.8149
 3605SOL    HW222275   3.948   0.912  11.378 -0.0188 -0.7058 -0.0557
 3606SOL     OW22276   4.229   4.650   5.386  0.4869 -0.0353  0.1691
 3606SOL    HW122277   4.166   4.581   5.410 -0.3175  0.2078 -1.2557
 3606SOL    HW222278   4.281   4.603   5.321  0.2910  1.0830 -0.7839
 3607SOL     OW22279   2.041   2.772  11.080  0.0315  0.3300 -0.2097
 3607SOL    HW122280   2.078   2.704  11.025  1.3329  0.7178  0.1926
 3607SOL    HW222281   2.095   2.767  11.159  1.1319 -0.1353 -1.0043
 3608SOL     OW22282   0.431   2.680  17.639  0.3792 -0.1379 -0.1736
 3608SOL    HW122283   0.423   2.722   0.027  1.1139  0.3521 -0.3446
 3608SOL    HW222284   0.447   2.588  17.660  0.8034  0.1180  0.6304
 3609SOL     OW22285   0.171   0.522   9.099  0.1271 -0.0154  0.0443
 3609SOL    HW122286   0.148   0.498   9.189  1.3622 -1.7099 -0.0931
 3609SOL    HW222287   0.153   0.615   9.091  1.0311  0.2878  1.5386
 3610SOL     OW22288   1.949   3.272  16.039 -0.1288  0.0242  0.2526
 3610SOL    HW122289   1.891   3.328  16.091 -1.5595 -0.6979 -0.5630
 3610SOL    HW222290   2.023   3.267  16.099  0.7549  1.2499 -0.7194
 3611SOL     OW22291   3.544   0.068  15.535  0.5684  0.2850  0.0857
 3611SOL    HW122292   3.483   0.132  15.571  2.0423  0.3655  2.4519
 3611SOL    HW222293   3.543   0.005  15.607 -2.1164 -1.7672 -1.7858
 3612SOL     OW22294   0.255   1.847   9.629  0.3787  0.2157 -0.0651
 3612SOL    HW122295   0.254   1.876   9.720 -0.5176  1.9175 -0.6172
 3612SOL    HW222296   0.161   1.853   9.610 -0.1389 -0.0816  2.3171
 3613SOL     OW22297   0.570   3.717   6.602 -0.7449  0.5619 -0.2651
 3613SOL    HW122298   0.662   3.723   6.575 -0.9264  1.2762 -0.7365
 3613SOL    HW222299   0.556   3.810   6.622 -1.5095  0.3033  0.4048
 3614SOL     OW22300   0.861   2.154   4.854 -1.0974  0.3657  0.2305
 3614SOL    HW122301   0.811   2.213   4.798  1.1611  0.5267 -1.6152
 3614SOL    HW222302   0.808   2.086   4.896 -0.1275 -1.0086 -0.7784
 3615SOL     OW22303   0.466   2.437   6.349  0.2223 -0.7300 -0.7885
 3615SOL    HW122304   0.496   2.349   6.328  2.6962  0.2890 -1.5150
 3615SOL    HW222305   0.486   2.491   6.272  0.5501 -0.0035 -0.1946
 3616SOL     OW22306   0.202   1.063   5.105 -0.6102  0.7808 -0.4249
 3616SOL    HW122307   0.266   1.016   5.158 -0.9851 -1.0965 -1.6210
 3616SOL    HW222308   0.124   1.007   5.097  1.2188 -1.7903 -0.2014
 3617SOL     OW22309   2.254   2.049   3.319  0.5502 -0.5653  0.0813
 3617SOL    HW122310   2.273   2.033   3.412  1.2703  1.0329  0.2018
 3617SOL    HW222311   2.209   1.967   3.296 -0.0673 -0.0400 -0.5946
 3618SOL     OW22312   1.249   1.770   9.070 -0.2145 -0.0360 -0.4596
 3618SOL    HW122313   1.278   1.680   9.086 -0.3208  0.1647  0.8220
 3618SOL    HW222314   1.161   1.778   9.106 -0.1209 -2.0203  0.2333
 3619SOL     OW22315   0.591   2.348  15.732 -0.0208 -0.2953  0.2792
 3619SOL    HW122316   0.500   2.329  15.754 -1.1591  2.1336 -2.4033
 3619SOL    HW222317   0.591   2.317  15.642  0.6951 -2.9051  1.1701
 3620SOL     OW22318   4.280   0.657  17.216  0.7630 -0.1218 -0.0542
 3620SOL    HW122319   4.194   0.640  17.177  0.7762 -1.4865  0.5300
 3620SOL    HW222320   4.340   0.668  17.142  0.9884  0.2174  0.1772
 3621SOL     OW22321   0.689   2.884   8.496 -0.3427 -0.0573  0.1571
 3621SOL    HW122322   0.628   2.957   8.482  1.3300  1.1569 -0.7269
 3621SOL    HW222323   0.694   2.847   8.408 -0.4829 -0.5260  0.3446
 3622SOL     OW22324   0.644   4.308   1.413  0.2606 -0.2612 -0.0714
 3622SOL    HW122325   0.650   4.214   1.395 -0.0619  0.0308 -1.7404
 3622SOL    HW222326   0.732   4.341   1.397  0.2325  0.7089  1.7802
 3623SOL     OW22327   2.585   3.957  16.434  0.0180 -0.3292 -0.4098
 3623SOL    HW122328   2.569   4.043  16.474 -0.4296 -0.4182 -0.3897
 3623SOL    HW222329   2.593   3.989  16.345  1.6632 -0.8265 -0.4405
 3624SOL     OW22330   1.033   3.996   8.053  0.1053  0.2625  0.2272
 3624SOL    HW122331   1.022   4.049   7.973 -1.1978  0.1362  0.3265
 3624SOL    HW222332   1.098   3.930   8.027 -1.8651 -1.6611  0.2357
 3625SOL     OW22333   3.657   4.586   6.696  0.8399 -0.1992  0.5131
 3625SOL    HW122334   3.653   4.627   6.610 -1.6026 -1.0965  0.1893
 3625SOL    HW222335   3.567   4.554   6.687  1.1202 -1.3733  1.7466
 3626SOL     OW22336   3.819   3.783   1.724  0.3305 -0.1262  0.2893
 3626SOL    HW122337   3.887   3.818   1.666  0.6227 -1.4600 -0.1602
 3626SOL    HW222338   3.766   3.719   1.676  1.1930  0.2654 -1.1944
 3627SOL     OW22339   1.052   0.742   3.102 -0.7500  0.0616  0.1500
 3627SOL    HW122340   1.104   0.668   3.133  2.1873  1.6471 -1.0763
 3627SOL    HW222341   1.089   0.741   3.014 -1.1818  0.6900 -0.0386
 3628SOL     OW22342   3.056   4.603   2.143 -0.8787  0.4901 -0.1029
 3628SOL    HW122343   2.994   4.539   2.109 -0.8852 -0.4523  1.6966
 3628SOL    HW222344   3.065   4.666   2.071 -0.1241  0.0360 -0.4068
 3629SOL     OW22345   1.692   2.428   5.932 -0.3008 -0.5359  0.6086
 3629SOL    HW122346   1.744   2.469   6.002 -0.2492  2.0451 -0.9395
 3629SOL    HW222347   1.633   2.495   5.899  0.5224 -0.3738 -0.5502
 3630SOL     OW22348   3.895   2.241   6.681  0.1092 -0.3986 -0.1578
 3630SOL    HW122349   3.921   2.328   6.713 -0.4917 -0.1351 -0.3946
 3630SOL    HW222350   3.963   2.225   6.615  0.7434 -1.1570  0.6683
 3631SOL     OW22351   0.166   2.732   5.017 -0.1552  0.1135  0.3461
 3631SOL    HW122352   0.169   2.722   5.112 -0.2466 -0.8671  0.2439
 3631SOL    HW222353   0.180   2.827   5.011 -1.0428  0.2797  0.8062
 3632SOL     OW22354   0.759   4.506  10.797 -0.3225  0.1065  0.0974
 3632SOL    HW122355   0.707   4.528  10.874  0.4809  2.4150 -0.0324
 3632SOL    HW222356   0.847   4.510  10.833 -0.0501  2.5448 -0.8941
 3633SOL     OW22357   2.889   0.715   8.126 -0.8021 -0.2651  0.2394
 3633SOL    HW122358   2.855   0.804   8.129 -2.8433 -1.0226 -0.3238
 3633SOL    HW222359   2.930   0.725   8.040 -0.2498  0.4727  0.5953
 3634SOL     OW22360   0.523   3.954   8.568  0.0555 -0.2217  0.0689
 3634SOL    HW122361   0.513   3.870   8.522 -0.2993  1.1305 -2.3053
 3634SOL    HW222362   0.444   3.960   8.622  0.2822 -1.4969  0.5473
 3635SOL     OW22363   3.925   2.638  11.484 -0.4871 -0.0399 -0.4794
 3635SOL    HW122364   3.925   2.553  11.529 -2.5073 -0.2351 -0.8488
 3635SOL    HW222365   3.871   2.690  11.543 -0.0471  0.5984 -0.6362
 3636SOL     OW22366   2.722   2.679   1.969  0.2912 -0.2744 -0.4706
 3636SOL    HW122367   2.660   2.741   2.007 -1.0439 -2.0394  0.2414
 3636SOL    HW222368   2.777   2.649   2.041 -1.6291 -1.1944  0.6030
 3637SOL     OW22369   4.625   0.039   7.686 -0.4138  0.0604  0.2084
 3637SOL    HW122370   4.585   0.075   7.766  1.6823 -0.9488  1.7221
 3637SOL    HW222371   4.584   4.677   7.685 -0.6615  0.1774  0.2424
 3638SOL     OW22372   1.768   3.455   4.385 -0.5136  0.1830 -0.7707
 3638SOL    HW122373   1.678   3.458   4.354 -1.5567 -2.8554  1.8837
 3638SOL    HW222374   1.813   3.395   4.326  0.1737 -2.9947  2.9545
 3639SOL     OW22375   2.340   4.178   2.566  0.4221  0.2733  0.1065
 3639SOL    HW122376   2.280   4.251   2.553 -1.1133 -1.2502 -1.3330
 3639SOL    HW222377   2.398   4.188   2.490  0.9549  1.0968  0.6107
 3640SOL     OW22378   3.280   2.421  17.337 -0.6265  0.4830 -0.0235
 3640SOL    HW122379   3.370   2.392  17.327 -1.0304 -1.0811  1.0006
 3640SOL    HW222380   3.234   2.337  17.346 -0.2751  0.1018 -1.7545
 3641SOL     OW22381   0.856   4.244   2.193 -0.4483 -0.7740 -0.0257
 3641SOL    HW122382   0.843   4.302   2.268 -0.3192  1.8209 -2.0201
 3641SOL    HW222383   0.897   4.168   2.235 -2.5638 -1.3680  0.9920
 3642SOL     OW22384   4.362   1.164   7.298 -0.2823  0.1436  0.5265
 3642SOL    HW122385   4.427   1.103   7.333  0.9066  0.9943 -0.2163
 3642SOL    HW222386   4.298   1.095   7.284  0.1884  0.1526 -1.6527
 3643SOL     OW22387   1.202   3.261   6.736 -0.5970 -0.7494  0.1775
 3643SOL    HW122388   1.143   3.191   6.765 -1.1466  0.4652  1.9908
 3643SOL    HW222389   1.231   3.228   6.651  0.0043 -0.4870  0.2815
 3644SOL     OW22390   3.454   1.895   5.714  0.0390 -0.4114 -0.3800
 3644SOL    HW122391   3.543   1.902   5.678  0.1497 -0.7286 -0.1671
 3644SOL    HW222392   3.465   1.930   5.802 -1.2005 -1.7166  0.2799
 3645SOL     OW22393   3.561   3.790   6.468 -0.9218  0.2804  0.0842
 3645SOL    HW122394   3.534   3.717   6.412 -2.5056 -1.3984  2.9983
 3645SOL    HW222395   3.638   3.753   6.511 -1.5400  2.0972  2.7762
 3646SOL     OW22396   0.177   0.708  11.110  0.2267  0.0380 -0.7173
 3646SOL    HW122397   0.177   0.784  11.052  0.9987 -0.6219 -1.5870
 3646SOL    HW222398   0.086   0.680  11.103 -0.2359  1.6514 -1.0304
 3647SOL     OW22399   2.055   0.338   6.680  0.0574  0.2225  0.9489
 3647SOL    HW122400   1.970   0.293   6.680  0.2100 -0.0522 -0.2038
 3647SOL    HW222401   2.039   0.424   6.641 -4.4807 -1.2602 -0.4653
 3648SOL     OW22402   3.312   0.267   7.963  0.3358 -0.5335 -0.0011
 3648SOL    HW122403   3.287   0.352   7.927  0.8282  0.2237  1.4773
 3648SOL    HW222404   3.239   0.259   8.024  2.3963 -0.4687  2.4473
 3649SOL     OW22405   0.206   3.470   3.186 -0.2020 -0.6963  0.0354
 3649SOL    HW122406   0.159   3.552   3.173  1.1581  0.4434  2.2395
 3649SOL    HW222407   0.164   3.408   3.127 -2.9991 -0.8746  2.2362
 3650SOL     OW22408   0.728   3.609   2.626 -0.1829 -0.1623 -0.6739
 3650SOL    HW122409   0.636   3.581   2.629 -0.2087  0.1933  2.3804
 3650SOL    HW222410   0.712   3.696   2.590  1.2777 -0.5027 -2.1432
 3651SOL     OW22411   3.515   4.516   6.309 -0.1651  0.0953 -0.3236
 3651SOL    HW122412   3.602   4.477   6.319 -0.3088 -0.0093  0.4711
 3651SOL    HW222413   3.486   4.467   6.232  1.9025 -2.4577  0.5120
 3652SOL     OW22414   1.239   2.840   5.790 -0.2175  0.3438 -0.5547
 3652SOL    HW122415   1.288   2.765   5.823  0.9369  1.5832  0.5547
 3652SOL    HW222416   1.292   2.855   5.712 -0.4269 -1.9677 -1.1472
 3653SOL     OW22417   0.041   0.754   7.345  0.1549 -0.5726 -0.0785
 3653SOL    HW122418   4.723   0.678   7.306 -0.8416  1.3229 -2.6975
 3653SOL    HW222419   0.121   0.752   7.293  0.3164 -0.2116  0.1542
 3654SOL     OW22420   2.574   2.569   3.737  0.0744  0.2111  0.3352
 3654SOL    HW122421   2.500   2.511   3.717  0.0255  0.9213 -1.5570
 3654SOL    HW222422   2.629   2.562   3.659  0.0051 -0.7110  0.3678
 3655SOL     OW22423   1.079   3.295  15.635  0.3505  0.2803 -0.5799
 3655SOL    HW122424   1.036   3.380  15.646  0.1648  0.0280  0.6732
 3655SOL    HW222425   1.073   3.287  15.540 -0.2074  0.4853 -0.5608
 3656SOL     OW22426   2.218   3.541   0.291 -0.3683  0.4862 -0.1211
 3656SOL    HW122427   2.130   3.505   0.303 -0.0895 -0.9656 -2.5238
 3656SOL    HW222428   2.235   3.530   0.198 -0.0225 -1.0193  0.1281
 3657SOL     OW22429   3.701   3.599   7.066  0.4179 -0.7780  0.0280
 3657SOL    HW122430   3.779   3.549   7.089 -0.9317 -1.6985  2.6491
 3657SOL    HW222431   3.712   3.672   7.127 -0.9433  0.1180 -0.8190
 3658SOL     OW22432   2.511   1.194   7.304 -0.0262 -0.0872 -0.1951
 3658SOL    HW122433   2.538   1.105   7.326  0.9713  0.4158  0.6733
 3658SOL    HW222434   2.601   1.226   7.290 -0.2640  1.4376  1.6500
 3659SOL     OW22435   4.478   2.176   3.465 -0.3348  0.3716  0.1603
 3659SOL    HW122436   4.563   2.134   3.458 -0.7911 -0.4606 -0.4236
 3659SOL    HW222437   4.422   2.112   3.421 -0.0729  1.0505 -1.1653
 3660SOL     OW22438   1.863   0.000   4.463  0.1289 -0.6321 -0.5708
 3660SOL    HW122439   1.946   0.042   4.487 -1.1921  0.2186  2.4972
 3660SOL    HW222440   1.809   0.077   4.448  0.1046 -0.1154  2.1280
 3661SOL     OW22441   0.935   1.321   7.987 -0.3534 -0.2254 -0.3912
 3661SOL    HW122442   0.934   1.356   7.898  1.9390  2.0134  0.4777
 3661SOL    HW222443   0.889   1.385   8.041 -0.1843  0.0565 -0.5784
 3662SOL     OW22444   1.273   4.122  10.758 -0.2648  0.1145 -0.6945
 3662SOL    HW122445   1.343   4.180  10.728  0.7918  0.3493  2.2757
 3662SOL    HW222446   1.200   4.179  10.783  0.7065  0.4701  1.2703
 3663SOL     OW22447   2.652   2.076   3.535  0.5839  0.1596  0.0182
 3663SOL    HW122448   2.629   2.165   3.507 -1.1383  0.2611  1.7378
 3663SOL    HW222449   2.626   2.092   3.625  2.8765 -4.0838  1.4395
 3664SOL     OW22450   2.032   3.241  11.126 -0.4576 -0.1207 -0.4674
 3664SOL    HW122451   2.107   3.238  11.185 -0.0271 -1.1614 -1.0642
 3664SOL    HW222452   2.062   3.306  11.062 -1.4642  2.5930  1.8322
 3665SOL     OW22453   0.253   2.771   2.826 -0.0144 -0.4245 -0.0301
 3665SOL    HW122454   0.201   2.816   2.893 -0.3594  3.2712 -2.7864
 3665SOL    HW222455   0.340   2.764   2.866  0.1669  1.4085 -0.1059
 3666SOL     OW22456   3.690   4.149   8.947  0.3036  0.4224  0.1453
 3666SOL    HW122457   3.782   4.156   8.921  0.6311  1.3246  1.5587
 3666SOL    HW222458   3.670   4.067   8.901  0.8580  0.6935 -0.5858
 3667SOL     OW22459   2.191   1.320   9.827  0.2657  0.6989 -0.3456
 3667SOL    HW122460   2.247   1.325   9.905 -0.3882  2.8248 -0.0192
 3667SOL    HW222461   2.187   1.410   9.795  1.4299  0.9299  0.1339
 3668SOL     OW22462   0.356   3.192   4.947 -0.4183 -0.2188 -0.1092
 3668SOL    HW122463   0.405   3.208   4.866  0.3899  1.8760  0.7859
 3668SOL    HW222464   0.326   3.283   4.946  0.7086  0.1521 -0.3309
 3669SOL     OW22465   1.812   2.932   4.432 -0.0199 -0.4769 -0.1385
 3669SOL    HW122466   1.740   2.913   4.491 -0.2664  1.7130  0.2824
 3669SOL    HW222467   1.866   2.992   4.484  0.2581 -0.3220 -0.6030
 3670SOL     OW22468   3.235   0.568   5.481 -0.4112 -0.0614  0.1864
 3670SOL    HW122469   3.222   0.605   5.394 -1.2194  1.4605  0.9611
 3670SOL    HW222470   3.156   0.514   5.477 -0.9908  0.6936  1.7064
 3671SOL     OW22471   1.223   3.153  15.107  0.7286  0.6026  0.1956
 3671SOL    HW122472   1.193   3.243  15.120  0.2115  0.2253  1.5833
 3671SOL    HW222473   1.145   3.104  15.081 -0.8060  2.2939  1.6637
 3672SOL     OW22474   4.432   1.329   7.685 -0.3608 -0.5697  0.0573
 3672SOL    HW122475   4.342   1.347   7.658 -0.2989 -0.2761  0.0494
 3672SOL    HW222476   4.433   1.233   7.678 -0.3647 -0.6231  0.7598
 3673SOL     OW22477   3.670   0.981   4.825 -0.1691  0.0577 -0.0087
 3673SOL    HW122478   3.749   0.935   4.855 -1.1010 -0.9195  0.9626
 3673SOL    HW222479   3.607   0.914   4.849 -0.8083  0.8555  0.5353
 3674SOL     OW22480   0.719   1.234   1.431 -0.6448 -0.0724 -0.2732
 3674SOL    HW122481   0.628   1.242   1.403 -0.7355 -1.1521 -0.2915
 3674SOL    HW222482   0.695   1.187   1.511  1.6344  2.8418  2.1145
 3675SOL     OW22483   4.529   2.717   4.182  0.2973 -0.0992  0.5667
 3675SOL    HW122484   4.519   2.680   4.270  2.0445 -0.9039  0.4340
 3675SOL    HW222485   4.622   2.738   4.192  0.0697  1.4242 -0.6791
 3676SOL     OW22486   2.518   0.375  17.463 -0.1988 -0.0929  0.3240
 3676SOL    HW122487   2.505   0.461  17.423 -0.6209 -0.4057 -0.2158
 3676SOL    HW222488   2.489   0.393  17.553 -0.3542 -0.9347  0.4393
 3677SOL     OW22489   1.932   0.863  14.681  0.4566 -0.4186 -0.2748
 3677SOL    HW122490   1.982   0.791  14.644  1.3570 -0.2239  0.5465
 3677SOL    HW222491   1.999   0.913  14.729 -0.8832  2.7118 -1.7058
 3678SOL     OW22492   4.423   3.077   3.327 -0.8410 -0.2893  0.5641
 3678SOL    HW122493   4.403   2.985   3.306 -0.2056 -0.4550  0.7016
 3678SOL    HW222494   4.335   3.114   3.329 -0.5271  0.4652  0.0894
 3679SOL     OW22495   3.939   3.540  17.415  0.2878  0.2773 -0.2125
 3679SOL    HW122496   3.883   3.545  17.493  0.4518  0.3022 -0.0961
 3679SOL    HW222497   4.015   3.583  17.453 -0.1545  1.8315 -1.0760
 3680SOL     OW22498   1.254   3.170   3.269 -0.5310 -0.4154 -0.3447
 3680SOL    HW122499   1.253   3.150   3.362 -1.2583 -1.3009 -0.5406
 3680SOL    HW222500   1.264   3.265   3.263 -0.2657 -0.3316  1.5129
 3681SOL     OW22501   3.565   1.163   5.526  0.0032 -0.0096  0.1782
 3681SOL    HW122502   3.634   1.148   5.590  0.2378 -1.9297 -0.5086
 3681SOL    HW222503   3.567   1.075   5.490 -0.1138  0.1381 -0.1889
 3682SOL     OW22504   3.987   3.510   3.996  0.3070 -0.3924  0.2979
 3682SOL    HW122505   4.070   3.465   4.009  1.3660  1.6270  0.4190
 3682SOL    HW222506   3.976   3.573   4.067  1.8894 -0.1662  0.3304
 3683SOL     OW22507   2.258   0.125   5.468 -0.1870 -0.2832  0.0784
 3683SOL    HW122508   2.200   0.093   5.537  1.4567  1.0140  2.0616
 3683SOL    HW222509   2.236   0.077   5.388 -0.3169  0.7190 -0.4941
 3684SOL     OW22510   0.248   1.821  12.826  0.2207  0.1314 -0.6013
 3684SOL    HW122511   0.260   1.754  12.759 -1.0219  0.4424 -1.1302
 3684SOL    HW222512   0.328   1.873  12.816 -0.9676  1.5535 -2.8536
 3685SOL     OW22513   2.477   3.292   3.515  0.1092  0.5243 -0.0957
 3685SOL    HW122514   2.501   3.324   3.429  2.9024 -1.2845  0.0240
 3685SOL    HW222515   2.500   3.369   3.567  0.0960  1.0885 -0.9276
 3686SOL     OW22516   1.741   0.603  13.134 -0.7411 -0.2552 -0.0213
 3686SOL    HW122517   1.719   0.534  13.072  1.0826 -0.7147 -0.1562
 3686SOL    HW222518   1.836   0.609  13.127 -0.5885 -2.8964 -0.0352
 3687SOL     OW22519   2.046   4.613   3.950 -0.0357 -0.0644  0.0253
 3687SOL    HW122520   2.129   4.571   3.971  0.6250  1.6257  0.7416
 3687SOL    HW222521   2.058   4.639   3.859 -4.1750 -1.6095 -0.9950
 3688SOL     OW22522   1.462   2.319   2.897 -0.8690 -0.3502  0.3672
 3688SOL    HW122523   1.497   2.392   2.845 -0.4562 -1.3651 -0.7748
 3688SOL    HW222524   1.525   2.257   2.860  0.3149  0.8567  0.3561
 3689SOL     OW22525   4.334   2.002   4.113  0.1685  0.0938  0.2802
 3689SOL    HW122526   4.311   1.919   4.072  1.0256 -0.3190  0.6321
 3689SOL    HW222527   4.249   2.044   4.124  0.8353  1.9237 -1.6920
 3690SOL     OW22528   0.533   1.653   5.003  0.5002 -0.1795  0.2190
 3690SOL    HW122529   0.584   1.725   4.967 -0.7209  0.3299 -0.4833
 3690SOL    HW222530   0.599   1.584   5.013  1.4092  0.5841 -0.6708
 3691SOL     OW22531   0.833   2.142   7.918 -0.2671  0.4477 -0.3125
 3691SOL    HW122532   0.812   2.192   7.839 -2.4191  1.2948  0.7871
 3691SOL    HW222533   0.851   2.211   7.981 -2.2983  0.2383  0.5038
 3692SOL     OW22534   0.610   0.422  16.479 -0.8717 -0.3408 -0.1868
 3692SOL    HW122535   0.606   0.437  16.385 -1.8977  0.6322  0.0141
 3692SOL    HW222536   0.551   0.490  16.511  0.4402  0.0241  1.4626
 3693SOL     OW22537   3.061   0.427   6.692  0.1398 -0.0996  0.5119
 3693SOL    HW122538   2.975   0.463   6.674 -0.0577  0.2026  2.0025
 3693SOL    HW222539   3.050   0.431   6.787 -2.1286  1.6185  0.1673
 3694SOL     OW22540   4.260   0.396   6.296  0.0793  0.2417 -0.4923
 3694SOL    HW122541   4.196   0.352   6.239  0.5963  1.2980 -1.8889
 3694SOL    HW222542   4.272   0.324   6.358 -0.6389  0.4644 -0.0926
 3695SOL     OW22543   4.677   1.471   8.307 -0.0240  0.0830 -0.1652
 3695SOL    HW122544   4.651   1.547   8.360  0.2448  0.7436 -0.9751
 3695SOL    HW222545   0.026   1.512   8.260 -0.9638 -1.1853 -2.7662
 3696SOL     OW22546   1.314   1.817   4.852  0.4890  0.5766 -0.5947
 3696SOL    HW122547   1.242   1.879   4.858 -1.4085 -1.2089 -4.3896
 3696SOL    HW222548   1.332   1.795   4.943  0.2822  1.8538 -0.2520
 3697SOL     OW22549   3.774   4.079   1.734  0.3968 -0.5432  0.1305
 3697SOL    HW122550   3.787   3.984   1.736  1.3153 -0.5018 -3.7433
 3697SOL    HW222551   3.756   4.092   1.827 -1.1212  2.7618 -0.6082
 3698SOL     OW22552   0.533   2.708   7.616 -0.2701  0.4195 -0.3415
 3698SOL    HW122553   0.484   2.781   7.577 -3.3995 -0.0067  2.7727
 3698SOL    HW222554   0.480   2.636   7.583  1.5553 -1.2962  0.4748
 3699SOL     OW22555   0.335   2.873   5.289 -0.7984 -0.0410 -0.1140
 3699SOL    HW122556   0.416   2.830   5.315 -0.2142  0.4016 -1.2014
 3699SOL    HW222557   0.350   2.921   5.208  1.9340  1.8344  1.5097
 3700SOL     OW22558   1.464   0.249   2.886  0.1504  0.4002 -0.3950
 3700SOL    HW122559   1.555   0.255   2.856  0.2566  2.1658  0.2920
 3700SOL    HW222560   1.463   0.165   2.932 -1.1557  0.6469  0.0159
 3701SOL     OW22561   0.088   2.583   1.040  0.0603 -0.2098  0.0411
 3701SOL    HW122562   0.069   2.493   1.069 -2.0777  0.8715  2.0121
 3701SOL    HW222563   0.179   2.591   1.069 -0.4289 -1.3676  1.8934
 3702SOL     OW22564   0.989   4.518  11.634  0.3466 -0.1119 -0.1509
 3702SOL    HW122565   1.029   4.605  11.630  0.6912 -0.2145  1.0604
 3702SOL    HW222566   0.958   4.505  11.545 -0.6167  0.6229  0.0840
 3703SOL     OW22567   2.242   3.010   9.138  0.5727  0.7638  0.2276
 3703SOL    HW122568   2.301   2.968   9.201  1.9189  1.3496 -0.6374
 3703SOL    HW222569   2.203   2.931   9.100  0.1012  0.8528  0.5252
 3704SOL     OW22570   0.576   1.127   6.022 -0.3055 -0.1752 -0.4147
 3704SOL    HW122571   0.510   1.181   6.066  0.6890  0.4907  0.2548
 3704SOL    HW222572   0.528   1.064   5.969 -1.0811  0.4518 -0.4479
 3705SOL     OW22573   0.855   3.117   6.343  0.7133  0.7820 -0.0969
 3705SOL    HW122574   0.858   3.100   6.437 -0.5368 -2.0157 -0.5409
 3705SOL    HW222575   0.887   3.035   6.304 -0.7096  1.0338 -1.8259
 3706SOL     OW22576   2.699   3.755   8.979 -0.5823 -0.0465 -0.2239
 3706SOL    HW122577   2.741   3.671   8.959  3.6349  1.8664  0.5413
 3706SOL    HW222578   2.763   3.821   8.952  0.9217 -1.3282  0.2370
 3707SOL     OW22579   3.880   1.076   1.491  0.2140  0.7468  0.4994
 3707SOL    HW122580   3.868   1.017   1.566  1.4135 -1.2557 -0.9022
 3707SOL    HW222581   3.974   1.093   1.502  0.8386 -1.9061 -0.8520
 3708SOL     OW22582   3.501   1.095  12.402 -0.3218 -0.1060  0.3364
 3708SOL    HW122583   3.498   1.060  12.313  4.0679 -1.4598  0.7010
 3708SOL    HW222584   3.596   1.087  12.408 -0.1056  1.4597 -0.9366
 3709SOL     OW22585   4.317   2.639   5.829 -0.2116 -0.6024  0.0179
 3709SOL    HW122586   4.253   2.568   5.839 -1.7961  0.9063  0.6733
 3709SOL    HW222587   4.386   2.581   5.861 -1.7005 -0.4233  3.6128
 3710SOL     OW22588   3.010   1.879   5.174  0.1152 -0.3191 -0.1967
 3710SOL    HW122589   3.101   1.866   5.147 -0.4466 -3.4833 -0.5113
 3710SOL    HW222590   3.017   1.852   5.266  0.3435  0.6927  0.0906
 3711SOL     OW22591   1.002   3.039   4.773  0.3151 -0.2044 -0.1714
 3711SOL    HW122592   0.989   2.947   4.748  0.0602  0.0705 -1.0234
 3711SOL    HW222593   1.062   3.061   4.702 -0.8905  0.2062 -1.0562
 3712SOL     OW22594   2.496   2.639   2.861 -0.1665  0.2414 -0.1910
 3712SOL    HW122595   2.513   2.730   2.839  1.5119  0.3510  1.6285
 3712SOL    HW222596   2.415   2.634   2.811  0.2547  0.7042 -0.9104
 3713SOL     OW22597   2.120   0.175   3.512  0.4601 -0.0180 -0.3380
 3713SOL    HW122598   2.150   0.165   3.421 -1.6889  2.1739 -1.2659
 3713SOL    HW222599   2.168   0.253   3.542  2.1679 -0.4166 -1.9902
 3714SOL     OW22600   3.463   2.748   3.837  0.0747 -0.0275 -0.1044
 3714SOL    HW122601   3.411   2.727   3.915  1.5755  0.7076  1.0734
 3714SOL    HW222602   3.549   2.756   3.878 -0.3837  1.8592  0.4698
 3715SOL     OW22603   2.188   1.227  15.442  0.5538 -0.2036  0.4769
 3715SOL    HW122604   2.212   1.297  15.503  2.0431 -0.7728  0.5243
 3715SOL    HW222605   2.102   1.196  15.473 -0.4934 -0.0977 -2.3524
 3716SOL     OW22606   2.338   3.750   6.187 -0.4249  0.0335 -0.3665
 3716SOL    HW122607   2.312   3.691   6.116  2.3313 -1.5266 -0.0900
 3716SOL    HW222608   2.345   3.691   6.262  0.5550  0.5826 -0.0279
 3717SOL     OW22609   0.576   3.073   7.934  0.0535  0.0485  0.3957
 3717SOL    HW122610   0.631   3.069   8.013  2.7272  0.9428 -1.4117
 3717SOL    HW222611   0.602   2.990   7.894  2.6544  1.0710 -0.0425
 3718SOL     OW22612   4.417   1.292   3.369  0.1034 -0.2488  0.4812
 3718SOL    HW122613   4.417   1.253   3.282  2.4025 -0.2154  0.4653
 3718SOL    HW222614   4.493   1.244   3.403 -0.1311 -0.7693  0.2618
 3719SOL     OW22615   3.468   1.133   7.907 -0.0422 -0.1337 -0.0924
 3719SOL    HW122616   3.513   1.056   7.871  0.0752  1.5985 -3.7418
 3719SOL    HW222617   3.471   1.186   7.827  3.6163  1.9694  1.4777
 3720SOL     OW22618   0.823   3.115  13.828  0.7167 -0.0834 -0.4738
 3720SOL    HW122619   0.833   3.115  13.732  1.1617 -2.2780 -0.4396
 3720SOL    HW222620   0.877   3.189  13.854  0.4908 -0.4134  0.9467
 3721SOL     OW22621   3.652   4.292   2.141 -0.0965 -0.2419 -0.1146
 3721SOL    HW122622   3.599   4.361   2.102  1.2001  0.6318 -0.3004
 3721SOL    HW222623   3.729   4.297   2.086 -0.0697  1.8581  0.0999
 3722SOL     OW22624   4.382   1.510  13.921  0.1759 -0.4747 -0.0472
 3722SOL    HW122625   4.345   1.575  13.862  0.9752  2.2173  2.4330
 3722SOL    HW222626   4.302   1.456  13.923  0.2760 -0.5808  1.3704
 3723SOL     OW22627   4.129   0.551   9.044 -0.1179 -0.3518 -0.1104
 3723SOL    HW122628   4.194   0.593   8.988 -0.5336  0.7585  0.2559
 3723SOL    HW222629   4.122   0.461   9.009 -0.2410  0.5494 -2.4423
 3724SOL     OW22630   3.496   3.387   9.971 -0.3765 -0.0308 -0.2922
 3724SOL    HW122631   3.549   3.443  10.027 -0.5954  0.3809 -0.5000
 3724SOL    HW222632   3.529   3.416   9.887  2.6309  0.9089  1.2042
 3725SOL     OW22633   3.017   0.903   4.426 -0.2341  0.0443  0.5316
 3725SOL    HW122634   3.030   0.848   4.503  0.1304  0.2762  0.6382
 3725SOL    HW222635   3.086   0.968   4.441  0.1711 -0.3112  0.2472
 3726SOL     OW22636   2.979   1.144   1.778  0.2994  0.1249  0.1026
 3726SOL    HW122637   2.893   1.186   1.781 -0.9449 -2.3726  0.3353
 3726SOL    HW222638   3.031   1.215   1.814  0.3354 -1.0650  2.4202
 3727SOL     OW22639   0.369   1.968   5.733 -0.0088  0.1827  0.2061
 3727SOL    HW122640   0.394   1.893   5.679 -0.2098 -0.5924  1.1947
 3727SOL    HW222641   0.382   2.039   5.671  1.3348  0.3442  0.6706
 3728SOL     OW22642   0.365   2.574   7.043 -0.1788  0.2293 -0.3417
 3728SOL    HW122643   0.423   2.603   6.972 -0.5235 -2.6553 -1.8288
 3728SOL    HW222644   0.285   2.621   7.021 -0.7646 -0.5973  0.0284
 3729SOL     OW22645   4.437   2.883  12.403 -0.4821  0.4896 -0.2944
 3729SOL    HW122646   4.364   2.838  12.361  0.5413 -0.4304 -1.0859
 3729SOL    HW222647   4.473   2.932  12.329  0.5093 -1.0284 -0.8183
 3730SOL     OW22648   1.600   0.469   6.489 -0.5017  0.5836 -0.2915
 3730SOL    HW122649   1.576   0.553   6.448  2.6200  1.8990  0.5482
 3730SOL    HW222650   1.641   0.506   6.567  0.9551  0.2642 -0.8921
 3731SOL     OW22651   4.287   2.931   5.193 -0.9192  0.0781  0.4403
 3731SOL    HW122652   4.322   3.005   5.243 -1.0327 -1.8275  3.4006
 3731SOL    HW222653   4.285   2.855   5.252 -0.3186 -0.0294  0.3211
 3732SOL     OW22654   4.514   0.171  12.381 -0.4553  0.2553 -0.0001
 3732SOL    HW122655   4.486   0.115  12.454 -0.9093 -0.0368 -0.3987
 3732SOL    HW222656   4.437   0.158  12.324  0.7903 -2.3245 -1.1063
 3733SOL     OW22657   0.388   0.014   0.766 -0.1145 -0.3593  0.6119
 3733SOL    HW122658   0.302   4.712   0.798 -0.5633  2.1788  1.4945
 3733SOL    HW222659   0.363   0.071   0.693 -0.9608  1.2397  2.1425
 3734SOL     OW22660   3.312   1.232   8.421 -0.4894  0.9905  0.3195
 3734SOL    HW122661   3.376   1.297   8.392 -1.8059  1.5401 -1.3323
 3734SOL    HW222662   3.229   1.276   8.405 -1.8822 -2.3273 -1.5456
 3735SOL     OW22663   2.151   2.331   6.518 -0.0379 -0.7607  0.4154
 3735SOL    HW122664   2.137   2.413   6.470  0.9817 -1.9374 -1.9079
 3735SOL    HW222665   2.064   2.311   6.555 -1.0847  0.2882 -1.4886
 3736SOL     OW22666   0.700   3.890  11.267  0.0540  0.0239 -0.5597
 3736SOL    HW122667   0.695   3.855  11.178  0.0195  3.2074 -1.7942
 3736SOL    HW222668   0.778   3.945  11.258  0.1866 -0.1462 -0.4634
 3737SOL     OW22669   3.264   2.562   6.309  0.1542 -0.1684 -0.1899
 3737SOL    HW122670   3.246   2.476   6.270  0.9034  0.3067 -1.6131
 3737SOL    HW222671   3.266   2.614   6.228  0.3307 -0.8097 -0.5990
 3738SOL     OW22672   1.971   1.508   0.081  0.0359 -0.1201  0.4255
 3738SOL    HW122673   1.985   1.487  17.686 -2.3947 -0.2850  0.0941
 3738SOL    HW222674   1.921   1.434   0.115  0.4601 -0.5333  0.1531
 3739SOL     OW22675   1.899   4.280   0.607 -0.2653 -0.3638 -0.1891
 3739SOL    HW122676   1.924   4.214   0.672 -0.1458 -1.9839 -1.9009
 3739SOL    HW222677   1.907   4.364   0.654  1.3824  0.4780 -1.9901
 3740SOL     OW22678   3.056   0.312   7.433  0.6854 -0.4256 -0.6676
 3740SOL    HW122679   3.125   0.282   7.491  0.6871  0.0824 -0.4066
 3740SOL    HW222680   3.091   0.284   7.348 -0.7231 -0.4597 -1.2426
 3741SOL     OW22681   4.139   1.954  16.768  0.4516  0.0713  0.1711
 3741SOL    HW122682   4.183   1.896  16.705  1.5750  1.5163 -0.3733
 3741SOL    HW222683   4.204   2.024  16.763 -0.8843  1.3096  0.3772
 3742SOL     OW22684   2.254   2.208  15.239  0.1580 -0.1307  0.2767
 3742SOL    HW122685   2.288   2.297  15.237  4.1420 -1.7081 -1.1892
 3742SOL    HW222686   2.192   2.209  15.312  0.5234  1.1446  0.5679
 3743SOL     OW22687   2.433   2.504  13.491 -0.2806 -0.5473  0.1581
 3743SOL    HW122688   2.519   2.470  13.516  0.1081 -1.6311 -2.6810
 3743SOL    HW222689   2.379   2.430  13.516 -0.7579 -0.2949 -0.1258
 3744SOL     OW22690   2.342   3.188   1.632  1.0114  0.0826 -0.0698
 3744SOL    HW122691   2.423   3.221   1.672 -0.7508  2.8544  1.2431
 3744SOL    HW222692   2.361   3.094   1.632 -0.6349 -0.2428  0.5167
 3745SOL     OW22693   4.091   1.807   5.334 -0.1364  0.2316  0.2741
 3745SOL    HW122694   4.171   1.842   5.294 -0.4582 -0.6024 -1.1101
 3745SOL    HW222695   4.128   1.758   5.408  1.9851  2.5463  0.7547
 3746SOL     OW22696   1.963   1.164   2.469 -0.1271  0.2164  0.1056
 3746SOL    HW122697   1.909   1.196   2.398 -0.4523  0.0053  0.2601
 3746SOL    HW222698   2.046   1.154   2.421 -1.3833 -2.4946 -1.5172
 3747SOL     OW22699   0.315   4.025   5.843 -0.0652  0.5076 -0.3658
 3747SOL    HW122700   0.379   3.957   5.822  2.0971  2.8939 -1.5243
 3747SOL    HW222701   0.326   4.031   5.938 -0.9088 -0.6361 -0.1932
 3748SOL     OW22702   0.996   0.602  10.044  0.2014  0.1796  0.9838
 3748SOL    HW122703   0.918   0.606   9.988 -1.3816 -1.9958  3.0119
 3748SOL    HW222704   0.972   0.522  10.091  1.0741  1.2385  3.1995
 3749SOL     OW22705   3.520   1.605   5.686 -0.0172 -0.1873 -0.6936
 3749SOL    HW122706   3.519   1.697   5.713 -0.6762 -0.8289  1.4765
 3749SOL    HW222707   3.555   1.553   5.759 -2.7225  0.8086  1.2962
 3750SOL     OW22708   1.355   3.559   9.581 -0.2543 -0.1748  0.9030
 3750SOL    HW122709   1.267   3.531   9.555  0.4213 -2.4241  1.1143
 3750SOL    HW222710   1.383   3.473   9.610 -2.4657 -0.7293  1.4523
 3751SOL     OW22711   1.206   3.660   5.786 -0.1843 -0.1943  0.3053
 3751SOL    HW122712   1.253   3.727   5.834  0.2554  0.1508 -0.6046
 3751SOL    HW222713   1.208   3.582   5.841 -0.3546  0.8550  1.7750
 3752SOL     OW22714   2.371   1.781  17.369  0.6114  0.2015 -0.1368
 3752SOL    HW122715   2.373   1.841  17.444  1.2824  2.7084 -2.1465
 3752SOL    HW222716   2.352   1.701  17.419  1.6274 -0.6248 -1.0880
 3753SOL     OW22717   1.120   0.412   1.649  0.1061 -0.2679 -0.9292
 3753SOL    HW122718   1.151   0.468   1.721  0.7986 -1.3025 -0.4264
 3753SOL    HW222719   1.026   0.409   1.669 -0.0363  2.3949 -1.1354
 3754SOL     OW22720   2.132   1.215  16.382  0.0623 -0.4982  0.0996
 3754SOL    HW122721   2.043   1.238  16.411  0.0971  0.6646 -0.7266
 3754SOL    HW222722   2.135   1.121  16.396  0.1518 -0.3658  0.9781
 3755SOL     OW22723   4.187   4.707  14.954 -0.1671 -0.8414 -0.2833
 3755SOL    HW122724   4.092   4.703  14.943 -0.5018  2.7630  1.1739
 3755SOL    HW222725   4.210   4.687  14.863 -1.5775 -1.6467 -0.4686
 3756SOL     OW22726   0.384   1.832   4.016 -0.8437  0.6718  0.2375
 3756SOL    HW122727   0.373   1.761   4.079 -0.2097 -1.0984 -1.6387
 3756SOL    HW222728   0.470   1.861   4.048 -0.6556 -1.3356  1.5718
 3757SOL     OW22729   1.575   2.410  10.308  0.1416  0.7015 -0.0731
 3757SOL    HW122730   1.597   2.317  10.319 -2.5115 -0.0519 -1.1609
 3757SOL    HW222731   1.513   2.392  10.237 -0.0415 -1.9823  0.7599
 3758SOL     OW22732   0.956   3.033   6.845 -0.0159 -0.0112  0.4736
 3758SOL    HW122733   0.962   3.120   6.885  0.3000  0.0252  0.3520
 3758SOL    HW222734   1.003   2.988   6.915 -0.6146 -0.3710  0.6382
 3759SOL     OW22735   3.776   0.489   2.713  0.4965 -0.3309  0.1596
 3759SOL    HW122736   3.763   0.578   2.680 -1.4598 -0.6805 -0.0198
 3759SOL    HW222737   3.791   0.509   2.806 -0.3865  2.5887 -0.3248
 3760SOL     OW22738   4.161   4.297  15.867 -0.1046  0.1605  0.0545
 3760SOL    HW122739   4.122   4.321  15.783  1.7188  0.7697 -0.6060
 3760SOL    HW222740   4.256   4.296  15.856 -0.1708 -0.3749 -0.4636
 3761SOL     OW22741   0.908   0.843  13.260 -0.3985  0.0798  0.0043
 3761SOL    HW122742   0.937   0.753  13.250 -0.2212  0.2859 -1.3503
 3761SOL    HW222743   0.814   0.831  13.243 -0.7646  0.2100  1.8315
 3762SOL     OW22744   3.308   3.844  15.023 -0.3137 -0.4751  0.0654
 3762SOL    HW122745   3.352   3.878  14.945 -1.4606  1.2338  0.1661
 3762SOL    HW222746   3.225   3.888  15.005 -0.8680 -2.3393 -1.8990
 3763SOL     OW22747   3.618   0.325   2.552  0.5794 -0.1048 -0.0045
 3763SOL    HW122748   3.608   0.244   2.600  0.0699 -0.0204  0.0352
 3763SOL    HW222749   3.670   0.380   2.610  2.1289 -1.3838 -0.1942
 3764SOL     OW22750   4.038   3.022   7.049 -0.0460  0.4835 -0.3384
 3764SOL    HW122751   3.966   2.985   6.998 -1.6975  1.3524  1.3637
 3764SOL    HW222752   3.983   3.039   7.126  1.7381  2.5137  0.4934
 3765SOL     OW22753   4.028   0.737   5.988  0.3152 -0.5596  0.1745
 3765SOL    HW122754   4.066   0.689   6.062  2.1211  3.9832  2.1506
 3765SOL    HW222755   3.968   0.668   5.959 -1.2535  0.9970 -0.2535
 3766SOL     OW22756   1.305   4.204   9.707 -0.1877 -0.1219  0.2791
 3766SOL    HW122757   1.325   4.206   9.614 -0.4830 -1.7911  0.1846
 3766SOL    HW222758   1.329   4.116   9.736  0.1313 -0.3032 -0.5359
 3767SOL     OW22759   4.423   4.369  13.479 -0.3362 -0.2287 -0.2120
 3767SOL    HW122760   4.482   4.443  13.467 -1.9310  1.3371  1.6458
 3767SOL    HW222761   4.389   4.366  13.568  3.0852 -1.6236  1.0206
 3768SOL     OW22762   2.544   1.962   6.482  0.3189 -0.0514 -0.5494
 3768SOL    HW122763   2.564   2.019   6.555  3.1378  0.8285 -2.0230
 3768SOL    HW222764   2.459   1.997   6.456 -0.1034 -0.6603  0.0236
 3769SOL     OW22765   1.178   0.702   5.502  0.5095  0.6447 -0.1240
 3769SOL    HW122766   1.236   0.757   5.449  1.1794 -0.9190 -1.0029
 3769SOL    HW222767   1.121   0.659   5.438  0.0805 -0.4248  0.9882
 3770SOL     OW22768   0.306   2.869   3.202 -0.7369 -0.4321  0.4659
 3770SOL    HW122769   0.340   2.789   3.242  0.8856 -0.7107 -1.4582
 3770SOL    HW222770   0.377   2.930   3.216 -0.9542 -0.3783  1.3134
 3771SOL     OW22771   2.840   4.321   8.707  0.1784 -0.3581  0.1039
 3771SOL    HW122772   2.753   4.290   8.731  1.0746 -2.1645  1.0586
 3771SOL    HW222773   2.842   4.408   8.747 -0.3965 -0.8660  1.2533
 3772SOL     OW22774   1.889   1.205   7.369 -0.0439  0.4724  0.2288
 3772SOL    HW122775   1.967   1.251   7.339 -0.7879 -0.2877 -2.8606
 3772SOL    HW222776   1.872   1.256   7.448 -0.0486  1.5596 -0.4858
 3773SOL     OW22777   1.570   3.106   6.449 -0.4524 -0.2311 -0.0538
 3773SOL    HW122778   1.492   3.156   6.423  0.3642 -1.0258 -4.0565
 3773SOL    HW222779   1.612   3.167   6.510 -2.1067 -0.2875  1.1449
 3774SOL     OW22780   4.672   3.772   5.480 -0.2375  0.3200  0.3802
 3774SOL    HW122781   4.678   3.768   5.385  1.7545  1.6460  0.4609
 3774SOL    HW222782   0.030   3.731   5.506 -0.6942 -1.0140 -0.2916
 3775SOL     OW22783   2.018   3.917   6.802 -0.2890 -0.5004  0.1491
 3775SOL    HW122784   2.077   3.843   6.809  0.6948  0.0490 -2.1599
 3775SOL    HW222785   2.021   3.937   6.708 -2.0797  2.2935  0.6757
 3776SOL     OW22786   2.546   4.092   2.120 -0.2455  0.2344 -0.0326
 3776SOL    HW122787   2.491   4.078   2.042  0.8007 -0.1320 -0.7061
 3776SOL    HW222788   2.619   4.033   2.099 -0.8019 -0.1601 -0.8676
 3777SOL     OW22789   3.624   3.805  10.463 -0.5466 -0.1565 -0.0007
 3777SOL    HW122790   3.576   3.722  10.470  0.8506 -0.9671 -0.1514
 3777SOL    HW222791   3.709   3.792  10.422  0.9885  2.3998  2.3949
 3778SOL     OW22792   3.148   4.271  15.558  0.0237  0.9100 -0.4315
 3778SOL    HW122793   3.127   4.260  15.651 -0.4235 -1.0816 -0.7734
 3778SOL    HW222794   3.234   4.313  15.564  0.5710 -0.3310  0.3564
 3779SOL     OW22795   3.002   3.042  10.771 -0.5771  0.3424  0.6676
 3779SOL    HW122796   3.052   3.120  10.796  1.0854 -0.2366 -0.8636
 3779SOL    HW222797   3.055   2.973  10.811  1.3290  1.3697 -0.0846
 3780SOL     OW22798   1.101   4.106  10.036  0.1692 -0.2267 -0.1481
 3780SOL    HW122799   1.089   4.113   9.941  0.7840 -0.1510 -0.2200
 3780SOL    HW222800   1.150   4.023  10.041  0.9516  0.1345 -1.9652
 3781SOL     OW22801   2.846   4.036   3.745  0.5166  0.1624  0.0684
 3781SOL    HW122802   2.897   4.103   3.699  0.9262 -0.1847  0.0196
 3781SOL    HW222803   2.893   3.953   3.746  1.6772  0.7897 -3.2196
 3782SOL     OW22804   0.143   1.938   3.933 -0.2093 -0.2478 -0.4732
 3782SOL    HW122805   0.091   1.861   3.909  0.9794 -1.2869  0.3196
 3782SOL    HW222806   0.223   1.910   3.976  0.0320  0.2263 -0.6087
 3783SOL     OW22807   1.623   4.311   1.551 -0.2811  0.4198 -0.1956
 3783SOL    HW122808   1.542   4.321   1.500 -2.7257 -2.1149  3.2430
 3783SOL    HW222809   1.685   4.287   1.482 -1.8547 -0.1279 -1.4202
 3784SOL     OW22810   2.404   1.091  16.411  0.0540  1.1066 -0.2579
 3784SOL    HW122811   2.410   0.997  16.425 -0.5703  0.9374 -1.1321
 3784SOL    HW222812   2.323   1.108  16.459  0.4076  0.4280  0.5697
 3785SOL     OW22813   3.253   2.988   6.414  0.4430 -0.4796  0.7539
 3785SOL    HW122814   3.225   2.925   6.348 -0.3071  1.5981 -0.9113
 3785SOL    HW222815   3.180   3.045   6.440 -0.4748 -1.0491 -0.6208
 3786SOL     OW22816   2.779   4.112   7.059  0.2753 -0.5084  0.2539
 3786SOL    HW122817   2.730   4.170   7.118 -1.1865 -1.2705 -0.1989
 3786SOL    HW222818   2.794   4.038   7.118 -1.2741 -1.0563 -0.0272
 3787SOL     OW22819   0.385   1.959   8.725  0.4336 -0.6421 -0.0637
 3787SOL    HW122820   0.467   2.007   8.736  0.3165 -0.0828 -1.5921
 3787SOL    HW222821   0.370   1.945   8.818 -3.0332 -0.1313 -0.5611
 3788SOL     OW22822   1.739   2.248   8.075  0.2198  0.0915 -0.0225
 3788SOL    HW122823   1.755   2.318   8.011 -0.0578 -0.0789 -0.2801
 3788SOL    HW222824   1.645   2.233   8.087 -0.1510 -0.2155 -3.0867
 3789SOL     OW22825   2.055   3.154  13.086  0.1049  0.0872 -0.4084
 3789SOL    HW122826   1.973   3.157  13.135 -1.7518  3.6689 -3.7338
 3789SOL    HW222827   2.113   3.113  13.150  0.5829  1.1535 -0.1729
 3790SOL     OW22828   0.936   1.457   9.314  0.3698 -0.5472  0.0850
 3790SOL    HW122829   0.854   1.407   9.316 -0.7824  1.4066  1.9685
 3790SOL    HW222830   1.001   1.391   9.339  0.0436 -0.5421  0.9455
 3791SOL     OW22831   3.795   0.331   4.404  0.6496 -0.0681  0.0373
 3791SOL    HW122832   3.836   0.406   4.361  0.0682  0.3323  0.1796
 3791SOL    HW222833   3.840   0.257   4.362 -0.7321 -1.0731  0.3260
 3792SOL     OW22834   0.937   2.120   6.000 -0.3756 -0.0953  0.1493
 3792SOL    HW122835   0.908   2.040   5.957 -1.2062 -0.2650  1.0081
 3792SOL    HW222836   0.872   2.110   6.069  0.2647 -1.1243  0.5984
 3793SOL     OW22837   0.497   4.357   1.614  0.1507 -0.4485  0.3518
 3793SOL    HW122838   0.535   4.277   1.651  1.5807  0.4247  0.7725
 3793SOL    HW222839   0.537   4.341   1.529  1.8934 -1.1872  1.2910
 3794SOL     OW22840   2.454   2.556   2.549  0.1377  0.0456  0.6056
 3794SOL    HW122841   2.374   2.534   2.596 -0.6748  1.0181 -0.3380
 3794SOL    HW222842   2.435   2.639   2.506  1.2546 -0.2323 -0.4442
 3795SOL     OW22843   4.422   4.225   8.891 -0.0284 -0.5349  0.1795
 3795SOL    HW122844   4.473   4.163   8.839 -0.3548 -0.7327  0.0918
 3795SOL    HW222845   4.382   4.168   8.957 -0.5637  0.1966  0.4836
 3796SOL     OW22846   2.123   0.302   7.137  0.0207  0.3829  0.4647
 3796SOL    HW122847   2.178   0.344   7.071 -2.1764 -0.7100 -2.0342
 3796SOL    HW222848   2.061   0.258   7.079  2.1421  0.5165 -1.8792
 3797SOL     OW22849   2.821   1.841  12.963 -1.1690  0.2571  0.2458
 3797SOL    HW122850   2.844   1.881  13.047 -0.7976 -0.6067  0.5628
 3797SOL    HW222851   2.744   1.790  12.987 -1.9035  2.5181  2.6830
 3798SOL     OW22852   1.334   1.205   6.482  0.0240 -0.0734 -0.0193
 3798SOL    HW122853   1.247   1.182   6.515 -0.8789  2.5576 -0.5502
 3798SOL    HW222854   1.385   1.128   6.508 -2.3464 -0.6456  2.9468
 3799SOL     OW22855   1.378   0.911  17.514 -0.4668  0.3283  0.6215
 3799SOL    HW122856   1.410   0.997  17.486  2.3340 -1.0005 -0.2921
 3799SOL    HW222857   1.409   0.907  17.604 -0.2075 -2.8335  0.3768
 3800SOL     OW22858   1.577   0.654   3.338 -0.0597 -0.1376  0.0080
 3800SOL    HW122859   1.665   0.682   3.316  0.5108 -1.7600  0.1745
 3800SOL    HW222860   1.578   0.565   3.302 -1.7135 -0.4164  0.6390
 3801SOL     OW22861   4.036   1.675   4.230 -1.0309  0.3295 -0.4937
 3801SOL    HW122862   3.997   1.628   4.156 -3.5451  1.2078  0.2690
 3801SOL    HW222863   3.981   1.754   4.234 -3.0220 -1.0993  0.0626
 3802SOL     OW22864   1.098   1.917   2.607 -0.0307  0.0945 -0.0962
 3802SOL    HW122865   1.038   1.948   2.675 -0.3914 -0.6019 -0.0888
 3802SOL    HW222866   1.162   1.877   2.666  0.3577  0.5224 -0.2308
 3803SOL     OW22867   1.953   3.928   8.320  0.5199  0.3194 -1.0418
 3803SOL    HW122868   2.007   3.852   8.338  0.1349  0.1896 -0.4441
 3803SOL    HW222869   2.014   3.995   8.349  0.4864 -0.3793  0.6238
 3804SOL     OW22870   2.137   1.264  10.904  0.3678 -0.8485  0.4085
 3804SOL    HW122871   2.218   1.264  10.955 -0.4328  2.4730  1.6533
 3804SOL    HW222872   2.074   1.294  10.969 -0.8174 -0.7336 -0.7764
 3805SOL     OW22873   1.529   4.259  17.639 -0.2931  0.0799  0.1338
 3805SOL    HW122874   1.520   4.346  17.601  0.0952  0.3778  0.7215
 3805SOL    HW222875   1.609   4.271  17.690 -0.0724  0.0078 -0.1962
 3806SOL     OW22876   0.424   2.469   1.341  0.3078  0.6449 -0.4705
 3806SOL    HW122877   0.363   2.451   1.270  1.7318 -1.7285 -1.1089
 3806SOL    HW222878   0.418   2.564   1.343 -0.5146  0.5569  1.8766
 3807SOL     OW22879   0.586   3.378   5.161 -0.3080 -0.2154  0.1350
 3807SOL    HW122880   0.645   3.337   5.098 -0.7143 -1.9258  0.8660
 3807SOL    HW222881   0.623   3.347   5.244  0.1499 -0.5633 -0.1949
 3808SOL     OW22882   0.857   3.512  12.250 -0.5455 -0.4192  0.2199
 3808SOL    HW122883   0.802   3.579  12.211  2.0681  1.9449  0.5561
 3808SOL    HW222884   0.860   3.546  12.339  0.8008 -0.8450  0.3464
 3809SOL     OW22885   0.396   4.270   8.444  0.0142  0.2034 -1.0235
 3809SOL    HW122886   0.419   4.245   8.534  1.1483 -2.6287 -2.1152
 3809SOL    HW222887   0.484   4.289   8.411  0.5246  0.0683  0.2686
 3810SOL     OW22888   1.795   4.537  10.713  0.5337 -0.7019 -0.2355
 3810SOL    HW122889   1.746   4.613  10.744  1.7863  0.5835 -1.4136
 3810SOL    HW222890   1.839   4.515  10.794  1.0933 -0.0440 -0.3680
 3811SOL     OW22891   2.269   0.157   3.920  0.0417 -0.3613  0.4843
 3811SOL    HW122892   2.258   0.247   3.889 -1.1719 -0.6492  0.0703
 3811SOL    HW222893   2.314   0.113   3.847  1.5545  0.1070  1.1416
 3812SOL     OW22894   3.415   0.946   5.090 -0.0966  0.3330 -0.6879
 3812SOL    HW122895   3.445   0.976   5.176  1.9325  2.0304 -2.0051
 3812SOL    HW222896   3.378   1.027   5.055 -0.9001  1.4115  2.5926
 3813SOL     OW22897   1.434   3.139   9.441  0.2395 -0.1395  0.2534
 3813SOL    HW122898   1.515   3.188   9.456 -0.1921  0.6473 -0.0103
 3813SOL    HW222899   1.461   3.056   9.403  0.2225  0.4573 -1.0498
 3814SOL     OW22900   1.786   4.083   4.085  0.1550 -0.5821  0.3874
 3814SOL    HW122901   1.708   4.036   4.054 -0.7788  0.5783  1.0245
 3814SOL    HW222902   1.823   4.020   4.147  0.0531 -0.5277  0.5015
 3815SOL     OW22903   1.764   0.249  16.974 -0.5129  0.2375 -0.7471
 3815SOL    HW122904   1.722   0.181  16.921 -2.9441  1.7672 -0.7987
 3815SOL    HW222905   1.832   0.272  16.910  0.3066  1.2787  0.5105
 3816SOL     OW22906   3.648   4.187   4.306 -0.0611 -0.1968 -0.8315
 3816SOL    HW122907   3.624   4.202   4.214  3.7102  2.9366 -1.3020
 3816SOL    HW222908   3.731   4.234   4.305  1.1302 -2.2535  1.6630
 3817SOL     OW22909   2.267   0.542   0.843  0.3730 -0.0534  0.2538
 3817SOL    HW122910   2.222   0.623   0.818  2.6282  0.5626 -1.7973
 3817SOL    HW222911   2.205   0.473   0.820  0.1290  0.1768  0.2164
 3818SOL     OW22912   3.154   0.680   7.702  0.0822 -0.5169 -0.5474
 3818SOL    HW122913   3.068   0.649   7.675 -1.3341  1.7571  1.3415
 3818SOL    HW222914   3.168   0.757   7.647  1.1755 -0.2083  0.1575
 3819SOL     OW22915   0.074   2.901  13.123 -0.2561  0.3442  0.2216
 3819SOL    HW122916   0.132   2.976  13.108  1.6277 -1.4316 -1.2925
 3819SOL    HW222917   0.041   2.879  13.036 -0.8427  1.3801  0.1839
 3820SOL     OW22918   4.195   1.384   9.577  0.8033  0.0841  0.0016
 3820SOL    HW122919   4.106   1.389   9.542  0.5936 -1.6511  0.2721
 3820SOL    HW222920   4.197   1.289   9.592  1.0112  0.6640  3.6210
 3821SOL     OW22921   3.312   4.599   2.612 -0.3625 -0.6585 -0.6565
 3821SOL    HW122922   3.389   4.547   2.593  0.1631  0.2364 -0.9719
 3821SOL    HW222923   3.257   4.582   2.535 -2.3235 -2.9692  1.2496
 3822SOL     OW22924   0.842   1.463   4.644 -0.2154  0.0406  0.1272
 3822SOL    HW122925   0.810   1.409   4.572 -0.9017  1.5297 -0.6687
 3822SOL    HW222926   0.810   1.546   4.610 -1.3675 -1.4877 -2.5705
 3823SOL     OW22927   1.177   3.817  10.385  0.5124  0.0078  0.3329
 3823SOL    HW122928   1.265   3.857  10.386  0.8331 -0.7178  0.6390
 3823SOL    HW222929   1.149   3.846  10.472 -0.5414  0.2159 -0.0735
 3824SOL     OW22930   2.402   2.042   4.580  0.1237 -0.0442  0.2640
 3824SOL    HW122931   2.354   1.960   4.587  1.9548 -1.2299 -1.0774
 3824SOL    HW222932   2.339   2.108   4.609  0.3120  0.1953  0.1311
 3825SOL     OW22933   1.965   4.659  16.016 -0.4704  0.4504  0.6845
 3825SOL    HW122934   1.896   4.659  16.082 -2.0523  0.8036 -0.9801
 3825SOL    HW222935   2.017   0.001  16.060 -1.0483  3.9282 -3.8562
 3826SOL     OW22936   4.142   1.543   6.592  0.6919  0.0965 -0.5112
 3826SOL    HW122937   4.216   1.510   6.541 -0.2361 -2.1450 -0.4122
 3826SOL    HW222938   4.079   1.475   6.569 -0.2551 -0.0641  2.5065
 3827SOL     OW22939   1.812   2.908  11.175  0.2529  0.8322  0.0990
 3827SOL    HW122940   1.900   2.874  11.159  0.1427  1.6488 -2.2649
 3827SOL    HW222941   1.768   2.890  11.091 -0.5189  0.6112  0.5541
 3828SOL     OW22942   2.265   2.650   1.859 -0.0076 -0.8114 -0.3546
 3828SOL    HW122943   2.322   2.650   1.782  3.9904  0.6737  2.5757
 3828SOL    HW222944   2.201   2.584   1.832 -0.2687  0.3015 -2.4197
 3829SOL     OW22945   2.898   2.239   4.923 -0.2163 -0.3116  0.0310
 3829SOL    HW122946   2.985   2.210   4.951 -0.4386 -2.9717 -2.0141
 3829SOL    HW222947   2.915   2.277   4.836 -3.4551  0.6237 -0.2196
 3830SOL     OW22948   2.803   2.666   0.851 -0.1554 -0.0445 -0.2291
 3830SOL    HW122949   2.816   2.609   0.927  1.5392 -0.1474 -0.6049
 3830SOL    HW222950   2.710   2.687   0.859 -0.1045 -0.1604  0.7019
 3831SOL     OW22951   3.021   1.003  15.659 -0.5037  0.1709 -0.0581
 3831SOL    HW122952   3.075   1.060  15.714 -0.6751  0.5813 -0.3147
 3831SOL    HW222953   3.044   1.033  15.571  0.2104 -2.2188 -0.6876
 3832SOL     OW22954   2.477   4.221   2.357  0.0653  0.0085 -0.5349
 3832SOL    HW122955   2.511   4.189   2.274  1.5127 -1.7370  0.7324
 3832SOL    HW222956   2.559   4.232   2.404  0.5390 -0.0526 -1.3493
 3833SOL     OW22957   1.033   1.885   7.145  0.3849  0.6140 -0.3179
 3833SOL    HW122958   1.123   1.854   7.133  0.7578  1.7798 -0.5523
 3833SOL    HW222959   1.050   1.978   7.162  0.8039  0.4184  0.3817
 3834SOL     OW22960   4.089   2.176   4.122  0.0361  0.0567  0.0569
 3834SOL    HW122961   4.036   2.247   4.086  0.6967  1.1882  1.3136
 3834SOL    HW222962   4.047   2.097   4.087 -1.4449  1.5434 -1.4858
 3835SOL     OW22963   0.109   4.287   2.043 -0.3574  0.0741 -0.0455
 3835SOL    HW122964   0.017   4.305   2.022  0.0299 -0.2354 -2.0743
 3835SOL    HW222965   0.141   4.371   2.075 -3.5492  1.1222  0.4724
 3836SOL     OW22966   1.111   2.007   8.142 -0.7871 -0.3345 -0.0038
 3836SOL    HW122967   1.116   2.082   8.083 -0.6440 -0.1654  0.2238
 3836SOL    HW222968   1.203   1.999   8.166 -0.5553  2.9662  0.1350
 3837SOL     OW22969   4.505   3.541  16.739  0.0418  0.5097  0.8057
 3837SOL    HW122970   4.459   3.468  16.697  2.5904 -1.0525  0.6950
 3837SOL    HW222971   4.438   3.609  16.734 -1.5032 -0.9849  1.0501
 3838SOL     OW22972   3.424   3.006   8.579  1.1363  0.4403  0.1257
 3838SOL    HW122973   3.495   2.963   8.627  0.8186 -1.2754 -0.9519
 3838SOL    HW222974   3.454   3.097   8.574  0.8272  0.5620  0.3996
 3839SOL     OW22975   3.827   4.538   0.773 -0.3402  0.4632 -0.0196
 3839SOL    HW122976   3.819   4.466   0.836  1.6862  1.9164  1.8882
 3839SOL    HW222977   3.742   4.578   0.793 -0.5510 -1.0666  2.1434
 3840SOL     OW22978   4.092   1.578  12.051  0.3606 -0.1140  0.5158
 3840SOL    HW122979   4.127   1.495  12.018 -1.2651 -0.9561  0.8842
 3840SOL    HW222980   4.124   1.576  12.141 -0.6135 -0.5745  0.8579
 3841SOL     OW22981   1.454   2.221   6.881 -0.6523  0.1168 -0.4493
 3841SOL    HW122982   1.380   2.160   6.873  0.1530 -0.7417 -1.2980
 3841SOL    HW222983   1.501   2.198   6.801 -1.5325 -1.0183 -0.6580
 3842SOL     OW22984   4.084   1.082  17.368  0.0095 -0.4067 -0.7475
 3842SOL    HW122985   4.045   1.023  17.304  0.0303 -0.2263 -0.9268
 3842SOL    HW222986   4.008   1.126  17.406 -0.8813 -1.5258 -1.2343
 3843SOL     OW22987   4.205   3.656   7.903  0.1062  0.2944 -0.1494
 3843SOL    HW122988   4.217   3.729   7.964 -0.0376 -0.6071  0.9459
 3843SOL    HW222989   4.292   3.617   7.900 -0.4548 -0.9482 -0.1268
 3844SOL     OW22990   1.181   3.196   7.154  0.1713 -0.2114 -0.1479
 3844SOL    HW122991   1.166   3.139   7.078  1.4851 -1.8854  0.8435
 3844SOL    HW222992   1.112   3.259   7.135 -1.3398 -1.2435  1.8398
 3845SOL     OW22993   3.759   3.903   6.696 -0.6152  0.7604 -0.1443
 3845SOL    HW122994   3.798   3.823   6.730 -0.1597  1.1410  0.2404
 3845SOL    HW222995   3.674   3.881   6.734 -1.3238  0.8325 -1.7188
 3846SOL     OW22996   4.341   1.925   1.176 -0.1282  0.2722 -0.5873
 3846SOL    HW122997   4.372   1.959   1.092  0.1440 -0.9207 -0.9778
 3846SOL    HW222998   4.334   1.830   1.165  0.0466  0.2118 -0.1892
 3847SOL     OW22999   0.868   0.656  10.347  0.2482 -0.0841 -0.0881
 3847SOL    HW123000   0.963   0.664  10.356  0.5439 -1.1961 -2.1323
 3847SOL    HW223001   0.862   0.572  10.302  0.8112 -0.2449  0.1380
 3848SOL     OW23002   2.685   4.320   2.490  0.3714  0.3820 -0.7330
 3848SOL    HW123003   2.760   4.368   2.526  1.4586 -0.9922 -1.1594
 3848SOL    HW223004   2.605   4.368   2.513  0.7832  1.5659 -1.7762
 3849SOL     OW23005   0.458   3.253  17.378  0.4801  0.3610 -0.0231
 3849SOL    HW123006   0.443   3.159  17.386 -1.2929  0.6109 -0.3887
 3849SOL    HW223007   0.408   3.272  17.298 -0.6055  0.7869  0.7491
 3850SOL     OW23008   2.724   3.701   3.727 -0.4271  0.7712 -0.0039
 3850SOL    HW123009   2.689   3.774   3.677 -1.3950  0.9209  0.8908
 3850SOL    HW223010   2.816   3.722   3.735 -0.0192 -1.4206  1.1060
 3851SOL     OW23011   3.399   2.220  16.366  0.3181  0.7028  0.1058
 3851SOL    HW123012   3.306   2.231  16.348 -0.3315 -1.5746  2.0792
 3851SOL    HW223013   3.417   2.257  16.453 -0.4434  3.4361 -0.9132
 3852SOL     OW23014   3.939   2.907  16.229  0.2528 -0.1038 -0.2453
 3852SOL    HW123015   3.929   2.812  16.221  1.9572 -0.3645  0.7848
 3852SOL    HW223016   4.020   2.921  16.277  0.3158 -0.6312 -0.2001
 3853SOL     OW23017   1.416   0.468   4.120  0.2452 -0.4642 -0.0714
 3853SOL    HW123018   1.490   0.460   4.179 -0.5253  1.2367  1.1356
 3853SOL    HW223019   1.346   0.495   4.179  0.0827  0.8873 -0.8753
 3854SOL     OW23020   2.463   0.947   3.391 -0.1669  0.5595 -0.0237
 3854SOL    HW123021   2.474   1.042   3.378  0.0996  0.6171  0.6255
 3854SOL    HW223022   2.471   0.922   3.299  3.4075 -0.2111  0.4903
 3855SOL     OW23023   3.225   3.010   6.992 -0.0859  0.0051  0.1623
 3855SOL    HW123024   3.195   3.101   6.995 -0.7479 -0.1522 -1.4049
 3855SOL    HW223025   3.160   2.980   7.054 -0.8942  1.3250 -0.0411
 3856SOL     OW23026   2.287   3.326   7.042  0.0349  0.2344  0.0540
 3856SOL    HW123027   2.317   3.296   7.127 -0.0539  0.2481  0.0906
 3856SOL    HW223028   2.239   3.406   7.067  1.3636  0.9379  0.3242
 3857SOL     OW23029   4.206   2.008   1.584  0.6010 -0.2428 -0.7850
 3857SOL    HW123030   4.162   1.956   1.651  1.4506  1.1940  0.8775
 3857SOL    HW223031   4.149   2.085   1.583  1.0136  0.0645 -0.4616
 3858SOL     OW23032   2.898   3.347   4.142  0.2264  0.4862 -0.6726
 3858SOL    HW123033   2.986   3.349   4.105  0.3681 -1.2985 -0.4795
 3858SOL    HW223034   2.839   3.372   4.071 -0.6679 -0.5280 -0.2961
 3859SOL     OW23035   0.385   0.187   6.811 -0.8348 -0.9664  0.5724
 3859SOL    HW123036   0.481   0.178   6.814 -0.3126  3.7320 -0.7711
 3859SOL    HW223037   0.362   0.196   6.719  0.5508 -1.7359  0.1525
 3860SOL     OW23038   3.747   1.141   3.186 -0.1899 -0.1354  0.4745
 3860SOL    HW123039   3.681   1.208   3.168  0.6575  0.5773  0.0649
 3860SOL    HW223040   3.783   1.179   3.265 -1.6053 -0.1845  1.1511
 3861SOL     OW23041   3.269   2.309   3.896 -0.0589  0.4205  1.2858
 3861SOL    HW123042   3.212   2.233   3.884  0.0506  0.5015  0.1977
 3861SOL    HW223043   3.310   2.301   3.982 -0.5141 -4.5923  0.9958
 3862SOL     OW23044   3.148   1.571   5.820 -0.3190  0.3380 -0.2015
 3862SOL    HW123045   3.188   1.489   5.791  0.2520 -0.6918  3.4153
 3862SOL    HW223046   3.180   1.632   5.754 -1.3830  0.7479 -0.3483
 3863SOL     OW23047   0.839   0.719  17.155 -0.0999  0.1027 -0.2949
 3863SOL    HW123048   0.853   0.807  17.118  0.8316  0.8955  1.9882
 3863SOL    HW223049   0.914   0.720  17.214  0.3221  2.7872 -0.8574
 3864SOL     OW23050   0.394   2.247   2.539 -0.3222  0.1536  0.1053
 3864SOL    HW123051   0.327   2.311   2.515 -0.1756  0.5471  0.7689
 3864SOL    HW223052   0.465   2.278   2.482  0.4641 -0.7956  0.5595
 3865SOL     OW23053   1.148   3.660  13.450 -0.0462 -0.5104 -0.2176
 3865SOL    HW123054   1.142   3.720  13.376  2.8090 -0.5053 -0.4704
 3865SOL    HW223055   1.062   3.619  13.448 -1.2228  2.0678 -1.5821
 3866SOL     OW23056   4.475   0.272   5.667 -0.6333 -0.0703 -0.0290
 3866SOL    HW123057   4.386   0.236   5.660 -0.8477  0.6968 -1.1633
 3866SOL    HW223058   4.519   0.219   5.601  3.5225  1.8547  1.2487
 3867SOL     OW23059   0.624   2.500   3.476  0.0087  0.1009 -0.2971
 3867SOL    HW123060   0.661   2.412   3.472 -0.2119  0.0164 -0.4837
 3867SOL    HW223061   0.693   2.538   3.422  0.1659  0.9088  0.4747
 3868SOL     OW23062   1.776   2.978   2.124  0.3509  0.5289 -0.5453
 3868SOL    HW123063   1.722   3.033   2.181 -0.6019 -1.5523  0.5616
 3868SOL    HW223064   1.793   3.037   2.050  0.3484  0.1430 -0.8537
 3869SOL     OW23065   0.155   0.134   9.853  0.1150  0.1926 -0.1697
 3869SOL    HW123066   0.147   0.039   9.849 -1.2194  0.3276 -0.5347
 3869SOL    HW223067   0.083   0.166   9.908 -0.9111 -3.8716  0.8672
 3870SOL     OW23068   0.679   0.461   3.528  0.3470 -0.6442 -0.0033
 3870SOL    HW123069   0.761   0.435   3.570  1.2353 -0.2488 -1.4853
 3870SOL    HW223070   0.635   0.379   3.507 -2.6743  0.8549  0.4054
 3871SOL     OW23071   1.354   4.202   8.710  0.0070  0.6287 -0.3309
 3871SOL    HW123072   1.431   4.180   8.657 -0.2084  0.1701 -0.4563
 3871SOL    HW223073   1.286   4.149   8.668  0.6994  1.0244 -1.9646
 3872SOL     OW23074   0.028   4.139   3.963 -0.1972 -0.3370  0.2500
 3872SOL    HW123075   4.672   4.126   4.014  0.3444 -2.5122  0.5259
 3872SOL    HW223076   0.104   4.137   4.020 -0.8561 -0.8208  1.1050
 3873SOL     OW23077   1.241   0.831  12.375 -0.0178  0.2400  0.4126
 3873SOL    HW123078   1.267   0.918  12.345  2.9288 -0.3040  1.3161
 3873SOL    HW223079   1.264   0.780  12.298  3.6898  1.5742  0.6259
 3874SOL     OW23080   1.008   2.988  15.095  0.3222  0.4899  0.5833
 3874SOL    HW123081   1.044   2.929  15.161 -1.2640  0.8558  1.7805
 3874SOL    HW223082   0.936   2.935  15.060 -0.8508  0.6079  2.8164
 3875SOL     OW23083   3.868   3.760   8.953  0.2451 -0.6324 -0.2422
 3875SOL    HW123084   3.793   3.812   8.922 -1.3705 -1.0320  2.9740
 3875SOL    HW223085   3.817   3.679   8.964  0.6075 -1.1040 -1.9733
 3876SOL     OW23086   0.888   2.387   2.867 -0.5597 -0.4690  0.4144
 3876SOL    HW123087   0.841   2.336   2.933  0.5286 -1.2138  0.6126
 3876SOL    HW223088   0.820   2.438   2.823 -0.2746 -1.3532 -1.0331
 3877SOL     OW23089   3.843   2.259   2.445 -0.2886 -0.5250 -0.2650
 3877SOL    HW123090   3.818   2.352   2.442  1.1113 -0.1735 -0.6546
 3877SOL    HW223091   3.910   2.260   2.377  1.1705  1.6016  1.1992
 3878SOL     OW23092   3.103   4.533   0.840 -0.0628  0.3508 -0.1475
 3878SOL    HW123093   3.131   4.468   0.776  3.0364 -1.7944  3.3472
 3878SOL    HW223094   3.172   4.596   0.857 -0.5850  0.6585  0.8849
 3879SOL     OW23095   3.000   3.609  13.484  0.4034 -0.5546 -0.3229
 3879SOL    HW123096   2.978   3.702  13.486 -1.0923 -0.9374  0.8411
 3879SOL    HW223097   3.060   3.602  13.409  0.6476  1.8597 -0.3556
 3880SOL     OW23098   1.151   3.402   9.476  0.2850  0.8981  0.2578
 3880SOL    HW123099   1.161   3.311   9.503 -1.6367  0.3346 -0.8874
 3880SOL    HW223100   1.152   3.388   9.381  0.4441  1.1444  0.2240
 3881SOL     OW23101   2.794   3.240  13.091 -0.0404  0.2223  0.4294
 3881SOL    HW123102   2.840   3.298  13.151 -0.3464 -0.6834  1.5435
 3881SOL    HW223103   2.717   3.289  13.062  1.3272  0.9687 -1.9396
 3882SOL     OW23104   3.728   4.058  13.225  0.1338  0.4568  0.2324
 3882SOL    HW123105   3.730   3.983  13.284  1.2069  1.1200  1.0334
 3882SOL    HW223106   3.819   4.088  13.220  0.2964  0.0295  0.6656
 3883SOL     OW23107   3.144   1.232  11.333  0.2793 -0.2037  0.3769
 3883SOL    HW123108   3.155   1.187  11.250 -3.2094  0.3424 -0.3988
 3883SOL    HW223109   3.064   1.189  11.365  0.0537 -0.2990 -0.3252
 3884SOL     OW23110   3.758   2.151   4.370  0.3760  0.9465  0.5854
 3884SOL    HW123111   3.749   2.247   4.371 -0.6694  0.8448 -0.0693
 3884SOL    HW223112   3.835   2.133   4.425  0.5555  0.4903  0.1822
 3885SOL     OW23113   2.385   1.333   2.350  0.2392 -0.2547 -0.5050
 3885SOL    HW123114   2.424   1.280   2.419  0.4970  0.1267 -0.3632
 3885SOL    HW223115   2.363   1.411   2.400 -1.2202 -0.6992 -0.4471
 3886SOL     OW23116   2.419   1.620   0.645  0.0905  0.7274 -0.6486
 3886SOL    HW123117   2.417   1.716   0.654  0.6282  0.6832 -0.0393
 3886SOL    HW223118   2.473   1.604   0.568  0.8875  1.8848 -0.3238
 3887SOL     OW23119   4.484   1.470   3.576 -0.1090  0.2194 -0.5951
 3887SOL    HW123120   4.500   1.559   3.545  0.6853  0.1400 -0.4153
 3887SOL    HW223121   4.477   1.420   3.494 -1.4492  1.2307 -1.0867
 3888SOL     OW23122   2.516   3.442   6.869  0.0023 -0.0821 -0.1598
 3888SOL    HW123123   2.561   3.397   6.941 -1.3393  1.1338  1.4623
 3888SOL    HW223124   2.428   3.419   6.898 -0.6754  0.7451 -1.5715
 3889SOL     OW23125   1.036   3.853   2.790 -0.0485  0.6789 -0.0364
 3889SOL    HW123126   1.008   3.944   2.800  4.1383  2.1934 -2.1129
 3889SOL    HW223127   1.033   3.834   2.697  1.1701  1.6211 -0.2785
 3890SOL     OW23128   1.582   3.229   5.686 -0.2728  0.2780 -0.7635
 3890SOL    HW123129   1.559   3.319   5.706  0.9086  0.6620 -1.1280
 3890SOL    HW223130   1.542   3.215   5.600 -2.2171  2.1976 -0.1820
 3891SOL     OW23131   0.866   0.968  12.180 -0.1301 -0.2270 -0.6701
 3891SOL    HW123132   0.800   0.938  12.118 -1.7565  1.2288  0.3517
 3891SOL    HW223133   0.886   0.880  12.213  2.1555  0.2571 -0.7615
 3892SOL     OW23134   2.747   3.896  17.472 -0.2316  0.3015 -0.3257
 3892SOL    HW123135   2.829   3.936  17.500 -1.0658  2.3898 -0.9180
 3892SOL    HW223136   2.705   3.970  17.428  0.4169 -0.1987 -1.7682
 3893SOL     OW23137   1.357   0.721   0.791 -0.2913 -0.5304  0.3905
 3893SOL    HW123138   1.290   0.654   0.801 -0.5052 -0.4812 -0.6467
 3893SOL    HW223139   1.437   0.668   0.793 -0.3891 -0.7753 -1.9944
 3894SOL     OW23140   0.636   1.129   5.732  0.4244 -0.6430 -0.0216
 3894SOL    HW123141   0.641   1.179   5.814  1.7319  0.0263 -0.5115
 3894SOL    HW223142   0.703   1.060   5.735 -2.0721 -3.1993 -2.6017
 3895SOL     OW23143   2.166   3.204  16.611  0.0619  0.0292 -0.6328
 3895SOL    HW123144   2.163   3.299  16.598 -1.9921  0.0540 -0.0876
 3895SOL    HW223145   2.087   3.168  16.571 -0.8786  2.2604 -0.8265
 3896SOL     OW23146   2.215   3.981   5.646  0.1030  0.2112  0.8740
 3896SOL    HW123147   2.304   3.946   5.642 -0.3621 -0.8097 -0.5379
 3896SOL    HW223148   2.163   3.902   5.662 -1.7528  1.8999  3.2922
 3897SOL     OW23149   1.394   0.478   1.197 -0.0513  0.2459 -0.1191
 3897SOL    HW123150   1.397   0.423   1.118  1.3196 -0.0969  0.1778
 3897SOL    HW223151   1.322   0.538   1.177 -1.2884 -0.8503  1.0627
 3898SOL     OW23152   4.056   2.219   4.653  0.5209 -0.3108 -0.4116
 3898SOL    HW123153   4.098   2.292   4.608 -0.4659  0.9471  0.7030
 3898SOL    HW223154   3.995   2.273   4.703  1.6112 -1.9900  2.7386
 3899SOL     OW23155   1.498   0.132  10.883  0.2837 -0.8841  0.2790
 3899SOL    HW123156   1.551   0.130  10.803 -1.7571 -1.5318 -1.0283
 3899SOL    HW223157   1.486   0.039  10.901  2.5922 -1.1163  0.6801
 3900SOL     OW23158   3.498   1.061   2.660 -0.5914  0.0968  0.3127
 3900SOL    HW123159   3.526   1.151   2.640 -0.9376 -0.0563 -0.8501
 3900SOL    HW223160   3.537   1.014   2.586 -0.0082  1.4129 -0.2236
 3901SOL     OW23161   2.314   0.565   6.457 -0.3288 -0.3645  0.0881
 3901SOL    HW123162   2.255   0.632   6.423  1.8841  0.9852 -1.1357
 3901SOL    HW223163   2.292   0.493   6.398  1.5922  0.1257 -1.2267
 3902SOL     OW23164   1.536   1.846   5.943 -0.3989 -0.6709 -0.0542
 3902SOL    HW123165   1.612   1.872   5.996 -1.6572  3.4806 -0.2892
 3902SOL    HW223166   1.531   1.912   5.874  0.6074  0.0012  0.5115
 3903SOL     OW23167   0.132   0.952   4.431 -0.2628 -0.6026 -0.2118
 3903SOL    HW123168   0.047   0.987   4.404  0.1712  0.8440  0.2757
 3903SOL    HW223169   0.187   1.030   4.420 -0.8257 -0.0992  0.4496
 3904SOL     OW23170   0.049   2.923   3.411  0.4665  0.1834  0.1285
 3904SOL    HW123171   4.720   2.846   3.391  0.8517 -0.6711  2.4613
 3904SOL    HW223172   0.005   2.971   3.340 -0.4464 -0.9392 -0.0689
 3905SOL     OW23173   1.763   4.562   0.078  0.4122  0.1565  0.3552
 3905SOL    HW123174   1.853   4.586   0.056  1.6319 -1.8133  3.1823
 3905SOL    HW223175   1.760   4.467   0.068 -1.9470  0.4015 -1.3471
 3906SOL     OW23176   2.931   1.468  14.354  0.0235  0.4142  0.5229
 3906SOL    HW123177   2.987   1.434  14.284 -1.9387  1.4085 -1.5261
 3906SOL    HW223178   2.900   1.539  14.298 -0.1312  0.5440  0.7723
 3907SOL     OW23179   0.523   3.051   2.170 -0.3809 -0.3606  0.1795
 3907SOL    HW123180   0.499   2.959   2.158 -0.3362 -0.1741 -1.2412
 3907SOL    HW223181   0.440   3.090   2.145 -1.3604 -1.2241  2.0652
 3908SOL     OW23182   3.598   4.601   2.785  0.2500  0.6169  0.3144
 3908SOL    HW123183   3.624   4.522   2.832 -0.6130 -0.8221 -1.6169
 3908SOL    HW223184   3.526   4.567   2.732 -0.9955  1.1524  1.6329
 3909SOL     OW23185   0.616   4.503   8.018 -0.1065  1.0385  0.5023
 3909SOL    HW123186   0.585   4.413   8.017  0.9184  0.7182 -2.2798
 3909SOL    HW223187   0.647   4.514   8.108  2.2325 -1.6818  0.0430
 3910SOL     OW23188   2.385   2.357   9.679 -0.2530  0.7709 -0.2496
 3910SOL    HW123189   2.459   2.393   9.631  0.8156 -1.5916 -0.3829
 3910SOL    HW223190   2.317   2.364   9.612  1.3966 -0.1864 -2.0362
 3911SOL     OW23191   0.156   3.686   4.287  0.3751  0.0899  0.0664
 3911SOL    HW123192   0.108   3.676   4.369 -0.4285 -0.1611 -0.4318
 3911SOL    HW223193   0.153   3.596   4.255 -3.4462 -0.1894  1.2360
 3912SOL     OW23194   2.989   0.640  17.072 -0.1922  0.2801 -0.1405
 3912SOL    HW123195   2.950   0.569  17.021 -0.4631 -0.5851  1.2709
 3912SOL    HW223196   2.944   0.629  17.155 -1.4292 -0.5376 -0.9239
 3913SOL     OW23197   0.495   0.109   6.524  0.2112  0.4458 -0.3250
 3913SOL    HW123198   0.421   0.051   6.506  0.2931 -0.5782  2.6402
 3913SOL    HW223199   0.560   0.040   6.539 -0.9105 -1.1853 -2.9533
 3914SOL     OW23200   1.181   1.548   1.988 -0.2377 -0.3541 -0.2869
 3914SOL    HW123201   1.265   1.553   2.033 -0.0049  0.1743 -0.7866
 3914SOL    HW223202   1.119   1.514   2.053 -0.7705  1.0670 -0.0592
 3915SOL     OW23203   0.533   4.455   2.025  0.0511 -0.0265  0.2450
 3915SOL    HW123204   0.606   4.490   1.974  0.0392  0.9701  0.9004
 3915SOL    HW223205   0.464   4.452   1.959 -0.1292 -0.0515  0.4323
 3916SOL     OW23206   0.590   0.999   5.237  0.1665  0.0827 -0.1738
 3916SOL    HW123207   0.620   1.072   5.290  0.1949 -1.6656  2.2140
 3916SOL    HW223208   0.495   0.999   5.227  0.3292  0.4403 -1.8124
 3917SOL     OW23209   3.935   0.488  14.478 -0.2331 -0.0008  0.8747
 3917SOL    HW123210   4.012   0.479  14.421  0.1403 -1.5244  1.6367
 3917SOL    HW223211   3.970   0.448  14.557  0.3511  0.9622  1.1101
 3918SOL     OW23212   4.585   4.324  15.558  0.5947  0.1804 -0.4313
 3918SOL    HW123213   4.556   4.414  15.543  1.0805  0.5926  1.0911
 3918SOL    HW223214   4.593   4.287  15.470  0.7509 -1.4131  0.2448
 3919SOL     OW23215   4.687   3.100   8.206  0.4771  0.0681  0.1507
 3919SOL    HW123216   4.634   3.140   8.276  0.0935  1.0682 -0.7016
 3919SOL    HW223217   4.720   3.179   8.163 -0.4332  0.5468  0.3094
 3920SOL     OW23218   0.831   4.368   2.410  0.3728  0.0260 -0.3478
 3920SOL    HW123219   0.742   4.397   2.429  0.3081 -0.8575  0.7247
 3920SOL    HW223220   0.855   4.323   2.492 -1.4713  3.3334  1.9782
 3921SOL     OW23221   1.329   0.493  16.896  0.2524 -0.3858  0.2850
 3921SOL    HW123222   1.322   0.589  16.897  2.5210 -0.2260  1.0805
 3921SOL    HW223223   1.400   0.467  16.955  0.4893  0.1572  0.2385
 3922SOL     OW23224   0.113   2.126   1.748 -0.1649 -0.5640  0.0416
 3922SOL    HW123225   0.152   2.157   1.829  1.6837  2.9580 -2.1885
 3922SOL    HW223226   0.040   2.187   1.746 -0.3887 -0.7978  1.0742
 3923SOL     OW23227   3.691   0.051   0.824 -0.0322  0.1313  0.3683
 3923SOL    HW123228   3.648   0.075   0.741  0.2862  2.0899  0.7563
 3923SOL    HW223229   3.776   0.093   0.812 -0.3152  0.9734  1.2938
 3924SOL     OW23230   2.481   3.259   0.309  0.6427 -0.1997  0.1702
 3924SOL    HW123231   2.516   3.338   0.267  0.2731  1.3336  2.7276
 3924SOL    HW223232   2.501   3.195   0.241 -0.4097 -0.3209 -0.0267
 3925SOL     OW23233   4.146   3.216   7.369 -0.7796 -0.4661  0.5594
 3925SOL    HW123234   4.078   3.166   7.325 -1.9118  1.4077  0.1668
 3925SOL    HW223235   4.096   3.275   7.426  0.0464  0.5654  0.2276
 3926SOL     OW23236   2.863   3.849  10.803 -0.4603 -0.3488 -0.8269
 3926SOL    HW123237   2.809   3.862  10.880  0.3882 -0.4974 -0.2059
 3926SOL    HW223238   2.948   3.877  10.836 -0.4600 -1.8624  0.4089
 3927SOL     OW23239   2.697   4.468   2.840 -0.2318  0.2642  0.8538
 3927SOL    HW123240   2.734   4.487   2.927  1.9325  0.5505 -0.1326
 3927SOL    HW223241   2.741   4.537   2.790 -2.4900  1.0760 -0.0046
 3928SOL     OW23242   1.550   1.572  11.188  0.2659 -0.1794 -0.3046
 3928SOL    HW123243   1.564   1.667  11.187  1.7279 -0.3951 -0.9977
 3928SOL    HW223244   1.635   1.544  11.221 -1.8848 -3.0120  2.8285
 3929SOL     OW23245   4.167   0.652   4.649  0.0396 -0.0326  0.0273
 3929SOL    HW123246   4.168   0.715   4.577  0.3530 -0.3794 -0.2722
 3929SOL    HW223247   4.203   0.701   4.723 -0.4536 -1.0357  0.9193
 3930SOL     OW23248   0.950   3.225  13.587  0.2826  0.1533  0.2641
 3930SOL    HW123249   0.865   3.240  13.544 -0.5833 -1.8400  1.2525
 3930SOL    HW223250   1.001   3.172  13.526 -1.0571 -0.7685 -0.0673
 3931SOL     OW23251   2.650   0.105   4.576 -0.0156  0.2342  0.7781
 3931SOL    HW123252   2.648   0.103   4.672  1.1300  0.1648  0.7997
 3931SOL    HW223253   2.728   0.051   4.565  0.1339  0.8881 -1.5394
 3932SOL     OW23254   1.592   1.241   8.765 -0.3059 -0.0033  0.1228
 3932SOL    HW123255   1.501   1.263   8.747  0.0262  0.1031 -1.4837
 3932SOL    HW223256   1.618   1.330   8.789 -0.0366  0.0996 -0.5378
 3933SOL     OW23257   3.312   3.013   2.118  0.7685 -0.2627  0.1156
 3933SOL    HW123258   3.251   2.953   2.074 -0.5151 -0.2474  1.8753
 3933SOL    HW223259   3.370   3.035   2.045  0.7091  0.6573  0.3413
 3934SOL     OW23260   4.479   0.944   2.452  0.1617 -0.3181 -0.5162
 3934SOL    HW123261   4.414   0.936   2.522  0.4727  0.5620 -0.1333
 3934SOL    HW223262   4.541   1.003   2.495 -1.5186  0.5233  0.7766
 3935SOL     OW23263   0.276   3.037  12.761  0.1438  0.5648  0.1931
 3935SOL    HW123264   0.259   2.946  12.787 -0.7117  0.9555  0.9701
 3935SOL    HW223265   0.306   3.019  12.672  1.6222  1.3911  0.5333
 3936SOL     OW23266   3.217   0.945   6.096  0.1631 -0.1538 -0.1189
 3936SOL    HW123267   3.312   0.935   6.086  0.0549 -0.4069 -0.8726
 3936SOL    HW223268   3.204   1.035   6.127 -1.9259 -0.0560 -1.3381
 3937SOL     OW23269   3.596   1.876   9.356  0.3797  0.1678  0.7943
 3937SOL    HW123270   3.613   1.895   9.448 -1.7508  1.9765  0.8090
 3937SOL    HW223271   3.573   1.783   9.351  0.7589  0.2504 -2.8213
 3938SOL     OW23272   0.204   1.233   2.578  0.1711  0.0478 -0.1267
 3938SOL    HW123273   0.113   1.219   2.553 -0.1713 -0.4558  1.3945
 3938SOL    HW223274   0.251   1.163   2.533 -0.9928 -0.9679  0.2221
 3939SOL     OW23275   3.300   2.680   6.049 -0.1242 -0.8021 -0.2664
 3939SOL    HW123276   3.249   2.606   6.017 -0.8166 -0.2411 -0.4719
 3939SOL    HW223277   3.331   2.715   5.965 -1.4371  1.8586  0.3711
 3940SOL     OW23278   3.934   2.842   0.084 -0.1865 -0.4571 -0.6875
 3940SOL    HW123279   3.898   2.785   0.016 -0.4502 -0.5316 -0.4872
 3940SOL    HW223280   4.028   2.824   0.082 -0.1940 -0.6410  0.6349
 3941SOL     OW23281   0.580   1.893   5.487 -0.1857  0.1838 -0.2462
 3941SOL    HW123282   0.615   1.937   5.565  0.8561 -2.2479  0.6765
 3941SOL    HW223283   0.662   1.863   5.447  0.7913  0.5198  1.5251
 3942SOL     OW23284   0.667   3.795   8.286 -0.7543  0.4421 -0.3546
 3942SOL    HW123285   0.726   3.775   8.213 -0.4296  1.9453 -0.5120
 3942SOL    HW223286   0.611   3.867   8.254  0.3126  1.0562 -0.8320
 3943SOL     OW23287   0.850   2.742   6.941  0.4058 -0.0081  0.1189
 3943SOL    HW123288   0.805   2.667   6.981  0.1877  0.1952  0.2495
 3943SOL    HW223289   0.839   2.811   7.006 -0.6871 -1.8388  1.8675
 3944SOL     OW23290   2.165   2.403  16.803 -0.5492  0.9064 -0.0671
 3944SOL    HW123291   2.237   2.440  16.853 -1.4543  2.6919 -0.0835
 3944SOL    HW223292   2.124   2.482  16.768 -1.8582  0.3825  0.2725
 3945SOL     OW23293   4.318   1.001   6.949 -0.0722 -0.1111 -0.3388
 3945SOL    HW123294   4.317   1.085   6.903 -1.1020  0.2371  0.3221
 3945SOL    HW223295   4.331   0.933   6.883  1.5281  1.1780 -1.3484
 3946SOL     OW23296   3.603   0.648   4.549 -0.0449  0.5988  0.1360
 3946SOL    HW123297   3.629   0.662   4.641 -0.3771  0.9978  0.1707
 3946SOL    HW223298   3.680   0.624   4.498  0.4263 -0.7522  1.4916
 3947SOL     OW23299   0.015   2.486  14.874 -0.5448  0.3602 -0.0670
 3947SOL    HW123300   0.087   2.431  14.843 -0.4170  1.3519 -1.5252
 3947SOL    HW223301   4.682   2.420  14.912 -2.7778  2.6387  0.5602
 3948SOL     OW23302   0.612   2.025   4.977 -0.3438  0.1366 -0.0600
 3948SOL    HW123303   0.538   2.085   4.987 -1.1214 -1.1960  2.4003
 3948SOL    HW223304   0.562   1.957   4.933 -0.6186  0.7370 -0.6705
 3949SOL     OW23305   0.370   3.318   9.952  0.2200 -0.4259  0.3770
 3949SOL    HW123306   0.335   3.344   9.866  0.2502 -0.6334  0.2994
 3949SOL    HW223307   0.369   3.400  10.000  0.3518 -1.4768  2.1567
 3950SOL     OW23308   3.787   3.371   4.707 -0.0231 -0.3005  0.4470
 3950SOL    HW123309   3.793   3.289   4.755  1.5881 -0.1321  0.5283
 3950SOL    HW223310   3.859   3.421   4.745  0.4718  0.6755 -1.7158
 3951SOL     OW23311   1.765   3.321  13.743  0.7457 -0.0503 -0.0697
 3951SOL    HW123312   1.841   3.376  13.763  1.1243 -1.2134  1.6805
 3951SOL    HW223313   1.692   3.382  13.741  0.3248 -0.5239  0.9529
 3952SOL     OW23314   2.786   0.963   8.364 -0.0470  0.5504  0.1927
 3952SOL    HW123315   2.817   1.048   8.396 -0.7898  2.0747 -3.0540
 3952SOL    HW223316   2.768   0.989   8.273 -1.9385 -1.6806 -0.0749
 3953SOL     OW23317   0.623   2.379   2.452  0.0570 -0.2142  0.2102
 3953SOL    HW123318   0.677   2.453   2.424  0.0270 -0.0119  0.6820
 3953SOL    HW223319   0.627   2.313   2.383  0.6113 -0.5554  0.5779
 3954SOL     OW23320   2.669   1.926   2.160  0.1933 -0.1070  0.2233
 3954SOL    HW123321   2.758   1.927   2.126  0.0454  0.0727 -0.1588
 3954SOL    HW223322   2.628   1.863   2.101  0.3433  1.5085 -1.6156
 3955SOL     OW23323   2.215   3.213   1.988 -0.1509 -0.0746  0.8629
 3955SOL    HW123324   2.121   3.219   1.976 -0.1873 -0.1649  1.0979
 3955SOL    HW223325   2.230   3.129   1.946 -1.3632 -0.3587  1.0108
 3956SOL     OW23326   0.256   1.564  12.009  0.0498  0.0789  0.6065
 3956SOL    HW123327   0.315   1.622  12.058  2.3268 -1.0411 -0.8005
 3956SOL    HW223328   0.176   1.571  12.061  0.4841  0.1371  1.2699
 3957SOL     OW23329   3.478   0.892  12.641  0.3202 -0.4370  0.2218
 3957SOL    HW123330   3.412   0.824  12.628  0.3483  0.1999 -3.2517
 3957SOL    HW223331   3.553   0.852  12.598 -0.0268  1.3455 -2.0613
 3958SOL     OW23332   3.546   2.520   2.790  0.6229  0.3295  0.0190
 3958SOL    HW123333   3.495   2.465   2.731 -0.6902  2.7547 -1.1304
 3958SOL    HW223334   3.568   2.452   2.854 -1.3656 -0.6465 -0.3242
 3959SOL     OW23335   1.939   0.370  11.468 -0.4952  0.3274 -0.2482
 3959SOL    HW123336   1.915   0.369  11.561 -1.0866 -1.7615 -0.4384
 3959SOL    HW223337   1.869   0.427  11.439  0.4957  1.0272 -1.2685
 3960SOL     OW23338   0.358   2.985   8.875  0.4030 -0.1529  0.3177
 3960SOL    HW123339   0.433   2.927   8.863  0.3075 -0.4433  1.1512
 3960SOL    HW223340   0.346   3.016   8.785  0.2448  1.1684  0.7998
 3961SOL     OW23341   4.077   3.025  13.293  0.4781 -0.0604 -0.2887
 3961SOL    HW123342   4.070   2.997  13.384 -2.3075  3.1462  0.4897
 3961SOL    HW223343   3.987   3.056  13.282  0.2505 -0.3195  0.8645
 3962SOL     OW23344   0.864   3.944   8.532  0.4137  0.0214 -0.1644
 3962SOL    HW123345   0.873   3.931   8.626 -0.2222 -0.1434 -0.1304
 3962SOL    HW223346   0.802   3.877   8.504 -1.7188  1.6016  0.7104
 3963SOL     OW23347   3.347   1.408   1.902  0.2930 -0.2931  0.5175
 3963SOL    HW123348   3.353   1.397   1.807  1.6837 -0.0172  0.5709
 3963SOL    HW223349   3.255   1.432   1.911 -0.4857 -2.8709 -0.5507
 3964SOL     OW23350   1.433   0.531  12.486 -0.4600  0.6631  0.0581
 3964SOL    HW123351   1.519   0.495  12.508 -1.1718 -1.2109 -0.1963
 3964SOL    HW223352   1.461   0.590  12.415 -3.7488  1.0406 -0.9281
 3965SOL     OW23353   1.607   2.042  15.955  0.3813  0.0923  0.1363
 3965SOL    HW123354   1.558   1.961  15.938 -0.8198  0.9128 -0.2953
 3965SOL    HW223355   1.540   2.104  15.926 -0.7517 -0.8870  0.6548
 3966SOL     OW23356   3.046   2.780  10.474  0.3728 -0.4690 -0.2319
 3966SOL    HW123357   3.038   2.722  10.550 -1.7697 -0.3733 -0.3727
 3966SOL    HW223358   3.140   2.771  10.458 -0.0054  1.0296 -3.2069
 3967SOL     OW23359   2.473   4.293   7.270  0.3260  0.1673 -0.1010
 3967SOL    HW123360   2.385   4.256   7.273  0.1833  0.5996  1.2907
 3967SOL    HW223361   2.460   4.340   7.188  0.5196  0.7730  0.2217
 3968SOL     OW23362   0.715   3.775   2.379  0.0800 -0.2712 -0.3299
 3968SOL    HW123363   0.682   3.840   2.440  0.4491 -1.9339  1.6212
 3968SOL    HW223364   0.635   3.739   2.342 -0.2991  1.8905 -1.6267
 3969SOL     OW23365   0.101   0.988   2.811  0.1682 -0.1206  0.4964
 3969SOL    HW123366   0.177   1.046   2.808  1.2904 -1.5143  1.8728
 3969SOL    HW223367   0.134   0.922   2.749 -1.7626 -2.4934  1.9891
 3970SOL     OW23368   0.609   4.621  13.405 -0.0908 -0.5529  0.4822
 3970SOL    HW123369   0.559   4.636  13.325  0.9915 -3.0443 -0.6668
 3970SOL    HW223370   0.673   4.558  13.371 -0.9214 -0.0594 -1.9855
 3971SOL     OW23371   2.052   0.692   1.309  0.1187 -0.3166 -0.2722
 3971SOL    HW123372   2.040   0.775   1.264  2.5864 -0.0099 -0.3568
 3971SOL    HW223373   2.094   0.731   1.386  0.7273  0.5926 -1.0782
 3972SOL     OW23374   3.510   4.414   2.573  0.0501 -0.0014  0.2480
 3972SOL    HW123375   3.592   4.439   2.531  0.3808 -0.5396  0.5623
 3972SOL    HW223376   3.492   4.334   2.523  2.5166 -2.2843  3.0386
 3973SOL     OW23377   0.649   3.837   8.954 -0.1790  0.3443 -0.2938
 3973SOL    HW123378   0.601   3.827   9.036 -1.0412  0.6469 -0.7710
 3973SOL    HW223379   0.696   3.753   8.947 -0.3315  0.1376  1.2870
 3974SOL     OW23380   4.651   1.104   1.532 -0.3747  0.1605  0.1031
 3974SOL    HW123381   0.001   1.043   1.530 -1.1018 -0.6839 -1.1137
 3974SOL    HW223382   4.672   1.175   1.593  0.0387 -0.3864  0.6012
 3975SOL     OW23383   2.407   1.576  16.067 -0.3204 -0.3926 -0.5126
 3975SOL    HW123384   2.493   1.601  16.102  0.9590 -1.6295 -2.8005
 3975SOL    HW223385   2.424   1.497  16.015 -2.7531 -1.2306 -0.0224
 3976SOL     OW23386   3.998   1.998   4.475 -0.3213 -0.3446  0.3943
 3976SOL    HW123387   4.046   1.920   4.501  0.1319 -0.2189 -0.0828
 3976SOL    HW223388   4.019   2.056   4.548  1.2454 -0.9266  0.3900
 3977SOL     OW23389   2.602   0.962   2.028  0.3028  0.2055 -0.0790
 3977SOL    HW123390   2.646   0.886   1.990 -1.5758 -0.9421  0.0259
 3977SOL    HW223391   2.581   0.926   2.114 -0.2508  1.1851  0.1978
 3978SOL     OW23392   0.552   2.890   4.346 -0.2822 -0.4008 -0.3160
 3978SOL    HW123393   0.627   2.947   4.364 -0.7759 -0.3186  1.4997
 3978SOL    HW223394   0.497   2.949   4.295  0.8461 -2.5225 -3.9294
 3979SOL     OW23395   2.922   3.713   6.012 -0.3006 -0.0587 -0.3681
 3979SOL    HW123396   2.834   3.693   5.981  0.9088 -1.3058 -2.9369
 3979SOL    HW223397   2.949   3.630   6.052  0.4396 -0.2361 -1.2535
 3980SOL     OW23398   3.937   2.335   2.857 -0.0662  0.4317  0.3234
 3980SOL    HW123399   3.974   2.423   2.859  1.2131 -0.0883 -0.1464
 3980SOL    HW223400   3.947   2.332   2.762 -0.9809  0.6924  0.2199
 3981SOL     OW23401   0.241   0.615   8.577  0.1750 -0.4112  0.2693
 3981SOL    HW123402   0.192   0.645   8.653  1.3728  1.3816  0.3141
 3981SOL    HW223403   0.296   0.546   8.613 -1.2497 -1.5954  0.1930
 3982SOL     OW23404   2.070   0.239   2.518  0.3336  0.3492 -0.1538
 3982SOL    HW123405   2.009   0.165   2.516 -1.4679  1.8605 -0.4722
 3982SOL    HW223406   2.124   0.218   2.442 -0.8738  1.4717 -1.3214
 3983SOL     OW23407   2.512   2.095   0.808  0.3987 -0.6806  0.7019
 3983SOL    HW123408   2.526   2.186   0.834 -0.7841  0.1087 -1.4289
 3983SOL    HW223409   2.534   2.043   0.886  0.0854 -1.8040  0.0361
 3984SOL     OW23410   0.771   1.133  15.348  0.0519 -0.1084  0.9670
 3984SOL    HW123411   0.806   1.161  15.263 -0.0751  0.9117  1.2572
 3984SOL    HW223412   0.841   1.142  15.414 -0.2782  0.3869  1.2500
 3985SOL     OW23413   3.688   2.335   9.020 -0.3137 -0.3753  0.6652
 3985SOL    HW123414   3.639   2.276   9.078 -0.6815 -1.1779 -0.4595
 3985SOL    HW223415   3.629   2.358   8.949 -1.0611 -1.4552  0.9392
 3986SOL     OW23416   4.582   0.181   5.358 -0.5426 -0.2661 -0.3386
 3986SOL    HW123417   4.621   0.094   5.361  1.9153  0.8907  1.0460
 3986SOL    HW223418   4.530   0.182   5.278 -1.9525  0.9010  0.5936
 3987SOL     OW23419   3.614   2.985   7.291  0.5495 -0.5505  0.0507
 3987SOL    HW123420   3.580   2.986   7.201  2.1627  1.6282 -0.5498
 3987SOL    HW223421   3.530   2.990   7.336  0.1167 -2.2131 -0.5958
 3988SOL     OW23422   1.029   3.045   8.570  0.1195  0.7675 -0.6743
 3988SOL    HW123423   0.976   3.074   8.496  1.6280  3.4053 -0.7338
 3988SOL    HW223424   0.985   3.098   8.637 -1.1649  0.6333 -1.4145
 3989SOL     OW23425   0.027   3.093   0.186  0.6392 -0.8226 -0.6291
 3989SOL    HW123426   0.013   3.043   0.266 -0.5055  1.0948  0.3771
 3989SOL    HW223427   0.050   3.031   0.117  1.2329 -0.8647 -0.3961
 3990SOL     OW23428   1.718   0.588   6.686  0.6532  0.3456  0.1741
 3990SOL    HW123429   1.646   0.607   6.747  3.6308  2.8996  2.9273
 3990SOL    HW223430   1.738   0.680   6.671  0.0188  0.4105 -0.2622
 3991SOL     OW23431   4.143   2.435   4.530  0.4045 -0.3114 -0.1686
 3991SOL    HW123432   4.144   2.424   4.435  0.2292 -3.1067  0.1563
 3991SOL    HW223433   4.123   2.528   4.534 -2.7071 -0.8645 -1.8803
 3992SOL     OW23434   3.296   4.078   7.953 -0.6749 -0.5329  0.2014
 3992SOL    HW123435   3.228   4.125   7.905  0.5841 -0.1831 -1.2618
 3992SOL    HW223436   3.290   4.123   8.038 -1.4157  2.5586 -1.4847
 3993SOL     OW23437   2.483   3.209  17.350  0.1304 -0.2309  0.1366
 3993SOL    HW123438   2.541   3.217  17.425  0.2579  0.5232 -0.0456
 3993SOL    HW223439   2.413   3.254  17.397  1.2783  0.3672  1.2640
 3994SOL     OW23440   4.535   0.849   7.849 -0.1058  0.8662 -0.3555
 3994SOL    HW123441   4.479   0.776   7.821 -0.6167  1.3031 -0.4736
 3994SOL    HW223442   4.517   0.914   7.780 -1.5376  0.5781 -0.2457
 3995SOL     OW23443   0.353   1.117   6.418 -0.2076  0.2501  0.1302
 3995SOL    HW123444   0.258   1.109   6.434 -0.4718  1.7048 -0.7313
 3995SOL    HW223445   0.368   1.025   6.438 -1.6997  0.2033  1.0704
 3996SOL     OW23446   0.911   4.426   5.212  0.4336 -0.4984 -0.4171
 3996SOL    HW123447   0.902   4.342   5.258 -0.9453 -0.1778 -0.0780
 3996SOL    HW223448   1.000   4.422   5.179  0.2296 -0.4586 -0.9724
 3997SOL     OW23449   2.838   0.618   3.341 -0.5866 -0.3682  0.5602
 3997SOL    HW123450   2.792   0.675   3.279  3.2320  1.7385 -0.3607
 3997SOL    HW223451   2.811   0.651   3.426 -1.4612 -0.5944  0.3696
 3998SOL     OW23452   0.774   4.608   9.769  0.3427 -0.2836  0.3524
 3998SOL    HW123453   0.718   4.571   9.837  0.2922  0.5280  0.7545
 3998SOL    HW223454   0.811   4.677   9.825  0.3978  0.8361 -1.0581
 3999SOL     OW23455   0.819   1.699   3.241  0.2432 -0.4483  0.2079
 3999SOL    HW123456   0.887   1.762   3.218 -0.9918 -0.7393 -4.2080
 3999SOL    HW223457   0.829   1.641   3.165  0.9877 -1.0480  0.7670
 4000SOL     OW23458   1.938   4.597   8.151  0.6660  0.4831 -0.0555
 4000SOL    HW123459   1.855   4.579   8.108  0.5446 -0.2744  0.4877
 4000SOL    HW223460   2.002   4.605   8.080 -2.5482  1.2683 -2.8589
 4001SOL     OW23461   3.458   0.081  15.131  0.7121  0.2717 -0.1425
 4001SOL    HW123462   3.441   0.171  15.161  2.5535  0.5469  0.0404
 4001SOL    HW223463   3.521   0.102  15.062  2.7286  0.0423  1.6571
 4002SOL     OW23464   0.683   0.165   8.793 -0.5907 -0.2799 -0.6802
 4002SOL    HW123465   0.664   0.248   8.836 -0.4420  0.7942 -2.6908
 4002SOL    HW223466   0.619   0.128   8.854  1.0941  0.6543  1.6410
 4003SOL     OW23467   0.004   0.885   0.065  0.2225  0.1032 -1.0811
 4003SOL    HW123468   0.032   0.912  17.675  1.7333 -0.0735 -0.6579
 4003SOL    HW223469   4.633   0.890   0.059  0.0515 -0.7501  0.6900
 4004SOL     OW23470   1.039   4.710   3.419  0.0157 -0.2154  0.3481
 4004SOL    HW123471   1.061   0.001   3.511  0.0836 -0.4315  0.3665
 4004SOL    HW223472   1.079   4.627   3.395  1.9156  0.9472 -0.5181
 4005SOL     OW23473   4.254   2.671  14.170  0.0418 -0.4938  0.2403
 4005SOL    HW123474   4.198   2.745  14.145  2.4741  0.9281 -0.9714
 4005SOL    HW223475   4.199   2.596  14.146 -0.3628 -0.8629  2.3426
 4006SOL     OW23476   0.375   3.936  11.620 -0.3484 -0.3404  0.1365
 4006SOL    HW123477   0.393   4.013  11.565  1.9994 -1.5168 -0.7576
 4006SOL    HW223478   0.371   3.979  11.706  1.1536  1.0578 -0.4760
 4007SOL     OW23479   0.899   0.396   2.941  0.6469  0.0614 -0.0658
 4007SOL    HW123480   0.959   0.433   2.876  0.1986  0.9092  0.0016
 4007SOL    HW223481   0.879   0.316   2.893 -2.3533  0.7801 -0.0495
 4008SOL     OW23482   2.997   1.199   9.485  0.4028  0.5066 -0.0511
 4008SOL    HW123483   2.995   1.249   9.566 -1.0137  0.7566 -0.2470
 4008SOL    HW223484   3.078   1.156   9.514 -0.2582 -1.5356 -1.2185
 4009SOL     OW23485   4.134   1.813   5.894  0.3825  0.2347  0.2838
 4009SOL    HW123486   4.175   1.888   5.937 -0.6653  1.5476 -0.9949
 4009SOL    HW223487   4.215   1.774   5.861 -0.1681  0.9376 -1.9245
 4010SOL     OW23488   3.964   2.051   3.425 -0.5129 -0.2888  0.0183
 4010SOL    HW123489   3.989   2.143   3.421  1.7883 -0.9835 -1.7969
 4010SOL    HW223490   3.869   2.046   3.416 -0.6541  0.9107  0.8660
 4011SOL     OW23491   2.075   4.088   7.019 -0.1556 -0.0572 -0.0829
 4011SOL    HW123492   2.156   4.038   7.015  0.7521  1.3182  1.6449
 4011SOL    HW223493   2.050   4.063   6.929 -1.0532 -1.3645  0.5230
 4012SOL     OW23494   3.740   1.722   4.495  0.5905 -0.3160  0.2470
 4012SOL    HW123495   3.743   1.806   4.541  1.3954 -0.9187  1.2884
 4012SOL    HW223496   3.765   1.745   4.406 -3.9062  2.8424 -0.2280
 4013SOL     OW23497   3.173   1.647   2.619 -0.6497  0.7964  0.0362
 4013SOL    HW123498   3.167   1.695   2.702  1.3259  0.6522  0.2594
 4013SOL    HW223499   3.236   1.698   2.567 -0.6404 -0.0776 -0.8293
 4014SOL     OW23500   1.439   0.115  17.136 -0.3348 -0.0825  0.1211
 4014SOL    HW123501   1.364   0.082  17.186  0.3885 -0.0584  1.2225
 4014SOL    HW223502   1.420   0.209  17.135 -0.5796 -0.1325  0.1288
 4015SOL     OW23503   4.437   3.279   8.968 -0.3706  0.7238 -0.1137
 4015SOL    HW123504   4.368   3.325   8.919 -0.1636  0.7998 -0.3348
 4015SOL    HW223505   4.504   3.343   8.989 -2.7111  3.8039 -1.9639
 4016SOL     OW23506   1.107   4.618  12.684  0.7840  0.4460  0.1558
 4016SOL    HW123507   1.176   4.642  12.746 -0.5325 -1.0314  2.2250
 4016SOL    HW223508   1.086   4.699  12.637 -3.4110 -0.0396  1.1627
 4017SOL     OW23509   4.601   0.860  14.219  0.3248  0.2396 -0.0857
 4017SOL    HW123510   4.634   0.930  14.163  1.8948 -0.5423 -0.1527
 4017SOL    HW223511   4.533   0.910  14.264 -0.3869 -0.2991 -0.5666
 4018SOL     OW23512   0.392   4.410   5.747  0.6710 -0.4807 -0.1107
 4018SOL    HW123513   0.432   4.482   5.699  2.0193  0.4171  2.3680
 4018SOL    HW223514   0.439   4.410   5.830  1.2693 -1.2761 -0.4486
 4019SOL     OW23515   1.399   1.570   7.376 -0.2489  0.2058  0.3497
 4019SOL    HW123516   1.451   1.622   7.315 -0.2685  0.0748  0.2219
 4019SOL    HW223517   1.321   1.625   7.390 -2.1683 -2.7442  1.2730
 4020SOL     OW23518   3.141   3.622   1.942 -0.3599 -0.1023  0.7176
 4020SOL    HW123519   3.126   3.710   1.976  0.7779  0.9180 -1.3695
 4020SOL    HW223520   3.221   3.607   1.992 -0.3077  1.0783  0.9955
 4021SOL     OW23521   3.025   2.123   4.037  0.0454  0.0867  0.0348
 4021SOL    HW123522   2.958   2.070   3.994  0.9785 -0.8226 -0.2945
 4021SOL    HW223523   3.043   2.076   4.119  3.0285  0.3690 -0.4975
 4022SOL     OW23524   4.341   4.210   1.033 -0.4776 -1.1987  0.6262
 4022SOL    HW123525   4.260   4.261   1.033  0.6661  0.6384 -1.0006
 4022SOL    HW223526   4.352   4.179   1.122  0.3775 -1.5463  0.4028
 4023SOL     OW23527   3.981   2.755   6.036 -0.1676 -0.1061  0.3323
 4023SOL    HW123528   4.062   2.798   6.009 -1.0406  1.0644 -0.3936
 4023SOL    HW223529   3.932   2.837   6.037  0.7084  0.3939  1.8572
 4024SOL     OW23530   2.807   1.720   1.480  0.1508 -0.0312 -0.3307
 4024SOL    HW123531   2.794   1.759   1.567  2.4094  1.7325 -0.7890
 4024SOL    HW223532   2.719   1.704   1.444  0.5118 -1.6849 -0.4734
 4025SOL     OW23533   2.842   0.209   2.393 -0.1590 -0.3612 -0.1326
 4025SOL    HW123534   2.843   0.298   2.427 -0.5143 -0.1094 -0.7905
 4025SOL    HW223535   2.843   0.219   2.298  1.3218 -0.4594 -0.1324
 4026SOL     OW23536   3.584   4.489   1.944 -0.5869 -0.2022  0.2111
 4026SOL    HW123537   3.612   4.579   1.957 -2.3518  0.0690  2.0257
 4026SOL    HW223538   3.641   4.452   1.876  0.4468  0.7851  0.5496
 4027SOL     OW23539   2.460   3.573  14.499  0.1302  0.2416  0.3633
 4027SOL    HW123540   2.508   3.500  14.538 -0.2419 -1.0329 -1.5471
 4027SOL    HW223541   2.424   3.543  14.415  1.0643  0.3565 -0.0861
 4028SOL     OW23542   0.763   4.488   3.368 -0.3595 -0.0630 -0.5189
 4028SOL    HW123543   0.707   4.415   3.342  0.9513 -0.7636 -1.3507
 4028SOL    HW223544   0.694   4.554   3.363 -2.0721 -1.8911 -1.1360
 4029SOL     OW23545   4.349   3.886   5.459  0.5416  0.0494 -0.3065
 4029SOL    HW123546   4.390   3.820   5.515  2.1213  2.4000  1.3104
 4029SOL    HW223547   4.366   3.848   5.373  2.1540 -0.3726  0.1950
 4030SOL     OW23548   1.202   3.506  10.658 -0.4306 -0.1715  0.0702
 4030SOL    HW123549   1.145   3.498  10.734  0.7796 -1.0881  0.8710
 4030SOL    HW223550   1.269   3.443  10.684 -0.1994  0.6535  1.4557
 4031SOL     OW23551   0.189   3.041   2.184  0.0560  0.1675 -0.5436
 4031SOL    HW123552   0.164   2.986   2.258  0.3805 -1.0076 -1.3009
 4031SOL    HW223553   0.167   2.988   2.107 -1.0969 -1.1204  0.6682
 4032SOL     OW23554   3.176   1.190   6.200  0.3904  0.2982 -0.2557
 4032SOL    HW123555   3.120   1.180   6.276  1.4692  1.7368  0.7210
 4032SOL    HW223556   3.249   1.235   6.242 -1.2164  2.6773  0.0176
 4033SOL     OW23557   2.517   0.055   3.438 -0.1512 -0.6782 -0.8211
 4033SOL    HW123558   2.559   4.707   3.390  1.9945 -0.6289  1.0291
 4033SOL    HW223559   2.514   0.128   3.376 -0.3869 -0.4223 -0.5046
 4034SOL     OW23560   3.465   0.845   4.409  0.3796 -0.4618 -0.3139
 4034SOL    HW123561   3.399   0.893   4.460  1.9605  1.8192 -0.4094
 4034SOL    HW223562   3.499   0.784   4.474  0.8584  3.2475  2.9459
 4035SOL     OW23563   1.468   4.615  10.098 -0.0654 -0.1656  0.1625
 4035SOL    HW123564   1.551   4.662  10.101  1.0583 -2.1859  1.1688
 4035SOL    HW223565   1.493   4.524  10.115  0.1710 -0.2251 -0.4754
 4036SOL     OW23566   4.711   3.682   6.590 -0.3092 -0.1678 -0.2874
 4036SOL    HW123567   4.654   3.609   6.615 -0.5537  0.6285  1.4707
 4036SOL    HW223568   4.669   3.758   6.629  1.3590  0.3297  0.5553
 4037SOL     OW23569   0.321   0.738  10.816  0.2941 -0.7390 -0.6652
 4037SOL    HW123570   0.389   0.677  10.787  2.0149  0.5413  0.6984
 4037SOL    HW223571   0.367   0.821  10.834 -0.9520 -0.1632 -0.1337
 4038SOL     OW23572   2.973   1.364   1.965 -0.0586 -0.1860  0.2477
 4038SOL    HW123573   3.036   1.429   1.995  0.8293 -1.6192  1.4776
 4038SOL    HW223574   2.944   1.411   1.887  1.4824  0.9585  0.3624
 4039SOL     OW23575   4.569   1.613   8.032 -0.2411  0.0078 -0.9714
 4039SOL    HW123576   4.508   1.540   8.028 -0.0879 -0.1515 -0.4857
 4039SOL    HW223577   4.653   1.572   8.054  0.1422  0.7186 -1.1100
 4040SOL     OW23578   4.713   2.387   2.027  0.3682  0.3577 -0.2775
 4040SOL    HW123579   4.712   2.483   2.033  1.3091  0.3534 -0.1747
 4040SOL    HW223580   4.688   2.376   1.935 -1.6628  4.0296 -0.1815
 4041SOL     OW23581   3.669   2.216   9.342 -0.0744  0.0027  0.5154
 4041SOL    HW123582   3.688   2.310   9.343 -1.3412  0.2744 -1.0744
 4041SOL    HW223583   3.712   2.198   9.425 -0.2869 -1.7056  0.2415
 4042SOL     OW23584   0.132   3.359  17.693 -0.0176 -0.3037  0.0977
 4042SOL    HW123585   0.082   3.388  17.616  1.1453  1.2180 -0.0837
 4042SOL    HW223586   0.170   3.277  17.661 -2.1262 -0.7664 -1.2557
 4043SOL     OW23587   0.860   4.656   2.099 -0.0900  0.1812  0.4033
 4043SOL    HW123588   0.799   4.707   2.046 -0.4563 -1.4087 -0.6820
 4043SOL    HW223589   0.937   4.713   2.098 -0.6199  0.9159  1.0919
 4044SOL     OW23590   2.557   4.709   4.078 -0.1466  0.0169  0.6105
 4044SOL    HW123591   2.523   0.043   4.146 -0.9267  1.4530 -0.9988
 4044SOL    HW223592   2.491   4.691   4.011  1.5313 -1.2541 -0.6991
 4045SOL     OW23593   1.750   0.096  10.744 -0.2535 -0.2168  0.4984
 4045SOL    HW123594   1.779   0.136  10.662 -0.9919  0.2297  0.4609
 4045SOL    HW223595   1.809   0.141  10.805  1.3356 -0.7449 -0.6225
 4046SOL     OW23596   0.395   2.858  11.091  0.1544  0.6402  0.0560
 4046SOL    HW123597   0.308   2.831  11.120 -0.0593  1.4270  0.1556
 4046SOL    HW223598   0.385   2.861  10.996  0.9535  0.7806 -0.0168
 4047SOL     OW23599   2.029   2.315   7.768  0.1998  0.4952  0.1703
 4047SOL    HW123600   2.065   2.396   7.804  0.3493  0.8634 -0.7850
 4047SOL    HW223601   2.069   2.250   7.826 -2.8834 -0.7916  0.8789
 4048SOL     OW23602   4.686   3.456  14.263 -0.4212 -0.6077 -0.0224
 4048SOL    HW123603   0.044   3.497  14.292 -0.6576 -0.5419  0.5450
 4048SOL    HW223604   4.627   3.526  14.237 -1.3630 -0.0209  3.6014
 4049SOL     OW23605   2.627   2.698   4.108  0.1105 -0.0069  0.1072
 4049SOL    HW123606   2.698   2.657   4.059  2.6877  1.3326  2.7086
 4049SOL    HW223607   2.578   2.737   4.036  0.7989  2.6311  1.0794
 4050SOL     OW23608   2.604   4.474   0.759  0.2031  0.2752  0.2240
 4050SOL    HW123609   2.635   4.442   0.675 -1.3681 -2.1793  0.5516
 4050SOL    HW223610   2.685   4.463   0.808 -0.0090 -0.1346  0.4842
 4051SOL     OW23611   0.128   2.089   5.786 -0.4266 -0.1224  0.4206
 4051SOL    HW123612   0.074   2.073   5.709 -0.4567  2.3163 -0.0774
 4051SOL    HW223613   0.214   2.056   5.761  0.0188  0.6218  0.9500
 4052SOL     OW23614   0.832   3.132   3.511  0.0906  0.0326 -0.4371
 4052SOL    HW123615   0.878   3.206   3.552 -0.5045  1.7029 -2.7614
 4052SOL    HW223616   0.742   3.158   3.533 -0.9674 -4.0521 -0.0687
 4053SOL     OW23617   3.345   4.519   0.528  0.1194 -0.2110 -0.5091
 4053SOL    HW123618   3.363   4.537   0.435 -0.3921 -0.5805 -0.6792
 4053SOL    HW223619   3.307   4.432   0.533 -1.1674  0.4378  0.9546
 4054SOL     OW23620   2.450   0.364   5.668 -0.3543 -0.0007 -0.3331
 4054SOL    HW123621   2.482   0.454   5.668  0.4037 -0.2586  1.5974
 4054SOL    HW223622   2.525   0.319   5.707 -0.4561  0.3260  0.2415
 4055SOL     OW23623   3.806   1.484  13.660  0.0926  0.9900  0.1027
 4055SOL    HW123624   3.845   1.406  13.698  2.2262  2.6727  1.3331
 4055SOL    HW223625   3.802   1.541  13.737 -0.6880 -1.1094  1.6213
 4056SOL     OW23626   1.193   3.293   9.218 -0.0155 -0.1920 -0.4953
 4056SOL    HW123627   1.192   3.226   9.150  0.3298  0.4333 -1.1095
 4056SOL    HW223628   1.285   3.307   9.240 -0.5604 -0.6263  2.1245
 4057SOL     OW23629   2.372   2.497  15.206  0.4169 -0.5723  0.9675
 4057SOL    HW123630   2.451   2.535  15.244 -0.7502  0.6281  2.1895
 4057SOL    HW223631   2.333   2.574  15.165  1.9387 -2.1568 -3.4370
 4058SOL     OW23632   4.549   1.942   3.122 -0.1639  0.1847 -0.0579
 4058SOL    HW123633   4.634   1.906   3.098 -0.0616  0.3981 -0.0099
 4058SOL    HW223634   4.487   1.892   3.069 -0.8151 -0.9973  1.8121
 4059SOL     OW23635   0.394   3.016   3.526 -0.8372  0.3562  0.3087
 4059SOL    HW123636   0.428   3.096   3.565 -0.7558 -0.2606  1.4850
 4059SOL    HW223637   0.308   3.007   3.568 -1.8721 -1.6010 -2.1947
 4060SOL     OW23638   3.610   0.805  12.893 -0.0565 -0.5267 -0.1864
 4060SOL    HW123639   3.639   0.878  12.947 -0.0400 -1.1176  0.5973
 4060SOL    HW223640   3.568   0.860  12.827 -1.3573 -1.9102 -0.4981
 4061SOL     OW23641   3.728   2.674   2.940  0.3301 -0.2195 -0.0882
 4061SOL    HW123642   3.696   2.745   2.885 -2.2948 -0.1918  1.5103
 4061SOL    HW223643   3.671   2.608   2.902 -0.7421  0.1794  0.8345
 4062SOL     OW23644   0.460   3.724  16.620 -0.2102  0.2399 -0.1927
 4062SOL    HW123645   0.383   3.773  16.591  0.0889  1.1824  0.6138
 4062SOL    HW223646   0.517   3.742  16.545 -0.4491 -1.9282 -0.9111
 4063SOL     OW23647   2.792   3.644   2.620  0.1583  0.4461 -0.1735
 4063SOL    HW123648   2.715   3.682   2.662 -0.7156  1.7860 -2.9356
 4063SOL    HW223649   2.762   3.621   2.532  0.5238 -1.2792  0.1605
 4064SOL     OW23650   1.210   2.153   5.412 -0.0501  0.5683 -0.1280
 4064SOL    HW123651   1.282   2.119   5.358 -1.2189 -0.2312 -1.1786
 4064SOL    HW223652   1.248   2.171   5.498 -0.6676  2.1635 -0.1917
 4065SOL     OW23653   1.114   3.839   8.349 -0.3795  0.0653  0.3995
 4065SOL    HW123654   1.029   3.879   8.367 -0.8770 -1.1104  0.6552
 4065SOL    HW223655   1.131   3.780   8.422  2.3533 -0.1181 -0.3814
 4066SOL     OW23656   0.785   3.451   2.201  0.3198 -0.3078 -0.2648
 4066SOL    HW123657   0.810   3.359   2.203 -3.2596 -1.2641  1.2986
 4066SOL    HW223658   0.738   3.462   2.118 -1.1014  1.2706  0.7363
 4067SOL     OW23659   0.476   1.535   0.756 -0.4680  0.5876  0.1353
 4067SOL    HW123660   0.565   1.498   0.756 -0.9218 -0.5355  2.6915
 4067SOL    HW223661   0.466   1.546   0.662 -0.6539  0.3718  0.1284
 4068SOL     OW23662   1.934   1.865   1.085 -0.0338  0.1594  0.1194
 4068SOL    HW123663   1.854   1.916   1.099 -0.3077 -0.9059  2.3270
 4068SOL    HW223664   1.965   1.892   0.998 -1.0203 -0.1360 -0.3187
 4069SOL     OW23665   2.498   1.800   1.468 -0.1806 -0.4297 -0.4902
 4069SOL    HW123666   2.555   1.777   1.541 -0.6622  1.2431  0.3954
 4069SOL    HW223667   2.517   1.725   1.411  0.7850 -2.4570  2.4541
 4070SOL     OW23668   0.086   2.608  17.292  0.4913  0.1590  0.0530
 4070SOL    HW123669   0.085   2.693  17.247  0.5043  0.0777 -0.1002
 4070SOL    HW223670   0.174   2.578  17.270  0.3098  0.1637 -0.6810
 4071SOL     OW23671   0.462   1.582   4.537 -0.4184  0.0215  0.0064
 4071SOL    HW123672   0.434   1.530   4.612  0.3874 -0.0128  0.2863
 4071SOL    HW223673   0.534   1.628   4.580  0.3123 -0.9032 -0.2286
 4072SOL     OW23674   1.891   4.347   6.310 -0.0530 -0.1320  0.0259
 4072SOL    HW123675   1.944   4.341   6.231 -0.6614  3.7889 -0.7056
 4072SOL    HW223676   1.887   4.441   6.329 -0.8069 -0.1561 -0.0376
 4073SOL     OW23677   3.788   3.364   0.015  0.3059  0.5673 -0.0754
 4073SOL    HW123678   3.771   3.457   0.001  0.7615  0.6624 -0.0031
 4073SOL    HW223679   3.715   3.326   0.063 -0.7402 -0.0847 -2.1816
 4074SOL     OW23680   2.256   0.779  10.415 -0.5298  0.1676 -0.8170
 4074SOL    HW123681   2.230   0.790  10.323  0.4990 -1.5844 -1.2997
 4074SOL    HW223682   2.174   0.805  10.458  0.3153 -0.0699  0.9086
 4075SOL     OW23683   1.612   4.444   3.696  0.7758  0.0006  0.1355
 4075SOL    HW123684   1.642   4.534   3.706  1.1112 -0.1065  0.1113
 4075SOL    HW223685   1.683   4.393   3.737  1.8067  2.5727  1.5832
 4076SOL     OW23686   1.872   4.395   0.350 -0.1985  0.1064  0.4792
 4076SOL    HW123687   1.866   4.373   0.442 -0.0101  0.1157  0.4939
 4076SOL    HW223688   1.918   4.317   0.319 -0.8588 -0.4605  0.9542
 4077SOL     OW23689   2.849   2.602   3.954  0.0064  0.2239  0.2443
 4077SOL    HW123690   2.921   2.569   3.901  0.0666 -1.0837  1.1178
 4077SOL    HW223691   2.788   2.528   3.954 -0.8929  0.9727 -0.9147
 4078SOL     OW23692   4.685   4.254  14.266 -0.0795  0.3328  0.1468
 4078SOL    HW123693   4.645   4.256  14.353 -3.3767  0.3934 -1.3596
 4078SOL    HW223694   4.656   4.342  14.240 -1.4239 -0.3963 -0.7764
 4079SOL     OW23695   4.404   3.473   7.221 -0.3710  0.0370  0.2261
 4079SOL    HW123696   4.360   3.558   7.228  0.5891  0.5867 -0.4140
 4079SOL    HW223697   4.481   3.500   7.172 -0.0470 -2.2918 -0.5158
 4080SOL     OW23698   4.318   0.795   2.269 -0.1090 -0.1698  0.8975
 4080SOL    HW123699   4.377   0.870   2.271  0.3959 -0.4096 -4.2219
 4080SOL    HW223700   4.384   0.733   2.298  0.0200 -0.2313  0.4707
 4081SOL     OW23701   1.431   4.544   1.977  0.4181  0.3997 -0.2031
 4081SOL    HW123702   1.451   4.511   2.064 -1.8130  1.4678  0.7077
 4081SOL    HW223703   1.337   4.524   1.974  0.3968  0.0847  2.5522
 4082SOL     OW23704   4.518   0.677   4.868  0.6429  0.2098 -0.1473
 4082SOL    HW123705   4.535   0.743   4.801  1.3650 -0.0801 -0.2503
 4082SOL    HW223706   4.428   0.685   4.901  1.0369 -1.5690  1.3153
 4083SOL     OW23707   2.890   4.429   4.370  0.1851 -0.1830 -0.3890
 4083SOL    HW123708   2.840   4.455   4.292  0.0289  0.3744 -0.1024
 4083SOL    HW223709   2.878   4.336   4.351 -1.1302 -0.5388  2.2775
 4084SOL     OW23710   2.911   2.646   2.203  0.5621  0.2831 -0.4791
 4084SOL    HW123711   2.910   2.741   2.206 -0.0162  0.2044  1.7950
 4084SOL    HW223712   3.006   2.632   2.210  0.5147 -0.3938 -1.2564
 4085SOL     OW23713   1.826   3.377   2.442  0.3274  0.2403  0.0112
 4085SOL    HW123714   1.745   3.426   2.433 -0.7403 -1.7912 -1.3490
 4085SOL    HW223715   1.806   3.310   2.377 -1.1884  0.1223  0.6062
 4086SOL     OW23716   3.895   3.024   8.350 -0.1223 -0.0116  0.0653
 4086SOL    HW123717   3.899   3.038   8.256 -0.7121 -3.6593 -0.5111
 4086SOL    HW223718   3.897   2.929   8.359 -0.1506 -0.0317 -0.1504
 4087SOL     OW23719   2.217   0.419  13.007 -0.1801 -0.0601 -0.9969
 4087SOL    HW123720   2.183   0.330  13.004 -3.5294  1.3326 -3.7266
 4087SOL    HW223721   2.237   0.446  12.917  0.9622 -1.6502 -1.2186
 4088SOL     OW23722   1.390   1.085   8.153  0.0819 -0.6582 -0.3934
 4088SOL    HW123723   1.343   1.154   8.106 -0.0650 -0.5479 -0.0845
 4088SOL    HW223724   1.363   1.098   8.244 -1.0937  1.5109 -1.0592
 4089SOL     OW23725   3.914   2.940   8.957  0.1985 -0.1005 -0.5105
 4089SOL    HW123726   3.898   2.976   9.045 -1.7227 -0.4315 -0.7174
 4089SOL    HW223727   3.932   3.017   8.903  0.5011 -0.2276 -0.5890
 4090SOL     OW23728   1.341   0.566   6.123 -0.0282  0.4510  0.0461
 4090SOL    HW123729   1.266   0.546   6.179  1.0902  1.0522  1.7709
 4090SOL    HW223730   1.365   0.477   6.097 -1.1025 -0.9896  3.9162
 4091SOL     OW23731   2.179   1.213   4.104 -0.0091  0.5436 -0.1403
 4091SOL    HW123732   2.234   1.270   4.050  0.9424  1.1934  1.5189
 4091SOL    HW223733   2.228   1.130   4.100 -1.0828 -0.0797 -0.2895
 4092SOL     OW23734   3.333   0.770   2.148 -0.1749 -0.0857  0.3786
 4092SOL    HW123735   3.306   0.780   2.239  0.2736  0.6405  0.4277
 4092SOL    HW223736   3.312   0.678   2.134 -0.8398  0.1762 -0.3669
 4093SOL     OW23737   0.561   1.484  11.901 -0.0788  0.3390 -0.5665
 4093SOL    HW123738   0.478   1.459  11.859  0.0932 -2.7439  0.9666
 4093SOL    HW223739   0.582   1.569  11.863  0.7825  0.4084  0.0552
 4094SOL     OW23740   4.673   1.443   3.809  0.3513  0.1097  0.3942
 4094SOL    HW123741   4.617   1.445   3.731  0.6178 -1.3659  0.1663
 4094SOL    HW223742   4.672   1.354   3.842 -1.5485 -0.3324 -0.8623
 4095SOL     OW23743   0.760   1.203   5.340 -0.2126 -0.0563  0.4047
 4095SOL    HW123744   0.754   1.292   5.373  2.5401 -1.2527  4.2405
 4095SOL    HW223745   0.856   1.194   5.338 -0.0747  1.2511  1.6077
 4096SOL     OW23746   0.136   0.053  10.991 -0.0903  0.5760  0.5991
 4096SOL    HW123747   0.178   0.049  11.077 -0.8489  3.0436  1.0924
 4096SOL    HW223748   0.193   0.001  10.934 -0.6502  1.5523 -0.8398
 4097SOL     OW23749   4.130   1.417   7.201  0.2379  0.1264 -0.4058
 4097SOL    HW123750   4.101   1.433   7.291 -0.0814  0.5135 -0.5794
 4097SOL    HW223751   4.191   1.489   7.183  0.0770  0.4989  0.5666
 4098SOL     OW23752   0.783   4.328   6.414  0.1685 -0.0711  0.1411
 4098SOL    HW123753   0.718   4.332   6.484 -0.0580  3.2555 -0.2555
 4098SOL    HW223754   0.867   4.304   6.454  0.4863 -0.4326 -0.7495
 4099SOL     OW23755   2.381   2.932   8.246 -0.0276  0.0503  0.1546
 4099SOL    HW123756   2.378   2.848   8.201 -0.0922 -1.4367  2.9135
 4099SOL    HW223757   2.312   2.983   8.204  0.9147  0.8593 -0.4230
 4100SOL     OW23758   4.528   1.567   6.704  0.3769 -0.2580 -0.3671
 4100SOL    HW123759   4.521   1.577   6.609  0.9167 -0.4354 -0.4194
 4100SOL    HW223760   4.617   1.593   6.725 -0.0616  0.8791  0.1114
 4101SOL     OW23761   0.518   1.579   1.379  0.1568 -0.9260 -0.2511
 4101SOL    HW123762   0.427   1.553   1.392  0.5868 -1.8714  0.8445
 4101SOL    HW223763   0.570   1.500   1.395 -0.1533 -1.0959 -0.0906
 4102SOL     OW23764   2.357   2.477   4.527  0.3417 -0.5399 -0.1181
 4102SOL    HW123765   2.430   2.443   4.475  1.4482  0.5188  0.7578
 4102SOL    HW223766   2.374   2.569   4.508 -0.3886 -0.3956 -0.0590
 4103SOL     OW23767   1.963   3.714   2.326  0.1760 -1.2667 -0.4053
 4103SOL    HW123768   1.896   3.749   2.385  1.8038  0.2467  0.5562
 4103SOL    HW223769   2.038   3.757   2.367  0.1925 -1.4776 -0.2175
 4104SOL     OW23770   3.052   2.474   3.845 -0.0638 -0.5169 -0.2496
 4104SOL    HW123771   3.066   2.468   3.750  0.4254 -1.6299 -0.1162
 4104SOL    HW223772   3.114   2.404   3.866  1.7065  0.6091 -1.7187
 4105SOL     OW23773   1.584   2.334   7.712  0.3272 -0.1195  0.7630
 4105SOL    HW123774   1.649   2.316   7.644 -1.7778  1.6485 -1.7296
 4105SOL    HW223775   1.644   2.370   7.777  1.6235  2.0858 -1.6819
 4106SOL     OW23776   2.195   3.598   4.554  0.1145 -0.2462  0.4935
 4106SOL    HW123777   2.203   3.620   4.461  0.1491  1.4629  0.9192
 4106SOL    HW223778   2.106   3.624   4.576  0.7869  2.7374 -0.3512
 4107SOL     OW23779   2.202   2.317   9.460  0.3436 -0.5421 -0.3795
 4107SOL    HW123780   2.156   2.401   9.455 -1.2489 -1.3459  1.0766
 4107SOL    HW223781   2.147   2.252   9.416  0.5890  0.2924 -1.9442
 4108SOL     OW23782   0.319   2.088   3.360 -0.2650  0.0933  0.1068
 4108SOL    HW123783   0.302   2.125   3.273  0.5819 -1.1655 -0.5993
 4108SOL    HW223784   0.261   2.138   3.416  0.5159  1.2568 -0.1144
 4109SOL     OW23785   3.629   4.692   4.422  0.8876 -0.8550 -0.4917
 4109SOL    HW123786   3.573   4.630   4.376 -1.5230 -0.2543  1.6141
 4109SOL    HW223787   3.605   0.041   4.366  1.0211 -0.0463  0.5203
 4110SOL     OW23788   3.476   2.667   8.381  0.1933 -0.1554 -0.7013
 4110SOL    HW123789   3.408   2.735   8.381  0.4879  0.1302  1.6425
 4110SOL    HW223790   3.475   2.661   8.286  2.6580  3.4520 -0.9333
 4111SOL     OW23791   3.790   4.393  13.918 -0.0122 -0.4469 -0.4009
 4111SOL    HW123792   3.780   4.419  14.010  1.5957 -0.4515 -0.2112
 4111SOL    HW223793   3.799   4.475  13.870 -0.8439  0.0337  0.2567
 4112SOL     OW23794   2.506   3.506   1.322 -0.6059 -0.4752 -0.7751
 4112SOL    HW123795   2.523   3.531   1.413  0.8513 -0.3585 -1.0781
 4112SOL    HW223796   2.587   3.537   1.282 -1.6453  1.0619 -1.6639
 4113SOL     OW23797   1.487   0.999   6.646  0.0157  0.1989 -0.0795
 4113SOL    HW123798   1.576   0.979   6.674 -1.4491 -1.0243  3.6361
 4113SOL    HW223799   1.430   0.959   6.712  0.8976 -2.2307 -0.7701
 4114SOL     OW23800   3.817   0.303   2.197 -0.0600 -0.2691  0.1014
 4114SOL    HW123801   3.721   0.308   2.196 -0.0071  0.5473 -0.4415
 4114SOL    HW223802   3.832   0.216   2.159  0.8627 -0.4819  0.9639
 4115SOL     OW23803   1.860   4.197   3.595 -0.1761 -0.3983  0.2737
 4115SOL    HW123804   1.930   4.134   3.576 -0.0074 -0.0620 -0.2220
 4115SOL    HW223805   1.905   4.280   3.580  1.0685 -1.4788 -2.0158
 4116SOL     OW23806   1.128   0.499   1.396 -0.8031 -0.0542 -0.0302
 4116SOL    HW123807   1.221   0.521   1.386  0.0117 -3.3029  0.2735
 4116SOL    HW223808   1.121   0.453   1.480 -0.1098 -0.4589 -0.1855
 4117SOL     OW23809   1.087   1.019   7.009  0.1731 -0.0885 -0.4353
 4117SOL    HW123810   1.168   1.065   7.032  0.3637 -0.6916  0.1005
 4117SOL    HW223811   1.035   1.082   6.960  0.4949  0.0001 -0.6670
 4118SOL     OW23812   1.432   2.651   5.855 -0.0763 -0.6226  0.5838
 4118SOL    HW123813   1.399   2.574   5.900 -0.9240  0.3526  1.6454
 4118SOL    HW223814   1.499   2.682   5.916 -0.5516 -1.2721  1.4378
 4119SOL     OW23815   3.487   3.738   2.455 -0.1262 -0.2157 -1.0768
 4119SOL    HW123816   3.567   3.730   2.508 -2.4458 -4.1984  1.7936
 4119SOL    HW223817   3.525   3.743   2.367 -0.9275 -1.7277 -1.4946
 4120SOL     OW23818   2.002   0.774   6.770 -0.3807  0.2437 -0.5715
 4120SOL    HW123819   2.018   0.743   6.681  4.1545  1.1410 -0.0415
 4120SOL    HW223820   2.004   0.690   6.815  0.3614  1.1035  0.9864
 4121SOL     OW23821   1.062   3.759   6.630 -0.1030 -0.2050  0.7328
 4121SOL    HW123822   1.122   3.774   6.704 -0.6956 -0.8739  1.3465
 4121SOL    HW223823   1.085   3.671   6.603 -2.3729  0.2862 -2.7267
 4122SOL     OW23824   2.175   1.768  17.611 -0.0391 -0.6037 -0.4032
 4122SOL    HW123825   2.109   1.750  17.544 -1.2027  1.7009  0.1275
 4122SOL    HW223826   2.137   1.717  17.683 -1.0927 -1.8315 -1.8232
 4123SOL     OW23827   2.318   0.324   7.617 -0.8815  0.2000  0.1988
 4123SOL    HW123828   2.385   0.255   7.609 -1.0701  0.2727 -2.0186
 4123SOL    HW223829   2.330   0.376   7.538  1.6516  0.6404  0.8547
 4124SOL     OW23830   1.813   2.079   7.129  0.5887  0.2746  0.1372
 4124SOL    HW123831   1.773   2.157   7.090  0.8361 -0.7002 -2.0636
 4124SOL    HW223832   1.895   2.116   7.163 -0.4648  1.5730  1.2812
 4125SOL     OW23833   1.730   0.216   4.366  0.0293 -0.0460 -0.2610
 4125SOL    HW123834   1.804   0.240   4.310 -3.0199  1.7984 -3.5120
 4125SOL    HW223835   1.697   0.153   4.303  2.3314 -0.2197 -1.3058
 4126SOL     OW23836   3.365   3.795   7.759 -0.0124  0.1971  0.1881
 4126SOL    HW123837   3.312   3.874   7.751 -2.4976 -1.6806 -2.2159
 4126SOL    HW223838   3.348   3.779   7.852 -0.9891  1.1903  0.1723
 4127SOL     OW23839   0.159   0.908  10.284  0.5699  0.4445  0.1648
 4127SOL    HW123840   0.247   0.871  10.284  0.2785 -0.2528  3.2430
 4127SOL    HW223841   0.137   0.921  10.376  1.4328 -1.7064  0.6727
 4128SOL     OW23842   3.985   2.992  17.200 -0.1844  0.5725 -0.4572
 4128SOL    HW123843   4.078   2.985  17.220 -0.4291 -2.4466 -0.4561
 4128SOL    HW223844   3.980   3.088  17.201  0.4972  0.5799  3.7245
 4129SOL     OW23845   0.864   3.224   5.508 -0.4392  0.4028  0.0284
 4129SOL    HW123846   0.874   3.130   5.523  2.5360  0.8286  0.8512
 4129SOL    HW223847   0.956   3.244   5.488 -0.0628 -0.9780  0.3538
 4130SOL     OW23848   1.949   0.530   6.069  0.4470  0.3783  0.1251
 4130SOL    HW123849   2.039   0.518   6.041  0.1918  0.2410 -0.6188
 4130SOL    HW223850   1.899   0.477   6.007  2.1021 -0.4819 -0.4685
 4131SOL     OW23851   3.716   0.314   5.679 -0.3215 -0.5619 -0.3458
 4131SOL    HW123852   3.625   0.311   5.707  0.8151  0.8909  3.5273
 4131SOL    HW223853   3.740   0.224   5.701  1.5858 -0.0225 -0.2005
 4132SOL     OW23854   0.005   1.642   9.566  0.3613  0.2665 -0.8034
 4132SOL    HW123855   0.002   1.633   9.661 -0.3478  0.3587 -0.8214
 4132SOL    HW223856   4.650   1.694   9.552 -0.6415 -0.8141  0.8526
 4133SOL     OW23857   0.105   4.054  10.757  0.8413  0.0356  0.3588
 4133SOL    HW123858   0.078   4.137  10.796  0.2723  0.3082 -0.6155
 4133SOL    HW223859   0.098   4.079  10.665 -0.1614 -0.7891  0.2075
 4134SOL     OW23860   3.728   2.578  14.746 -0.0647  0.3306  0.0582
 4134SOL    HW123861   3.819   2.564  14.720  0.0022  1.6902 -0.4437
 4134SOL    HW223862   3.706   2.505  14.805  1.4408 -0.8626 -0.8578
 4135SOL     OW23863   2.036   3.744  16.921  0.4423  0.5631 -0.5738
 4135SOL    HW123864   1.965   3.750  16.985 -0.9713 -0.0311 -2.1018
 4135SOL    HW223865   1.998   3.797  16.851  2.3499 -0.2219 -2.2018
 4136SOL     OW23866   1.781   0.151  15.215  0.1225  0.2859 -0.0799
 4136SOL    HW123867   1.740   0.099  15.284 -0.1948 -1.1016 -1.3192
 4136SOL    HW223868   1.735   0.113  15.140 -0.5517  0.4384  0.2518
 4137SOL     OW23869   2.551   2.164   6.085  0.0069  0.0026  0.6300
 4137SOL    HW123870   2.458   2.182   6.075  0.1639 -0.4184 -1.5820
 4137SOL    HW223871   2.565   2.202   6.172  0.5322 -2.1804  1.5258
 4138SOL     OW23872   1.217   1.816   7.456  0.2822 -0.1616  0.2197
 4138SOL    HW123873   1.147   1.878   7.434 -2.3585 -2.9087  0.7461
 4138SOL    HW223874   1.290   1.863   7.494  0.1660 -0.5283  0.9083
 4139SOL     OW23875   4.483   4.472  17.626 -0.2740 -0.0235 -0.7051
 4139SOL    HW123876   4.555   4.481  17.564  0.1726 -2.4219 -0.5294
 4139SOL    HW223877   4.479   4.561  17.661  0.4970 -0.4278  0.4126
 4140SOL     OW23878   2.469   2.226   9.359  0.1665  0.4407 -0.0335
 4140SOL    HW123879   2.519   2.291   9.409  2.0948 -2.5393  1.8875
 4140SOL    HW223880   2.528   2.151   9.367  0.1576  0.3960 -0.3724
 4141SOL     OW23881   0.163   0.373   4.291  0.3669 -0.7512 -0.1537
 4141SOL    HW123882   0.141   0.336   4.376 -0.8598  0.4123  0.0478
 4141SOL    HW223883   0.178   0.465   4.313  0.4051 -1.2340  1.8729
 4142SOL     OW23884   1.367   0.257   2.120 -0.3456 -0.2698 -0.2641
 4142SOL    HW123885   1.377   0.206   2.039  1.1238 -0.1094 -0.1688
 4142SOL    HW223886   1.427   0.331   2.111  0.5307 -1.0296 -0.7345
 4143SOL     OW23887   3.246   4.625   6.081  0.4632 -0.4308 -0.2873
 4143SOL    HW123888   3.252   4.533   6.055 -0.7600 -0.5093 -0.2866
 4143SOL    HW223889   3.153   4.626   6.104  1.3500  0.4000  3.1793
 4144SOL     OW23890   2.431   0.791   5.092 -0.0479  0.1116  0.1753
 4144SOL    HW123891   2.435   0.762   5.001  3.3985  0.8002  0.1215
 4144SOL    HW223892   2.361   0.741   5.135 -1.9072  1.4008 -1.3418
 4145SOL     OW23893   3.084   2.340   0.246 -0.1610 -0.1970 -0.2627
 4145SOL    HW123894   3.051   2.386   0.324  0.5870  0.3086 -0.2443
 4145SOL    HW223895   3.013   2.278   0.228 -2.1974  1.9198  0.3443
 4146SOL     OW23896   0.195   1.168   9.669 -0.5434 -0.3470  0.0161
 4146SOL    HW123897   0.286   1.147   9.690  0.0047 -2.0506 -4.0153
 4146SOL    HW223898   0.202   1.259   9.695  1.0535 -0.7544  1.0021
 4147SOL     OW23899   0.710   1.844   9.521  0.1488  0.5285 -0.1171
 4147SOL    HW123900   0.769   1.917   9.541  2.7320 -1.5830  0.0536
 4147SOL    HW223901   0.627   1.887   9.501  1.4849  2.1885 -2.1182
 4148SOL     OW23902   0.391   0.739   9.082  0.2036  0.5186 -0.8722
 4148SOL    HW123903   0.464   0.801   9.084  0.3413  0.3053  0.8929
 4148SOL    HW223904   0.315   0.797   9.090  0.1255  0.1482  1.1160
 4149SOL     OW23905   2.309   0.558   4.824 -0.5969  0.3754 -0.3037
 4149SOL    HW123906   2.304   0.487   4.760 -1.4528 -0.1759  0.3839
 4149SOL    HW223907   2.377   0.610   4.779  0.1606 -1.9549 -1.8461
 4150SOL     OW23908   0.832   0.849   2.463 -0.1827 -0.1282 -0.8668
 4150SOL    HW123909   0.888   0.911   2.416  0.4256  0.9484  1.3038
 4150SOL    HW223910   0.898   0.781   2.476 -2.2475 -2.1391 -1.0095
 4151SOL     OW23911   0.720   4.608   3.037 -0.3866 -0.5418  0.1227
 4151SOL    HW123912   0.665   4.616   2.960  2.4860 -2.1045 -2.0974
 4151SOL    HW223913   0.703   4.684   3.093 -0.9056 -1.1442  0.7947
 4152SOL     OW23914   1.915   1.207   3.183  0.4762 -0.1590  0.1619
 4152SOL    HW123915   1.929   1.214   3.089 -2.5118 -1.2843 -0.3827
 4152SOL    HW223916   1.873   1.122   3.193 -2.5224  1.3756  0.6959
 4153SOL     OW23917   1.845   0.667   0.733 -0.4313  0.2137 -0.3835
 4153SOL    HW123918   1.783   0.716   0.679 -0.2279  0.1117 -0.7118
 4153SOL    HW223919   1.911   0.639   0.668 -1.3545 -2.6480 -0.0782
 4154SOL     OW23920   2.646   0.364   7.189  0.2957 -0.0814 -0.2580
 4154SOL    HW123921   2.700   0.441   7.209 -1.2869  0.8957  0.2800
 4154SOL    HW223922   2.563   0.406   7.165  0.1282 -0.5748 -0.5270
 4155SOL     OW23923   2.074   0.357   0.780  0.1471 -0.1671  0.1481
 4155SOL    HW123924   2.052   0.273   0.821 -1.9210 -0.6637 -1.9682
 4155SOL    HW223925   2.015   0.362   0.705  1.1279 -0.1456 -0.6305
 4156SOL     OW23926   4.444   3.670   8.318  0.1651 -0.2846 -0.3579
 4156SOL    HW123927   4.356   3.636   8.329  0.2372  0.4179  2.2769
 4156SOL    HW223928   4.488   3.609   8.376 -0.0983  0.8552  1.0258
 4157SOL     OW23929   4.195   1.955  15.632  0.2780 -0.0068 -0.2066
 4157SOL    HW123930   4.258   1.890  15.602  1.6020  1.3274 -0.3163
 4157SOL    HW223931   4.239   2.040  15.625  3.1262 -1.6529 -2.4082
 4158SOL     OW23932   4.122   0.091   7.257  0.4253  0.1303 -0.1582
 4158SOL    HW123933   4.167   0.016   7.218  2.1805  1.6403 -1.0200
 4158SOL    HW223934   4.188   0.133   7.312  2.7367 -1.8538 -1.4611
 4159SOL     OW23935   3.238   3.272   2.934  0.2568 -0.0134 -0.0813
 4159SOL    HW123936   3.253   3.185   2.970 -1.6590 -0.2853  0.0802
 4159SOL    HW223937   3.142   3.281   2.939  0.2430 -0.0030 -0.3821
 4160SOL     OW23938   0.757   4.486   1.149 -0.2490  0.1854  0.0442
 4160SOL    HW123939   0.692   4.544   1.110  1.0127  1.4683 -0.1904
 4160SOL    HW223940   0.762   4.404   1.100 -1.4954  0.3878 -0.4032
 4161SOL     OW23941   0.084   3.707   3.204 -0.0887 -0.1933 -0.0107
 4161SOL    HW123942   0.133   3.772   3.153  1.8755 -3.1374 -1.8758
 4161SOL    HW223943   0.062   3.745   3.289 -0.3399  1.0995 -0.6515
 4162SOL     OW23944   4.567   2.654   2.266 -0.1447 -0.2299 -0.0578
 4162SOL    HW123945   4.629   2.642   2.193  0.0909  1.9375 -0.2170
 4162SOL    HW223946   4.566   2.750   2.274 -0.2748 -0.7637  6.0445
 4163SOL     OW23947   1.065   1.605   7.546 -0.4841 -0.3775 -0.4871
 4163SOL    HW123948   1.103   1.668   7.485  0.1730  0.0802  0.3873
 4163SOL    HW223949   1.135   1.539   7.541 -2.5429 -2.5249 -0.7472
 4164SOL     OW23950   3.681   4.155   4.698 -0.4094 -0.1451  0.2676
 4164SOL    HW123951   3.652   4.227   4.642 -1.9183 -0.6649  0.3927
 4164SOL    HW223952   3.707   4.207   4.775 -1.4047  1.4208 -0.4643
 4165SOL     OW23953   4.680   3.656   2.103 -0.1314  0.0861  0.1559
 4165SOL    HW123954   4.600   3.706   2.082  0.8060  1.1142 -0.9641
 4165SOL    HW223955   4.646   3.607   2.178  0.0405  0.4417  0.4666
 4166SOL     OW23956   0.234   4.244   2.641  0.0969 -0.1079  0.0483
 4166SOL    HW123957   0.261   4.336   2.650  1.1286 -0.4907  0.8433
 4166SOL    HW223958   0.176   4.252   2.565 -2.5927  0.5562  2.1544
 4167SOL     OW23959   0.179   2.504   3.586 -0.1349 -0.3140 -0.0829
 4167SOL    HW123960   0.245   2.455   3.536 -0.4293 -0.0135 -0.7612
 4167SOL    HW223961   0.106   2.443   3.598 -0.0621 -0.0294  1.8902
 4168SOL     OW23962   4.118   3.479   2.067  0.0943 -0.5529  0.5659
 4168SOL    HW123963   4.127   3.573   2.079 -0.0405 -0.3937 -0.6624
 4168SOL    HW223964   4.022   3.476   2.062  0.1672  0.0245 -0.9263
 4169SOL     OW23965   4.469   4.180  16.934  0.4485 -0.4648  0.2133
 4169SOL    HW123966   4.535   4.120  16.967 -0.9750 -2.7221 -1.0941
 4169SOL    HW223967   4.437   4.218  17.016 -0.1821 -0.2223 -0.1462
 4170SOL     OW23968   1.377   2.589   3.758  0.0213 -0.2814 -0.5633
 4170SOL    HW123969   1.282   2.593   3.748  0.0821  1.1478 -0.5865
 4170SOL    HW223970   1.383   2.494   3.746 -1.1375 -0.2417 -1.4509
 4171SOL     OW23971   2.485   3.373   7.573 -0.2110 -0.2929  0.2212
 4171SOL    HW123972   2.562   3.325   7.543 -0.7509 -0.2668 -1.1904
 4171SOL    HW223973   2.493   3.460   7.534  1.3549 -1.0569 -1.1282
 4172SOL     OW23974   2.813   3.111  10.605  0.6023 -0.3939 -0.0486
 4172SOL    HW123975   2.792   3.045  10.539  1.2366 -2.1815  1.5565
 4172SOL    HW223976   2.899   3.083  10.637  1.2733  1.1929 -0.4383
 4173SOL     OW23977   0.557   3.103  11.057  0.2076  0.1736  0.3824
 4173SOL    HW123978   0.593   3.128  10.973  0.5544  0.0956  0.5089
 4173SOL    HW223979   0.469   3.073  11.032  0.8002 -1.2909  0.0760
 4174SOL     OW23980   1.280   1.984   8.548  0.1861  0.1060  0.8990
 4174SOL    HW123981   1.201   1.955   8.502  0.0842  0.3468  0.9241
 4174SOL    HW223982   1.329   1.902   8.538 -1.1211 -0.3784 -1.4018
 4175SOL     OW23983   3.985   1.227   3.104  0.4137 -0.2744 -0.4664
 4175SOL    HW123984   3.902   1.180   3.116  1.1908 -1.1204  1.6300
 4175SOL    HW223985   3.978   1.308   3.154  1.3249 -1.3772  1.4739
 4176SOL     OW23986   1.349   3.399   4.082 -0.3619  0.4147 -0.1322
 4176SOL    HW123987   1.324   3.306   4.076  2.4650 -0.3644  0.5164
 4176SOL    HW223988   1.264   3.430   4.113  0.5241  0.0879  2.5880
 4177SOL     OW23989   2.371   1.151   4.996  0.3246  0.0297  0.0398
 4177SOL    HW123990   2.460   1.162   4.963 -0.0190  1.3947 -0.4355
 4177SOL    HW223991   2.351   1.243   4.983 -0.7184 -0.2418 -0.2452
 4178SOL     OW23992   1.285   3.981   5.539  0.0120 -0.3187 -0.2652
 4178SOL    HW123993   1.221   4.009   5.604  0.5838  0.3559  0.0130
 4178SOL    HW223994   1.358   3.944   5.588 -0.4117 -2.4428 -1.2379
 4179SOL     OW23995   1.249   4.640   3.009 -0.3662  0.5477 -0.2365
 4179SOL    HW123996   1.268   4.599   3.094 -0.1010  1.4442  0.1372
 4179SOL    HW223997   1.156   4.619   3.000  0.0320 -0.4161 -2.2048
 4180SOL     OW23998   1.659   3.754   3.988  0.8050 -0.3813  0.5356
 4180SOL    HW123999   1.689   3.808   4.061  0.7975 -1.3639  1.2653
 4180SOL    HW224000   1.708   3.797   3.918  0.7025  0.6250  1.0908
 4181SOL     OW24001   0.346   4.396   1.846 -0.5316  0.5523  0.7619
 4181SOL    HW124002   0.372   4.353   1.765  0.4430  0.5762  1.0652
 4181SOL    HW224003   0.254   4.368   1.846 -0.4526  0.2890  1.4627
 4182SOL     OW24004   0.028   3.300   2.794 -0.0226  0.2852 -0.1320
 4182SOL    HW124005   0.079   3.345   2.727 -0.6936  1.6978  0.2939
 4182SOL    HW224006   4.673   3.294   2.741  0.3954  2.2461 -0.9600
 4183SOL     OW24007   0.448   2.502  14.968  0.0130 -0.5500  0.4716
 4183SOL    HW124008   0.474   2.541  14.884 -4.1278  0.4429 -0.3178
 4183SOL    HW224009   0.377   2.446  14.936 -1.4840  1.6869 -0.1138
 4184SOL     OW24010   0.468   0.956  10.787  0.4863 -0.2035  0.4573
 4184SOL    HW124011   0.555   0.936  10.752  0.4246  1.9827 -0.9285
 4184SOL    HW224012   0.421   0.979  10.708  0.2045 -0.3880  0.5717
 4185SOL     OW24013   3.824   1.866   4.274  0.4571 -0.6813 -0.6500
 4185SOL    HW124014   3.776   1.889   4.195  2.4485  3.3451 -0.6430
 4185SOL    HW224015   3.865   1.952   4.276 -0.2832 -0.3247 -0.5328
 4186SOL     OW24016   1.126   0.626   5.063 -0.0577 -0.3989 -0.0877
 4186SOL    HW124017   1.201   0.619   5.122  0.0193 -0.9358 -0.2463
 4186SOL    HW224018   1.158   0.699   5.010  0.2988 -1.6971 -1.6815
 4187SOL     OW24019   1.466   1.566   3.044  0.4703  0.2166 -0.1795
 4187SOL    HW124020   1.373   1.587   3.031 -0.2650 -1.8005  1.8703
 4187SOL    HW224021   1.452   1.514   3.123 -1.6318  2.1186  0.7133
 4188SOL     OW24022   2.338   3.168   7.697  0.6804  0.2023 -0.5800
 4188SOL    HW124023   2.365   3.164   7.788  0.7129  1.3592 -0.5365
 4188SOL    HW224024   2.370   3.254   7.670  0.0749  0.4520 -0.5205
 4189SOL     OW24025   1.950   1.880   4.243 -0.5063 -1.2286  0.2944
 4189SOL    HW124026   2.031   1.831   4.228 -0.3644 -0.8902 -0.0376
 4189SOL    HW224027   1.887   1.860   4.174 -1.0087  0.5718  0.2277
 4190SOL     OW24028   4.410   2.693   8.435  0.0303 -1.1955  0.1406
 4190SOL    HW124029   4.372   2.775   8.466 -0.0430 -0.8955 -0.7388
 4190SOL    HW224030   4.341   2.637   8.469 -0.5838 -0.5666 -0.0641
 4191SOL     OW24031   1.957   1.916   7.829  0.2455 -0.4063  0.7664
 4191SOL    HW124032   1.885   1.892   7.887 -1.7542  0.7275 -1.2458
 4191SOL    HW224033   1.978   1.830   7.793  1.6403  0.1601  0.2109
 4192SOL     OW24034   2.849   3.360   8.671  0.4808  0.9721  0.1127
 4192SOL    HW124035   2.869   3.335   8.581  0.8278 -1.3939  0.8514
 4192SOL    HW224036   2.775   3.416   8.646 -0.5403 -0.3109  0.2436
 4193SOL     OW24037   1.865   1.273   9.579  0.2660 -0.4684 -0.0802
 4193SOL    HW124038   1.894   1.322   9.656  1.4741 -0.2539 -0.6734
 4193SOL    HW224039   1.932   1.204   9.577  0.4289 -0.2582 -2.0942
 4194SOL     OW24040   2.460   3.417   1.988  0.7150 -0.1643 -0.1023
 4194SOL    HW124041   2.375   3.375   1.973  0.6781  0.1340 -0.7636
 4194SOL    HW224042   2.503   3.389   1.907 -0.4029 -0.4514 -0.5995
 4195SOL     OW24043   4.291   2.931   8.192  0.3462 -0.3025 -0.0769
 4195SOL    HW124044   4.252   3.011   8.157  0.7112  1.1400  2.7954
 4195SOL    HW224045   4.380   2.929   8.157  0.4318  0.9124  0.0590
 4196SOL     OW24046   1.234   2.441   9.323 -0.2713 -1.0108 -0.2918
 4196SOL    HW124047   1.184   2.432   9.405  0.7434  2.8190  0.7629
 4196SOL    HW224048   1.258   2.350   9.309 -2.0839 -1.2291 -1.9300
 4197SOL     OW24049   0.520   0.400  16.094  0.0162 -0.3809 -0.2092
 4197SOL    HW124050   0.466   0.451  16.034 -2.3505 -3.6909 -0.8915
 4197SOL    HW224051   0.458   0.379  16.164  2.0283 -0.9857  1.3721
 4198SOL     OW24052   2.901   4.586   8.379  0.3213  0.2427 -0.4955
 4198SOL    HW124053   2.940   4.506   8.416 -0.0491  1.3507  2.2708
 4198SOL    HW224054   2.819   4.587   8.429  1.5025 -1.7102  1.5231
 4199SOL     OW24055   1.348   4.452   7.268  0.3250  0.5147  0.3342
 4199SOL    HW124056   1.409   4.392   7.226 -0.9226 -0.4693 -0.0710
 4199SOL    HW224057   1.403   4.482   7.340 -1.2297  0.7001  1.4596
 4200SOL     OW24058   2.149   4.052  11.007 -0.2172 -0.1964 -0.0231
 4200SOL    HW124059   2.121   4.143  11.017  0.6750 -0.0406  1.0581
 4200SOL    HW224060   2.072   4.011  10.968  0.4398 -1.2623 -0.2031
 4201SOL     OW24061   2.499   3.077   1.199  0.1886  0.1266 -0.0916
 4201SOL    HW124062   2.485   3.055   1.291  1.4308  0.9657  0.2951
 4201SOL    HW224063   2.583   3.032   1.190  0.7675  0.5768  3.2191
 4202SOL     OW24064   2.736   0.895   5.701 -0.2704  0.3345  0.0972
 4202SOL    HW124065   2.655   0.906   5.652 -0.1419 -4.2429 -1.1356
 4202SOL    HW224066   2.750   0.983   5.737  0.2971  0.1621  0.2971
 4203SOL     OW24067   4.358   4.009   1.784 -0.0318  0.1676 -0.3219
 4203SOL    HW124068   4.302   3.935   1.761 -0.5458  0.2010  0.8517
 4203SOL    HW224069   4.426   4.005   1.717 -0.6491  1.0147 -1.0055
 4204SOL     OW24070   3.387   0.012   7.490  0.1025  0.1658  0.0087
 4204SOL    HW124071   3.382   4.641   7.492  0.1004  0.1649 -0.0347
 4204SOL    HW224072   3.480   0.029   7.508 -0.0554  0.2636  0.7538
 4205SOL     OW24073   0.330   1.646   6.117  0.6269  0.4363  0.5916
 4205SOL    HW124074   0.376   1.709   6.062 -1.5935  0.3398 -1.4108
 4205SOL    HW224075   0.378   1.564   6.104  2.1431  1.4286 -0.0314
 4206SOL     OW24076   2.101   1.605   9.403 -0.1721  0.1230  0.2277
 4206SOL    HW124077   2.056   1.615   9.319  0.4544 -1.3501 -0.2989
 4206SOL    HW224078   2.120   1.697   9.416  1.5997 -0.1836 -0.1898
 4207SOL     OW24079   3.092   3.665   7.480  0.2571  0.0623 -0.4898
 4207SOL    HW124080   3.089   3.751   7.438  0.0474  1.1914  1.8300
 4207SOL    HW224081   3.015   3.676   7.535  0.9482  0.5664  0.3776
 4208SOL     OW24082   4.238   4.208   7.108 -0.3940 -0.1786 -0.1578
 4208SOL    HW124083   4.305   4.276   7.117 -0.5653 -0.1135  0.6851
 4208SOL    HW224084   4.284   4.142   7.057  1.4005 -1.4736  3.1116
 4209SOL     OW24085   4.609   2.918   2.316  0.3913 -0.3715 -0.5991
 4209SOL    HW124086   4.546   2.981   2.352 -1.0214 -1.5751 -0.9757
 4209SOL    HW224087   4.690   2.920   2.366 -0.2515 -1.0577  0.4780
 4210SOL     OW24088   3.662   1.479   8.992 -0.2811 -0.3026  0.1720
 4210SOL    HW124089   3.625   1.523   9.068 -0.8674 -1.4971  0.5872
 4210SOL    HW224090   3.721   1.543   8.954  1.7323 -1.8022  0.7804
 4211SOL     OW24091   3.223   3.200   4.793  0.0640 -0.4822 -0.4311
 4211SOL    HW124092   3.229   3.109   4.823 -0.6337 -0.7739 -1.1804
 4211SOL    HW224093   3.191   3.186   4.703  0.1159  0.5937 -0.6185
 4212SOL     OW24094   2.646   1.662  10.035  0.4206 -0.1078 -0.8022
 4212SOL    HW124095   2.680   1.745  10.068 -0.5222 -1.3243  3.1677
 4212SOL    HW224096   2.636   1.625  10.122  0.4726  1.7758 -0.0021
 4213SOL     OW24097   1.697   4.187   2.340 -0.0384 -0.1305  0.1598
 4213SOL    HW124098   1.754   4.114   2.317  0.6445  0.2113  0.8168
 4213SOL    HW224099   1.621   4.173   2.283  0.5987  0.8107 -0.9098
 4214SOL     OW24100   0.557   4.603   7.738  0.0209  0.5634 -0.4590
 4214SOL    HW124101   0.572   4.526   7.683  0.2979  0.2589  0.0478
 4214SOL    HW224102   0.576   4.569   7.825  1.0955 -1.7702 -1.6049
 4215SOL     OW24103   0.540   0.241  10.425 -0.1878  0.0502  0.1399
 4215SOL    HW124104   0.519   0.153  10.393 -2.2256  1.2893 -1.9232
 4215SOL    HW224105   0.597   0.230  10.500 -0.4736  2.6728  0.7114
 4216SOL     OW24106   3.715   1.870   6.624  0.4423  0.6394 -0.1841
 4216SOL    HW124107   3.703   1.776   6.625  0.5963  0.6152 -0.5150
 4216SOL    HW224108   3.778   1.891   6.693  2.0580 -3.3798 -0.4599
 4217SOL     OW24109   0.944   1.079   9.070  0.4459 -0.3803 -0.0507
 4217SOL    HW124110   1.004   1.142   9.028 -0.0454 -0.5036 -0.9537
 4217SOL    HW224111   0.941   1.018   8.996 -2.4125  1.3874 -1.3778
 4218SOL     OW24112   0.835   0.984  13.932 -0.2076  0.3014  0.0118
 4218SOL    HW124113   0.848   0.948  13.845  3.3731 -2.4850  1.7103
 4218SOL    HW224114   0.754   1.035  13.922  0.6973  1.3580 -2.0921
 4219SOL     OW24115   0.509   4.477  17.488 -0.1595  0.1560 -0.0721
 4219SOL    HW124116   0.446   4.524  17.433  2.0939 -0.0387 -2.8528
 4219SOL    HW224117   0.454   4.400  17.500  1.4741 -0.9157  0.5437
 4220SOL     OW24118   3.741   2.994  15.923  0.9073 -0.4811  0.3005
 4220SOL    HW124119   3.829   3.007  15.957  1.0920 -0.3793 -0.2075
 4220SOL    HW224120   3.753   2.904  15.893 -1.3352 -0.5089 -0.5458
 4221SOL     OW24121   2.220   2.180   0.007 -0.5471 -0.2098 -0.2551
 4221SOL    HW124122   2.184   2.201   0.094  1.9711  0.9347  0.5082
 4221SOL    HW224123   2.252   2.090   0.015 -0.7496 -0.5891 -3.8599
 4222SOL     OW24124   0.892   2.521   4.180  1.0703  0.6473  0.1140
 4222SOL    HW124125   0.983   2.492   4.173  0.9256  0.0189  0.8104
 4222SOL    HW224126   0.897   2.609   4.142 -0.9481 -0.6579 -3.1873
 4223SOL     OW24127   3.526   0.981   3.287 -0.4091  0.0637 -0.2150
 4223SOL    HW124128   3.600   1.017   3.238 -2.1341  2.3854 -1.1381
 4223SOL    HW224129   3.520   1.048   3.356  0.8342 -0.8389  0.7917
 4224SOL     OW24130   1.064   2.391   3.081  0.0716 -0.1870 -0.2453
 4224SOL    HW124131   1.044   2.465   3.025 -0.4396 -0.2872 -0.1902
 4224SOL    HW224132   0.992   2.336   3.050  0.0310 -0.9254  1.1331
 4225SOL     OW24133   3.662   3.591  17.174 -0.1429  0.1735  0.2479
 4225SOL    HW124134   3.752   3.624  17.168  0.1321 -0.8760 -1.3747
 4225SOL    HW224135   3.639   3.592  17.267  1.0588  1.4964  0.5384
 4226SOL     OW24136   0.235   4.635   2.011 -0.4145 -0.0490 -0.1688
 4226SOL    HW124137   0.287   4.639   1.931  0.6636  0.5614  0.5507
 4226SOL    HW224138   0.194   4.720   1.994  0.7630  0.4862 -0.3608
 4227SOL     OW24139   1.430   2.923   8.194  0.3435 -0.2031  0.2538
 4227SOL    HW124140   1.338   2.945   8.207 -0.6316 -2.9537 -1.9664
 4227SOL    HW224141   1.442   2.838   8.237  1.3488  0.7197  1.8128
 4228SOL     OW24142   1.878   2.379   3.595  0.5198 -0.0553  0.1494
 4228SOL    HW124143   1.901   2.461   3.637  1.1467  0.4216 -1.1198
 4228SOL    HW224144   1.818   2.336   3.657  0.8200  0.3062  0.6812
 4229SOL     OW24145   2.875   4.078   5.415 -0.3097 -0.0838  0.8470
 4229SOL    HW124146   2.791   4.073   5.460  0.5324 -0.9569  2.3346
 4229SOL    HW224147   2.859   4.027   5.336  0.9987  0.1612  0.4156
 4230SOL     OW24148   0.359   2.225  17.463  0.9426  0.4426 -0.0461
 4230SOL    HW124149   0.269   2.222  17.494  1.1934  1.3156  0.7417
 4230SOL    HW224150   0.393   2.139  17.488  0.4376  0.1657 -0.3088
 4231SOL     OW24151   1.653   4.583   7.127 -0.4503 -0.1365 -0.1005
 4231SOL    HW124152   1.613   4.501   7.155 -0.0160  0.8292  3.4145
 4231SOL    HW224153   1.657   4.556   7.036  1.4737  0.6261 -0.2464
 4232SOL     OW24154   3.201   2.401  14.562  0.0626  0.2727 -0.1935
 4232SOL    HW124155   3.120   2.426  14.517 -0.9859 -1.2268  0.8518
 4232SOL    HW224156   3.275   2.440  14.516  0.6749 -0.9124 -0.2193
 4233SOL     OW24157   4.718   0.302  12.282 -0.1239  0.2373  0.0992
 4233SOL    HW124158   4.687   0.344  12.202 -1.4444  0.7408  0.8743
 4233SOL    HW224159   4.639   0.273  12.329  0.4403  1.1718  1.6144
 4234SOL     OW24160   3.257   4.002   3.514  0.0890 -0.1328 -0.5105
 4234SOL    HW124161   3.311   3.960   3.447  1.8039 -1.8623  1.9592
 4234SOL    HW224162   3.294   3.956   3.589 -2.2001 -0.6571  0.2724
 4235SOL     OW24163   0.910   3.642  13.799  0.6781  0.5858 -0.5006
 4235SOL    HW124164   0.976   3.711  13.797  0.5851  0.7210  0.9899
 4235SOL    HW224165   0.826   3.689  13.807  0.8873  0.8704  0.0208
 4236SOL     OW24166   2.357   3.897   3.722 -0.3707 -0.0176  0.3126
 4236SOL    HW124167   2.263   3.896   3.706 -0.2470  1.4689 -0.5113
 4236SOL    HW224168   2.392   3.826   3.668 -0.4795  0.3941 -0.3006
 4237SOL     OW24169   1.194   2.025   2.102 -0.0212 -0.0217  0.1114
 4237SOL    HW124170   1.229   2.113   2.092 -0.4918  0.5550  3.5338
 4237SOL    HW224171   1.150   2.014   2.018  0.2973  2.0254 -0.3047
 4238SOL     OW24172   1.008   3.077  12.881 -0.4209 -0.4712 -0.2015
 4238SOL    HW124173   1.030   2.991  12.843  1.5816 -0.2704  0.4861
 4238SOL    HW224174   0.934   3.107  12.829 -1.2251  0.6852  1.6247
 4239SOL     OW24175   0.091   2.070  17.378 -0.5600 -0.3312 -0.3737
 4239SOL    HW124176   0.070   2.093  17.468  0.1328  0.7994 -0.5041
 4239SOL    HW224177   0.135   1.985  17.378 -1.7715 -0.9911 -3.0672
 4240SOL     OW24178   4.263   2.936  17.584 -0.1146 -0.1555  0.4633
 4240SOL    HW124179   4.252   2.915  17.677  1.6685  0.3223  0.7975
 4240SOL    HW224180   4.358   2.936  17.574 -0.3228 -2.3906 -1.3144
 4241SOL     OW24181   2.754   2.181   4.408  0.1533  0.4736 -0.2093
 4241SOL    HW124182   2.737   2.219   4.322 -0.1301 -0.1109 -0.4113
 4241SOL    HW224183   2.730   2.088   4.402  0.2653  0.4485 -0.2862
 4242SOL     OW24184   3.989   3.406   5.081  0.6942  0.0884  0.3901
 4242SOL    HW124185   3.898   3.376   5.070  0.7527  0.5298 -1.2742
 4242SOL    HW224186   3.997   3.377   5.172 -0.4446 -3.3872 -0.6292
 4243SOL     OW24187   3.682   0.386   1.762  0.7629 -0.4656  0.1651
 4243SOL    HW124188   3.712   0.372   1.672  0.6260 -1.0647  0.2089
 4243SOL    HW224189   3.634   0.303   1.768 -2.7872  1.4823 -1.8011
 4244SOL     OW24190   1.272   3.376  17.408 -0.1788 -0.7260 -0.0676
 4244SOL    HW124191   1.352   3.324  17.408 -0.7407 -1.5737 -0.9612
 4244SOL    HW224192   1.301   3.454  17.456 -0.3704 -1.0396  0.5562
 4245SOL     OW24193   0.133   0.005  15.010  0.4291  0.1047 -0.2013
 4245SOL    HW124194   0.197   0.055  15.060 -1.2395  0.4101  1.6488
 4245SOL    HW224195   0.104   0.074  14.951  0.8683  0.3593 -0.1153
 4246SOL     OW24196   3.729   2.504   9.210 -0.3511  0.0200 -0.4978
 4246SOL    HW124197   3.736   2.435   9.144 -4.0761  0.6967 -1.5700
 4246SOL    HW224198   3.684   2.571   9.158 -0.9776 -0.4903 -0.6098
 4247SOL     OW24199   4.174   1.727   2.851 -0.3124 -0.2058 -0.2023
 4247SOL    HW124200   4.109   1.669   2.888  0.1488 -0.9942 -0.6334
 4247SOL    HW224201   4.242   1.704   2.915 -0.8794 -1.9026 -0.2180
 4248SOL     OW24202   4.465   3.992   2.035 -0.0678  0.1465 -0.0582
 4248SOL    HW124203   4.427   4.004   1.948  2.2811 -0.0668 -1.1186
 4248SOL    HW224204   4.558   3.985   2.009  0.3478 -0.8382  1.7201
 4249SOL     OW24205   0.882   3.512  16.349  0.2243  0.1422  0.3472
 4249SOL    HW124206   0.861   3.430  16.304 -1.2074  1.2301 -0.9525
 4249SOL    HW224207   0.817   3.517  16.419  0.0106  0.9473  0.0878
 4250SOL     OW24208   0.784   1.202   6.441  0.0725  0.0291 -0.2556
 4250SOL    HW124209   0.804   1.193   6.348 -0.8359  1.3990 -0.5852
 4250SOL    HW224210   0.706   1.257   6.433  2.3897  3.1005 -1.7857
 4251SOL     OW24211   0.088   3.717   5.765  0.4453  0.3987 -0.2441
 4251SOL    HW124212   0.128   3.673   5.690  2.1577  0.5122  0.5994
 4251SOL    HW224213   0.064   3.802   5.729 -1.3469 -0.5811 -1.3666
 4252SOL     OW24214   1.388   1.733  16.062 -0.2389  0.3555 -0.1480
 4252SOL    HW124215   1.484   1.731  16.066 -0.1503  1.1877 -2.1071
 4252SOL    HW224216   1.377   1.694  15.976  1.1851  2.0696 -1.0988
 4253SOL     OW24217   0.738   2.210  16.150  0.0159 -0.4237  0.0151
 4253SOL    HW124218   0.832   2.224  16.139 -0.6750  3.7316 -0.6328
 4253SOL    HW224219   0.715   2.180  16.062  2.1089 -2.9304  0.3300
 4254SOL     OW24220   1.703   1.292   4.197 -0.3892  0.0790  0.5446
 4254SOL    HW124221   1.794   1.321   4.198  0.3300 -2.0774 -2.1329
 4254SOL    HW224222   1.666   1.342   4.124 -1.1157 -0.3042  0.6438
 4255SOL     OW24223   1.173   3.139   9.545  0.0082  0.0256 -0.1513
 4255SOL    HW124224   1.266   3.140   9.521  0.3354 -1.9018  1.0033
 4255SOL    HW224225   1.173   3.170   9.635  1.9318  2.9644 -1.1814
 4256SOL     OW24226   0.944   3.776   7.068 -0.9083  0.5745 -0.3424
 4256SOL    HW124227   0.921   3.814   6.983 -2.2491  2.7441  1.0102
 4256SOL    HW224228   0.906   3.844   7.123 -3.4378 -0.9009 -0.2816
 4257SOL     OW24229   3.893   2.597   6.803 -0.4642  0.1522 -0.2240
 4257SOL    HW124230   3.822   2.610   6.865  0.9360 -1.7508  1.8011
 4257SOL    HW224231   3.846   2.627   6.725 -0.9532 -0.3196 -0.1124
 4258SOL     OW24232   3.717   3.565   9.061 -0.2553 -0.1135  0.5245
 4258SOL    HW124233   3.696   3.480   9.022 -0.1680  0.4635 -0.7660
 4258SOL    HW224234   3.750   3.534   9.146 -0.9157  0.2781  0.9306
 4259SOL     OW24235   1.995   0.779   9.507  0.8102 -0.2123 -0.1873
 4259SOL    HW124236   1.961   0.697   9.470  1.5814 -0.6326  0.0430
 4259SOL    HW224237   2.024   0.743   9.591 -1.7507  2.1115  1.7042
 4260SOL     OW24238   3.654   2.865   8.068 -0.7872 -0.5576  0.5193
 4260SOL    HW124239   3.574   2.911   8.041  0.1236 -1.2907 -3.3402
 4260SOL    HW224240   3.714   2.935   8.092  1.4012 -2.5084  0.7759
 4261SOL     OW24241   0.581   1.562   5.634  0.3133  0.0053 -0.5206
 4261SOL    HW124242   0.563   1.641   5.583 -2.3636 -0.5095 -0.3735
 4261SOL    HW224243   0.578   1.595   5.724 -0.1015  1.2799 -0.9941
 4262SOL     OW24244   3.767   2.055   2.936  0.2836 -0.3660  0.1706
 4262SOL    HW124245   3.855   2.058   2.899 -1.0831 -1.9266 -3.1899
 4262SOL    HW224246   3.721   2.001   2.872  0.5825 -0.0061 -0.3423
 4263SOL     OW24247   0.880   1.999   2.176 -1.0677 -0.0136  0.2647
 4263SOL    HW124248   0.830   2.066   2.130 -2.4845 -0.7826  0.6921
 4263SOL    HW224249   0.941   1.989   2.103 -0.1687 -0.4141  1.0665
 4264SOL     OW24250   4.295   1.742   3.734  0.0433 -0.0360 -0.4237
 4264SOL    HW124251   4.338   1.708   3.812 -0.2426 -1.2053 -0.7684
 4264SOL    HW224252   4.344   1.823   3.723 -0.1012  0.0471 -0.4466
 4265SOL     OW24253   3.846   2.495   2.130  0.6028  0.9728 -0.0550
 4265SOL    HW124254   3.779   2.564   2.133 -0.0979  0.3225 -0.6064
 4265SOL    HW224255   3.893   2.527   2.207  1.7517 -2.3559  0.6300
 4266SOL     OW24256   2.819   3.704   4.189  0.0231 -0.6310 -0.1629
 4266SOL    HW124257   2.789   3.657   4.112  1.5708 -2.0490  0.0840
 4266SOL    HW224258   2.915   3.709   4.181  0.1500 -1.1163  1.0400
 4267SOL     OW24259   3.605   3.363   6.681  0.3207 -0.0662  0.1827
 4267SOL    HW124260   3.544   3.425   6.720  1.0983  1.0753 -0.4130
 4267SOL    HW224261   3.683   3.367   6.736  0.0069  0.3176  0.5912
 4268SOL     OW24262   0.444   3.348   6.813  0.1236 -0.1224  0.3629
 4268SOL    HW124263   0.442   3.443   6.825 -0.0435 -0.1762  0.7669
 4268SOL    HW224264   0.416   3.359   6.722  1.1676  2.8563  0.4037
 4269SOL     OW24265   0.364   3.866   1.268  0.1094 -0.3424  0.0845
 4269SOL    HW124266   0.350   3.787   1.217  0.2062 -0.8080  0.7779
 4269SOL    HW224267   0.368   3.925   1.193 -0.8712  0.1672  0.4258
 4270SOL     OW24268   1.699   0.163  17.550 -0.4236  0.3435 -0.0101
 4270SOL    HW124269   1.726   0.184  17.460 -1.1876 -0.0530 -0.3299
 4270SOL    HW224270   1.769   0.205  17.599  0.8781  0.8538 -2.2918
 4271SOL     OW24271   0.279   3.235   2.376  0.2271 -0.0201 -0.5399
 4271SOL    HW124272   0.204   3.231   2.436  1.0644  2.6294  0.6897
 4271SOL    HW224273   0.240   3.171   2.316 -1.2072 -0.9445  1.3732
 4272SOL     OW24274   3.814   1.045   2.403 -0.3713  0.6231  0.0496
 4272SOL    HW124275   3.763   1.125   2.395 -2.5042 -0.7818 -0.5414
 4272SOL    HW224276   3.812   1.016   2.312 -1.3211 -2.8262  1.1720
 4273SOL     OW24277   4.711   3.927  12.551 -0.0923  0.5932 -0.2308
 4273SOL    HW124278   0.074   3.966  12.564  0.1148 -0.1222  0.5308
 4273SOL    HW224279   4.721   3.893  12.462 -1.9765 -0.0814 -0.1749
 4274SOL     OW24280   4.068   3.686   6.444 -0.1544 -0.0915  0.3215
 4274SOL    HW124281   4.118   3.767   6.438 -1.2376  0.3487 -2.8476
 4274SOL    HW224282   4.140   3.640   6.488 -0.7508 -0.4494  0.9097
 4275SOL     OW24283   0.978   2.015   3.734  0.3903 -0.2082  0.3268
 4275SOL    HW124284   1.028   2.024   3.815 -0.4983 -1.7822  1.0550
 4275SOL    HW224285   0.890   2.014   3.773 -0.3647  3.7263 -1.2607
 4276SOL     OW24286   2.457   2.580  14.286 -0.0058  0.0723  0.3295
 4276SOL    HW124287   2.549   2.563  14.303 -0.0354  0.0306  0.4498
 4276SOL    HW224288   2.428   2.619  14.369 -3.2637 -0.8762 -0.3541
 4277SOL     OW24289   0.493   1.287   3.220  0.2266  0.7505 -0.4365
 4277SOL    HW124290   0.562   1.235   3.262  0.5762  1.9048  0.3946
 4277SOL    HW224291   0.521   1.293   3.129  2.1302 -1.1341  0.0271
 4278SOL     OW24292   2.259   0.012   8.111 -0.2814  0.3322 -0.0685
 4278SOL    HW124293   2.240   0.106   8.103 -1.5689 -0.0722 -1.9665
 4278SOL    HW224294   2.208   4.704   8.036  0.4182  1.4149 -1.0006
 4279SOL     OW24295   2.138   1.309   9.086  0.7462 -0.2357  0.5863
 4279SOL    HW124296   2.051   1.297   9.048  1.4387  0.2245 -1.1687
 4279SOL    HW224297   2.161   1.397   9.059  3.7492 -0.5124  2.2155
 4280SOL     OW24298   2.700   3.585   3.968 -0.4228 -0.4829 -0.5689
 4280SOL    HW124299   2.702   3.625   3.881 -1.2407  1.8867  0.5137
 4280SOL    HW224300   2.606   3.578   3.980 -0.0461 -1.2031  1.9373
 4281SOL     OW24301   4.597   0.001  11.033 -0.2793  0.2379  0.6378
 4281SOL    HW124302   4.600   0.041  11.120 -1.2106 -1.4066  1.4226
 4281SOL    HW224303   4.690   0.011  11.012 -0.0215 -0.6116  1.3510
 4282SOL     OW24304   0.097   1.978   7.992 -0.3005  0.0779  0.1278
 4282SOL    HW124305   0.192   1.981   7.986 -0.3951  0.4849 -1.2203
 4282SOL    HW224306   0.092   1.965   8.086 -1.5715 -1.9316 -0.2141
 4283SOL     OW24307   0.459   3.682   8.449  1.0233 -0.3302  0.4353
 4283SOL    HW124308   0.490   3.744   8.383  0.9642 -0.7812 -0.0183
 4283SOL    HW224309   0.376   3.722   8.477  0.2470  0.1092 -2.4410
 4284SOL     OW24310   3.627   3.309   8.991 -0.2392 -0.1215 -0.0610
 4284SOL    HW124311   3.534   3.313   9.016 -0.0740  1.7815  0.2802
 4284SOL    HW224312   3.668   3.260   9.063  0.3014 -0.3273 -0.5115
 4285SOL     OW24313   3.878   0.216   6.377 -0.1742 -0.7205 -0.3201
 4285SOL    HW124314   3.833   0.158   6.315 -2.0781 -1.1641  1.4890
 4285SOL    HW224315   3.940   0.159   6.423  0.0217 -0.3541 -0.1278
 4286SOL     OW24316   4.173   0.794   7.067  0.0671 -0.5445  0.3414
 4286SOL    HW124317   4.240   0.853   7.033 -0.2529  0.2012  0.9907
 4286SOL    HW224318   4.086   0.828   7.046  0.0105 -1.7201 -1.2365
 4287SOL     OW24319   2.351   1.614  12.059 -0.3179 -0.7356  0.0764
 4287SOL    HW124320   2.382   1.524  12.060  0.5438 -0.4719 -1.3182
 4287SOL    HW224321   2.434   1.655  12.084 -0.3629 -1.6137  1.6230
 4288SOL     OW24322   0.323   3.134   6.991  0.3265  0.4234  0.3645
 4288SOL    HW124323   0.329   3.229   6.982 -0.1169  0.8475  4.5129
 4288SOL    HW224324   0.415   3.121   6.971 -0.2598 -1.7151 -0.9737
 4289SOL     OW24325   3.457   3.757   0.778 -0.0478  0.5657 -0.1510
 4289SOL    HW124326   3.551   3.747   0.793  0.3824  3.4046 -0.9692
 4289SOL    HW224327   3.428   3.710   0.700  0.2121 -3.5818  2.2160
 4290SOL     OW24328   0.964   0.267   6.375 -0.0456  0.3658  0.2420
 4290SOL    HW124329   0.901   0.340   6.379  0.4085  0.7840 -0.2847
 4290SOL    HW224330   1.020   0.299   6.305  0.2420 -0.3435  0.1535
 4291SOL     OW24331   0.703   0.623   9.533 -0.4080  0.4167 -0.1006
 4291SOL    HW124332   0.622   0.600   9.579  0.5603 -0.4513  1.1866
 4291SOL    HW224333   0.688   0.717   9.521 -2.5303  0.6247  4.0690
 4292SOL     OW24334   2.498   0.133   5.255 -0.2147 -0.4241  0.3858
 4292SOL    HW124335   2.519   0.172   5.340  2.5400  1.1050 -0.9937
 4292SOL    HW224336   2.405   0.155   5.249  0.1838  0.9510 -0.9177
 4293SOL     OW24337   0.580   0.085   2.269  0.2941  0.0022  0.3807
 4293SOL    HW124338   0.521   0.011   2.259  1.9797 -0.8805 -2.8863
 4293SOL    HW224339   0.616   0.087   2.181 -3.4645 -1.0192 -1.1678
 4294SOL     OW24340   3.047   0.962   2.696  0.1413  0.3322 -0.3166
 4294SOL    HW124341   3.046   0.938   2.604 -0.1239 -3.0743  0.5605
 4294SOL    HW224342   2.957   0.945   2.722 -0.6063 -1.0342 -3.8936
 4295SOL     OW24343   0.082   3.637  13.679  0.2325 -0.1089  0.2670
 4295SOL    HW124344   0.152   3.701  13.696 -0.6509  1.2627 -1.1780
 4295SOL    HW224345   0.069   3.596  13.764 -1.2939 -0.5154 -0.1579
 4296SOL     OW24346   3.830   0.258   6.013  0.0635 -0.1577 -0.3507
 4296SOL    HW124347   3.735   0.244   6.015  0.0187  0.1924 -0.1360
 4296SOL    HW224348   3.868   0.170   6.020  0.1877 -0.2121 -1.7798
 4297SOL     OW24349   1.497   2.183   8.985  0.6389  0.1564  0.3550
 4297SOL    HW124350   1.491   2.093   9.015  1.3100 -0.3183 -0.9158
 4297SOL    HW224351   1.474   2.165   8.894  1.9216  1.0202 -0.1431
 4298SOL     OW24352   2.807   0.646   9.573 -0.3829  0.3981  0.0717
 4298SOL    HW124353   2.761   0.725   9.600 -1.2085 -0.0632  0.0353
 4298SOL    HW224354   2.873   0.682   9.514  0.3229  0.8357  1.1322
 4299SOL     OW24355   1.143   3.063   5.971  0.0566  0.0156 -0.5923
 4299SOL    HW124356   1.065   3.075   5.917  0.5571  1.8427 -0.9145
 4299SOL    HW224357   1.176   2.977   5.944 -1.5948 -1.5754  2.4397
 4300SOL     OW24358   4.129   4.144   2.934  0.3673 -0.1262 -0.1175
 4300SOL    HW124359   4.060   4.104   2.987  1.3538  0.9028  1.9431
 4300SOL    HW224360   4.085   4.190   2.862  3.6186  0.1109 -1.9136
 4301SOL     OW24361   2.208   3.423  16.014  0.1730  0.0011  0.1573
 4301SOL    HW124362   2.220   3.350  16.075  2.3577  0.6687  0.5380
 4301SOL    HW224363   2.241   3.373  15.939 -0.4266 -0.0712 -0.0577
 4302SOL     OW24364   2.171   1.372  10.660  0.2559 -0.1679 -0.0226
 4302SOL    HW124365   2.263   1.349  10.673  0.3173  0.1682  0.1382
 4302SOL    HW224366   2.136   1.319  10.731 -0.7840 -1.5374 -1.5757
 4303SOL     OW24367   3.004   3.180  16.403 -0.2946  0.4397  0.0570
 4303SOL    HW124368   2.926   3.142  16.443 -0.0219 -0.7305 -0.5387
 4303SOL    HW224369   3.014   3.268  16.440 -0.4315  0.1418  0.8000
 4304SOL     OW24370   2.088   2.293   5.722 -0.1662 -0.2547 -0.3068
 4304SOL    HW124371   2.037   2.371   5.740 -1.6925 -1.2281 -0.3831
 4304SOL    HW224372   2.158   2.318   5.662 -0.8324  1.5155 -0.3356
 4305SOL     OW24373   3.556   4.470   7.495  0.1144  0.1863  0.0410
 4305SOL    HW124374   3.602   4.412   7.434 -0.1484 -1.7808  1.7189
 4305SOL    HW224375   3.608   4.551   7.493  0.2765  0.0324 -1.8704
 4306SOL     OW24376   0.773   2.307   3.140 -0.4443 -0.0156 -0.5542
 4306SOL    HW124377   0.710   2.303   3.069 -0.7370  3.6112 -0.5236
 4306SOL    HW224378   0.755   2.385   3.193  0.2005 -1.5945  1.9879
 4307SOL     OW24379   1.559   4.018   9.576 -0.0552  0.1170 -0.4281
 4307SOL    HW124380   1.485   3.957   9.575  1.9453 -2.3281  0.8667
 4307SOL    HW224381   1.606   3.991   9.655 -0.8419  0.6112  0.1971
 4308SOL     OW24382   3.356   3.698   6.197  0.1479  0.5462  0.0849
 4308SOL    HW124383   3.412   3.646   6.254  0.7795  1.2748  0.1453
 4308SOL    HW224384   3.292   3.632   6.171  3.0013 -1.6249 -1.4776
 4309SOL     OW24385   0.483   0.327  15.158 -0.1628 -0.8099  1.0627
 4309SOL    HW124386   0.563   0.308  15.109  0.2788 -0.1490  1.5368
 4309SOL    HW224387   0.512   0.398  15.214 -1.0706  0.1905  0.2557
 4310SOL     OW24388   3.850   3.460  12.345 -0.8776  0.0790  0.9115
 4310SOL    HW124389   3.923   3.398  12.350 -1.2355 -0.5124 -1.0993
 4310SOL    HW224390   3.811   3.440  12.260 -0.4790 -0.2387  0.8003
 4311SOL     OW24391   2.122   2.757   9.119  0.1427  0.2974  0.5521
 4311SOL    HW124392   2.147   2.667   9.143  0.4476 -0.4930 -2.7607
 4311SOL    HW224393   2.027   2.759   9.129  0.1474  1.8629  0.2828
 4312SOL     OW24394   3.218   2.205   4.728  0.5520 -0.5274  0.4119
 4312SOL    HW124395   3.125   2.182   4.726 -0.0030  1.5222  2.2812
 4312SOL    HW224396   3.261   2.162   4.654  1.6354  0.3793  0.5125
 4313SOL     OW24397   1.852   1.622   5.630  0.0527 -0.2181 -0.4359
 4313SOL    HW124398   1.815   1.591   5.712  1.8369 -0.9127  0.1123
 4313SOL    HW224399   1.931   1.569   5.623  1.0379  1.3520 -1.3068
 4314SOL     OW24400   2.937   3.382   6.750 -0.0397 -0.0358  0.1016
 4314SOL    HW124401   2.899   3.294   6.760 -1.0756 -0.0326 -3.8861
 4314SOL    HW224402   2.926   3.412   6.840  0.0933 -0.7089  0.3443
 4315SOL     OW24403   2.002   1.029   2.736 -0.2371 -0.7045  0.2018
 4315SOL    HW124404   2.010   1.070   2.650 -0.4098  0.1552  0.5951
 4315SOL    HW224405   2.014   1.104   2.794 -1.7470 -1.8694  2.0173
 4316SOL     OW24406   4.185   0.953  11.154  0.2983  0.1248  0.3915
 4316SOL    HW124407   4.112   0.961  11.215 -1.5187 -0.1193 -1.7656
 4316SOL    HW224408   4.258   0.910  11.199  0.8417 -0.0139 -0.6186
 4317SOL     OW24409   4.507   3.857   8.131 -0.0155 -0.6631 -0.4754
 4317SOL    HW124410   4.489   3.796   8.203 -1.6187 -1.6025 -1.6716
 4317SOL    HW224411   4.591   3.896   8.154 -1.3719  1.7407  0.4566
 4318SOL     OW24412   4.464   0.359   2.832 -0.2576 -0.1739 -0.1490
 4318SOL    HW124413   4.493   0.417   2.902  1.0257 -1.9578  0.8060
 4318SOL    HW224414   4.545   0.309   2.824 -1.5628 -1.9926 -2.1941
 4319SOL     OW24415   0.855   4.649   8.279 -0.2138 -0.0260 -0.3040
 4319SOL    HW124416   0.840   4.595   8.356 -1.2994 -0.9277 -1.1660
 4319SOL    HW224417   0.797   0.000   8.293  2.1541  1.5400  1.0772
 4320SOL     OW24418   1.023   2.614  14.233  0.5119 -0.1784 -0.1614
 4320SOL    HW124419   0.972   2.688  14.202  0.4336 -0.5998 -1.0561
 4320SOL    HW224420   1.036   2.632  14.326 -1.8223  0.7676 -0.0405
 4321SOL     OW24421   1.516   0.619   6.860 -0.5436  0.0537  0.6083
 4321SOL    HW124422   1.492   0.704   6.898 -0.5003  0.0249  0.7008
 4321SOL    HW224423   1.532   0.561   6.935 -0.4805  0.8153  1.1916
 4322SOL     OW24424   1.645   0.939  10.677  0.0606 -0.5471 -0.0077
 4322SOL    HW124425   1.713   1.003  10.657  0.3926 -0.3980  1.5908
 4322SOL    HW224426   1.696   0.881  10.733 -1.3207  0.8462  2.6729
 4323SOL     OW24427   1.724   4.310   1.297 -0.0583 -0.0342  0.4350
 4323SOL    HW124428   1.761   4.258   1.226 -1.1110 -1.6870  1.1034
 4323SOL    HW224429   1.677   4.375   1.244 -0.5824 -0.8557 -0.1031
 4324SOL     OW24430   4.567   2.833   7.266 -0.2672  0.4399 -0.0149
 4324SOL    HW124431   4.635   2.775   7.233  1.8149  1.4269  2.5721
 4324SOL    HW224432   4.498   2.768   7.253  0.3394 -0.2906  0.4106
 4325SOL     OW24433   3.602   3.208   8.516  0.3439  0.0152  0.1458
 4325SOL    HW124434   3.672   3.144   8.531  1.0795 -0.0862 -3.6515
 4325SOL    HW224435   3.640   3.265   8.448  2.4361  0.5560  1.7636
 4326SOL     OW24436   4.272   2.939   7.169 -0.2973 -0.3296  0.6090
 4326SOL    HW124437   4.196   2.977   7.124  0.4415 -0.4017 -0.7213
 4326SOL    HW224438   4.332   2.917   7.097 -1.0489 -0.0237 -0.1138
 4327SOL     OW24439   3.813   4.252   8.266 -0.4154 -0.6048  0.1087
 4327SOL    HW124440   3.831   4.294   8.182 -0.6460 -1.1907 -0.2398
 4327SOL    HW224441   3.775   4.322   8.319  0.2908 -0.4394  0.3838
 4328SOL     OW24442   0.360   4.208   7.963 -0.0412 -0.2125  0.8849
 4328SOL    HW124443   0.454   4.196   7.979 -0.1209 -0.7027  0.9911
 4328SOL    HW224444   0.320   4.141   8.017  0.1978 -0.4031  0.8280
 4329SOL     OW24445   4.104   0.975   0.647 -0.0802  0.1618  0.2524
 4329SOL    HW124446   4.053   0.901   0.680 -0.2758  0.3047  0.2734
 4329SOL    HW224447   4.070   1.037   0.712  0.4695  1.0083 -0.2714
 4330SOL     OW24448   4.561   0.940   6.352  0.5229 -0.4001  0.1776
 4330SOL    HW124449   4.497   0.870   6.355 -0.1623  0.2670  1.0080
 4330SOL    HW224450   4.547   0.997   6.427 -1.9563  1.7031 -1.8589
 4331SOL     OW24451   0.717   3.812   7.837  0.0091 -0.0397  0.4657
 4331SOL    HW124452   0.695   3.764   7.916  1.6702 -0.7343  0.5108
 4331SOL    HW224453   0.786   3.757   7.799  0.8411  1.8323 -0.7807
 4332SOL     OW24454   1.851   4.472  10.969  0.3575  0.7579 -0.4555
 4332SOL    HW124455   1.874   4.525  11.045  0.4646 -0.7223  0.5525
 4332SOL    HW224456   1.891   4.393  11.006  0.9116  0.7479 -1.0570
 4333SOL     OW24457   3.175   2.453   6.837  0.1293 -0.5036 -0.3494
 4333SOL    HW124458   3.164   2.480   6.746 -1.6748  0.3784  0.1364
 4333SOL    HW224459   3.208   2.535   6.872  0.5769 -2.1222  3.0133
 4334SOL     OW24460   4.366   0.730   6.367  0.1266  0.7359  0.1840
 4334SOL    HW124461   4.298   0.736   6.434  1.9943  1.9039  1.9692
 4334SOL    HW224462   4.431   0.689   6.423 -1.3488  0.4732  1.6908
 4335SOL     OW24463   0.090   2.849   0.047 -0.2435 -0.1688 -0.3526
 4335SOL    HW124464   0.128   2.778   0.099 -1.1779 -1.1640 -1.0373
 4335SOL    HW224465   0.145   2.846  17.667  0.2509 -0.4834  0.0092
 4336SOL     OW24466   2.263   2.210  16.959  0.2955  0.1339 -0.2522
 4336SOL    HW124467   2.251   2.142  16.893 -1.5401  0.4890 -0.2735
 4336SOL    HW224468   2.214   2.279  16.915  0.9658  0.4417 -0.5154
 4337SOL     OW24469   1.800   1.478  11.283  0.4201  0.4539 -0.3371
 4337SOL    HW124470   1.831   1.401  11.331 -0.1667  1.1336  1.1264
 4337SOL    HW224471   1.800   1.540  11.356 -0.3320  0.2959 -0.1957
 4338SOL     OW24472   1.271   3.753   4.949 -0.2147  0.2939  0.0324
 4338SOL    HW124473   1.249   3.729   5.039  1.4147  0.2174  0.4037
 4338SOL    HW224474   1.189   3.798   4.926  0.0848  1.2895  0.8890
 4339SOL     OW24475   0.379   0.574  16.481 -0.0523  0.2628 -0.1983
 4339SOL    HW124476   0.376   0.523  16.400 -2.0180  2.4998 -1.5338
 4339SOL    HW224477   0.287   0.592  16.502  0.5400  0.3243  2.3565
 4340SOL     OW24478   2.172   0.476   2.869 -0.0309  0.5958 -0.2372
 4340SOL    HW124479   2.223   0.400   2.843 -0.0024  0.1460  1.1015
 4340SOL    HW224480   2.092   0.454   2.821 -1.0006  1.9682  0.7517
 4341SOL     OW24481   4.681   2.043   4.495 -0.1804 -0.3146 -0.2412
 4341SOL    HW124482   4.595   2.003   4.510 -0.4877  0.5546  0.3334
 4341SOL    HW224483   4.679   2.071   4.403 -1.1889  0.2653 -0.0401
 4342SOL     OW24484   1.065   0.015   2.312 -0.2604  0.9139  0.3292
 4342SOL    HW124485   0.985   0.003   2.364 -0.4976  1.1120  0.0162
 4342SOL    HW224486   1.058   0.096   2.260  0.7486  0.2409 -0.8540
 4343SOL     OW24487   4.693   0.705   4.558  0.3018  0.2905  0.3640
 4343SOL    HW124488   0.033   0.688   4.627 -0.0428  1.9212  1.0802
 4343SOL    HW224489   4.674   0.798   4.562  0.2469  0.2119  1.8446
 4344SOL     OW24490   3.276   0.756  14.993  0.7581  0.2804  0.0644
 4344SOL    HW124491   3.363   0.717  14.983  0.1712 -1.7606  2.9847
 4344SOL    HW224492   3.219   0.694  14.948  0.1934  2.6210 -2.4577
 4345SOL     OW24493   2.097   3.003   8.563 -0.2438 -0.3953  0.1896
 4345SOL    HW124494   2.057   3.083   8.529 -0.9593 -0.1993  1.4755
 4345SOL    HW224495   2.062   2.941   8.499  0.8152  0.9169 -1.6426
 4346SOL     OW24496   0.213   4.454   8.035  0.4461  0.1026  0.0598
 4346SOL    HW124497   0.273   4.380   8.037  1.0353  0.5992  1.0624
 4346SOL    HW224498   0.253   4.519   8.093 -3.3335  2.2577  0.2849
 4347SOL     OW24499   4.227   4.492  10.065 -0.6699  0.0466  0.1960
 4347SOL    HW124500   4.246   4.528  10.152 -0.6246  2.3617 -0.7663
 4347SOL    HW224501   4.308   4.451  10.038 -0.9215 -0.1729 -0.2133
 4348SOL     OW24502   2.445   1.315  10.817  0.1097  0.3445  0.5959
 4348SOL    HW124503   2.508   1.364  10.871  0.4221  0.2342  0.3293
 4348SOL    HW224504   2.484   1.228  10.820  1.6293  0.9978 -0.3711
 4349SOL     OW24505   3.946   2.373   9.712  0.2341 -0.2623 -0.1930
 4349SOL    HW124506   3.924   2.435   9.642 -2.1645  1.1399  1.7992
 4349SOL    HW224507   3.953   2.291   9.663 -0.0606 -0.7276  0.5401
 4350SOL     OW24508   2.620   2.877   8.931 -0.2534 -0.1793  0.3533
 4350SOL    HW124509   2.678   2.913   8.864 -1.0406  1.3493  0.4895
 4350SOL    HW224510   2.638   2.937   9.004 -0.5454 -1.2021  1.2580
 4351SOL     OW24511   0.491   2.468  15.440 -0.8917 -0.3491 -0.6047
 4351SOL    HW124512   0.446   2.401  15.491  0.2982 -0.1592  0.6803
 4351SOL    HW224513   0.453   2.548  15.476  0.2618 -0.1603  0.2000
 4352SOL     OW24514   0.419   4.115   4.024  0.1547  0.2927  0.1466
 4352SOL    HW124515   0.355   4.112   4.095 -1.3891  0.1251 -1.2757
 4352SOL    HW224516   0.449   4.205   4.014 -0.4273  0.8903  3.8500
 4353SOL     OW24517   3.206   0.084   7.010  0.5276 -0.1480  0.0517
 4353SOL    HW124518   3.117   0.108   7.037  1.5612 -0.2686  3.4398
 4353SOL    HW224519   3.253   0.068   7.091  1.8553 -1.2513 -0.9313
 4354SOL     OW24520   3.594   3.175   7.801  0.5593  0.1982 -0.6714
 4354SOL    HW124521   3.511   3.204   7.838  1.0695  2.0743 -0.9887
 4354SOL    HW224522   3.571   3.121   7.726 -1.1524  3.5804 -2.6127
 4355SOL     OW24523   4.655   3.256   7.131 -0.0996 -0.4043 -0.0082
 4355SOL    HW124524   4.670   3.339   7.177  0.4579 -0.9223  0.7289
 4355SOL    HW224525   4.611   3.202   7.196  0.9607 -1.5688 -0.2456
 4356SOL     OW24526   0.256   1.235   8.604 -0.5667 -0.9267  0.1476
 4356SOL    HW124527   0.268   1.186   8.522 -1.2176 -1.1571  0.1915
 4356SOL    HW224528   0.273   1.325   8.577 -0.9477 -1.2783 -1.2691
 4357SOL     OW24529   2.720   1.627  12.739 -0.6228  0.3622  0.5640
 4357SOL    HW124530   2.661   1.702  12.730 -0.7194  0.1950 -0.1816
 4357SOL    HW224531   2.806   1.661  12.763  0.6891 -2.2476 -0.4479
 4358SOL     OW24532   2.639   3.045   5.135  0.1442  0.0573  0.2103
 4358SOL    HW124533   2.549   3.012   5.145 -0.4445  2.3911  2.5146
 4358SOL    HW224534   2.621   3.136   5.113  4.0027  0.7215 -0.1501
 4359SOL     OW24535   0.184   1.537   7.742  0.7262 -0.1468 -0.0701
 4359SOL    HW124536   0.199   1.453   7.784 -1.4240 -0.1663  0.6417
 4359SOL    HW224537   0.098   1.517   7.706  1.0662 -1.1627 -0.3193
 4360SOL     OW24538   2.776   1.689  11.357 -0.8994  0.1991 -0.2866
 4360SOL    HW124539   2.773   1.633  11.279 -2.2117 -0.1305  0.0040
 4360SOL    HW224540   2.705   1.751  11.346 -0.9174  0.6851  2.4971
 4361SOL     OW24541   3.511   1.061   3.736  0.4197  0.6676  0.3206
 4361SOL    HW124542   3.441   1.068   3.801  2.0673  2.0564  1.9359
 4361SOL    HW224543   3.586   1.068   3.795  0.7893 -0.6615  0.0138
 4362SOL     OW24544   3.874   0.735   4.599  0.0134 -0.4277 -0.3610
 4362SOL    HW124545   3.968   0.724   4.614  0.4976  0.0744 -3.0944
 4362SOL    HW224546   3.830   0.676   4.661 -1.1176  0.1446 -0.6307
 4363SOL     OW24547   1.240   1.577   1.203 -0.0216 -0.8809 -0.3649
 4363SOL    HW124548   1.194   1.645   1.154 -0.4277 -1.0709 -0.2399
 4363SOL    HW224549   1.305   1.627   1.252 -1.1504  0.0173  0.2141
 4364SOL     OW24550   3.426   1.343   2.606  0.0903  0.0050  0.2331
 4364SOL    HW124551   3.337   1.315   2.584  0.3442  0.1467 -0.9625
 4364SOL    HW224552   3.452   1.407   2.540  1.4592  0.2493  1.0097
 4365SOL     OW24553   4.346   1.394   6.486  0.6942  0.0512 -0.5942
 4365SOL    HW124554   4.309   1.369   6.401  0.2547  0.6716 -0.5859
 4365SOL    HW224555   4.438   1.376   6.470  1.1538  1.7744  0.0608
 4366SOL     OW24556   3.862   0.631   8.285 -0.1878  0.3870 -0.0408
 4366SOL    HW124557   3.933   0.569   8.304 -0.7499 -0.1565  0.3005
 4366SOL    HW224558   3.786   0.578   8.310  0.6063 -0.8187 -0.1491
 4367SOL     OW24559   4.280   0.411  14.222 -0.0480 -0.0337 -0.2738
 4367SOL    HW124560   4.283   0.493  14.172  1.5801  0.1865  0.2008
 4367SOL    HW224561   4.286   0.341  14.157 -1.3280 -0.4151  0.0273
 4368SOL     OW24562   4.290   2.740   5.364 -0.1651 -0.3378  0.3042
 4368SOL    HW124563   4.363   2.773   5.417 -0.2696 -0.1004  0.2981
 4368SOL    HW224564   4.246   2.680   5.424  0.3253  0.1205  1.1278
 4369SOL     OW24565   2.728   3.910   6.139  0.2257 -0.1820 -0.2771
 4369SOL    HW124566   2.792   3.946   6.201  0.3009 -1.2218  0.2489
 4369SOL    HW224567   2.796   3.916   6.072  0.3991  1.9504  0.0806
 4370SOL     OW24568   2.922   3.504   5.311 -0.5912 -0.1706 -0.3660
 4370SOL    HW124569   2.902   3.453   5.233  1.9211  0.8705 -1.6807
 4370SOL    HW224570   2.903   3.591   5.276 -0.2848 -0.5469 -1.4495
 4371SOL     OW24571   0.204   4.216  15.617  0.2871  0.0421  0.7006
 4371SOL    HW124572   0.207   4.228  15.522  0.2702  0.3293  0.7366
 4371SOL    HW224573   0.299   4.214  15.632  0.3133 -2.3137  0.1943
 4372SOL     OW24574   1.830   2.923   3.711  0.0353 -0.2249  0.1579
 4372SOL    HW124575   1.808   2.921   3.804  0.9168 -0.4368  0.3648
 4372SOL    HW224576   1.874   3.007   3.693  3.0667 -2.5407 -3.1035
 4373SOL     OW24577   4.144   0.646   6.232 -0.3739  0.5974 -0.5055
 4373SOL    HW124578   4.183   0.560   6.248 -2.3693 -0.1371  0.3384
 4373SOL    HW224579   4.225   0.697   6.237 -0.5170  0.9717 -2.0991
 4374SOL     OW24580   2.313   1.702   7.939 -0.2632  0.1411 -0.5890
 4374SOL    HW124581   2.324   1.620   7.988 -2.2409 -0.4511 -1.1490
 4374SOL    HW224582   2.266   1.764   7.995 -0.1598 -1.3623  1.1571
 4375SOL     OW24583   3.566   2.990  11.012  0.5107 -0.1128 -0.1992
 4375SOL    HW124584   3.602   2.902  11.001 -0.1325 -0.2260 -1.3866
 4375SOL    HW224585   3.640   3.042  10.981  0.8318 -0.7042 -0.4316
 4376SOL     OW24586   3.893   3.587   4.286 -0.0120  0.0162  0.3724
 4376SOL    HW124587   3.827   3.656   4.286 -1.1172 -1.0433 -0.6650
 4376SOL    HW224588   3.840   3.522   4.333 -0.3842 -0.1270 -0.2406
 4377SOL     OW24589   3.492   2.126   4.333 -0.0264 -0.1441 -0.5618
 4377SOL    HW124590   3.487   2.142   4.427  0.3276  0.2040 -0.5995
 4377SOL    HW224591   3.587   2.127   4.321  0.2272 -1.4414  1.3201
 4378SOL     OW24592   4.473   1.195   3.120  0.3234  0.0576 -0.5715
 4378SOL    HW124593   4.385   1.173   3.088 -0.7411  0.8449  1.8236
 4378SOL    HW224594   4.534   1.146   3.065 -1.2088  0.1860 -2.3897
 4379SOL     OW24595   2.002   0.085   5.064  0.2375 -0.3229  0.1752
 4379SOL    HW124596   1.924   0.112   5.016  0.1296 -0.9691 -0.0180
 4379SOL    HW224597   2.061   0.150   5.026 -0.4938  0.0736 -0.2913
 4380SOL     OW24598   4.587   2.040   8.362  0.5033 -0.4145  0.2230
 4380SOL    HW124599   4.676   2.068   8.338  0.4204  0.9551  1.4660
 4380SOL    HW224600   4.590   1.951   8.327 -1.4550 -0.1803 -0.5096
 4381SOL     OW24601   0.236   3.896   3.090 -0.8844  0.5404  0.2959
 4381SOL    HW124602   0.317   3.939   3.118 -0.2177  0.8243 -2.0959
 4381SOL    HW224603   0.188   3.956   3.033 -0.0707 -1.3857 -2.3899
 4382SOL     OW24604   1.402   1.719   6.913 -0.2827 -0.1468 -0.4968
 4382SOL    HW124605   1.366   1.775   6.982  0.6276 -0.8058  0.5125
 4382SOL    HW224606   1.383   1.632   6.948  0.7255  0.1835  0.8743
 4383SOL     OW24607   1.713   4.564   3.202  0.2849  0.7679  0.6183
 4383SOL    HW124608   1.777   4.527   3.263 -0.2447  0.4401  0.9820
 4383SOL    HW224609   1.657   4.486   3.196 -0.3756  1.1265  2.0675
 4384SOL     OW24610   3.433   3.704   4.474  0.7450  0.3930 -0.1579
 4384SOL    HW124611   3.479   3.621   4.486 -0.2551  0.0651  1.3390
 4384SOL    HW224612   3.449   3.751   4.556  0.1854 -0.9002  0.6881
 4385SOL     OW24613   3.864   2.709   7.245 -0.5526 -0.1922  0.3118
 4385SOL    HW124614   3.856   2.711   7.150  1.6521  1.3069  0.1524
 4385SOL    HW224615   3.958   2.715   7.259 -0.5864  0.0753  0.4176
 4386SOL     OW24616   3.092   0.638   5.204 -0.1394  0.1149 -0.4460
 4386SOL    HW124617   3.108   0.732   5.210 -2.3672  0.4311  0.6510
 4386SOL    HW224618   3.016   0.629   5.147 -1.5334 -0.4850  1.4983
 4387SOL     OW24619   4.623   2.432   5.676  0.3948  0.0496 -0.0927
 4387SOL    HW124620   4.602   2.402   5.764  2.0026  0.5251  0.4639
 4387SOL    HW224621   4.651   2.522   5.695  0.1365 -0.1265  1.1007
 4388SOL     OW24622   3.148   1.359   1.610  0.8065 -0.4863  0.3939
 4388SOL    HW124623   3.062   1.359   1.569  0.9096  1.7136  0.1683
 4388SOL    HW224624   3.154   1.449   1.644 -0.2721 -0.3947  0.3485
 4389SOL     OW24625   2.548   0.351  11.643 -0.0260  0.3519  0.5262
 4389SOL    HW124626   2.508   0.437  11.652 -2.2669 -0.8401  2.0221
 4389SOL    HW224627   2.614   0.369  11.576  2.8882 -1.3495  2.9046
 4390SOL     OW24628   1.948   1.299   8.529  0.0887  0.1627 -0.2439
 4390SOL    HW124629   1.975   1.271   8.617  0.7025 -1.0089 -0.7984
 4390SOL    HW224630   2.018   1.262   8.474 -1.9160 -2.5727 -0.9892
 4391SOL     OW24631   1.216   4.316   4.504  0.3233 -0.0816  0.4351
 4391SOL    HW124632   1.305   4.345   4.520  0.0588  2.1561 -2.0525
 4391SOL    HW224633   1.214   4.321   4.408 -0.6454  0.5474  0.4806
 4392SOL     OW24634   3.100   1.564  14.007 -0.1512  0.1930  0.5585
 4392SOL    HW124635   3.076   1.626  14.076 -2.2580  0.9758 -0.8431
 4392SOL    HW224636   3.041   1.594  13.937  0.0308 -1.6144 -0.3760
 4393SOL     OW24637   4.524   0.910  10.291 -0.1873  0.2509  0.5092
 4393SOL    HW124638   4.436   0.892  10.323  0.0098 -0.6978  0.5023
 4393SOL    HW224639   4.503   0.940  10.203  0.5396  0.9756  0.5767
 4394SOL     OW24640   4.617   4.256   0.886  0.0350 -0.1133  0.2681
 4394SOL    HW124641   4.669   4.216   0.956 -0.3793 -0.0667  0.6048
 4394SOL    HW224642   4.529   4.249   0.923 -1.3711 -0.7579 -3.2461
 4395SOL     OW24643   4.200   3.884   2.377  0.4440  0.1827 -0.2596
 4395SOL    HW124644   4.288   3.909   2.348  0.5032 -0.5470 -0.7281
 4395SOL    HW224645   4.186   3.957   2.437 -0.2391  1.4787 -2.0193
 4396SOL     OW24646   0.529   4.122  14.525 -0.5429  0.1835  0.1184
 4396SOL    HW124647   0.546   4.034  14.557 -0.5545  0.2621  0.3393
 4396SOL    HW224648   0.584   4.177  14.582 -0.1121  1.1954 -1.2655
 4397SOL     OW24649   3.839   2.993   6.081  0.4209 -0.0168 -0.3441
 4397SOL    HW124650   3.788   3.000   6.163 -3.1719  1.5390 -2.7072
 4397SOL    HW224651   3.768   3.005   6.018 -0.2326  2.1608  0.8244
 4398SOL     OW24652   4.221   1.433   1.113 -0.1897  0.2282 -0.3362
 4398SOL    HW124653   4.190   1.397   1.196  1.9582 -1.9692 -0.4876
 4398SOL    HW224654   4.213   1.363   1.049  1.5736 -0.5770  0.3388
 4399SOL     OW24655   2.469   0.155  14.421  0.5734  0.9861 -0.0896
 4399SOL    HW124656   2.391   0.136  14.473  0.5086 -0.5295 -0.7499
 4399SOL    HW224657   2.435   0.140  14.333  1.9411 -0.5514 -0.3566
 4400SOL     OW24658   1.062   2.642   2.681 -0.0680  0.3176 -0.3284
 4400SOL    HW124659   1.031   2.631   2.591  0.4206 -2.1731 -0.1966
 4400SOL    HW224660   0.998   2.701   2.723 -2.1110 -2.5213  0.5587
 4401SOL     OW24661   2.736   2.075   9.411 -0.0123  0.3999  0.1584
 4401SOL    HW124662   2.709   1.985   9.429  1.5608  0.2295  1.5984
 4401SOL    HW224663   2.793   2.057   9.336  0.4235 -0.2586  0.6519
 4402SOL     OW24664   0.130   1.227   3.578  0.2687  0.0811 -0.1839
 4402SOL    HW124665   0.146   1.197   3.668 -1.5669 -2.3193 -0.6411
 4402SOL    HW224666   0.220   1.239   3.549 -0.1610 -0.5682 -1.7965
 4403SOL     OW24667   2.964   1.497   3.991 -0.0919  0.0274 -0.5195
 4403SOL    HW124668   2.931   1.520   4.078 -0.3979 -0.6638 -0.4516
 4403SOL    HW224669   3.041   1.446   4.019 -0.1542 -1.5182 -3.1458
 4404SOL     OW24670   1.940   2.935   2.510  0.5003  0.6357 -0.7399
 4404SOL    HW124671   1.967   3.004   2.450 -0.0570  1.7351  0.2668
 4404SOL    HW224672   1.966   2.858   2.459  0.0825 -0.8005  1.2326
 4405SOL     OW24673   3.242   0.134   7.283  0.3704 -0.0438  1.0774
 4405SOL    HW124674   3.283   0.071   7.341 -0.6902 -1.0667  0.7079
 4405SOL    HW224675   3.312   0.196   7.301  0.0441  1.0736 -1.4545
 4406SOL     OW24676   2.384   0.953   7.639  0.3969 -0.8137  0.1228
 4406SOL    HW124677   2.432   1.016   7.693 -0.8251 -1.9271  2.5271
 4406SOL    HW224678   2.435   0.875   7.661  0.6762 -0.7234 -0.1995
 4407SOL     OW24679   3.877   0.638   7.182  0.1371 -0.0392 -0.1537
 4407SOL    HW124680   3.801   0.585   7.158  0.8699 -1.0253 -0.3076
 4407SOL    HW224681   3.857   0.725   7.146  0.2421  0.2555  0.5056
 4408SOL     OW24682   4.372   3.277   8.218  0.0144 -0.5693  0.0231
 4408SOL    HW124683   4.456   3.302   8.180  0.9449 -0.4410  2.1991
 4408SOL    HW224684   4.400   3.258   8.307  0.5520  0.5995  0.1103
 4409SOL     OW24685   1.941   0.601   5.124 -0.5746  0.6125 -0.0044
 4409SOL    HW124686   1.845   0.600   5.128 -0.6129  4.0875 -0.0657
 4409SOL    HW224687   1.950   0.552   5.042 -2.4051 -2.8785  1.8627
 4410SOL     OW24688   2.947   2.939  15.388  0.2497  0.2788 -0.0819
 4410SOL    HW124689   3.022   2.998  15.381  0.2811  0.1106 -1.1359
 4410SOL    HW224690   2.924   2.941  15.481  1.7916  0.6918  0.2876
 4411SOL     OW24691   3.584   4.362   0.373  0.2768  0.0009  0.2562
 4411SOL    HW124692   3.517   4.339   0.438 -0.4364  0.1965 -0.4158
 4411SOL    HW224693   3.647   4.291   0.390  1.8497  1.1721 -0.6618
 4412SOL     OW24694   4.330   0.030   4.603  0.2945 -0.3821 -0.0445
 4412SOL    HW124695   4.418   0.061   4.580 -0.3061  0.3710 -1.3420
 4412SOL    HW224696   4.311   0.095   4.671  0.5384 -0.6788  0.3080
 4413SOL     OW24697   2.374   1.785   9.342  0.6748 -0.1153 -0.7538
 4413SOL    HW124698   2.347   1.744   9.424  3.4483 -1.4601 -0.5138
 4413SOL    HW224699   2.300   1.843   9.324  1.1190  0.4429 -0.7909
 4414SOL     OW24700   2.986   2.561   0.056  0.1372  0.4008  0.6322
 4414SOL    HW124701   3.055   2.551  17.688 -0.2824 -1.2071  0.4145
 4414SOL    HW224702   3.014   2.504   0.127 -2.2065 -2.3278 -0.5981
 4415SOL     OW24703   2.782   1.834   3.139 -0.3513 -0.2408 -0.3848
 4415SOL    HW124704   2.830   1.751   3.140  2.8092  1.6186  0.2836
 4415SOL    HW224705   2.819   1.881   3.213 -1.2266  0.9375 -0.6898
 4416SOL     OW24706   1.075   4.038   1.849 -0.5579 -0.0492  0.1842
 4416SOL    HW124707   1.146   4.088   1.810 -0.6889 -0.7472 -0.9582
 4416SOL    HW224708   1.012   4.048   1.778 -0.9556 -1.3474  0.3400
 4417SOL     OW24709   3.225   0.554  14.447 -0.4197 -0.3187 -0.0946
 4417SOL    HW124710   3.151   0.514  14.401  0.6038 -1.1825 -1.0050
 4417SOL    HW224711   3.294   0.503  14.404 -0.4336  1.0686 -1.7464
 4418SOL     OW24712   2.758   1.469   9.265  0.4665 -0.1086  0.0469
 4418SOL    HW124713   2.664   1.467   9.282  0.8360  3.4341  2.6801
 4418SOL    HW224714   2.773   1.564   9.259  1.6833 -0.2706  0.5615
 4419SOL     OW24715   2.609   4.401   9.064 -0.8634 -0.4823 -0.0055
 4419SOL    HW124716   2.617   4.460   8.989 -1.8487  0.6708  0.7937
 4419SOL    HW224717   2.600   4.311   9.032  2.0761 -1.6182  2.3788
 4420SOL     OW24718   3.035   0.549   8.256  0.0054  0.0273 -0.5727
 4420SOL    HW124719   3.074   0.577   8.339  2.3073 -0.5195 -1.4729
 4420SOL    HW224720   2.966   0.613   8.240 -0.4354 -0.1977  0.4323
 4421SOL     OW24721   1.214   0.269  11.904 -0.1114 -0.0833 -0.4409
 4421SOL    HW124722   1.226   0.286  11.810 -1.9679  0.0056 -0.6751
 4421SOL    HW224723   1.296   0.232  11.935  0.0403  1.9379  1.6260
 4422SOL     OW24724   0.676   0.610   8.569 -0.1932 -0.2798 -0.0975
 4422SOL    HW124725   0.642   0.579   8.485 -0.1050  2.7535 -1.2467
 4422SOL    HW224726   0.628   0.690   8.588 -0.3862 -0.7089  1.3033
 4423SOL     OW24727   2.421   3.655  12.572 -0.0222  0.5235  0.0298
 4423SOL    HW124728   2.500   3.672  12.522  2.2497 -3.0903  2.4140
 4423SOL    HW224729   2.440   3.584  12.634  0.5423 -0.4882 -1.3077
 4424SOL     OW24730   4.127   2.477   5.935  0.1254  0.4230 -0.3733
 4424SOL    HW124731   4.113   2.382   5.931  0.0398  0.4266 -0.1931
 4424SOL    HW224732   4.098   2.481   6.026 -1.6505  0.0267 -0.9281
 4425SOL     OW24733   2.764   0.090   8.602 -0.5206 -0.4190 -0.0119
 4425SOL    HW124734   2.787   0.049   8.686  0.5070  0.5755  0.1917
 4425SOL    HW224735   2.814   0.172   8.605  1.7179 -1.7242 -2.3946
 4426SOL     OW24736   3.585   0.112  14.625  0.2049 -0.4623  0.1140
 4426SOL    HW124737   3.541   0.047  14.569  0.2193 -2.4884  2.4403
 4426SOL    HW224738   3.671   0.119  14.585  0.6218 -2.4471  0.6293
 4427SOL     OW24739   3.583   1.523   0.467 -0.3428 -0.1046  0.0356
 4427SOL    HW124740   3.619   1.591   0.411  3.0333 -3.5699 -2.0502
 4427SOL    HW224741   3.607   1.547   0.557 -1.5098 -1.1868  0.6307
 4428SOL     OW24742   4.021   0.893   9.205 -0.0146 -0.0572  0.3238
 4428SOL    HW124743   3.965   0.818   9.185  1.0369 -0.3207 -1.6771
 4428SOL    HW224744   4.027   0.883   9.300  2.8632  0.4694  0.2126
 4429SOL     OW24745   1.100   4.665   4.590  0.7561  1.1078 -0.6200
 4429SOL    HW124746   1.191   4.689   4.569 -0.3612  2.8591 -3.4020
 4429SOL    HW224747   1.107   4.601   4.661  0.2253 -0.1457 -1.6933
 4430SOL     OW24748   4.387   2.196   0.046 -0.6179 -0.1889  0.1750
 4430SOL    HW124749   4.438   2.116   0.052 -2.4955 -1.3717  0.4194
 4430SOL    HW224750   4.431   2.245   0.116 -2.5778  1.7693  0.0310
 4431SOL     OW24751   3.074   0.736   1.958  0.9342 -0.1383  0.9776
 4431SOL    HW124752   3.165   0.709   1.949  1.0823 -0.1238  2.3666
 4431SOL    HW224753   3.051   0.765   1.870  1.6743 -0.0990  0.8052
 4432SOL     OW24754   2.716   4.188  10.049 -0.0381  0.6328 -0.2570
 4432SOL    HW124755   2.635   4.189   9.998 -2.4991 -1.1776  3.6481
 4432SOL    HW224756   2.689   4.243  10.122 -1.0024  1.6856 -1.4003
 4433SOL     OW24757   3.692   2.728  14.980 -0.6036  0.3542  0.1292
 4433SOL    HW124758   3.693   2.733  14.885  0.1615  1.0699  0.1733
 4433SOL    HW224759   3.624   2.795  14.994 -0.7474 -0.1953  2.1652
 4434SOL     OW24760   0.151   1.905   8.269 -0.1286  0.1272 -0.2317
 4434SOL    HW124761   0.179   1.958   8.343  0.9240  0.8392 -1.1299
 4434SOL    HW224762   0.229   1.854   8.246  0.5234  1.1860 -0.3822
 4435SOL     OW24763   2.526   0.999   6.124 -0.3028 -0.2815  0.1480
 4435SOL    HW124764   2.442   1.034   6.095 -0.3071  0.5872  1.2119
 4435SOL    HW224765   2.583   0.990   6.048  2.9580  0.3585  2.4998
 4436SOL     OW24766   4.372   3.956   6.749  0.1706 -0.2457  0.1806
 4436SOL    HW124767   4.376   3.972   6.843 -0.1883  0.7882  0.0145
 4436SOL    HW224768   4.390   3.862   6.756 -1.9533 -0.9198 -3.0075
 4437SOL     OW24769   4.427   2.587   1.139 -0.4030  0.6634  0.2700
 4437SOL    HW124770   4.401   2.521   1.203 -0.6791  1.4399  0.9674
 4437SOL    HW224771   4.488   2.636   1.194  2.1551 -2.3818  0.1273
 4438SOL     OW24772   0.814   3.326   4.978  0.6531 -0.2244  0.3065
 4438SOL    HW124773   0.895   3.277   4.980 -0.1488 -1.5962 -0.8320
 4438SOL    HW224774   0.802   3.361   4.889  2.4707 -1.1197 -0.2901
 4439SOL     OW24775   3.386   3.786  10.770 -0.8406 -0.3460 -0.7629
 4439SOL    HW124776   3.316   3.788  10.704 -0.5449  2.5264 -0.9799
 4439SOL    HW224777   3.440   3.858  10.736 -2.0543  1.0172  0.2142
 4440SOL     OW24778   4.537   0.896   8.110 -0.1191 -0.0584 -0.2166
 4440SOL    HW124779   4.523   0.867   8.019 -3.2245 -0.5166  0.4141
 4440SOL    HW224780   4.575   0.983   8.099 -1.8391  0.6344 -0.7181
 4441SOL     OW24781   1.204   4.530   6.869 -0.2055  0.0694 -0.4109
 4441SOL    HW124782   1.293   4.493   6.873 -0.3290 -0.4301 -2.3385
 4441SOL    HW224783   1.154   4.462   6.823 -0.3877 -0.4151  0.4915
 4442SOL     OW24784   0.581   1.562   6.711 -0.1307 -0.3865  0.1471
 4442SOL    HW124785   0.515   1.565   6.641  0.7961  1.8882 -0.6369
 4442SOL    HW224786   0.563   1.479   6.755 -1.1642 -0.4469 -0.3762
 4443SOL     OW24787   4.148   1.887   0.879 -0.3380 -0.2818  0.3534
 4443SOL    HW124788   4.119   1.946   0.810  0.8400  0.1905  0.2622
 4443SOL    HW224789   4.232   1.926   0.903 -0.4039  0.8125 -1.2605
 4444SOL     OW24790   1.162   1.541   7.051  0.4523  0.6106  0.0541
 4444SOL    HW124791   1.168   1.473   7.117  0.0301  1.3274  0.8217
 4444SOL    HW224792   1.076   1.577   7.072  0.2205  0.6808 -1.0015
 4445SOL     OW24793   3.511   1.905  12.907  0.0552 -0.4778  0.2406
 4445SOL    HW124794   3.565   1.855  12.968 -0.6210  0.9351  1.9885
 4445SOL    HW224795   3.576   1.972  12.887 -0.9292  0.2998 -0.3795
 4446SOL     OW24796   3.968   1.817   7.086  0.1022  0.1195 -0.0592
 4446SOL    HW124797   3.948   1.870   7.009  0.5355 -2.5086 -1.9778
 4446SOL    HW224798   4.062   1.807   7.072  0.4644  1.2117  1.5208
 4447SOL     OW24799   3.410   0.172   8.346 -0.1018  0.7300  0.4258
 4447SOL    HW124800   3.478   0.190   8.412  1.5864 -0.6413 -0.9400
 4447SOL    HW224801   3.443   0.223   8.273  0.5659 -2.0138 -1.2040
 4448SOL     OW24802   4.432   2.509   2.595 -0.3439 -0.1738 -0.0308
 4448SOL    HW124803   4.417   2.599   2.625  1.0381  0.2845 -0.6781
 4448SOL    HW224804   4.427   2.455   2.674 -0.8091 -1.1904 -0.7587
 4449SOL     OW24805   3.667   4.066  11.476 -0.4292 -0.5552 -0.2706
 4449SOL    HW124806   3.591   4.098  11.427 -1.2039  0.9492  1.9080
 4449SOL    HW224807   3.731   4.040  11.410  0.7382  3.0852 -0.5194
 4450SOL     OW24808   4.228   0.619  10.269  0.7922  0.2718 -0.5530
 4450SOL    HW124809   4.258   0.548  10.213 -0.3896  1.0088 -2.1199
 4450SOL    HW224810   4.297   0.609  10.335 -0.5297  0.2973  0.8375
 4451SOL     OW24811   3.005   2.060  17.115 -0.0911  0.0134 -0.7853
 4451SOL    HW124812   3.068   1.987  17.117 -0.2595 -0.1207 -0.2054
 4451SOL    HW224813   3.044   2.116  17.182 -2.0984  1.6709 -1.0126
 4452SOL     OW24814   3.871   1.155   8.119 -0.7316  0.5610  0.0143
 4452SOL    HW124815   3.928   1.078   8.119 -0.8306  0.4843  1.5410
 4452SOL    HW224816   3.924   1.229   8.149 -1.5708  0.7879  0.9385
 4453SOL     OW24817   4.465   1.279   4.105  0.3182  0.2534 -0.2365
 4453SOL    HW124818   4.375   1.303   4.129 -0.3334 -1.8903 -0.6155
 4453SOL    HW224819   4.513   1.361   4.116  0.7786  0.0768 -0.9425
 4454SOL     OW24820   3.209   1.808   5.676 -0.2429  0.4542  0.0671
 4454SOL    HW124821   3.303   1.810   5.694 -0.0167 -1.2595 -0.9243
 4454SOL    HW224822   3.202   1.903   5.684 -0.9156  0.4012  0.1674
 4455SOL     OW24823   3.924   2.892   5.294  0.2414 -0.3471  0.9896
 4455SOL    HW124824   3.898   2.954   5.362 -0.0190  0.4611  0.1530
 4455SOL    HW224825   3.949   2.818   5.349  0.2234 -0.5123  0.7797
 4456SOL     OW24826   1.256   2.876   4.018  0.1770  0.0050 -0.3146
 4456SOL    HW124827   1.241   2.782   4.025 -0.6014 -0.1209 -3.5985
 4456SOL    HW224828   1.338   2.883   4.066 -0.0400 -0.2824  0.1054
 4457SOL     OW24829   0.123   2.315   5.529 -0.5937 -0.9031 -0.2436
 4457SOL    HW124830   0.080   2.354   5.605  3.3856 -0.8619  1.9687
 4457SOL    HW224831   0.091   2.376   5.463  1.6062  0.8129  0.3081
 4458SOL     OW24832   1.341   0.830   8.071 -1.1671 -0.6753 -0.0203
 4458SOL    HW124833   1.432   0.819   8.099 -1.4291 -0.0696  1.0932
 4458SOL    HW224834   1.330   0.920   8.104 -0.8151  0.0899 -2.0172
 4459SOL     OW24835   2.685   1.486   8.377 -0.5042 -0.3020  0.1134
 4459SOL    HW124836   2.634   1.415   8.416  0.0147 -0.8766 -0.2653
 4459SOL    HW224837   2.739   1.523   8.446 -0.8434  2.2055 -0.9458
 4460SOL     OW24838   2.960   0.206   7.073  0.0768 -0.2881 -0.1036
 4460SOL    HW124839   2.916   0.199   7.158 -2.5166 -1.3059 -1.5471
 4460SOL    HW224840   2.948   0.300   7.056  0.8739 -0.0686  0.5502
 4461SOL     OW24841   1.338   2.665   9.025 -0.5234  0.0774  0.3537
 4461SOL    HW124842   1.398   2.593   9.041 -0.0340  0.2600 -0.7008
 4461SOL    HW224843   1.305   2.642   8.938 -0.1746  0.3866  0.1367
 4462SOL     OW24844   3.823   4.042   2.631 -0.4382 -0.0463 -0.2673
 4462SOL    HW124845   3.836   4.002   2.545  1.0092  1.6621 -0.8246
 4462SOL    HW224846   3.751   3.993   2.671 -0.6587 -0.6354 -1.3895
 4463SOL     OW24847   2.009   1.499  14.556 -0.1707 -0.2163  0.2879
 4463SOL    HW124848   1.962   1.446  14.491  1.5697 -0.8250 -0.4828
 4463SOL    HW224849   2.072   1.538  14.495 -0.1350 -0.1334  0.3778
 4464SOL     OW24850   2.479   0.100   3.066  0.1986  0.2776 -0.6691
 4464SOL    HW124851   2.572   0.090   3.050  1.1331  3.0945  3.2132
 4464SOL    HW224852   2.472   0.173   3.127 -2.0460 -1.2316  0.8844
 4465SOL     OW24853   4.337   4.468   8.255  0.1975 -0.2754 -0.1044
 4465SOL    HW124854   4.394   4.519   8.198  0.2341 -1.5549 -1.2214
 4465SOL    HW224855   4.264   4.529   8.266 -0.3339 -0.4534 -2.5692
 4466SOL     OW24856   1.574   1.262  13.686 -0.0631 -0.2411 -0.5868
 4466SOL    HW124857   1.583   1.358  13.684  1.9998 -0.4458 -0.4181
 4466SOL    HW224858   1.506   1.249  13.620 -2.3588  3.9379  0.9072
 4467SOL     OW24859   4.230   0.754   2.609  0.3171 -0.3288 -0.1853
 4467SOL    HW124860   4.305   0.732   2.664  1.0348 -0.6250 -1.2994
 4467SOL    HW224861   4.190   0.818   2.669  1.1919 -0.1591  0.2150
 4468SOL     OW24862   2.206   4.614   8.587  0.0565  0.0774 -0.2386
 4468SOL    HW124863   2.231   4.602   8.495  3.1732  1.5471  0.4247
 4468SOL    HW224864   2.267   4.552   8.626 -1.6082 -0.6291  1.2713
 4469SOL     OW24865   3.256   1.490   2.313  0.0670  0.0616 -0.1988
 4469SOL    HW124866   3.348   1.515   2.316 -0.0638  0.6249 -0.8610
 4469SOL    HW224867   3.232   1.510   2.403  0.2426 -3.0017  0.5373
 4470SOL     OW24868   2.316   2.206   7.613 -0.1063  0.3629  0.1430
 4470SOL    HW124869   2.397   2.217   7.662  0.5510 -1.7026 -0.4738
 4470SOL    HW224870   2.271   2.178   7.692  0.0646 -0.5227 -0.0683
 4471SOL     OW24871   2.069   1.888   7.406  0.1436 -0.2226  0.0322
 4471SOL    HW124872   2.039   1.954   7.468  2.2363 -0.0189  0.8592
 4471SOL    HW224873   1.995   1.829   7.421  1.2452 -1.0158  2.4049
 4472SOL     OW24874   3.823   2.852   3.137  0.1957 -0.0004  0.3295
 4472SOL    HW124875   3.797   2.798   3.063  0.3744 -0.1513  0.3758
 4472SOL    HW224876   3.917   2.844   3.123  0.4125  0.6489  1.4323
 4473SOL     OW24877   0.688   1.146   3.341  0.6210 -0.4417  0.0920
 4473SOL    HW124878   0.729   1.067   3.305  2.2689  0.5614 -0.2016
 4473SOL    HW224879   0.653   1.112   3.424 -1.6610 -0.4174 -0.8523
 4474SOL     OW24880   0.699   3.634   7.342  0.0195 -0.0061  0.5402
 4474SOL    HW124881   0.675   3.651   7.251  0.8398 -0.2157  0.2790
 4474SOL    HW224882   0.779   3.686   7.342  0.5285 -0.8156 -1.4755
 4475SOL     OW24883   1.980   0.600   8.478 -0.2017  0.2790  0.0874
 4475SOL    HW124884   1.903   0.549   8.450 -0.4990  0.3992  0.6915
 4475SOL    HW224885   2.034   0.593   8.399  3.0382 -4.2492  2.7074
 4476SOL     OW24886   2.542   3.014  10.360 -0.1833 -0.4473  0.0720
 4476SOL    HW124887   2.617   2.955  10.371 -0.1099 -0.4865 -0.6493
 4476SOL    HW224888   2.580   3.101  10.367  1.7347 -1.2082 -0.9660
 4477SOL     OW24889   4.529   2.157  14.234 -0.4135  0.6768  0.6746
 4477SOL    HW124890   4.459   2.211  14.198 -0.1113 -0.0640 -1.0281
 4477SOL    HW224891   4.490   2.070  14.236 -1.1316  0.9741 -0.5385
 4478SOL     OW24892   1.077   2.591   3.276 -0.0918  0.2935  0.4539
 4478SOL    HW124893   1.077   2.516   3.216 -1.4145  1.1700 -0.6475
 4478SOL    HW224894   1.129   2.659   3.233  1.1471 -0.3909  0.8785
 4479SOL     OW24895   2.135   4.351   0.038 -0.0438  0.5315 -0.4856
 4479SOL    HW124896   2.158   4.258   0.044  1.6720  0.7749 -2.8606
 4479SOL    HW224897   2.218   4.387   0.072  1.5045 -3.5829  0.1404
 4480SOL     OW24898   4.083   2.987  11.988 -0.2826 -0.2094 -0.1114
 4480SOL    HW124899   4.054   2.897  11.996 -0.0234 -0.4433 -1.9308
 4480SOL    HW224900   4.013   3.029  12.039 -1.3127  0.7218 -2.3236
 4481SOL     OW24901   1.952   1.996   5.055 -0.3536 -0.1453  0.0446
 4481SOL    HW124902   2.027   2.032   5.008 -0.4350 -0.2031 -0.1316
 4481SOL    HW224903   1.991   1.932   5.115  0.8921  0.8058  0.2285
 4482SOL     OW24904   3.566   1.191   0.187  0.0673  0.1179  0.0898
 4482SOL    HW124905   3.505   1.201   0.261 -0.2059  0.3474 -0.1675
 4482SOL    HW224906   3.638   1.244   0.220 -0.5516 -0.3382  2.1796
 4483SOL     OW24907   1.740   0.853   1.768 -0.3966  0.2049 -0.0393
 4483SOL    HW124908   1.697   0.933   1.799 -2.8022 -0.9990 -0.2004
 4483SOL    HW224909   1.765   0.896   1.687 -0.5914 -0.0550 -0.2383
 4484SOL     OW24910   4.174   3.989   7.250 -0.2039  0.0311 -0.3317
 4484SOL    HW124911   4.117   4.002   7.326 -0.2665  2.4608 -0.8030
 4484SOL    HW224912   4.199   4.080   7.237  1.0128 -0.1677  0.5770
 4485SOL     OW24913   0.835   3.123   2.012 -0.5060 -0.3224  0.0328
 4485SOL    HW124914   0.872   3.035   2.021  2.3817  0.8003 -0.9440
 4485SOL    HW224915   0.744   3.109   1.984 -0.6139 -0.9717  0.7024
 4486SOL     OW24916   0.679   1.816   2.139 -0.0349  0.0516  0.3018
 4486SOL    HW124917   0.746   1.857   2.193  2.6610 -0.8605 -2.3581
 4486SOL    HW224918   0.613   1.883   2.122 -1.4363 -1.2114  0.7592
 4487SOL     OW24919   1.860   3.123   8.812  0.0450  0.1874 -0.1219
 4487SOL    HW124920   1.798   3.059   8.779  0.8111 -1.5601  1.8332
 4487SOL    HW224921   1.893   3.167   8.733 -1.5576 -0.2661 -1.0301
 4488SOL     OW24922   2.746   4.512   6.267 -0.0165 -0.0996 -0.4937
 4488SOL    HW124923   2.750   4.539   6.359 -1.7155  0.6512 -0.6386
 4488SOL    HW224924   2.690   4.575   6.222  1.7219  0.6789 -1.5351
 4489SOL     OW24925   3.117   3.930   7.422 -0.0568  0.4492  0.0107
 4489SOL    HW124926   3.157   3.998   7.369  1.4830  1.5339  2.5695
 4489SOL    HW224927   3.160   3.943   7.507  2.5751 -2.3846 -0.8832
 4490SOL     OW24928   1.777   0.436   5.903 -0.0388 -1.0720  0.2792
 4490SOL    HW124929   1.710   0.377   5.938  1.9909 -2.7134  1.4128
 4490SOL    HW224930   1.705   0.481   5.859 -0.7073 -2.7684 -0.3591
 4491SOL     OW24931   1.000   0.758   5.928  0.7923 -0.4059 -0.0348
 4491SOL    HW124932   1.018   0.708   5.849 -1.2632 -1.1533 -0.0186
 4491SOL    HW224933   1.088   0.774   5.963  0.6649  0.4987 -0.1245
 4492SOL     OW24934   0.281   0.854   7.273  0.6683 -0.5386 -0.0239
 4492SOL    HW124935   0.319   0.916   7.210 -1.7305 -0.1859 -1.1656
 4492SOL    HW224936   0.349   0.874   7.336  1.9119 -2.5611 -0.7547
 4493SOL     OW24937   0.841   0.090   3.286 -0.0993  0.6094 -0.0796
 4493SOL    HW124938   0.901   0.032   3.334  1.2452  0.5358 -1.8410
 4493SOL    HW224939   0.894   0.129   3.216  0.2772  0.6489  0.2285
 4494SOL     OW24940   3.986   4.191   4.540 -0.5103 -0.0897 -0.0276
 4494SOL    HW124941   3.933   4.200   4.461 -1.6277  2.1713  0.9852
 4494SOL    HW224942   3.946   4.253   4.601  0.9520 -0.2021  1.0456
 4495SOL     OW24943   2.328   4.360   8.712  0.2829  0.1318  0.4341
 4495SOL    HW124944   2.308   4.320   8.628 -0.1795  2.1388 -0.4101
 4495SOL    HW224945   2.241   4.346   8.749 -0.5496  1.4432 -1.0055
 4496SOL     OW24946   2.254   0.925   2.894 -0.0143  0.2729 -0.7968
 4496SOL    HW124947   2.279   1.017   2.885 -2.7577  0.9115 -1.8879
 4496SOL    HW224948   2.177   0.932   2.949 -0.6495 -3.9565 -1.1526
 4497SOL     OW24949   0.515   1.845   0.592  0.3141  0.2419  0.1651
 4497SOL    HW124950   0.421   1.864   0.591  0.1824 -0.3560  2.3279
 4497SOL    HW224951   0.504   1.785   0.518  1.5456 -0.3412  0.4655
 4498SOL     OW24952   3.715   0.316   7.938 -0.3059 -0.2764 -0.1422
 4498SOL    HW124953   3.804   0.350   7.937  0.7235 -2.8837  1.9481
 4498SOL    HW224954   3.714   0.250   7.868  1.2887 -0.4800  0.0468
 4499SOL     OW24955   2.865   2.424   5.636  0.6072 -0.0116  0.3058
 4499SOL    HW124956   2.801   2.439   5.705  0.7633  1.0244  0.2251
 4499SOL    HW224957   2.902   2.343   5.671 -0.4481 -0.9261 -0.7072
 4500SOL     OW24958   4.628   3.375   7.706 -0.5229  0.3095  0.0180
 4500SOL    HW124959   4.590   3.340   7.626  1.1072  1.3237 -1.2057
 4500SOL    HW224960   4.688   3.302   7.724 -1.5608 -0.8652 -1.3311
 4501SOL     OW24961   2.756   4.122   4.016 -0.5133 -0.1334 -0.0514
 4501SOL    HW124962   2.745   4.084   3.929  1.6165  2.6995 -1.5683
 4501SOL    HW224963   2.841   4.084   4.038 -1.1645 -0.2620  2.2054
 4502SOL     OW24964   2.429   0.989   5.313  0.3006 -0.4146  0.0855
 4502SOL    HW124965   2.367   1.060   5.332 -0.3070 -0.4234 -1.9043
 4502SOL    HW224966   2.402   0.969   5.224  1.7281  1.6320 -0.7781
 4503SOL     OW24967   0.821   2.318  12.750 -0.9070  0.4238  0.3864
 4503SOL    HW124968   0.886   2.283  12.810  0.3644  1.3003 -0.4725
 4503SOL    HW224969   0.770   2.240  12.729 -0.0129 -0.4210  1.3461
 4504SOL     OW24970   1.979   3.673   7.277  0.0809  0.4775  0.1281
 4504SOL    HW124971   1.884   3.670   7.271  0.0142 -0.3068  1.6371
 4504SOL    HW224972   1.996   3.759   7.314  1.0508  0.5710 -0.5282
 4505SOL     OW24973   1.472   0.072   8.036 -0.4565  0.1285 -0.1175
 4505SOL    HW124974   1.486   0.149   8.090 -0.3579  1.5191 -2.1329
 4505SOL    HW224975   1.399   0.038   8.089 -1.6546  0.8245 -1.3069
 4506SOL     OW24976   2.889   1.535   5.508  0.4308  0.2044 -0.3104
 4506SOL    HW124977   2.875   1.614   5.561 -1.3868 -1.6001  1.8723
 4506SOL    HW224978   2.952   1.583   5.454 -0.9890  0.8759 -1.3858
 4507SOL     OW24979   0.554   3.598  13.876 -0.1301 -0.4057 -0.3319
 4507SOL    HW124980   0.467   3.607  13.916  0.7587  0.4453  1.4023
 4507SOL    HW224981   0.600   3.591  13.959  0.9180  0.2504 -0.8502
 4508SOL     OW24982   4.079   2.441   6.920 -0.1046  0.4430  0.6789
 4508SOL    HW124983   4.165   2.481   6.914 -0.3845  1.1030  1.0594
 4508SOL    HW224984   4.030   2.496   6.859  0.6045 -0.8544 -1.0827
 4509SOL     OW24985   4.183   3.301  11.495 -0.1458 -0.4667  0.8316
 4509SOL    HW124986   4.167   3.319  11.587 -1.8674 -0.8611  0.6045
 4509SOL    HW224987   4.232   3.219  11.495  0.4066 -0.1348  0.6004
 4510SOL     OW24988   0.911   1.196   6.864 -0.0152 -0.1072 -0.2089
 4510SOL    HW124989   0.900   1.282   6.905  0.4660  0.6093 -1.5972
 4510SOL    HW224990   0.821   1.168   6.845 -0.0390 -1.5233  2.0635
 4511SOL     OW24991   3.253   1.505   5.355  0.2199 -0.3209 -0.7700
 4511SOL    HW124992   3.300   1.422   5.367  0.9410  0.5091  2.1247
 4511SOL    HW224993   3.308   1.537   5.283  1.6772  0.5485  0.7090
 4512SOL     OW24994   3.976   3.715   9.733 -0.2801 -0.7874  0.4792
 4512SOL    HW124995   3.943   3.795   9.693  2.9143 -1.0854 -2.7959
 4512SOL    HW224996   3.936   3.711   9.820 -0.2346 -1.9123  0.4522
 4513SOL     OW24997   2.777   3.886   6.788 -0.4993  0.3134  0.0644
 4513SOL    HW124998   2.836   3.819   6.753 -0.3078  0.9916 -0.9059
 4513SOL    HW224999   2.823   3.970   6.775 -0.3684  0.2366  0.0293
 4514SOL     OW25000   3.311   3.241  10.089  0.0277  0.4129  0.4722
 4514SOL    HW125001   3.319   3.157  10.044 -1.2311  0.6039 -0.1044
 4514SOL    HW225002   3.390   3.287  10.062  0.7003 -0.0526  1.6023
 4515SOL     OW25003   3.177   1.427   6.519 -0.0546  0.3114  0.1820
 4515SOL    HW125004   3.214   1.344   6.547  2.5219  1.4730  0.1892
 4515SOL    HW225005   3.245   1.473   6.470 -1.4320  0.4143 -1.6525
 4516SOL     OW25006   1.852   3.997   2.836  0.2044 -0.0335 -0.1563
 4516SOL    HW125007   1.902   4.077   2.853  0.5510 -0.5292  1.1790
 4516SOL    HW225008   1.923   3.939   2.861  0.1483  0.0239  0.1399
 4517SOL     OW25009   1.328   4.000  16.739 -0.7811  1.0214  0.1838
 4517SOL    HW125010   1.384   4.024  16.666 -0.4657 -0.4053 -0.0580
 4517SOL    HW225011   1.265   4.071  16.746 -0.1815  1.6623 -0.9601
 4518SOL     OW25012   2.488   0.122   3.702  0.2361 -0.6585 -0.1753
 4518SOL    HW125013   2.496   0.089   3.613  1.9780  0.1093 -0.3122
 4518SOL    HW225014   2.474   0.041   3.750 -0.9657 -0.5580 -0.3734
 4519SOL     OW25015   2.688   3.554   5.948  0.5080  0.3155 -0.1925
 4519SOL    HW125016   2.718   3.560   5.857  2.5349  0.6125  0.4962
 4519SOL    HW225017   2.619   3.620   5.951 -0.4361 -0.6895  0.2515
 4520SOL     OW25018   4.630   3.599   4.724 -0.1275  0.3216 -0.6851
 4520SOL    HW125019   4.542   3.564   4.717  0.1573 -0.8390  1.5206
 4520SOL    HW225020   4.620   3.638   4.811 -0.3941 -0.0191 -0.5619
 4521SOL     OW25021   1.954   2.822   8.416  0.0415  0.0441 -0.0549
 4521SOL    HW125022   1.947   2.777   8.500  1.4071  2.3701  1.2723
 4521SOL    HW225023   1.986   2.760   8.350 -0.1632 -0.6867  0.5332
 4522SOL     OW25024   3.769   4.681  17.131  0.4115 -0.4144 -1.2054
 4522SOL    HW125025   3.697   4.621  17.152  0.4404  0.4431  1.4028
 4522SOL    HW225026   3.738   0.037  17.173  1.9582  0.3082 -1.4044
 4523SOL     OW25027   1.012   1.052   8.778 -0.0031 -0.2897  0.0190
 4523SOL    HW125028   1.028   0.958   8.771 -0.4944 -0.4620  1.2247
 4523SOL    HW225029   1.093   1.087   8.815 -0.0696  0.2135 -0.3183
 4524SOL     OW25030   1.169   0.021   3.676 -0.3040 -0.1926 -0.2223
 4524SOL    HW125031   1.203   0.073   3.749 -0.0476 -0.0495 -0.4491
 4524SOL    HW225032   1.116   4.677   3.719  0.7375 -0.7356  0.2087
 4525SOL     OW25033   2.184   3.275   9.077  0.3532 -0.4708  0.2646
 4525SOL    HW125034   2.214   3.184   9.075  1.1767 -0.1778 -1.6597
 4525SOL    HW225035   2.254   3.318   9.126  0.5812 -0.8724  0.2912
 4526SOL     OW25036   3.898   1.556   7.828 -0.3801 -0.0602  0.3501
 4526SOL    HW125037   3.969   1.560   7.893 -2.6867 -0.8759  2.8993
 4526SOL    HW225038   3.941   1.601   7.755 -1.2268  0.5627  0.2375
 4527SOL     OW25039   1.836   0.835   0.953 -0.3403  0.5270 -0.5007
 4527SOL    HW125040   1.850   0.766   0.888 -0.6410  2.4462 -2.6091
 4527SOL    HW225041   1.909   0.895   0.943 -0.6795  1.1968  1.0560
 4528SOL     OW25042   2.055   1.319   8.211 -0.1268 -0.0857 -0.6382
 4528SOL    HW125043   1.960   1.309   8.200  0.0538 -2.2663 -0.2299
 4528SOL    HW225044   2.075   1.245   8.269  0.6869  0.4534 -0.2277
 4529SOL     OW25045   0.965   3.415   0.589  0.0145 -0.0750 -0.1541
 4529SOL    HW125046   0.977   3.413   0.494  0.2647 -0.4166 -0.1143
 4529SOL    HW225047   1.036   3.472   0.617 -0.0631 -0.2600  0.4381
 4530SOL     OW25048   3.224   1.866   4.387  0.0233  0.4520 -0.3344
 4530SOL    HW125049   3.241   1.833   4.476  0.6235 -0.4113 -0.7593
 4530SOL    HW225050   3.301   1.826   4.345 -0.3488 -2.0192  1.3158
 4531SOL     OW25051   0.309   3.531   6.129 -0.3227  0.1195 -0.5373
 4531SOL    HW125052   0.272   3.593   6.066 -2.6886 -1.6290 -0.8940
 4531SOL    HW225053   0.373   3.581   6.179 -1.1585  1.6898 -1.0510
 4532SOL     OW25054   2.106   0.297   8.628 -0.1318  0.5642  0.3297
 4532SOL    HW125055   2.038   0.358   8.657  1.5418  1.8065  1.6428
 4532SOL    HW225056   2.180   0.354   8.603 -0.4618  0.6155 -0.5338
 4533SOL     OW25057   3.325   4.411   1.994 -0.0898 -0.0744 -0.1212
 4533SOL    HW125058   3.409   4.445   1.962  1.1682 -1.8889  1.1917
 4533SOL    HW225059   3.346   4.319   1.976 -0.6505 -0.4801  1.2381
 4534SOL     OW25060   4.420   1.644   1.096  0.1226 -0.1503  0.3068
 4534SOL    HW125061   4.350   1.583   1.121 -1.7218  1.7481 -0.1934
 4534SOL    HW225062   4.494   1.585   1.101  0.0841 -0.2041  0.2409
 4535SOL     OW25063   2.202   3.522   8.609  0.2808 -0.5592  0.7312
 4535SOL    HW125064   2.263   3.465   8.563 -0.9432 -0.6336 -0.7911
 4535SOL    HW225065   2.154   3.465   8.669 -1.6894  1.0646  0.7102
 4536SOL     OW25066   0.119   4.701   6.407 -0.3673  0.0836  0.1340
 4536SOL    HW125067   0.043   0.034   6.415 -0.7640 -0.5388  0.8060
 4536SOL    HW225068   0.175   0.042   6.366  1.8075 -1.3471  0.8401
 4537SOL     OW25069   3.623   2.843   2.771  0.1300  0.0702 -0.3634
 4537SOL    HW125070   3.605   2.861   2.679 -0.4122  3.7631  0.4272
 4537SOL    HW225071   3.634   2.933   2.803  1.3083 -0.3394  0.3786
 4538SOL     OW25072   3.658   0.010   7.509 -0.3624  0.1935 -0.0224
 4538SOL    HW125073   3.720   0.033   7.440  1.2007 -0.1017  1.2840
 4538SOL    HW225074   3.702   0.030   7.592 -0.3838 -0.8880  0.2439
 4539SOL     OW25075   4.217   2.535   2.411  0.4595 -0.0830  0.9343
 4539SOL    HW125076   4.265   2.545   2.329  1.5275 -0.3989  1.5146
 4539SOL    HW225077   4.291   2.516   2.469  0.5118 -1.8871  0.2907
 4540SOL     OW25078   3.001   0.440   5.516  0.1192  0.3725  0.1348
 4540SOL    HW125079   2.986   0.375   5.447  2.1218 -1.0018  0.9815
 4540SOL    HW225080   2.915   0.479   5.531  0.4884  0.5617  1.7931
 4541SOL     OW25081   2.125   3.322   2.447 -0.1981 -0.3164  0.5762
 4541SOL    HW125082   2.176   3.401   2.465 -0.3494 -0.6482  2.4988
 4541SOL    HW225083   2.044   3.333   2.498  1.4581  1.1812  2.8596
 4542SOL     OW25084   0.876   0.308   7.185  0.2726 -0.0485  0.1547
 4542SOL    HW125085   0.882   0.331   7.278 -0.2088 -0.2463  0.2378
 4542SOL    HW225086   0.809   0.374   7.165 -1.8202 -2.7179 -1.6283
 4543SOL     OW25087   1.850   3.589  12.814 -0.2644  0.4183  0.7803
 4543SOL    HW125088   1.851   3.654  12.744  0.0458  0.1617  0.5507
 4543SOL    HW225089   1.937   3.551  12.803 -1.0335 -1.1665  0.1856
 4544SOL     OW25090   2.047   3.699   3.865 -0.3262  0.0154  0.3004
 4544SOL    HW125091   2.119   3.749   3.902 -0.8078 -0.6910  2.1822
 4544SOL    HW225092   2.010   3.654   3.941 -1.4179  0.6019  0.1087
 4545SOL     OW25093   2.430   1.026   9.049  0.3914 -0.0535  0.2562
 4545SOL    HW125094   2.345   1.011   9.090  0.3996 -0.2922  0.1854
 4545SOL    HW225095   2.445   1.118   9.071 -1.2188  0.5494 -1.2124
 4546SOL     OW25096   0.411   1.964   6.253  0.0289  0.1463  0.0115
 4546SOL    HW125097   0.373   2.038   6.299  2.0650  1.9074 -1.1793
 4546SOL    HW225098   0.389   1.985   6.163  1.5804 -1.7672 -0.8055
 4547SOL     OW25099   0.404   2.296   2.857 -0.3071  0.0308 -1.0864
 4547SOL    HW125100   0.415   2.294   2.762 -0.3277 -1.4551 -1.0441
 4547SOL    HW225101   0.336   2.361   2.874 -0.1442  0.4571 -2.0543
 4548SOL     OW25102   0.537   3.738   4.509  0.4693 -0.3326 -0.1086
 4548SOL    HW125103   0.463   3.769   4.560  1.1573 -0.4148  0.9508
 4548SOL    HW225104   0.510   3.752   4.419 -0.0960  2.2259  0.4379
 4549SOL     OW25105   1.445   0.791   4.014 -0.4138 -0.1665 -0.7749
 4549SOL    HW125106   1.474   0.769   4.102 -0.0752  1.9043 -0.3487
 4549SOL    HW225107   1.466   0.885   4.007 -1.0082  0.1427  1.7595
 4550SOL     OW25108   3.622   0.245   3.904  0.2490 -0.0378  0.3062
 4550SOL    HW125109   3.544   0.291   3.873 -0.0880 -0.8770 -0.0878
 4550SOL    HW225110   3.660   0.303   3.970  0.0040 -0.3193  0.6955
 4551SOL     OW25111   3.724   2.443   3.726  0.0952  0.2137 -0.1719
 4551SOL    HW125112   3.629   2.454   3.724  0.3013  1.7921 -0.9310
 4551SOL    HW225113   3.742   2.457   3.633  0.3096 -2.2614 -0.4993
 4552SOL     OW25114   4.464   0.406   1.411 -0.5357  0.0720  0.0395
 4552SOL    HW125115   4.525   0.451   1.470  0.2437 -0.1600 -0.5956
 4552SOL    HW225116   4.517   0.333   1.382 -1.4416 -1.9993  3.5574
 4553SOL     OW25117   0.728   4.267  13.388  0.3137 -0.4264  0.7585
 4553SOL    HW125118   0.693   4.213  13.316  0.6835 -0.6439  0.7409
 4553SOL    HW225119   0.767   4.340  13.340  1.0322 -0.7971  0.7737
 4554SOL     OW25120   0.011   4.577   6.088  0.2551  0.5045 -0.2012
 4554SOL    HW125121   0.044   4.497   6.047 -1.4307 -0.1139 -0.3197
 4554SOL    HW225122   0.005   4.620   6.003 -0.4671 -0.6061 -0.6997
 4555SOL     OW25123   2.436   3.802   9.032  0.2742 -0.5974 -0.0141
 4555SOL    HW125124   2.528   3.779   9.023  0.4451  0.2042 -0.2603
 4555SOL    HW225125   2.402   3.739   9.095  0.4489 -0.0499  0.6239
 4556SOL     OW25126   2.684   3.425   2.158  0.3242 -0.6079 -0.3153
 4556SOL    HW125127   2.599   3.432   2.115 -0.7272  0.5152  1.9621
 4556SOL    HW225128   2.745   3.417   2.084  1.6887  2.5342  0.4834
 4557SOL     OW25129   4.583   1.223   5.937 -0.4377 -0.0321  0.1453
 4557SOL    HW125130   4.574   1.156   6.005  0.0274 -0.3357 -0.0934
 4557SOL    HW225131   4.552   1.186   5.855  0.6243  0.2232 -0.3691
 4558SOL     OW25132   0.274   4.403   7.347 -0.0868  0.2943  0.0964
 4558SOL    HW125133   0.255   4.406   7.253 -0.0026 -2.0593 -0.0146
 4558SOL    HW225134   0.345   4.467   7.344  0.2748 -0.0016  2.9328
 4559SOL     OW25135   0.667   4.215  11.252 -0.7997  0.5755 -0.1794
 4559SOL    HW125136   0.648   4.220  11.159  0.2714  0.5364 -0.4047
 4559SOL    HW225137   0.594   4.161  11.279 -0.9445 -0.0994 -1.9354
 4560SOL     OW25138   3.529   2.013   2.364 -0.4885  0.7141 -0.2271
 4560SOL    HW125139   3.609   2.037   2.410  0.3642 -0.5013 -1.1109
 4560SOL    HW225140   3.539   2.082   2.298 -1.2502  0.6968 -0.3670
 4561SOL     OW25141   3.973   4.475   6.350 -0.5559 -0.4002 -0.3512
 4561SOL    HW125142   4.010   4.453   6.265  2.6254 -0.8824  1.1832
 4561SOL    HW225143   3.886   4.436   6.344 -0.9209 -0.0363  2.5317
 4562SOL     OW25144   0.495   4.610   3.260  0.7998 -0.0401 -0.6003
 4562SOL    HW125145   0.533   4.684   3.214 -0.5070  1.7834  1.2820
 4562SOL    HW225146   0.474   4.557   3.183 -2.7222  1.6379 -0.8015
 4563SOL     OW25147   4.552   4.027   4.367 -0.4040 -0.1578  0.0741
 4563SOL    HW125148   4.465   4.067   4.362  0.0119  0.7499  0.0172
 4563SOL    HW225149   4.525   3.941   4.397 -1.6071 -0.1201 -0.9170
 4564SOL     OW25150   2.733   0.698   7.897 -0.1423  0.0947 -0.1339
 4564SOL    HW125151   2.778   0.614   7.885  0.9488  0.8399 -1.2020
 4564SOL    HW225152   2.799   0.762   7.872 -1.4269  1.6774  0.5796
 4565SOL     OW25153   4.145   2.063   7.270 -0.3757 -0.1803  0.1122
 4565SOL    HW125154   4.150   1.981   7.319  0.2664  0.3245  0.8871
 4565SOL    HW225155   4.049   2.069   7.268 -0.3309  0.4747  0.1700
 4566SOL     OW25156   1.857   4.114   7.636  0.0522  0.2519 -0.3169
 4566SOL    HW125157   1.917   4.046   7.667 -1.9681 -1.1591  0.4943
 4566SOL    HW225158   1.830   4.143   7.723 -0.1654 -0.2479 -0.2168
 4567SOL     OW25159   1.839   2.810   7.739  0.2221 -0.9107 -0.2601
 4567SOL    HW125160   1.866   2.827   7.829  1.1398 -5.2658  0.3076
 4567SOL    HW225161   1.752   2.848   7.728  1.3603  1.3902 -1.1060
 4568SOL     OW25162   2.988   4.279  16.920 -0.0657  0.5569 -0.2514
 4568SOL    HW125163   3.040   4.246  16.847 -0.8843 -0.6589 -0.2911
 4568SOL    HW225164   3.024   4.366  16.934  2.7467 -0.2172 -2.6209
 4569SOL     OW25165   0.915   2.741   9.765  0.2743  0.1521 -0.0172
 4569SOL    HW125166   0.956   2.716   9.683  0.8804 -1.8566  0.9067
 4569SOL    HW225167   0.919   2.837   9.759  1.0138  0.0731 -0.7378
 4570SOL     OW25168   0.935   4.383   9.792 -0.3956  0.1765 -0.1697
 4570SOL    HW125169   0.877   4.457   9.772 -1.5186 -0.9964 -1.2531
 4570SOL    HW225170   0.943   4.387   9.887  2.0141  1.5673 -0.4162
 4571SOL     OW25171   1.296   1.082   4.397  0.5939 -0.2576 -0.7212
 4571SOL    HW125172   1.290   0.995   4.435 -1.2968 -0.0167 -0.4662
 4571SOL    HW225173   1.384   1.113   4.420  0.3446 -1.4683  1.8695
 4572SOL     OW25174   4.254   1.237   8.439 -1.0036  0.0049  0.7185
 4572SOL    HW125175   4.278   1.183   8.364 -1.9073  0.3438  0.1843
 4572SOL    HW225176   4.302   1.316   8.415  0.1707 -1.2111 -0.9216
 4573SOL     OW25177   1.185   4.258   3.456 -0.4332  0.0854 -0.4312
 4573SOL    HW125178   1.144   4.222   3.534  1.3294  0.1362  0.5164
 4573SOL    HW225179   1.271   4.285   3.489  0.0504 -0.9554 -0.8249
 4574SOL     OW25180   4.681   4.450   7.968  0.6891 -0.1659  0.0711
 4574SOL    HW125181   0.052   4.453   7.968  0.6011  2.1640 -0.2279
 4574SOL    HW225182   4.676   4.371   8.022 -1.8022 -0.9575 -1.2828
 4575SOL     OW25183   4.259   2.344  16.504  0.0885 -0.6382  0.1139
 4575SOL    HW125184   4.345   2.309  16.480 -0.3486 -2.9703  1.9930
 4575SOL    HW225185   4.269   2.435  16.474 -0.2377 -0.8134 -0.5271
 4576SOL     OW25186   3.260   0.453   5.063 -0.1746  0.2513 -0.8206
 4576SOL    HW125187   3.197   0.381   5.058  1.4171 -1.1293 -0.7993
 4576SOL    HW225188   3.213   0.525   5.107 -1.1285 -0.4805 -0.6288
 4577SOL     OW25189   0.714   1.765   2.863  0.4370  0.1295  0.2939
 4577SOL    HW125190   0.652   1.778   2.935  0.2465 -1.0725  0.3474
 4577SOL    HW225191   0.663   1.709   2.805 -0.1921  1.3589 -0.3354
 4578SOL     OW25192   1.642   3.734   1.765  0.4382 -0.2133 -0.2687
 4578SOL    HW125193   1.553   3.729   1.801  0.3548 -1.2686 -0.6204
 4578SOL    HW225194   1.626   3.752   1.673 -1.7625  2.2628  0.5831
 4579SOL     OW25195   3.224   4.365   6.048  0.0092  0.1127 -0.2821
 4579SOL    HW125196   3.196   4.346   5.959  2.0577 -2.3007 -0.4155
 4579SOL    HW225197   3.175   4.303   6.102 -1.3507  0.9037 -0.6124
 4580SOL     OW25198   1.554   4.449  17.442 -0.2972  0.2834 -0.3544
 4580SOL    HW125199   1.642   4.483  17.454  0.1252 -0.9696  0.1473
 4580SOL    HW225200   1.533   4.471  17.352  0.7732  2.0591 -0.1733
 4581SOL     OW25201   4.287   0.396   4.268 -0.0563  0.6073 -0.0438
 4581SOL    HW125202   4.283   0.301   4.257  0.7302  0.5850 -0.1722
 4581SOL    HW225203   4.223   0.408   4.339 -1.5599  1.7952 -1.6180
 4582SOL     OW25204   0.286   3.052   9.957  0.5841  0.0461  0.3955
 4582SOL    HW125205   0.325   3.139   9.963  1.3011 -0.2587  0.2400
 4582SOL    HW225206   0.286   3.036   9.863  0.2007  1.6740  0.1277
 4583SOL     OW25207   3.561   0.681   6.906  0.0302  0.1094  0.2306
 4583SOL    HW125208   3.567   0.765   6.861 -0.2235  0.5369  0.9767
 4583SOL    HW225209   3.516   0.634   6.836  1.3551 -1.0897  0.1973
 4584SOL     OW25210   1.331   2.615   1.152 -0.0204  0.1937 -0.4598
 4584SOL    HW125211   1.304   2.706   1.163 -0.6683 -0.1571  0.8777
 4584SOL    HW225212   1.255   2.564   1.181  0.6548 -0.4133  0.2526
 4585SOL     OW25213   3.937   1.445   3.258  0.4659 -0.1077  0.1429
 4585SOL    HW125214   3.955   1.533   3.292  0.3222 -0.9968  2.5014
 4585SOL    HW225215   3.867   1.418   3.318 -0.5741 -0.9016 -1.4474
 4586SOL     OW25216   0.484   4.448  10.202 -0.4523 -0.3476  0.4546
 4586SOL    HW125217   0.401   4.491  10.188 -0.6793 -0.8470  0.2442
 4586SOL    HW225218   0.472   4.408  10.289  0.5725  0.2888  0.8840
 4587SOL     OW25219   3.453   0.571   5.779  0.0113  0.1450 -0.0666
 4587SOL    HW125220   3.454   0.480   5.752  0.9780  0.8141 -2.2710
 4587SOL    HW225221   3.544   0.599   5.774 -0.4611  1.2033 -2.5277
 4588SOL     OW25222   0.438   2.797  13.399  0.2200 -0.1164  0.4838
 4588SOL    HW125223   0.395   2.873  13.438  0.8477  0.9394 -0.8706
 4588SOL    HW225224   0.368   2.754  13.352 -0.2597  2.1985 -0.9237
 4589SOL     OW25225   3.713   2.071   8.590  0.4416  0.1557 -0.0867
 4589SOL    HW125226   3.740   2.163   8.594  0.0686  0.1824  1.6054
 4589SOL    HW225227   3.745   2.055   8.501 -0.0518 -1.0456 -0.0386
 4590SOL     OW25228   1.370   1.055   7.124 -0.1586 -0.1875  0.6474
 4590SOL    HW125229   1.428   1.125   7.152  1.3866 -0.2726 -2.4080
 4590SOL    HW225230   1.358   1.000   7.201 -1.0010 -2.1041 -0.8411
 4591SOL     OW25231   2.063   0.671   3.087  0.4822  0.2729  0.0272
 4591SOL    HW125232   2.138   0.688   3.144  0.6629  3.0351 -0.9928
 4591SOL    HW225233   2.057   0.759   3.049  1.0756 -0.0594 -0.8252
 4592SOL     OW25234   2.580   1.187   4.568 -0.3233 -0.1135 -0.0342
 4592SOL    HW125235   2.630   1.196   4.650 -1.1147  0.5046  0.3771
 4592SOL    HW225236   2.647   1.139   4.521  0.9248  0.2125  1.3923
 4593SOL     OW25237   2.617   1.791   0.168  0.0996 -0.0738 -0.5352
 4593SOL    HW125238   2.556   1.749   0.228  1.4942 -0.7072  0.4554
 4593SOL    HW225239   2.689   1.727   0.166 -0.2643 -0.4299 -1.8919
 4594SOL     OW25240   1.598   2.327  12.927  0.8436 -0.6819  0.2869
 4594SOL    HW125241   1.558   2.414  12.924 -1.3724 -1.6717  1.6294
 4594SOL    HW225242   1.681   2.357  12.888  0.6135  0.4796  0.6813
 4595SOL     OW25243   0.111   4.472  11.024 -0.5536  0.0178 -0.1791
 4595SOL    HW125244   0.194   4.450  11.067 -0.5248  0.5209  0.0230
 4595SOL    HW225245   0.076   4.510  11.104  1.0006  0.8088  0.1332
 4596SOL     OW25246   2.923   4.449   7.075  0.0068 -0.1225 -0.5078
 4596SOL    HW125247   3.011   4.414   7.068  0.6778  1.5942 -0.6701
 4596SOL    HW225248   2.900   4.425   7.165  0.0275 -0.5665 -0.6216
 4597SOL     OW25249   3.892   2.703   9.600  0.3612 -0.1840 -0.2313
 4597SOL    HW125250   3.961   2.702   9.667  0.7347  0.8732 -0.5967
 4597SOL    HW225251   3.916   2.632   9.541 -2.5665 -0.8632 -0.6041
 4598SOL     OW25252   0.404   2.738  17.381  0.0913  0.1145  0.1657
 4598SOL    HW125253   0.404   2.667  17.316  2.6028 -1.0259  1.4039
 4598SOL    HW225254   0.424   2.701  17.467 -0.6938 -0.1935  0.2130
 4599SOL     OW25255   1.262   3.677   4.308  0.0011  0.5491 -0.0732
 4599SOL    HW125256   1.218   3.640   4.232 -1.7785  2.4930  0.0363
 4599SOL    HW225257   1.266   3.599   4.363 -2.1778  0.0896 -0.5837
 4600SOL     OW25258   0.570   4.106   2.741 -0.2905 -0.8935 -0.4708
 4600SOL    HW125259   0.577   4.076   2.832 -2.5084 -1.0036 -0.3269
 4600SOL    HW225260   0.528   4.026   2.710 -1.2763 -1.2652  1.7948
 4601SOL     OW25261   1.977   1.883   8.219  0.0749 -0.2351  0.2317
 4601SOL    HW125262   2.036   1.869   8.145  0.7765  0.9695  0.5697
 4601SOL    HW225263   1.972   1.978   8.226  0.9537 -0.0686 -1.5659
 4602SOL     OW25264   0.190   3.756  11.698  0.2346 -0.2775 -0.5835
 4602SOL    HW125265   0.247   3.818  11.655  0.7043  2.0441  3.4354
 4602SOL    HW225266   0.139   3.739  11.618 -1.7190  2.3253  0.1031
 4603SOL     OW25267   2.287   1.672   5.161  0.0121 -0.2298  0.6397
 4603SOL    HW125268   2.367   1.625   5.183  0.3771  0.0981 -0.0030
 4603SOL    HW225269   2.246   1.607   5.103 -0.4227  0.5932  0.0204
 4604SOL     OW25270   0.265   1.096   9.155 -0.3843 -0.6077  0.0029
 4604SOL    HW125271   0.334   1.161   9.166 -0.7146 -0.2249 -0.2222
 4604SOL    HW225272   0.195   1.130   9.210  0.8600 -2.0910  2.5038
 4605SOL     OW25273   3.277   1.051   2.831 -0.0953  0.0478  0.2015
 4605SOL    HW125274   3.352   1.051   2.772 -0.1569  0.4152  0.1240
 4605SOL    HW225275   3.223   0.987   2.784 -1.9873  0.3221  1.9926
 4606SOL     OW25276   2.383   3.573   0.524  0.3113 -0.2201 -0.4975
 4606SOL    HW125277   2.434   3.615   0.455  1.4990  0.5162  0.8259
 4606SOL    HW225278   2.351   3.495   0.479  0.9050 -2.0806  2.2906
 4607SOL     OW25279   1.429   0.648   5.229 -0.1301  0.2806  0.0645
 4607SOL    HW125280   1.520   0.678   5.236  0.2481 -1.4929  2.5759
 4607SOL    HW225281   1.377   0.729   5.227 -1.1005 -0.3419  0.0616
 4608SOL     OW25282   1.127   4.623  10.065  0.2171 -0.3592  0.3971
 4608SOL    HW125283   1.158   4.713  10.064  0.5151 -0.4845 -1.1421
 4608SOL    HW225284   1.038   4.634  10.032  0.1516 -0.7872  0.4224
 4609SOL     OW25285   1.109   4.439   7.151  0.1680 -0.1799  0.6505
 4609SOL    HW125286   1.152   4.460   7.068  1.2109 -0.9286  1.0103
 4609SOL    HW225287   1.188   4.445   7.205 -0.2110  0.1923  1.1685
 4610SOL     OW25288   2.779   0.820   3.186 -0.2881 -0.4534 -0.0883
 4610SOL    HW125289   2.851   0.782   3.135  0.2247 -0.9036  0.9717
 4610SOL    HW225290   2.752   0.906   3.155  1.9071 -0.2563 -1.4739
 4611SOL     OW25291   1.460   2.853   8.686  0.1536  0.3924 -0.4643
 4611SOL    HW125292   1.472   2.758   8.677  0.1543  0.6379 -3.2981
 4611SOL    HW225293   1.383   2.884   8.638 -1.1921 -1.3080  0.5962
 4612SOL     OW25294   2.176   3.778  12.633  0.0220  0.1396 -0.4984
 4612SOL    HW125295   2.156   3.712  12.700 -0.3149 -0.6333 -1.3547
 4612SOL    HW225296   2.250   3.733  12.592  0.5711  0.3768  0.2421
 4613SOL     OW25297   1.452   4.400  13.457  0.8183  0.1846  0.1025
 4613SOL    HW125298   1.394   4.341  13.506  0.4024 -0.2135 -0.8690
 4613SOL    HW225299   1.537   4.358  13.464 -0.1390 -1.8312 -0.2849
 4614SOL     OW25300   1.116   0.804   8.756 -0.2582 -0.3226 -0.4302
 4614SOL    HW125301   1.066   0.741   8.704 -1.7291 -0.7659  1.5433
 4614SOL    HW225302   1.145   0.753   8.832  1.4073  0.9500 -0.2018
 4615SOL     OW25303   3.195   0.951  16.676 -0.0996 -0.4756  0.3612
 4615SOL    HW125304   3.108   0.990  16.689  0.7481  1.2795  0.6922
 4615SOL    HW225305   3.241   1.022  16.632  2.6946 -2.3249  0.2900
 4616SOL     OW25306   1.276   4.175   1.722  0.5137  0.4879  0.2453
 4616SOL    HW125307   1.283   4.265   1.753 -0.0171  0.6473 -0.0889
 4616SOL    HW225308   1.362   4.142   1.748  1.3437  0.9161 -1.9326
 4617SOL     OW25309   0.038   2.381   8.398 -0.1359  0.3979 -0.3980
 4617SOL    HW125310   4.714   2.457   8.366 -0.4413  0.4459  0.1779
 4617SOL    HW225311   0.095   2.424   8.461 -1.0211  2.7188 -1.1646
 4618SOL     OW25312   0.601   1.300   4.749  0.2084  0.0102  0.3615
 4618SOL    HW125313   0.511   1.331   4.760 -0.0082 -0.3229 -0.3994
 4618SOL    HW225314   0.634   1.320   4.836  2.7095  0.8834 -0.7972
 4619SOL     OW25315   2.610   2.378   6.678 -0.2550 -0.4309  0.0574
 4619SOL    HW125316   2.589   2.292   6.713  0.3909 -0.3183  0.7135
 4619SOL    HW225317   2.523   2.416   6.688  0.4743  1.4361 -0.7276
 4620SOL     OW25318   1.889   1.054   6.455  0.0754 -0.1076  0.5857
 4620SOL    HW125319   1.869   1.141   6.420  2.6833  0.5173  0.6361
 4620SOL    HW225320   1.896   0.996   6.379  0.1159 -0.5502  0.9333
 4621SOL     OW25321   1.883   1.784   2.929  0.3319 -0.0175  0.0844
 4621SOL    HW125322   1.877   1.710   2.869 -0.7341 -0.5811  0.8826
 4621SOL    HW225323   1.883   1.865   2.877  0.1926  0.6043  1.0392
 4622SOL     OW25324   1.218   1.280   8.073  0.8159  0.0625 -0.0976
 4622SOL    HW125325   1.132   1.298   8.110  0.1061 -0.9319 -1.2733
 4622SOL    HW225326   1.205   1.309   7.983 -0.5700  0.5991  0.2751
 4623SOL     OW25327   4.003   0.737  15.268  0.2752 -0.3814 -0.1698
 4623SOL    HW125328   4.038   0.691  15.344  2.9392  0.7795 -0.6696
 4623SOL    HW225329   3.999   0.660  15.211 -1.7196 -1.1321  0.9877
 4624SOL     OW25330   3.845   3.086   3.716  0.2376  0.2930  0.2649
 4624SOL    HW125331   3.757   3.114   3.741  0.0172 -1.7609  1.7767
 4624SOL    HW225332   3.829   3.050   3.629  0.2853  3.6383 -1.1295
 4625SOL     OW25333   1.245   0.249  16.535  0.1455  0.1990  0.1537
 4625SOL    HW125334   1.248   0.264  16.440 -1.8565  1.0206  0.2124
 4625SOL    HW225335   1.166   0.302  16.551 -1.0563 -1.1857 -1.1181
 4626SOL     OW25336   2.634   1.361  12.741  0.0940 -0.2367 -0.6663
 4626SOL    HW125337   2.719   1.323  12.763 -1.2070 -2.0331  1.2523
 4626SOL    HW225338   2.667   1.451  12.736 -2.4292  0.6145 -1.7799
 4627SOL     OW25339   2.386   3.584  12.152  0.2535  0.2834 -0.3298
 4627SOL    HW125340   2.363   3.518  12.087 -0.6929 -0.1289  0.4428
 4627SOL    HW225341   2.469   3.550  12.186 -0.3358 -1.7843 -0.9442
 4628SOL     OW25342   2.518   3.922   4.049 -0.4328 -0.0208 -0.6449
 4628SOL    HW125343   2.591   3.948   4.106 -0.2252 -0.1778 -0.8398
 4628SOL    HW225344   2.542   3.959   3.964 -1.0051  0.0993 -0.7545
 4629SOL     OW25345   1.571   4.015   1.354  0.4780  0.2775  0.6607
 4629SOL    HW125346   1.526   3.996   1.272  1.3957  0.3055  0.1530
 4629SOL    HW225347   1.518   4.082   1.398  1.2695  0.4821  1.3146
 4630SOL     OW25348   1.298   4.693   5.184  0.1256 -0.0838  0.6299
 4630SOL    HW125349   1.313   4.651   5.100 -0.8368 -0.6871  0.7586
 4630SOL    HW225350   1.323   4.619   5.240  0.8581 -1.7578 -1.9153
 4631SOL     OW25351   1.112   2.455   9.570 -0.1011  0.6656 -0.1616
 4631SOL    HW125352   1.082   2.545   9.559 -0.1586  0.7893  0.9614
 4631SOL    HW225353   1.072   2.436   9.656  0.6158  0.5266  0.1381
 4632SOL     OW25354   1.555   1.924   0.888  0.3631  0.4764 -0.5588
 4632SOL    HW125355   1.464   1.921   0.859  0.2366 -1.5826  0.0027
 4632SOL    HW225356   1.584   1.966   0.807  0.4047  0.3033 -0.6346
 4633SOL     OW25357   0.196   4.457  10.164  0.0412  0.0349  0.3896
 4633SOL    HW125358   0.145   4.436  10.086 -0.2458  1.4912  0.1976
 4633SOL    HW225359   0.151   4.407  10.232  0.6187  1.1256  1.5851
 4634SOL     OW25360   2.879   2.755   4.400  0.1840 -0.1068 -0.0737
 4634SOL    HW125361   2.808   2.733   4.460 -0.0659 -0.3967 -0.4709
 4634SOL    HW225362   2.897   2.668   4.366  1.5027  0.6208 -1.2444
 4635SOL     OW25363   2.494   1.882   0.616 -0.0163  0.1686 -0.1787
 4635SOL    HW125364   2.577   1.855   0.578 -0.8776 -1.7823 -0.6847
 4635SOL    HW225365   2.514   1.956   0.674  0.9329 -0.3462  0.1511
 4636SOL     OW25366   1.962   1.869  11.525 -0.0361 -0.4608  0.1780
 4636SOL    HW125367   1.916   1.926  11.464 -1.6997  1.4155  3.1676
 4636SOL    HW225368   1.896   1.804  11.549  0.5308 -1.0781  0.0855
 4637SOL     OW25369   1.792   0.047   7.223 -0.3370 -0.1897  0.1209
 4637SOL    HW125370   1.773   4.696   7.168  0.3216 -0.1425 -0.1740
 4637SOL    HW225371   1.708   0.042   7.269 -1.6433 -1.6357 -2.4890
 4638SOL     OW25372   4.479   4.641  16.528 -0.2484 -0.1826  0.0941
 4638SOL    HW125373   4.450   4.629  16.438 -0.4668 -1.0175  0.2753
 4638SOL    HW225374   4.407   4.699  16.552 -1.1501 -1.2661 -0.0227
 4639SOL     OW25375   2.947   0.260   3.067 -0.3090  0.0677  0.0438
 4639SOL    HW125376   3.022   0.233   3.120 -0.6443  0.9642  0.9767
 4639SOL    HW225377   2.993   0.297   2.992  0.0410 -0.9551 -0.2461
 4640SOL     OW25378   1.274   0.041   8.480  0.0518 -0.2036 -0.2496
 4640SOL    HW125379   1.280   4.719   8.396  0.9062 -0.9805  0.2395
 4640SOL    HW225380   1.249   0.122   8.436 -1.3019  0.5451  1.9108
 4641SOL     OW25381   0.064   3.996  11.062  0.4568 -0.4083 -0.2173
 4641SOL    HW125382   0.099   3.907  11.053 -0.9592 -0.8918 -0.8969
 4641SOL    HW225383   0.088   4.019  11.152 -0.2047 -1.3367  0.2041
 4642SOL     OW25384   0.977   2.820   0.583 -0.4552 -0.9153 -0.0531
 4642SOL    HW125385   0.894   2.868   0.571  0.2367  0.3891  0.3964
 4642SOL    HW225386   1.021   2.873   0.649  0.3810 -0.4016 -1.0159
 4643SOL     OW25387   0.339   0.961  13.041 -0.0497 -0.0783  0.3833
 4643SOL    HW125388   0.380   0.938  12.958 -2.1488  0.4971 -0.8260
 4643SOL    HW225389   0.254   0.916  13.035 -1.0365  1.5541  2.0409
 4644SOL     OW25390   0.961   4.116   7.806 -0.0522  0.3296 -0.6605
 4644SOL    HW125391   0.928   4.206   7.814 -0.6094  0.1057 -0.4247
 4644SOL    HW225392   0.884   4.073   7.768  0.0046  0.6247 -1.1107
 4645SOL     OW25393   3.543   4.120   0.617 -0.0989  0.6527  0.0277
 4645SOL    HW125394   3.594   4.160   0.687 -1.4742  3.0769 -0.3611
 4645SOL    HW225395   3.604   4.108   0.544  0.7535 -3.5019  1.4127
 4646SOL     OW25396   4.207   0.247   0.272  0.2078  0.3202 -0.0096
 4646SOL    HW125397   4.266   0.252   0.347 -0.2514  1.5931  0.2639
 4646SOL    HW225398   4.144   0.188   0.314  0.6318 -0.3907 -0.3745
 4647SOL     OW25399   1.970   1.589  13.267  0.0011 -0.5921  0.1892
 4647SOL    HW125400   1.963   1.498  13.240 -0.9486 -1.1238  2.2518
 4647SOL    HW225401   1.903   1.601  13.334  0.1290  0.5450  0.1115
 4648SOL     OW25402   3.084   1.932   4.765 -0.1991  0.6432 -0.5310
 4648SOL    HW125403   3.136   1.852   4.772 -1.3263 -0.0239  0.1390
 4648SOL    HW225404   2.998   1.897   4.788  1.6304 -1.9766  2.2726
 4649SOL     OW25405   3.002   3.286   7.963 -0.2584 -0.4465  0.2657
 4649SOL    HW125406   3.051   3.356   7.919 -2.7355 -0.2783 -2.1941
 4649SOL    HW225407   3.078   3.236   7.992 -0.2834 -1.1480 -0.9134
 4650SOL     OW25408   2.503   3.222   9.156 -0.1989 -0.0334 -0.6518
 4650SOL    HW125409   2.493   3.197   9.248 -0.5504 -0.1362 -0.7170
 4650SOL    HW225410   2.583   3.175   9.133 -0.1867  1.0095 -2.8042
 4651SOL     OW25411   4.649   0.175   7.443 -0.2863 -0.0626  0.1222
 4651SOL    HW125412   4.631   0.268   7.431  0.8241 -0.0092 -1.0706
 4651SOL    HW225413   4.655   0.172   7.539 -0.5357 -0.4466  0.1281
 4652SOL     OW25414   1.403   2.007   6.316  0.4101  0.2307  0.4824
 4652SOL    HW125415   1.393   2.100   6.337  2.7385 -0.0953  3.1116
 4652SOL    HW225416   1.315   1.993   6.281  0.3120  0.3729  0.6663
 4653SOL     OW25417   1.136   3.287   5.384 -0.3517  0.1138 -0.0116
 4653SOL    HW125418   1.134   3.308   5.291  1.4046 -0.1314 -0.1180
 4653SOL    HW225419   1.137   3.374   5.424  0.4104 -0.5856  1.5072
 4654SOL     OW25420   0.563   3.183  13.579 -0.1677  0.1015  0.4558
 4654SOL    HW125421   0.495   3.187  13.646  1.1537  2.3794  1.6705
 4654SOL    HW225422   0.534   3.099  13.543 -1.2288  0.2663  0.9174
 4655SOL     OW25423   2.741   4.550   1.483  0.1750 -0.7212 -0.3048
 4655SOL    HW125424   2.675   4.481   1.472  0.0158 -0.5743 -0.2858
 4655SOL    HW225425   2.726   4.567   1.576  2.1915 -0.9178  0.0561
 4656SOL     OW25426   3.894   2.305   5.543  0.6077 -0.1918  0.2155
 4656SOL    HW125427   3.869   2.310   5.451  0.0495  3.3849  0.5776
 4656SOL    HW225428   3.988   2.290   5.535  0.2735 -1.3480 -1.6164
 4657SOL     OW25429   0.316   3.534   1.442  0.3450  0.1581 -0.1469
 4657SOL    HW125430   0.334   3.500   1.529 -0.7286  0.3157  0.1412
 4657SOL    HW225431   0.399   3.574   1.415  0.9937 -0.6357  0.6765
 4658SOL     OW25432   3.421   1.477  12.130  0.3869  0.1613 -0.2249
 4658SOL    HW125433   3.390   1.399  12.174 -0.5320  0.9664  0.5336
 4658SOL    HW225434   3.497   1.497  12.186 -1.0858 -2.1531  2.5610
 4659SOL     OW25435   1.520   0.945   2.467 -0.2275  0.0566 -0.1886
 4659SOL    HW125436   1.572   0.872   2.500  0.0183  0.1186 -0.4343
 4659SOL    HW225437   1.472   0.909   2.392  0.6716 -1.3434 -0.0938
 4660SOL     OW25438   2.892   1.426   7.147 -0.3005 -0.7379 -0.6608
 4660SOL    HW125439   2.859   1.347   7.190  1.8457 -0.6290  1.2547
 4660SOL    HW225440   2.986   1.420   7.165 -0.2438 -0.2631 -0.8099
 4661SOL     OW25441   1.150   0.553   0.765  0.3613  0.5623  0.5433
 4661SOL    HW125442   1.174   0.508   0.683 -0.8526  2.6427 -0.9428
 4661SOL    HW225443   1.057   0.572   0.761  0.5623  1.4350  0.0465
 4662SOL     OW25444   0.877   1.208  15.120  0.8546  0.4512  0.1078
 4662SOL    HW125445   0.967   1.191  15.090  0.2304  0.8414 -2.0015
 4662SOL    HW225446   0.851   1.283  15.067 -0.9798 -1.2754 -1.4177
 4663SOL     OW25447   2.209   1.991   9.912  0.2608 -0.1912 -0.2464
 4663SOL    HW125448   2.300   2.008   9.890  0.5749 -1.2589  0.2303
 4663SOL    HW225449   2.157   2.053   9.860 -1.0082 -3.0289 -2.3592
 4664SOL     OW25450   1.599   0.247   3.958  0.1058  0.8385 -0.0701
 4664SOL    HW125451   1.691   0.254   3.932  0.4123  1.4427  1.1387
 4664SOL    HW225452   1.617   0.190   4.032  0.4992  0.7151 -0.2625
 4665SOL     OW25453   2.575   4.175   5.423 -0.1262  0.0106 -0.1212
 4665SOL    HW125454   2.603   4.176   5.331 -1.5270 -0.7878 -0.5604
 4665SOL    HW225455   2.486   4.207   5.403  1.0091  2.1853 -1.7474
 4666SOL     OW25456   0.376   0.123  16.472 -0.0437  0.0913 -0.2544
 4666SOL    HW125457   0.371   0.047  16.415 -0.7126 -1.7928  2.2978
 4666SOL    HW225458   0.462   0.131  16.513  0.1894 -0.1834 -0.6946
 4667SOL     OW25459   3.998   3.343   0.161 -0.4958  0.5887 -0.1406
 4667SOL    HW125460   4.049   3.271   0.125 -0.3009 -0.6037  2.4915
 4667SOL    HW225461   3.933   3.350   0.091  4.5091 -0.7016 -4.9384
 4668SOL     OW25462   4.315   3.042   2.746  0.1483  0.2153  0.2323
 4668SOL    HW125463   4.230   3.069   2.713 -0.4171 -1.8414 -0.0043
 4668SOL    HW225464   4.298   3.032   2.840 -1.0162 -1.2888 -0.1513
 4669SOL     OW25465   2.410   2.664   1.636 -0.2193 -0.4088 -0.4195
 4669SOL    HW125466   2.488   2.614   1.658 -0.1939 -0.1149  0.1466
 4669SOL    HW225467   2.382   2.623   1.554  0.6129  0.0779 -0.9429
 4670SOL     OW25468   1.263   2.741   5.157  0.1441 -0.2400  0.4104
 4670SOL    HW125469   1.242   2.648   5.149  1.0163 -0.4516  0.5330
 4670SOL    HW225470   1.212   2.765   5.235  0.9025  0.8770  0.5689
 4671SOL     OW25471   2.388   4.414   0.155  0.5608  0.2426  0.2139
 4671SOL    HW125472   2.379   4.386   0.245 -1.9389  0.2763 -0.0107
 4671SOL    HW225473   2.470   4.463   0.158 -0.4509  1.7253  3.3474
 4672SOL     OW25474   3.437   2.038   7.164  0.6682 -0.0256  0.3161
 4672SOL    HW125475   3.399   2.105   7.221 -2.6234 -0.9629 -0.7456
 4672SOL    HW225476   3.431   2.080   7.078  1.4683 -0.9854 -0.2152
 4673SOL     OW25477   3.741   2.289  14.803  0.2919  0.3327  0.3798
 4673SOL    HW125478   3.654   2.249  14.800  1.3169 -1.7823 -1.0848
 4673SOL    HW225479   3.744   2.305  14.897  1.7954  0.3291  0.3242
 4674SOL     OW25480   4.616   1.734   4.521  0.1450  0.2336  0.1852
 4674SOL    HW125481   4.668   1.756   4.598  0.3999 -0.7892  0.2955
 4674SOL    HW225482   4.686   1.716   4.458  0.8737 -0.1711  1.1137
 4675SOL     OW25483   1.086   3.389   5.144 -0.1890 -0.0706 -0.0399
 4675SOL    HW125484   1.142   3.449   5.095 -1.5151  0.6121 -0.7228
 4675SOL    HW225485   1.076   3.312   5.089 -0.7474 -0.9254  1.2685
 4676SOL     OW25486   0.426   0.392   8.684  0.0679  0.2415  0.0082
 4676SOL    HW125487   0.464   0.454   8.746  0.3871  0.4588 -0.4031
 4676SOL    HW225488   0.498   0.328   8.680 -1.4248 -1.3248 -1.9731
 4677SOL     OW25489   1.196   4.512   5.914  0.2961 -0.6647 -0.2849
 4677SOL    HW125490   1.235   4.472   5.836  1.4464 -0.2527  0.0755
 4677SOL    HW225491   1.275   4.541   5.960  1.0843 -1.3647 -1.1839
 4678SOL     OW25492   4.298   1.553   6.826  0.2300  0.0085 -0.4468
 4678SOL    HW125493   4.259   1.544   6.739 -1.3642  0.9860  0.1539
 4678SOL    HW225494   4.387   1.573   6.799  0.1896 -0.2694 -0.7734
 4679SOL     OW25495   4.443   2.824   3.258 -0.0338 -0.2504  0.5256
 4679SOL    HW125496   4.527   2.785   3.279  0.8920  0.5721 -1.6785
 4679SOL    HW225497   4.382   2.750   3.264 -0.3346 -0.0597 -0.0917
 4680SOL     OW25498   2.870   2.602   7.638 -0.4570 -0.0587  0.1226
 4680SOL    HW125499   2.779   2.615   7.609 -0.2295 -0.1800 -0.6485
 4680SOL    HW225500   2.881   2.527   7.580 -0.8252  1.2013 -1.5992
 4681SOL     OW25501   4.082   0.881   7.827  0.2897  0.5071  0.5764
 4681SOL    HW125502   4.074   0.820   7.900  1.0873 -2.2869 -1.7006
 4681SOL    HW225503   3.992   0.903   7.801 -0.1298 -0.6499  1.0721
 4682SOL     OW25504   2.387   1.759   6.223 -0.7938 -0.2172  0.2149
 4682SOL    HW125505   2.340   1.738   6.304 -1.0112  1.2574  0.4678
 4682SOL    HW225506   2.438   1.838   6.241 -3.2969  1.1334  1.3801
 4683SOL     OW25507   1.277   0.932   7.340 -0.0104  0.2002 -0.4515
 4683SOL    HW125508   1.293   0.894   7.427 -0.1452 -0.4462 -0.7137
 4683SOL    HW225509   1.187   0.907   7.320 -0.1046  0.3513 -0.2200
 4684SOL     OW25510   0.224   2.041   8.486  0.5161  0.2495 -0.5791
 4684SOL    HW125511   0.259   2.128   8.465 -2.3713  1.7304  0.6487
 4684SOL    HW225512   0.290   2.003   8.544 -1.0286 -1.9993 -0.2820
 4685SOL     OW25513   0.439   4.677  10.377 -0.2639 -0.2007 -0.1863
 4685SOL    HW125514   0.483   4.611  10.430  0.6424  1.7866  1.5108
 4685SOL    HW225515   0.383   4.712  10.446  2.4684  1.3173  1.2273
 4686SOL     OW25516   4.577   1.124   6.581 -0.1422 -0.6815  0.1529
 4686SOL    HW125517   4.510   1.151   6.643  0.4686  1.0799  0.0461
 4686SOL    HW225518   4.622   1.207   6.566  0.7946 -1.3871 -0.9724
 4687SOL     OW25519   0.395   3.748   3.383  0.2431 -0.2563  0.2830
 4687SOL    HW125520   0.363   3.807   3.451  0.5023  0.3491 -0.1275
 4687SOL    HW225521   0.385   3.811   3.312  0.7705  1.4657  1.7508
 4688SOL     OW25522   2.370   2.775   2.359 -0.5752 -0.3597  0.2199
 4688SOL    HW125523   2.349   2.867   2.340  0.4554  0.4613  2.9435
 4688SOL    HW225524   2.356   2.737   2.272  0.6584 -1.4930  0.5344
 4689SOL     OW25525   1.830   4.408   5.458 -0.0478 -0.1113 -0.2777
 4689SOL    HW125526   1.860   4.492   5.423  0.8323 -0.6783 -0.8671
 4689SOL    HW225527   1.741   4.413   5.425  0.3127  0.4880 -1.1782
 4690SOL     OW25528   2.966   2.268  10.279 -0.1171 -0.5271  0.1683
 4690SOL    HW125529   3.034   2.208  10.308  0.9072 -0.8381 -2.9051
 4690SOL    HW225530   3.002   2.353  10.305 -0.7544  0.6129 -2.7315
 4691SOL     OW25531   3.557   3.184   9.293  0.0783 -0.1504  0.5392
 4691SOL    HW125532   3.571   3.140   9.377  0.5291  1.2761  1.2091
 4691SOL    HW225533   3.509   3.264   9.313 -0.7760 -0.1191 -1.6509
 4692SOL     OW25534   4.498   2.218  16.483 -0.7981 -0.2612 -0.2269
 4692SOL    HW125535   4.481   2.125  16.491 -1.7123 -0.1441 -0.7440
 4692SOL    HW225536   4.584   2.225  16.441 -0.4487 -3.3496 -0.0019
 4693SOL     OW25537   4.490   3.843   5.861  0.4969  0.1867  0.0966
 4693SOL    HW125538   4.463   3.765   5.910  0.1013 -2.3258 -4.1767
 4693SOL    HW225539   4.427   3.912   5.884  1.0398  0.5745  0.4319
 4694SOL     OW25540   2.233   4.304  11.101  0.3664  0.4124 -0.2567
 4694SOL    HW125541   2.191   4.389  11.109  0.1243  0.3013 -0.3288
 4694SOL    HW225542   2.194   4.268  11.180  0.1152 -1.3738 -1.1778
 4695SOL     OW25543   1.785   3.953   5.254  0.2416  0.0024  0.1087
 4695SOL    HW125544   1.726   4.029   5.258  1.0005  0.5136  1.7521
 4695SOL    HW225545   1.834   3.966   5.335  0.8724 -0.1717 -0.2409
 4696SOL     OW25546   3.585   2.047  13.164  0.3172 -0.4178 -0.3496
 4696SOL    HW125547   3.588   2.095  13.081  0.1271 -0.4195 -0.3569
 4696SOL    HW225548   3.662   2.083  13.209 -0.0522 -2.7085  2.0809
 4697SOL     OW25549   2.393   3.004  13.939  0.0900  0.7167  0.3580
 4697SOL    HW125550   2.445   3.077  13.905  2.0890 -1.5674 -1.4158
 4697SOL    HW225551   2.333   2.995  13.865 -0.0643  1.6928  0.3657
 4698SOL     OW25552   3.370   0.212   9.495 -0.6119  0.5837 -0.2995
 4698SOL    HW125553   3.423   0.288   9.518 -0.7760  0.5923  0.0489
 4698SOL    HW225554   3.410   0.211   9.408  1.9032  4.3348  0.8094
 4699SOL     OW25555   2.167   2.081   4.909 -0.8622 -0.2980  0.2212
 4699SOL    HW125556   2.184   2.151   4.846 -0.9033 -0.6899 -0.2286
 4699SOL    HW225557   2.184   2.004   4.855 -2.0746  0.3889 -1.1522
 4700SOL     OW25558   2.008   3.319  11.547  0.0086 -0.4011 -0.1655
 4700SOL    HW125559   2.065   3.248  11.518  0.9692  0.1383  0.4249
 4700SOL    HW225560   2.057   3.394  11.514 -0.6331 -0.1552 -0.5732
 4701SOL     OW25561   0.654   1.934   7.848 -0.0499  0.4019  0.3119
 4701SOL    HW125562   0.705   1.985   7.910  0.2879 -0.2570  0.5811
 4701SOL    HW225563   0.682   1.843   7.864  0.1549  0.1698 -1.3088
 4702SOL     OW25564   3.896   1.997  11.706  0.3842  0.4528  0.5320
 4702SOL    HW125565   3.940   2.082  11.702 -0.1246  0.4884 -3.6328
 4702SOL    HW225566   3.961   1.945  11.753  1.1219  4.3368  3.7600
 4703SOL     OW25567   0.330   1.096   5.599 -0.1037 -0.1461 -0.1540
 4703SOL    HW125568   0.375   1.179   5.585  0.5814 -0.6592 -1.0033
 4703SOL    HW225569   0.373   1.072   5.681  0.2415 -2.5834 -1.0604
 4704SOL     OW25570   0.957   1.086   3.974 -0.2272  0.2211  0.7522
 4704SOL    HW125571   0.997   1.017   3.921  0.9568  0.1551  1.7384
 4704SOL    HW225572   1.030   1.097   4.035  0.9668 -0.1120 -0.6266
 4705SOL     OW25573   1.748   3.166  13.155  0.8384 -1.1428  0.4362
 4705SOL    HW125574   1.721   3.234  13.092 -0.0783 -0.0579  2.0115
 4705SOL    HW225575   1.734   3.087  13.102  1.3468  0.1217 -1.6168
 4706SOL     OW25576   2.557   1.882   5.755  0.5004 -0.4185  0.4707
 4706SOL    HW125577   2.613   1.921   5.822  2.2301 -0.6080 -0.8592
 4706SOL    HW225578   2.483   1.942   5.748  1.4102  0.4969 -1.3183
 4707SOL     OW25579   1.072   0.952   2.682 -0.4413 -0.1098  0.1563
 4707SOL    HW125580   0.988   0.926   2.721 -0.4162 -0.2455  0.1204
 4707SOL    HW225581   1.054   0.958   2.589 -0.3014  1.6274  0.2480
 4708SOL     OW25582   0.454   4.583   8.914 -0.4882  0.0445 -0.3481
 4708SOL    HW125583   0.473   4.662   8.964 -1.4776  0.7483 -1.0655
 4708SOL    HW225584   0.390   4.545   8.975 -2.2175  3.2513 -0.1708
 4709SOL     OW25585   1.230   2.900   8.513 -0.5353  0.7242  0.2181
 4709SOL    HW125586   1.238   2.931   8.423  0.3062 -0.4958 -0.1138
 4709SOL    HW225587   1.162   2.965   8.532 -1.8468 -0.9756  1.2563
 4710SOL     OW25588   1.164   1.309   7.206  0.4747 -0.0517 -0.1204
 4710SOL    HW125589   1.257   1.292   7.221  0.6183  0.9413  0.1212
 4710SOL    HW225590   1.123   1.256   7.274 -0.4311  1.4833  0.5211
 4711SOL     OW25591   0.164   0.630   5.317  0.1007 -0.7436 -0.3808
 4711SOL    HW125592   0.090   0.690   5.305  0.8522  0.9797  3.3938
 4711SOL    HW225593   0.117   0.547   5.324 -2.7433  0.7210 -2.2747
 4712SOL     OW25594   4.604   2.909   0.440  0.2972 -0.1095  0.5505
 4712SOL    HW125595   4.628   2.998   0.464 -0.8624  0.3505 -0.0296
 4712SOL    HW225596   4.672   2.859   0.486  1.3376 -0.2220 -1.0753
 4713SOL     OW25597   3.484   4.592  15.318 -0.2195 -0.2823 -0.6369
 4713SOL    HW125598   3.509   4.658  15.383  0.7074 -0.7417 -0.5228
 4713SOL    HW225599   3.455   4.661  15.259 -0.1305  0.4318  0.1594
 4714SOL     OW25600   2.687   0.037   6.138  0.5024 -0.3692  0.5303
 4714SOL    HW125601   2.729   0.116   6.174 -0.3491 -1.0832  3.0409
 4714SOL    HW225602   2.640   0.071   6.062 -0.8455  0.1505  1.6082
 4715SOL     OW25603   0.702   2.870   1.130 -0.2263  0.3760 -0.3753
 4715SOL    HW125604   0.774   2.866   1.068  0.0844 -0.5810  0.0486
 4715SOL    HW225605   0.630   2.824   1.085  0.8399 -0.1228 -1.5666
 4716SOL     OW25606   3.142   2.081   1.905  0.0264  0.4371  0.2764
 4716SOL    HW125607   3.177   2.148   1.845  0.4664 -2.1011 -2.3387
 4716SOL    HW225608   3.075   2.046   1.846  0.5262  1.5996 -0.9907
 4717SOL     OW25609   2.712   1.303  14.444  0.6190  0.4696 -0.2138
 4717SOL    HW125610   2.642   1.333  14.386  0.1210 -1.2729 -0.5267
 4717SOL    HW225611   2.785   1.355  14.411  0.8805 -0.3796 -0.9783
 4718SOL     OW25612   1.712   0.027   0.841 -0.1108  0.0376 -0.3435
 4718SOL    HW125613   1.686   4.670   0.884 -0.2171 -0.1013 -0.6673
 4718SOL    HW225614   1.630   0.072   0.861  0.0974  0.7127 -1.0202
 4719SOL     OW25615   3.425   0.668   8.395 -0.0312  0.4455 -0.0771
 4719SOL    HW125616   3.452   0.625   8.315  3.6991 -0.0437  1.4053
 4719SOL    HW225617   3.501   0.726   8.406  0.5544 -0.0854 -1.3497
 4720SOL     OW25618   3.082   0.013   2.790 -0.4733 -0.4226 -0.8668
 4720SOL    HW125619   3.110   4.689   2.713  1.6363 -0.2232 -0.2045
 4720SOL    HW225620   3.133   4.688   2.855 -2.0792 -0.3834  0.4301
 4721SOL     OW25621   0.823   4.433   0.451  0.5159 -0.9462  0.8107
 4721SOL    HW125622   0.750   4.470   0.401 -0.3641 -0.4261  2.5145
 4721SOL    HW225623   0.891   4.482   0.405  2.2508 -1.4907  2.8526
 4722SOL     OW25624   1.158   4.156  12.322  0.3444  0.2692  0.0818
 4722SOL    HW125625   1.243   4.196  12.305 -0.5689  2.1976  0.0155
 4722SOL    HW225626   1.181   4.100  12.395  3.0157 -0.3559 -1.2376
 4723SOL     OW25627   1.133   3.028   2.425 -0.0668  0.1150  0.0631
 4723SOL    HW125628   1.222   3.021   2.389  0.8639  1.3877  2.0769
 4723SOL    HW225629   1.150   3.000   2.515 -0.9382 -1.1174 -0.1505
 4724SOL     OW25630   0.019   3.753  12.223  0.1042 -0.2971 -0.7525
 4724SOL    HW125631   0.092   3.756  12.286 -2.7045  2.2081  2.3707
 4724SOL    HW225632   0.056   3.795  12.146 -1.1191  3.3345  0.6362
 4725SOL     OW25633   2.727   3.458   7.308  0.4337 -0.1176  0.0767
 4725SOL    HW125634   2.788   3.532   7.309  0.9328 -0.5337  0.3475
 4725SOL    HW225635   2.645   3.505   7.326 -0.6723 -2.9067  2.2908
 4726SOL     OW25636   0.123   0.202  16.283 -0.4510  0.4848  0.6710
 4726SOL    HW125637   0.103   0.131  16.222 -0.5744  1.6687 -0.6751
 4726SOL    HW225638   0.093   0.161  16.364 -3.5329  0.9523 -0.2464
 4727SOL     OW25639   2.681   2.455   4.742  0.2912  0.3151 -0.1135
 4727SOL    HW125640   2.651   2.369   4.713 -1.0591  0.5686  0.5741
 4727SOL    HW225641   2.777   2.461   4.739  0.0468  4.1954 -0.6054
 4728SOL     OW25642   4.173   1.421   5.446 -0.6303  0.1845 -0.3817
 4728SOL    HW125643   4.082   1.399   5.466 -1.1921 -0.5470 -3.9126
 4728SOL    HW225644   4.176   1.515   5.466 -1.9272  0.6380 -2.3504
 4729SOL     OW25645   2.328   0.429  14.288  0.1124  0.0118 -0.6702
 4729SOL    HW125646   2.285   0.420  14.203 -2.7691  1.0987  0.6917
 4729SOL    HW225647   2.414   0.387  14.281 -1.3099 -3.2619  1.4473
 4730SOL     OW25648   1.278   0.397   2.712 -0.0794 -0.1099  0.2115
 4730SOL    HW125649   1.248   0.309   2.691  0.8706 -0.5026  0.4998
 4730SOL    HW225650   1.342   0.378   2.781  0.2992  1.2617  0.2508
 4731SOL     OW25651   1.557   1.171   4.368  0.3895  0.6824 -0.1372
 4731SOL    HW125652   1.611   1.203   4.440 -0.5906  2.4334 -0.1726
 4731SOL    HW225653   1.599   1.217   4.296  2.3192  0.3654  0.8049
 4732SOL     OW25654   2.923   4.158   7.517 -0.2871 -0.3487  0.2405
 4732SOL    HW125655   3.013   4.185   7.500 -0.1896  0.7314  2.5310
 4732SOL    HW225656   2.948   4.066   7.524 -1.6448 -0.8070 -0.8346
 4733SOL     OW25657   0.112   4.561   3.002 -0.0033  0.4757  0.6081
 4733SOL    HW125658   0.061   4.513   3.068 -1.5718 -0.1936 -1.0916
 4733SOL    HW225659   0.202   4.543   3.027  0.5732  0.1943 -1.7555
 4734SOL     OW25660   4.535   2.346   6.890  0.3989 -0.7160 -0.7456
 4734SOL    HW125661   4.469   2.280   6.867  0.1559 -0.4408 -0.8439
 4734SOL    HW225662   4.615   2.294   6.887  1.8077  1.4210  0.5951
 4735SOL     OW25663   4.453   0.048   2.624 -0.3048  0.6342 -0.3079
 4735SOL    HW125664   4.403   4.700   2.585  0.6518  0.2591 -0.8247
 4735SOL    HW225665   4.399   0.059   2.702 -0.0915 -0.4929 -0.0098
 4736SOL     OW25666   3.058   2.693   4.108  0.0691  0.1413  0.4674
 4736SOL    HW125667   2.978   2.721   4.062  1.7216  1.4490 -1.6048
 4736SOL    HW225668   3.038   2.600   4.121 -1.1046  0.5640  1.7289
 4737SOL     OW25669   2.577   3.030   7.172 -0.4337  0.5687 -0.2729
 4737SOL    HW125670   2.565   2.977   7.251  0.1646  0.4793 -0.2432
 4737SOL    HW225671   2.651   2.984   7.132 -0.0983  0.6628  0.2278
 4738SOL     OW25672   0.805   3.192   9.778 -0.2108 -0.4516  0.4639
 4738SOL    HW125673   0.721   3.155   9.808  1.4688 -2.6795  2.4715
 4738SOL    HW225674   0.858   3.116   9.755 -0.4381 -0.7331  0.8656
 4739SOL     OW25675   1.908   0.314   5.536 -0.3338 -0.0181 -0.1855
 4739SOL    HW125676   1.894   0.391   5.591  0.2401  1.3035 -1.8739
 4739SOL    HW225677   1.860   0.336   5.456  1.0395 -1.1840 -1.3104
 4740SOL     OW25678   4.016   1.692   8.698  0.0712  0.1983 -0.2702
 4740SOL    HW125679   4.093   1.654   8.656  0.5531 -0.1020  0.8964
 4740SOL    HW225680   3.964   1.728   8.626  0.2684 -0.2255 -0.6245
 4741SOL     OW25681   1.535   4.527   4.251  0.1169  0.0528 -0.1819
 4741SOL    HW125682   1.449   4.495   4.224  0.7519 -0.9284 -1.0257
 4741SOL    HW225683   1.590   4.464   4.204 -1.6290 -0.4550 -1.5670
 4742SOL     OW25684   2.102   0.651  14.653  0.0411 -0.3082 -0.2585
 4742SOL    HW125685   2.158   0.675  14.726 -0.8656  0.7599  0.0890
 4742SOL    HW225686   2.063   0.569  14.683  0.7031 -0.2212  0.8476
 4743SOL     OW25687   4.003   1.556   2.992 -0.0575 -0.8124  0.0481
 4743SOL    HW125688   3.925   1.611   2.988  0.6775  0.4059  2.5744
 4743SOL    HW225689   3.984   1.499   3.066  0.5515  0.8753  1.5222
 4744SOL     OW25690   3.218   2.730  12.436  0.2458  0.1236 -0.3342
 4744SOL    HW125691   3.245   2.696  12.521  0.9274 -3.3351 -1.9357
 4744SOL    HW225692   3.296   2.780  12.410 -0.0042  0.4634 -0.4276
 4745SOL     OW25693   3.094   4.420   4.784 -0.0882  0.0489  0.6097
 4745SOL    HW125694   3.030   4.484   4.816  0.1076  0.3535  0.3960
 4745SOL    HW225695   3.095   4.457   4.696 -1.3396 -1.3017  0.0268
 4746SOL     OW25696   1.915   2.240  14.207  0.7316  0.1166 -0.3695
 4746SOL    HW125697   1.996   2.245  14.257 -0.5804  0.9635  1.6576
 4746SOL    HW225698   1.863   2.317  14.230 -0.9203 -1.3171  0.7236
 4747SOL     OW25699   4.255   1.815   1.955 -0.2740  0.0759 -0.7922
 4747SOL    HW125700   4.275   1.721   1.949  0.5046  0.2197 -0.4332
 4747SOL    HW225701   4.201   1.824   1.877  0.2950 -0.7901 -1.2932
 4748SOL     OW25702   2.832   0.632  13.374  0.4866 -0.3475 -0.3209
 4748SOL    HW125703   2.886   0.709  13.391 -2.1030  1.5822 -0.7343
 4748SOL    HW225704   2.875   0.590  13.300 -1.2059 -2.4377 -0.1030
 4749SOL     OW25705   3.226   0.418  13.272  0.3029 -0.2466  0.1064
 4749SOL    HW125706   3.243   0.332  13.232  1.6714  0.9189 -1.8167
 4749SOL    HW225707   3.130   0.414  13.277  0.3807  0.5605  2.1473
 4750SOL     OW25708   0.237   2.342  14.857 -0.1894  0.6900  0.2970
 4750SOL    HW125709   0.289   2.303  14.786  1.6168 -0.9243  2.4921
 4750SOL    HW225710   0.218   2.263  14.909  0.0330  0.4114 -0.0466
 4751SOL     OW25711   1.304   4.385   3.983 -0.3884 -0.2197  1.2301
 4751SOL    HW125712   1.327   4.476   3.965 -0.8502 -0.0958  1.2860
 4751SOL    HW225713   1.257   4.392   4.066 -1.6311  0.6578  0.4360
 4752SOL     OW25714   1.258   3.451   1.918  0.3093 -0.0350 -0.8689
 4752SOL    HW125715   1.164   3.441   1.928  0.5377 -1.3554 -0.0441
 4752SOL    HW225716   1.278   3.543   1.900 -1.1636  1.4294  4.8938
 4753SOL     OW25717   3.669   3.967  11.718 -0.3443  0.2713  0.1891
 4753SOL    HW125718   3.757   4.000  11.734 -0.1910 -0.2614  0.4225
 4753SOL    HW225719   3.652   3.994  11.627 -2.2382  1.5858  0.9388
 4754SOL     OW25720   3.186   2.970   9.491  0.1203 -0.1114 -0.4894
 4754SOL    HW125721   3.137   2.903   9.442  0.2428 -0.9520  0.5402
 4754SOL    HW225722   3.122   3.040   9.491  2.3786  1.9266  1.5529
 4755SOL     OW25723   1.303   1.620   7.930  0.3183 -0.0400  0.6062
 4755SOL    HW125724   1.284   1.684   7.862  0.0031  1.4335  2.0919
 4755SOL    HW225725   1.261   1.541   7.896 -2.4836  2.2973 -1.3392
 4756SOL     OW25726   3.563   4.211   6.680 -0.2416  0.0415  0.1380
 4756SOL    HW125727   3.551   4.138   6.618  2.6287  0.1854 -0.5974
 4756SOL    HW225728   3.526   4.288   6.638  1.9039  0.1243 -1.6524
 4757SOL     OW25729   4.340   1.925   2.369 -0.1982 -0.3647  0.0167
 4757SOL    HW125730   4.364   1.974   2.448  0.4435 -0.2373 -0.2501
 4757SOL    HW225731   4.341   1.984   2.293  1.0764  1.2782  1.3069
 4758SOL     OW25732   3.262   2.245  16.695  0.0583  0.6721  0.1674
 4758SOL    HW125733   3.178   2.291  16.687 -0.3249 -0.2402 -1.0988
 4758SOL    HW225734   3.316   2.316  16.659  0.6098 -0.1677 -0.6495
 4759SOL     OW25735   1.401   3.698   4.730 -0.2149 -0.2746  0.2570
 4759SOL    HW125736   1.481   3.663   4.771  0.0479  2.2883  1.8997
 4759SOL    HW225737   1.363   3.736   4.809 -2.5980 -0.6358 -0.7385
 4760SOL     OW25738   1.459   0.216   6.924  0.1422  0.8016 -0.1916
 4760SOL    HW125739   1.477   0.285   6.988  2.5935 -0.7084  0.7346
 4760SOL    HW225740   1.386   0.167   6.962  1.4942 -3.6770 -3.4178
 4761SOL     OW25741   0.938   1.789   4.959 -0.2240 -0.4617  0.3740
 4761SOL    HW125742   0.880   1.714   4.951  2.3054 -2.5189  1.6064
 4761SOL    HW225743   1.023   1.746   4.963 -0.3121 -0.6784 -0.1036
 4762SOL     OW25744   0.681   3.167  13.168 -0.6111 -0.2521 -0.0852
 4762SOL    HW125745   0.591   3.175  13.136 -1.0258 -0.0754  1.1175
 4762SOL    HW225746   0.685   3.092  13.228  2.2481 -0.2425 -0.2784
 4763SOL     OW25747   3.069   0.905   5.697  0.0486 -0.3588 -0.5564
 4763SOL    HW125748   3.062   0.809   5.701  1.1869 -0.4137  0.0526
 4763SOL    HW225749   3.000   0.930   5.758 -1.1063  0.9356 -2.3918
 4764SOL     OW25750   1.263   2.730  16.545 -0.0125  0.0257 -0.7909
 4764SOL    HW125751   1.268   2.643  16.507  0.3325 -0.3744  0.1772
 4764SOL    HW225752   1.209   2.771  16.477  0.2458  0.9132 -0.4547
 4765SOL     OW25753   2.777   2.934   4.174  0.0876  0.2821 -0.2497
 4765SOL    HW125754   2.799   2.900   4.260 -0.8105  0.8451  0.2168
 4765SOL    HW225755   2.747   2.852   4.135 -0.0689  0.4161 -0.4146
 4766SOL     OW25756   3.720   4.303   7.324  0.4467  0.3056 -0.4296
 4766SOL    HW125757   3.725   4.228   7.383 -0.4673  0.5304 -0.0682
 4766SOL    HW225758   3.794   4.296   7.264  1.1943  0.5728  0.4541
 4767SOL     OW25759   4.429   3.157   7.257 -0.1494  0.2168  0.7559
 4767SOL    HW125760   4.378   3.080   7.233  1.6107 -0.2122 -1.5831
 4767SOL    HW225761   4.355   3.218   7.267 -0.9853 -0.7665  0.5222
 4768SOL     OW25762   0.997   1.372   2.655  0.4938  0.0986  0.1766
 4768SOL    HW125763   1.051   1.392   2.731  1.4063 -0.3447 -0.3618
 4768SOL    HW225764   0.933   1.309   2.689 -0.1124 -0.1737 -1.4927
 4769SOL     OW25765   1.992   0.383  14.626  0.1850 -0.2846  0.1706
 4769SOL    HW125766   2.079   0.414  14.601 -0.0689  1.2452  1.1769
 4769SOL    HW225767   1.955   0.345  14.546  0.5541  0.0907 -0.1772
 4770SOL     OW25768   1.881   2.740   8.712  0.0398  0.3790  0.5625
 4770SOL    HW125769   1.823   2.692   8.772 -1.0093 -0.3529 -1.0302
 4770SOL    HW225770   1.819   2.807   8.683  0.5562  1.8497  2.8491
 4771SOL     OW25771   4.523   4.664   2.211 -0.0678  0.6737  0.1766
 4771SOL    HW125772   4.580   0.016   2.201 -0.1398  0.5799 -1.0364
 4771SOL    HW225773   4.443   4.715   2.222  1.4033  2.8469  0.8516
 4772SOL     OW25774   0.657   1.040   4.632  0.1627  0.3550 -0.4092
 4772SOL    HW125775   0.635   1.132   4.648  1.0760  0.5805 -0.4404
 4772SOL    HW225776   0.599   1.001   4.696  0.9190 -0.0697  0.0202
 4773SOL     OW25777   3.930   2.821   5.713 -0.2577  0.5328 -0.6029
 4773SOL    HW125778   3.943   2.778   5.797 -0.6186  0.8095 -0.4056
 4773SOL    HW225779   4.019   2.847   5.687  0.6910 -0.2923  1.8750
 4774SOL     OW25780   2.005   1.618  17.445  0.2591 -0.0003 -0.0302
 4774SOL    HW125781   2.082   1.566  17.425 -0.2067 -0.9394  0.6315
 4774SOL    HW225782   1.953   1.581  17.373 -0.6822  1.3451 -0.0442
 4775SOL     OW25783   1.241   1.556   8.465  0.7566  0.1849  0.6116
 4775SOL    HW125784   1.291   1.474   8.462  0.4766  0.0043  0.7639
 4775SOL    HW225785   1.250   1.592   8.377 -0.5975  0.1528  0.4566
 4776SOL     OW25786   1.972   2.062   3.551 -0.5314  0.4185 -0.0919
 4776SOL    HW125787   1.931   2.029   3.470 -2.1971  3.9371 -0.6603
 4776SOL    HW225788   1.950   2.155   3.551  2.3240  1.0897  0.7761
 4777SOL     OW25789   1.850   3.330  13.478  0.9556 -0.3185  0.4275
 4777SOL    HW125790   1.904   3.253  13.461  2.1025  1.1685 -2.6265
 4777SOL    HW225791   1.821   3.315  13.567 -1.8562 -0.1143 -0.4554
 4778SOL     OW25792   1.421   2.415   4.907 -0.3939  0.3484 -0.5479
 4778SOL    HW125793   1.403   2.338   4.853 -1.8430  0.1238  0.2448
 4778SOL    HW225794   1.410   2.479   4.837  2.1444 -0.2082 -1.4459
 4779SOL     OW25795   2.485   3.748   5.255 -0.3585  0.1424  0.1895
 4779SOL    HW125796   2.558   3.808   5.242  1.7899 -2.1966  1.3667
 4779SOL    HW225797   2.418   3.803   5.214 -2.9514 -1.3773  2.4361
 4780SOL     OW25798   0.473   0.352   5.833  0.2064 -0.2663 -0.1848
 4780SOL    HW125799   0.400   0.332   5.775  0.0073 -0.4814  0.1355
 4780SOL    HW225800   0.535   0.400   5.778 -0.0896  0.0784 -0.2190
 4781SOL     OW25801   2.931   1.709   5.935 -0.2238  0.3791  0.0759
 4781SOL    HW125802   2.987   1.653   5.881  0.7278 -0.8750  2.3792
 4781SOL    HW225803   2.984   1.788   5.932  1.8678 -1.0007  0.5211
 4782SOL     OW25804   1.480   4.414  11.990  0.4135 -0.0388  0.1061
 4782SOL    HW125805   1.419   4.380  12.055 -0.8832 -0.1536 -1.1943
 4782SOL    HW225806   1.458   4.377  11.905  0.1210  0.5879 -0.0901
 4783SOL     OW25807   2.068   2.551   6.289  0.0569  0.0215 -0.3717
 4783SOL    HW125808   1.995   2.529   6.232  0.4550  0.0463 -0.8908
 4783SOL    HW225809   2.135   2.585   6.230 -0.0438  3.1722  1.3011
 4784SOL     OW25810   0.835   4.508   7.090  0.0378 -0.1037  0.7596
 4784SOL    HW125811   0.923   4.474   7.110  0.9319  0.7327 -1.7718
 4784SOL    HW225812   0.813   4.541   7.177 -0.5429 -0.5616  0.7869
 4785SOL     OW25813   1.801   2.257   4.832 -0.3231 -0.1263  0.6511
 4785SOL    HW125814   1.876   2.284   4.885 -1.0124 -1.1053  2.1277
 4785SOL    HW225815   1.729   2.246   4.894 -2.1805  1.3368 -1.2350
 4786SOL     OW25816   0.021   0.489  16.844 -0.1026 -0.0589 -0.0653
 4786SOL    HW125817   0.112   0.460  16.845 -0.3414 -0.7633  0.7758
 4786SOL    HW225818   0.029   0.572  16.892  0.8262 -0.5499  0.6398
 4787SOL     OW25819   4.720   4.467   6.328 -0.1436  0.1469 -0.6632
 4787SOL    HW125820   0.021   4.528   6.396 -3.5602 -0.3335  1.0143
 4787SOL    HW225821   0.011   4.516   6.247 -0.3417 -0.8286 -1.2993
 4788SOL     OW25822   3.663   1.598   8.518 -0.1852 -0.1866  0.7332
 4788SOL    HW125823   3.642   1.663   8.451 -0.6000 -1.7967 -0.7047
 4788SOL    HW225824   3.659   1.654   8.595  0.8472 -0.1754  0.7764
 4789SOL     OW25825   4.238   2.209   2.657  0.5712 -0.6704 -0.7296
 4789SOL    HW125826   4.217   2.138   2.718 -0.0369  0.7609  0.7283
 4789SOL    HW225827   4.329   2.190   2.635  0.1644 -2.2864 -1.0251
 4790SOL     OW25828   2.880   2.279   3.549  0.2511 -0.1745 -0.1505
 4790SOL    HW125829   2.828   2.360   3.543 -1.4595 -1.1539  1.4567
 4790SOL    HW225830   2.961   2.327   3.565  1.7066 -2.5064 -0.6375
 4791SOL     OW25831   3.743   4.270   4.943 -0.0095  0.3230  0.0723
 4791SOL    HW125832   3.826   4.302   4.978  0.4480 -1.1867  0.3537
 4791SOL    HW225833   3.681   4.300   5.010  1.0932 -0.1978  1.3175
 4792SOL     OW25834   0.227   3.677  10.496 -0.2997 -0.1750 -0.2156
 4792SOL    HW125835   0.136   3.701  10.482 -0.4519 -3.0523 -4.2035
 4792SOL    HW225836   0.243   3.620  10.421  0.5992  0.6689 -0.6623
 4793SOL     OW25837   0.877   1.396  14.884  0.1267 -0.3361 -0.4973
 4793SOL    HW125838   0.956   1.347  14.864 -0.2606 -0.8293 -0.8142
 4793SOL    HW225839   0.884   1.464  14.817  0.7742  1.7510  1.6867
 4794SOL     OW25840   0.480   3.607   5.042 -0.0222 -0.0105  0.2694
 4794SOL    HW125841   0.529   3.530   5.071 -1.4859 -2.2362 -3.1405
 4794SOL    HW225842   0.404   3.568   4.997 -0.1514  0.8164 -0.2306
 4795SOL     OW25843   4.659   4.128  13.602  0.5688 -0.2131 -0.0427
 4795SOL    HW125844   4.714   4.185  13.655  0.0221  0.2965 -0.0213
 4795SOL    HW225845   4.715   4.051  13.592  0.6259 -0.2603  0.6032
 4796SOL     OW25846   2.649   2.044   2.585  0.0267 -0.4028  0.0607
 4796SOL    HW125847   2.581   2.021   2.521  0.3274  0.5346 -0.6014
 4796SOL    HW225848   2.713   2.081   2.524  0.7704 -1.0405  0.4424
 4797SOL     OW25849   4.065   2.217   5.904  0.2121  0.0033  0.1255
 4797SOL    HW125850   4.108   2.188   5.984 -0.5272 -1.7073 -0.0966
 4797SOL    HW225851   4.099   2.159   5.835  2.4363 -0.4114  1.5765
 4798SOL     OW25852   0.705   2.466   4.910 -0.0694 -0.2181 -0.1134
 4798SOL    HW125853   0.639   2.465   4.841  0.3174 -1.3870 -0.4540
 4798SOL    HW225854   0.694   2.556   4.943  2.4012  0.5023 -1.2764
 4799SOL     OW25855   4.562   0.995   7.117  0.2859 -0.3941 -0.1124
 4799SOL    HW125856   4.485   0.988   7.061  1.1668  0.1009 -1.3920
 4799SOL    HW225857   4.628   1.034   7.058  0.5046  0.3979  0.6496
 4800SOL     OW25858   1.541   1.845   4.458 -0.8225  0.2125 -0.1605
 4800SOL    HW125859   1.527   1.914   4.393  0.2493  2.5297  2.0901
 4800SOL    HW225860   1.455   1.829   4.497 -0.8637 -1.8252 -1.0937
 4801SOL     OW25861   2.130   3.909  11.402  0.6242 -0.7361 -0.0859
 4801SOL    HW125862   2.175   3.974  11.456  1.0621 -1.6172  0.5904
 4801SOL    HW225863   2.052   3.887  11.452 -0.4894 -2.8900 -2.7447
 4802SOL     OW25864   0.356   2.659   8.610 -0.3212 -0.4700  0.3108
 4802SOL    HW125865   0.336   2.677   8.518 -0.3803  0.1077  0.4371
 4802SOL    HW225866   0.276   2.699   8.646  1.5923  1.7472  2.1406
 4803SOL     OW25867   3.410   3.593   4.950 -0.1509  0.1363  0.1858
 4803SOL    HW125868   3.329   3.626   4.987 -0.3895 -1.8799  1.4304
 4803SOL    HW225869   3.446   3.562   5.033 -0.4430  1.8853  0.9735
 4804SOL     OW25870   1.274   4.278  10.441  0.1185  0.0783  0.1469
 4804SOL    HW125871   1.295   4.273  10.534 -1.0936 -2.5269  0.2745
 4804SOL    HW225872   1.187   4.240  10.455 -0.3461  1.2629  0.4412
 4805SOL     OW25873   0.948   0.457  10.582  0.0551  0.0562  0.5833
 4805SOL    HW125874   0.910   0.390  10.526  0.6858  0.1014  0.0951
 4805SOL    HW225875   0.960   0.416  10.668 -2.8392 -2.1215 -0.0638
 4806SOL     OW25876   3.749   0.641   5.532 -0.5506  0.1899  0.3332
 4806SOL    HW125877   3.714   0.681   5.612  2.2265  1.9327  0.6741
 4806SOL    HW225878   3.664   0.620   5.494 -0.1981  0.8831 -0.8271
 4807SOL     OW25879   0.990   3.488   9.201 -0.3049  0.1903  0.4890
 4807SOL    HW125880   1.026   3.567   9.161 -1.1336 -0.0425 -0.7277
 4807SOL    HW225881   1.068   3.434   9.214  2.1509  3.9201  1.0270
 4808SOL     OW25882   0.446   3.549   2.643  0.1444  0.2382  0.4206
 4808SOL    HW125883   0.380   3.593   2.588 -1.1554  1.0899  2.6330
 4808SOL    HW225884   0.398   3.539   2.726  0.5491 -0.4275  0.5726
 4809SOL     OW25885   1.961   3.452   9.129 -0.1928  0.3014  0.3847
 4809SOL    HW125886   2.014   3.413   9.199 -2.6952  0.7135  2.5028
 4809SOL    HW225887   2.009   3.534   9.114 -1.0014  0.3037 -2.0902
 4810SOL     OW25888   2.654   3.558   5.101  0.1648  0.3590 -0.0652
 4810SOL    HW125889   2.645   3.646   5.139  0.6553 -0.2083  1.3693
 4810SOL    HW225890   2.597   3.567   5.025  1.8194  0.9532 -1.2226
 4811SOL     OW25891   3.871   3.264   5.682 -0.3239 -0.1505  0.0038
 4811SOL    HW125892   3.896   3.277   5.774 -0.1946  0.8727 -0.1815
 4811SOL    HW225893   3.851   3.354   5.656 -1.3419 -0.0171  1.2430
 4812SOL     OW25894   3.643   2.575   5.181  0.4443  0.6036 -0.3882
 4812SOL    HW125895   3.602   2.615   5.258  1.5299  1.1374 -0.0808
 4812SOL    HW225896   3.570   2.558   5.122  0.1403 -1.4649  0.5835
 4813SOL     OW25897   0.381   1.923   4.859  0.5735  0.6925  1.1609
 4813SOL    HW125898   0.356   1.836   4.827  1.3390  0.5932  0.8299
 4813SOL    HW225899   0.302   1.954   4.902 -0.3621  2.0003 -1.4658
 4814SOL     OW25900   4.074   4.165   4.155 -0.1026  0.1187 -0.0628
 4814SOL    HW125901   4.103   4.182   4.065 -1.0678 -1.3025 -0.6338
 4814SOL    HW225902   4.001   4.227   4.161 -1.7055 -1.7298 -0.2592
 4815SOL     OW25903   3.992   2.698   7.804  0.2202 -0.1671  0.5144
 4815SOL    HW125904   4.023   2.625   7.857  0.9535 -2.6195 -3.2684
 4815SOL    HW225905   4.022   2.676   7.715 -1.5189 -1.7349  0.3214
 4816SOL     OW25906   2.485   1.992   2.806 -0.3196  0.3906 -0.4436
 4816SOL    HW125907   2.538   2.041   2.743 -0.8498  0.9066 -0.4821
 4816SOL    HW225908   2.394   2.007   2.779 -0.1010  0.4079 -1.1759
 4817SOL     OW25909   2.218   3.553   2.511 -0.1046 -0.2930 -0.3045
 4817SOL    HW125910   2.165   3.595   2.579 -0.6918 -1.8499  0.1995
 4817SOL    HW225911   2.233   3.633   2.461 -1.5834 -2.6484 -4.4295
 4818SOL     OW25912   4.704   1.474   7.015  0.4821 -0.3109  0.2883
 4818SOL    HW125913   4.674   1.426   6.938  1.3296 -0.3975  0.0162
 4818SOL    HW225914   0.025   1.401   7.057  0.6585 -2.1105 -3.0635
 4819SOL     OW25915   1.614   1.793  15.523  0.6127 -0.1599  0.1554
 4819SOL    HW125916   1.659   1.760  15.446  0.4412  0.4181 -0.1909
 4819SOL    HW225917   1.561   1.718  15.551  0.5112 -0.0793  0.1801
 4820SOL     OW25918   2.618   4.384   3.875  0.1076 -0.0366  0.6625
 4820SOL    HW125919   2.711   4.381   3.854 -0.2085  2.1997 -1.0475
 4820SOL    HW225920   2.616   4.295   3.910 -0.0834 -0.7170 -1.0353
 4821SOL     OW25921   2.330   3.498  13.619 -0.7030  0.0026 -0.4094
 4821SOL    HW125922   2.312   3.440  13.545  3.0203 -1.3636 -0.2403
 4821SOL    HW225923   2.247   3.519  13.662  0.0818 -0.2191  1.2115
 4822SOL     OW25924   2.273   4.305   1.489 -0.3109 -0.4738  0.0178
 4822SOL    HW125925   2.217   4.342   1.558  0.3400 -0.6034  0.6115
 4822SOL    HW225926   2.222   4.225   1.471 -1.5326  0.2844  0.0895
 4823SOL     OW25927   1.281   0.238   4.877 -0.0323 -0.7828 -0.3402
 4823SOL    HW125928   1.203   0.211   4.925  1.0146 -2.8680  0.1835
 4823SOL    HW225929   1.327   0.276   4.952 -1.5138 -2.5786  1.4737
 4824SOL     OW25930   4.639   2.057  10.455 -0.3432 -0.2348 -0.1169
 4824SOL    HW125931   4.662   1.971  10.420  0.5438 -0.1669  0.2946
 4824SOL    HW225932   4.701   2.062  10.528 -1.2605  2.9698  0.4304
 4825SOL     OW25933   1.962   0.790  10.440  0.3794  0.0640  0.1939
 4825SOL    HW125934   1.887   0.766  10.385  2.4761 -0.4362 -2.4209
 4825SOL    HW225935   1.973   0.709  10.488  0.4891  0.1076  0.2408
 4826SOL     OW25936   0.070   3.169   6.906  0.6434  0.4329 -1.1362
 4826SOL    HW125937   0.156   3.140   6.937 -1.4473 -3.1643  1.2847
 4826SOL    HW225938   0.027   3.216   6.978  0.3623 -1.3264 -0.1581
 4827SOL     OW25939   0.561   2.373   5.586 -0.0667  1.0587 -0.3456
 4827SOL    HW125940   0.502   2.298   5.592 -1.3206  2.0924  0.1957
 4827SOL    HW225941   0.529   2.422   5.661 -0.4590 -1.7211  1.2999
 4828SOL     OW25942   2.296   3.092  14.766 -0.3520 -0.0162 -0.6012
 4828SOL    HW125943   2.217   3.038  14.768  0.8058 -1.7171 -0.0112
 4828SOL    HW225944   2.291   3.120  14.857  1.2742 -0.9467 -0.2104
 4829SOL     OW25945   0.106   4.538   0.986 -0.2911  0.4192  0.6044
 4829SOL    HW125946   0.109   4.591   1.066  0.5618  1.0782  0.1386
 4829SOL    HW225947   0.026   4.574   0.947  0.5801  0.6689 -0.9645
 4830SOL     OW25948   3.504   2.842   3.367 -0.3818  0.9023  0.5980
 4830SOL    HW125949   3.598   2.858   3.364  0.2121 -2.8224 -0.5675
 4830SOL    HW225950   3.495   2.775   3.300 -1.2229  2.0630 -0.4569
 4831SOL     OW25951   1.949   0.315   0.539 -0.3476  0.4481 -0.0149
 4831SOL    HW125952   1.930   0.303   0.446 -0.3811  2.6605 -0.3026
 4831SOL    HW225953   1.922   0.227   0.566 -0.2096  0.3208 -0.3003
 4832SOL     OW25954   2.122   4.706   3.685 -0.0826 -0.0704 -0.2507
 4832SOL    HW125955   2.109   0.055   3.624  1.7752  1.2649  0.9635
 4832SOL    HW225956   2.191   4.661   3.638  0.6969  1.2547 -0.3832
 4833SOL     OW25957   1.809   1.385   3.812 -0.4138 -0.3204  0.4699
 4833SOL    HW125958   1.744   1.407   3.878 -1.4631 -1.8187 -0.0705
 4833SOL    HW225959   1.783   1.431   3.732 -0.1874  0.6864  0.9789
 4834SOL     OW25960   0.643   0.882   9.475  0.4976 -0.0525 -0.2557
 4834SOL    HW125961   0.682   0.958   9.519 -1.6101  0.8016  0.1327
 4834SOL    HW225962   0.567   0.928   9.438  2.6580  2.4658 -1.5551
 4835SOL     OW25963   1.820   0.341   3.424 -0.1506  0.7820  0.2857
 4835SOL    HW125964   1.737   0.368   3.384 -0.7753 -0.4287  0.7626
 4835SOL    HW225965   1.884   0.379   3.364 -1.6137  0.4364 -1.5015
 4836SOL     OW25966   3.296   0.956   1.119  0.6972  0.3374  0.4286
 4836SOL    HW125967   3.349   0.987   1.045 -0.3255  1.0636  0.0003
 4836SOL    HW225968   3.209   0.984   1.090  0.0054 -0.2407  1.9730
 4837SOL     OW25969   2.951   3.110   9.436 -0.3825  0.5383  0.4759
 4837SOL    HW125970   2.914   3.046   9.496 -0.1926  0.7029  0.7677
 4837SOL    HW225971   2.869   3.126   9.388 -0.3682  0.7210  0.5127
 4838SOL     OW25972   0.372   1.215   6.165  0.2224 -0.5526 -0.1171
 4838SOL    HW125973   0.396   1.188   6.254  1.3771 -0.8166 -0.5132
 4838SOL    HW225974   0.283   1.181   6.171 -0.4018  0.5358 -3.2925
 4839SOL     OW25975   1.757   0.019  16.186 -0.0816 -0.3205 -0.3577
 4839SOL    HW125976   1.792   0.008  16.275 -1.5877 -0.4740  0.2209
 4839SOL    HW225977   1.718   0.105  16.200  1.8570  0.5467 -0.2434
 4840SOL     OW25978   2.382   4.534   5.165 -0.0911  0.3977 -0.0041
 4840SOL    HW125979   2.305   4.585   5.193 -0.3221 -1.1016  2.0589
 4840SOL    HW225980   2.432   4.531   5.246  0.2559 -0.4924 -0.2542
 4841SOL     OW25981   4.640   0.017   8.796 -0.1634 -0.6762 -0.1719
 4841SOL    HW125982   4.718   4.698   8.832  1.0128  2.0047  0.5013
 4841SOL    HW225983   4.567   4.685   8.820 -0.9662 -0.5352 -2.2802
 4842SOL     OW25984   3.011   2.940   8.037  0.2087  0.1725 -0.8797
 4842SOL    HW125985   2.999   2.860   8.087  1.1372  1.7567  1.8224
 4842SOL    HW225986   2.984   2.926   7.946 -1.1826 -0.7661 -0.3275
 4843SOL     OW25987   0.177   4.060  16.472 -0.7180  0.0292  0.1356
 4843SOL    HW125988   0.183   4.155  16.468 -1.2414  0.1115  1.2183
 4843SOL    HW225989   0.108   4.034  16.411 -0.5086 -1.5563  0.5659
 4844SOL     OW25990   2.758   2.897  11.369  0.5294 -0.9593  0.2220
 4844SOL    HW125991   2.811   2.818  11.359  0.5212 -0.7674 -1.4807
 4844SOL    HW225992   2.714   2.924  11.288 -0.1373 -0.6150  0.7045
 4845SOL     OW25993   0.357   4.305  11.119 -0.1745  0.6236 -0.4790
 4845SOL    HW125994   0.337   4.241  11.051  1.1752  0.0973 -0.3563
 4845SOL    HW225995   0.422   4.351  11.067  0.9058  0.0688  0.3919
 4846SOL     OW25996   0.426   0.292   3.706 -0.0440 -0.5521 -0.0380
 4846SOL    HW125997   0.409   0.385   3.720  0.4082 -0.7345  1.7584
 4846SOL    HW225998   0.521   0.288   3.719 -0.2731 -0.8489  1.5792
 4847SOL     OW25999   3.666   0.906   1.032 -0.4488  0.0728  0.0277
 4847SOL    HW126000   3.721   0.827   1.032  0.0618  0.4275 -1.5823
 4847SOL    HW226001   3.633   0.899   1.121 -2.8159 -1.8175 -1.0163
 4848SOL     OW26002   1.715   3.771   7.285  0.0194 -0.1662 -0.2476
 4848SOL    HW126003   1.712   3.847   7.344 -0.9195  0.6425 -1.3406
 4848SOL    HW226004   1.649   3.719   7.330 -0.7494  1.8188  0.9004
 4849SOL     OW26005   0.957   0.626   8.601  0.4380  0.8469 -0.4526
 4849SOL    HW126006   0.988   0.683   8.531 -0.8604  0.9036 -0.9710
 4849SOL    HW226007   0.863   0.622   8.585  0.2158 -1.7184  1.4200
 4850SOL     OW26008   1.648   2.634   3.960 -0.1019 -0.1175 -0.1661
 4850SOL    HW126009   1.737   2.613   3.987  0.8075  0.8018 -2.4534
 4850SOL    HW226010   1.663   2.648   3.867  2.3364  1.2963  0.4453
 4851SOL     OW26011   3.593   3.417   8.699 -0.4059  0.4550  0.0109
 4851SOL    HW126012   3.596   3.343   8.637 -2.2312  2.5409 -2.5719
 4851SOL    HW226013   3.566   3.369   8.777  1.0193 -1.0810 -0.4424
 4852SOL     OW26014   2.540   2.503   6.248  0.2575  0.5599  0.0693
 4852SOL    HW126015   2.507   2.415   6.263  1.3797 -0.1114 -1.5092
 4852SOL    HW226016   2.626   2.496   6.291  0.7043  1.3974 -0.6888
 4853SOL     OW26017   0.529   1.808   3.087  0.3872  0.0021  0.4814
 4853SOL    HW126018   0.502   1.723   3.121  0.2056 -0.0221  0.2809
 4853SOL    HW226019   0.540   1.853   3.170 -2.7659  0.7652  0.4959
 4854SOL     OW26020   2.045   1.170   6.655 -0.2727 -0.4353  0.0876
 4854SOL    HW126021   1.974   1.131   6.604  0.2030  0.7234 -1.4570
 4854SOL    HW226022   2.009   1.258   6.661  0.0268 -0.4409  2.0392
 4855SOL     OW26023   2.526   2.127  15.507  0.1992 -0.2727 -0.0405
 4855SOL    HW126024   2.596   2.151  15.446 -4.2883  0.7385 -4.8578
 4855SOL    HW226025   2.559   2.054  15.559 -0.4621 -0.5465 -0.0063
 4856SOL     OW26026   0.466   3.654  12.814  0.0423 -0.3771  0.2104
 4856SOL    HW126027   0.438   3.738  12.849  0.0627 -0.4186  0.3274
 4856SOL    HW226028   0.547   3.634  12.861 -0.3374 -3.5123 -0.4600
 4857SOL     OW26029   0.263   0.467   6.818 -0.1009 -0.4845 -0.2477
 4857SOL    HW126030   0.268   0.373   6.837 -0.0091 -0.3088  0.6203
 4857SOL    HW226031   0.187   0.477   6.762  0.0961 -1.3129 -0.6577
 4858SOL     OW26032   0.272   3.305   4.571  0.1587  0.3559 -0.4258
 4858SOL    HW126033   0.227   3.223   4.592  0.0153  0.5708  0.1049
 4858SOL    HW226034   0.345   3.307   4.634  0.0045  0.7052 -0.2591
 4859SOL     OW26035   2.442   2.943   1.693 -0.0049  0.5265  0.0467
 4859SOL    HW126036   2.495   2.947   1.614  1.7715 -1.7805  1.1191
 4859SOL    HW226037   2.408   2.854   1.694  0.3536  0.3851 -1.0444
 4860SOL     OW26038   0.711   3.114   4.399  0.1452 -0.2100  0.1665
 4860SOL    HW126039   0.665   3.197   4.384  0.0190 -0.0152  1.6163
 4860SOL    HW226040   0.716   3.106   4.495  1.7273 -1.6574 -0.0388
 4861SOL     OW26041   0.828   2.900  13.535 -0.8697 -0.5188 -0.6392
 4861SOL    HW126042   0.898   2.835  13.525 -1.4068 -1.7523  3.6470
 4861SOL    HW226043   0.791   2.887  13.622 -0.4585 -1.5625 -0.6224
 4862SOL     OW26044   2.021   2.939   0.108 -0.3488 -0.2688 -0.1515
 4862SOL    HW126045   2.050   2.888   0.032  0.0010 -0.9146  0.4181
 4862SOL    HW226046   1.934   2.968   0.080 -0.7077  1.4164  2.7249
 4863SOL     OW26047   1.332   0.798   7.611  0.6023 -0.4806  0.0783
 4863SOL    HW126048   1.264   0.840   7.663 -0.6434 -0.2374 -1.7681
 4863SOL    HW226049   1.384   0.753   7.678  0.7099  0.3015  0.5125
 4864SOL     OW26050   4.349   3.728  15.083  0.3637 -0.4216  0.3647
 4864SOL    HW126051   4.300   3.785  15.023  4.1227  2.8779  0.4209
 4864SOL    HW226052   4.392   3.801  15.127 -0.8995 -0.4860  1.7164
 4865SOL     OW26053   2.078   1.501  12.107  0.0866  0.2350 -0.0905
 4865SOL    HW126054   2.141   1.548  12.053  0.8684  0.6549  1.2050
 4865SOL    HW226055   2.020   1.565  12.149 -1.1664 -1.0353  0.1470
 4866SOL     OW26056   2.557   3.810   1.941  0.0603  0.3867  0.1981
 4866SOL    HW126057   2.579   3.854   1.859  0.7444 -0.5980 -0.1362
 4866SOL    HW226058   2.500   3.741   1.908 -1.9633  2.6967 -1.1281
 4867SOL     OW26059   0.679   2.494   2.719 -0.1716 -0.1398 -0.6336
 4867SOL    HW126060   0.672   2.469   2.627  2.9616 -0.2007 -0.8542
 4867SOL    HW226061   0.594   2.533   2.738 -0.7612 -1.8441  0.1846
 4868SOL     OW26062   1.022   0.291   0.682  0.3613 -0.0397  0.0621
 4868SOL    HW126063   1.006   0.366   0.625 -2.3719 -0.8968 -0.3161
 4868SOL    HW226064   0.967   0.317   0.756  3.7864 -0.1088  2.6150
 4869SOL     OW26065   0.911   4.232   5.408  0.2401  0.0075 -0.1791
 4869SOL    HW126066   0.905   4.252   5.501  1.1561  1.3339 -0.4076
 4869SOL    HW226067   0.907   4.136   5.408 -0.2832  0.0321 -4.1103
 4870SOL     OW26068   0.635   4.149   8.371  0.3988 -0.1994 -0.8775
 4870SOL    HW126069   0.698   4.177   8.437  0.4553 -1.4883 -0.3739
 4870SOL    HW226070   0.621   4.061   8.408 -0.0108  0.2310 -0.0167
 4871SOL     OW26071   0.457   1.210   9.737  0.2633 -0.0003  0.2630
 4871SOL    HW126072   0.503   1.137   9.779  0.3664 -0.2203 -0.2276
 4871SOL    HW226073   0.538   1.250   9.705  0.9345 -3.2132 -2.0297
 4872SOL     OW26074   0.672   2.198  10.821  0.0882 -0.9684 -0.2334
 4872SOL    HW126075   0.675   2.124  10.760  0.9573 -1.7724  0.7738
 4872SOL    HW226076   0.760   2.234  10.816  0.1989 -1.1217  0.5239
 4873SOL     OW26077   0.182   3.553   4.705  0.3211  0.2607 -0.2256
 4873SOL    HW126078   0.233   3.492   4.651 -2.2018 -1.7514 -0.3767
 4873SOL    HW226079   0.090   3.541   4.680  0.1062  0.6665  0.3980
 4874SOL     OW26080   0.934   4.185  15.789 -0.1130  0.1194 -0.7236
 4874SOL    HW126081   0.962   4.096  15.769  0.9481  0.1842  0.4952
 4874SOL    HW226082   0.997   4.208  15.858  0.3187 -0.3097 -0.9748
 4875SOL     OW26083   3.831   2.889   9.793  0.2046  0.6025 -0.7068
 4875SOL    HW126084   3.912   2.930   9.766  1.4447 -2.1932 -1.2413
 4875SOL    HW226085   3.823   2.816   9.731 -0.3244 -1.0421  1.2670
 4876SOL     OW26086   1.368   0.823   1.044  0.1646  0.4028  0.7276
 4876SOL    HW126087   1.338   0.798   0.957  0.0290 -1.1920  1.2303
 4876SOL    HW226088   1.438   0.882   1.017 -0.7778  0.6719 -1.1315
 4877SOL     OW26089   1.724   0.360   2.294  0.0628  0.1134 -0.0641
 4877SOL    HW126090   1.818   0.374   2.293  0.4850 -2.6694  0.3994
 4877SOL    HW226091   1.693   0.415   2.222  0.0950 -0.9734 -0.8989
 4878SOL     OW26092   0.588   1.678   9.191  0.3095 -0.2524  0.3538
 4878SOL    HW126093   0.654   1.652   9.126  0.4827  1.9079 -0.3335
 4878SOL    HW226094   0.616   1.617   9.259 -0.2344 -1.0954 -0.1699
 4879SOL     OW26095   0.357   2.896   7.520  0.2024  0.5229  0.0129
 4879SOL    HW126096   0.341   2.943   7.602  3.1277  2.2363 -0.4056
 4879SOL    HW226097   0.267   2.874   7.494  0.2182 -0.4688  0.8342
 4880SOL     OW26098   0.075   0.954   9.610  0.1252 -0.4994 -0.0982
 4880SOL    HW126099   0.140   0.923   9.546  0.0442  0.3156 -0.5870
 4880SOL    HW226100   0.100   1.046   9.622 -0.0458 -0.4912  0.1852
 4881SOL     OW26101   2.600   4.119   9.033  0.0343 -0.2335  0.1363
 4881SOL    HW126102   2.663   4.084   9.095  0.2575 -2.2819 -1.2726
 4881SOL    HW226103   2.521   4.127   9.088 -0.3592  0.0854 -0.4771
 4882SOL     OW26104   2.009   4.075  15.038 -0.4942 -0.0430 -0.1496
 4882SOL    HW126105   2.010   4.157  15.088 -2.7470 -1.5117  2.2889
 4882SOL    HW226106   1.981   4.010  15.102  0.1584  0.2995  0.4733
 4883SOL     OW26107   1.083   0.490   6.213  0.2513  0.2266 -0.1969
 4883SOL    HW126108   1.051   0.455   6.130  1.0124  1.0875 -0.8470
 4883SOL    HW226109   1.021   0.559   6.237  0.6996  1.3389 -2.2401
 4884SOL     OW26110   2.347   4.591   2.937  0.2784  0.6130 -0.2043
 4884SOL    HW126111   2.376   4.661   2.996  2.2080  1.3646 -2.0753
 4884SOL    HW226112   2.428   4.570   2.891  0.7597  2.1239 -0.0544
 4885SOL     OW26113   3.385   0.270  12.538 -0.0809  0.1244 -0.1624
 4885SOL    HW126114   3.298   0.233  12.524  0.0995 -1.3668  2.6724
 4885SOL    HW226115   3.391   0.295  12.630  0.7743  2.0361 -0.7421
 4886SOL     OW26116   1.189   1.377   7.820  0.1109 -0.2161 -0.2744
 4886SOL    HW126117   1.102   1.368   7.780 -0.2665  0.7501  0.3172
 4886SOL    HW226118   1.237   1.372   7.738 -0.0445  2.5941 -0.5198
 4887SOL     OW26119   1.411   2.560   2.254  0.0729 -0.1933 -0.4329
 4887SOL    HW126120   1.475   2.490   2.252 -0.5885 -0.7500 -2.4176
 4887SOL    HW226121   1.337   2.500   2.258  0.1038 -0.0803  1.8282
 4888SOL     OW26122   1.068   1.479  14.456  0.4539  0.1764 -0.6564
 4888SOL    HW126123   1.079   1.461  14.363  0.3958  1.2669 -0.8725
 4888SOL    HW226124   1.098   1.399  14.499 -1.4582 -0.0022  0.3496
 4889SOL     OW26125   3.317   2.671   2.577 -0.1727 -0.5324 -0.3797
 4889SOL    HW126126   3.303   2.765   2.572 -2.1532 -0.8423 -0.7262
 4889SOL    HW226127   3.400   2.667   2.531 -0.1908 -0.1695 -0.4429
 4890SOL     OW26128   2.645   1.543   8.766 -0.1399 -0.2983 -0.0623
 4890SOL    HW126129   2.720   1.565   8.821 -0.9195  0.1729  0.8017
 4890SOL    HW226130   2.619   1.627   8.728  0.5329  0.4413  1.1166
 4891SOL     OW26131   1.700   0.298   2.763 -0.4356 -0.2841  0.6916
 4891SOL    HW126132   1.675   0.340   2.681 -3.6330  0.7031  2.1732
 4891SOL    HW226133   1.795   0.302   2.757 -0.6791  0.0498 -3.0323
 4892SOL     OW26134   1.630   1.039   3.483 -0.1638 -0.0436 -0.5310
 4892SOL    HW126135   1.584   0.968   3.529 -1.0755  2.0759  1.8438
 4892SOL    HW226136   1.698   0.984   3.445  1.3739  1.3459  0.2130
 4893SOL     OW26137   3.244   4.053  16.378  0.1494  0.1706  0.1054
 4893SOL    HW126138   3.192   4.095  16.446 -1.3444 -1.7407  0.1385
 4893SOL    HW226139   3.185   4.040  16.303 -1.5332  0.8945  1.3021
 4894SOL     OW26140   0.036   1.311   1.676 -0.0473  0.0340 -0.0037
 4894SOL    HW126141   0.060   1.401   1.698 -0.7854  0.5388 -1.2381
 4894SOL    HW226142   0.095   1.315   1.601 -0.5163 -1.4379 -0.4444
 4895SOL     OW26143   1.461   0.436   7.738  0.6088 -0.0465 -0.7689
 4895SOL    HW126144   1.462   0.520   7.785  1.1940  0.1493 -1.1161
 4895SOL    HW226145   1.371   0.415   7.715  1.6420 -2.0590 -2.9932
 4896SOL     OW26146   0.199   1.293   1.475 -0.4726 -0.4243  0.1476
 4896SOL    HW126147   0.193   1.306   1.380 -1.3831  0.9410  0.3942
 4896SOL    HW226148   0.209   1.200   1.497 -2.5947 -0.6223  0.3038
 4897SOL     OW26149   4.612   3.045   4.426 -0.0669 -0.1665 -0.0016
 4897SOL    HW126150   4.639   3.030   4.336  0.5633 -2.3103  0.5401
 4897SOL    HW226151   4.700   3.063   4.460 -1.7236  4.4945  1.8718
 4898SOL     OW26152   0.593   4.712   9.609  0.3387 -0.2228  0.3472
 4898SOL    HW126153   0.519   4.692   9.666 -0.4610  1.3963 -0.1218
 4898SOL    HW226154   0.666   4.690   9.666  0.3023  0.6797  0.7396
 4899SOL     OW26155   3.227   2.648   7.614 -0.2110 -0.5066 -0.2278
 4899SOL    HW126156   3.250   2.595   7.690  1.6638  0.0224 -0.4262
 4899SOL    HW226157   3.209   2.593   7.539 -1.7065 -0.8564  0.3688
 4900SOL     OW26158   2.348   3.773   3.011 -0.0430  0.0627 -0.0962
 4900SOL    HW126159   2.412   3.835   2.974  2.2563 -0.8374  2.3843
 4900SOL    HW226160   2.368   3.688   2.972 -1.2556 -0.3600  0.2279
 4901SOL     OW26161   3.274   4.083   4.907  0.2436 -0.2949  0.0347
 4901SOL    HW126162   3.202   4.040   4.954 -0.6298  1.9421  0.7649
 4901SOL    HW226163   3.259   4.176   4.924  3.7038  0.3093 -0.2216
 4902SOL     OW26164   2.490   0.906   3.851 -0.0476 -0.4310  0.4853
 4902SOL    HW126165   2.445   0.991   3.859 -2.2842 -1.5913  0.3085
 4902SOL    HW226166   2.450   0.870   3.772  0.9958 -1.9998  0.6723
 4903SOL     OW26167   4.515   2.192   3.981  0.1887 -0.6344  0.0158
 4903SOL    HW126168   4.484   2.118   4.033 -0.2295 -0.5256 -0.0803
 4903SOL    HW226169   4.610   2.182   3.984  0.3267  0.0974 -2.1318
 4904SOL     OW26170   4.519   2.414   4.798 -0.0162  0.4359  0.1052
 4904SOL    HW126171   4.594   2.372   4.840 -2.5482 -1.5909  2.5852
 4904SOL    HW226172   4.497   2.371   4.715  0.1185 -2.1964  1.4398
 4905SOL     OW26173   4.600   0.006   7.256 -0.3922  0.2824  0.5435
 4905SOL    HW126174   4.619   0.095   7.287  0.4741  0.5912 -0.8807
 4905SOL    HW226175   4.606   4.680   7.338  0.7374 -0.2572  0.1431
 4906SOL     OW26176   3.897   3.987   8.320 -0.0132  0.0122  0.1550
 4906SOL    HW126177   3.896   4.083   8.313  1.0401 -0.0945 -1.4407
 4906SOL    HW226178   3.910   3.965   8.228 -0.1565  0.6177 -0.0117
 4907SOL     OW26179   3.901   2.556   3.946  0.1994  0.4847 -0.9886
 4907SOL    HW126180   3.835   2.619   3.916  1.3376  1.9872 -0.3515
 4907SOL    HW226181   3.904   2.504   3.866 -0.8814 -3.7528  1.7315
 4908SOL     OW26182   0.250   4.318  10.683 -0.0652  0.1021 -0.3875
 4908SOL    HW126183   0.337   4.317  10.643 -0.2235 -1.4810 -0.7048
 4908SOL    HW226184   0.212   4.396  10.644 -1.5168 -0.4255 -0.0355
 4909SOL     OW26185   2.615   3.601  15.304  0.3161 -0.4124  0.0793
 4909SOL    HW126186   2.621   3.605  15.209 -1.4349  0.8501  0.0110
 4909SOL    HW226187   2.662   3.521  15.326  2.2160  0.8483  0.6175
 4910SOL     OW26188   0.699   1.607   7.830  0.0762  0.0756 -0.0488
 4910SOL    HW126189   0.610   1.636   7.811 -0.5774 -1.0209  1.2757
 4910SOL    HW226190   0.721   1.586   7.739  3.2374  1.8643  0.3274
 4911SOL     OW26191   0.451   0.530  12.248  0.2436  0.8134  0.1007
 4911SOL    HW126192   0.465   0.598  12.182  0.4142  2.3257  1.6914
 4911SOL    HW226193   0.474   0.457  12.192 -0.4807  0.7538 -0.1054
 4912SOL     OW26194   4.516   3.555   1.717 -0.0196  0.1851  0.8690
 4912SOL    HW126195   4.581   3.494   1.750  0.0958 -0.5233 -0.6735
 4912SOL    HW226196   4.439   3.536   1.770 -0.9210  0.2573 -0.3874
 4913SOL     OW26197   3.528   2.584   9.427 -0.4632  0.5476 -0.2558
 4913SOL    HW126198   3.489   2.642   9.493  2.5538  2.0147  0.2566
 4913SOL    HW226199   3.456   2.530   9.393  2.2622 -2.0204 -1.9440
 4914SOL     OW26200   2.835   2.291   1.896  0.2683  0.1680  0.7032
 4914SOL    HW126201   2.860   2.369   1.846 -1.5047  0.1328 -0.2546
 4914SOL    HW226202   2.822   2.328   1.983  2.5052  0.3409  0.9604
 4915SOL     OW26203   0.193   2.431   2.512 -0.7091 -0.1540  0.1428
 4915SOL    HW126204   0.202   2.482   2.431 -0.3309 -1.7165 -0.8033
 4915SOL    HW226205   0.124   2.484   2.551 -2.9268 -1.8273 -1.4440
 4916SOL     OW26206   0.097   4.095  10.483 -0.3500 -0.7795  0.3737
 4916SOL    HW126207   0.082   4.168  10.424 -1.3295 -0.8105  0.5831
 4916SOL    HW226208   0.167   4.049  10.436 -0.1889  0.4947 -0.6105
 4917SOL     OW26209   1.061   3.523  15.409  0.6219  0.7235  0.2749
 4917SOL    HW126210   1.047   3.548  15.500 -0.2022 -1.3959  0.7428
 4917SOL    HW226211   1.138   3.574  15.386  2.4370 -2.5112 -0.7806
 4918SOL     OW26212   2.805   0.446   8.515 -0.1393  0.1390 -0.1260
 4918SOL    HW126213   2.898   0.467   8.519  0.1789 -1.0391 -1.0830
 4918SOL    HW226214   2.783   0.500   8.439 -0.5784  0.3599  0.1602
 4919SOL     OW26215   2.262   3.089  10.348 -0.1629  0.1533  0.0778
 4919SOL    HW126216   2.240   3.051  10.263  1.0688  0.4579 -0.3731
 4919SOL    HW226217   2.355   3.075  10.363  0.1963  2.3749 -0.1572
 4920SOL     OW26218   1.694   2.731   5.192 -0.4075  0.5848  0.2048
 4920SOL    HW126219   1.785   2.757   5.175  0.9719 -4.7527 -0.8469
 4920SOL    HW226220   1.710   2.648   5.238  0.8195  0.4628 -0.4437
 4921SOL     OW26221   3.922   2.667   6.325  0.0500 -0.6755 -0.5683
 4921SOL    HW126222   3.947   2.754   6.356 -1.0731 -1.0787  1.4846
 4921SOL    HW226223   3.973   2.671   6.245 -0.6840  1.9289 -0.9035
 4922SOL     OW26224   3.518   2.470   6.918  0.1674 -0.2169  0.1355
 4922SOL    HW126225   3.497   2.501   6.830 -3.1868 -1.5544  0.4708
 4922SOL    HW226226   3.491   2.547   6.969 -0.3647  0.1927 -0.7675
 4923SOL     OW26227   3.776   2.590   8.578 -0.7707  0.1262 -0.2366
 4923SOL    HW126228   3.823   2.636   8.647 -2.0185  0.2831  0.4965
 4923SOL    HW226229   3.686   2.593   8.607 -0.6184  1.5645  0.0689
 4924SOL     OW26230   0.872   3.084  14.101 -0.5650 -0.3213  0.0338
 4924SOL    HW126231   0.875   3.082  14.005  2.1369  1.2917  0.0803
 4924SOL    HW226232   0.847   2.993  14.112 -0.9955 -0.0855  1.0265
 4925SOL     OW26233   2.056   3.101   2.712  0.4032  0.2574  0.0790
 4925SOL    HW126234   2.147   3.083   2.688  0.2469 -0.4832  0.0597
 4925SOL    HW226235   2.008   3.035   2.663  0.0510  0.1121  0.6171
 4926SOL     OW26236   1.743   0.691  12.741  0.8468 -0.2640 -0.2472
 4926SOL    HW126237   1.801   0.766  12.759 -0.5871  0.3893  1.6760
 4926SOL    HW226238   1.666   0.745  12.756  0.8125 -0.4508  0.2367
 4927SOL     OW26239   3.967   1.930   9.246  0.1306 -0.2214 -0.3385
 4927SOL    HW126240   3.934   1.941   9.335  0.2566 -1.4887 -0.1362
 4927SOL    HW226241   3.970   1.835   9.240 -0.6678 -0.1457 -1.9524
 4928SOL     OW26242   1.952   3.817  12.258 -0.5877  0.4741 -0.0144
 4928SOL    HW126243   2.045   3.835  12.258 -0.7652  1.3932  1.2836
 4928SOL    HW226244   1.952   3.749  12.191  1.1233  1.1516 -0.6966
 4929SOL     OW26245   3.975   1.661   9.176 -0.3723 -0.0167  0.6481
 4929SOL    HW126246   3.929   1.652   9.093  1.0093 -1.4594  0.0403
 4929SOL    HW226247   4.001   1.572   9.198 -0.1233 -0.6969 -2.3391
 4930SOL     OW26248   1.472   2.576  13.820  0.4119 -0.6045 -0.0712
 4930SOL    HW126249   1.560   2.537  13.823  0.6468  0.0443  1.7634
 4930SOL    HW226250   1.428   2.500  13.859  0.1313  0.2392  1.2525
 4931SOL     OW26251   1.353   0.936   1.521  0.8238 -0.4499 -0.3981
 4931SOL    HW126252   1.400   0.864   1.479  0.6179 -0.7792 -0.0654
 4931SOL    HW226253   1.355   0.911   1.613  2.5704 -0.4812 -0.4318
 4932SOL     OW26254   4.287   3.731   7.234  0.4282 -0.7212  0.0474
 4932SOL    HW126255   4.374   3.767   7.253  1.7173 -2.7664 -1.9997
 4932SOL    HW226256   4.240   3.814   7.239  1.6043 -0.1563  1.5576
 4933SOL     OW26257   0.467   0.148   4.084  0.3250  0.2311  0.0782
 4933SOL    HW126258   0.403   0.153   4.155  0.6015  0.7653  0.2958
 4933SOL    HW226259   0.456   0.056   4.061  0.2743 -0.0159  1.1028
 4934SOL     OW26260   3.635   1.527   2.202  0.0756  0.4257 -0.6718
 4934SOL    HW126261   3.631   1.508   2.108  2.1396  1.3699 -0.9534
 4934SOL    HW226262   3.644   1.622   2.214 -0.8302  0.6048 -1.4291
 4935SOL     OW26263   1.910   0.995   3.649  0.2073  0.0754  0.0255
 4935SOL    HW126264   1.949   0.945   3.577  0.4992  0.2971  0.0267
 4935SOL    HW226265   1.961   1.076   3.642  0.6559 -0.2728 -0.6737
 4936SOL     OW26266   2.200   3.238  13.858  0.1377 -0.0055  0.3369
 4936SOL    HW126267   2.213   3.255  13.765 -1.2202 -1.7309 -0.1518
 4936SOL    HW226268   2.146   3.159  13.854 -1.2518  0.8764  1.7008
 4937SOL     OW26269   1.773   1.673   7.839 -0.2578  0.4119  0.0179
 4937SOL    HW126270   1.843   1.611   7.856 -0.2883  0.1013 -0.9660
 4937SOL    HW226271   1.698   1.618   7.816  0.2037  0.2603 -1.1221
 4938SOL     OW26272   3.480   4.173   3.732 -0.0956  0.4056 -0.2861
 4938SOL    HW126273   3.410   4.225   3.771  0.5454  0.5173  0.7201
 4938SOL    HW226274   3.506   4.120   3.807  0.2982 -0.3449 -0.9421
 4939SOL     OW26275   1.427   1.432   6.614 -0.0565  0.1817 -0.4088
 4939SOL    HW126276   1.384   1.397   6.537  0.9424 -0.8170 -0.5006
 4939SOL    HW226277   1.355   1.443   6.676 -1.7312 -2.9369 -1.8385
 4940SOL     OW26278   1.092   2.206   4.597  0.2265 -0.1254 -0.0739
 4940SOL    HW126279   1.100   2.301   4.586  2.4448  0.0093  2.9686
 4940SOL    HW226280   1.160   2.165   4.544 -0.3710 -0.4989 -0.5646
 4941SOL     OW26281   1.446   2.517   4.638  0.0906  0.4652 -0.0018
 4941SOL    HW126282   1.459   2.612   4.646 -0.2285  0.1474  4.3650
 4941SOL    HW226283   1.535   2.509   4.604 -0.0960  1.1303 -0.6502
 4942SOL     OW26284   2.453   3.658   7.719  0.5248 -0.2068  0.1218
 4942SOL    HW126285   2.466   3.720   7.790 -1.8543  1.0078 -0.4843
 4942SOL    HW226286   2.513   3.592   7.751  0.3493  0.1845  1.2502
 4943SOL     OW26287   1.239   4.452   4.235 -0.2341  0.1686  0.1994
 4943SOL    HW126288   1.155   4.414   4.209 -0.9136  0.9805  1.1723
 4943SOL    HW226289   1.212   4.540   4.263 -0.2525  1.2711 -3.2271
 4944SOL     OW26290   2.389   4.286   0.804 -0.4854 -0.7244  0.2690
 4944SOL    HW126291   2.474   4.317   0.836 -1.6433  1.9248  0.7656
 4944SOL    HW226292   2.422   4.239   0.728 -1.0765 -1.4049  0.4389
 4945SOL     OW26293   0.752   3.404   7.672  0.3507 -0.3146  0.1786
 4945SOL    HW126294   0.661   3.430   7.683  0.1040 -0.4806 -1.3957
 4945SOL    HW226295   0.795   3.479   7.713 -2.1169  0.6062  1.0747
 4946SOL     OW26296   2.292   4.352   5.003  0.6219 -0.4945  0.7636
 4946SOL    HW126297   2.318   4.429   5.055 -1.3004  0.0868  0.8387
 4946SOL    HW226298   2.239   4.306   5.067 -0.2161  0.1942  0.5731
 4947SOL     OW26299   1.293   1.750   2.718 -0.6669  0.1598  0.4724
 4947SOL    HW126300   1.297   1.752   2.813 -3.0921 -1.0595  0.6083
 4947SOL    HW226301   1.385   1.757   2.694 -1.0238 -1.2810 -1.2839
 4948SOL     OW26302   3.276   3.081   8.367  0.0543  0.0464  0.0134
 4948SOL    HW126303   3.355   3.134   8.352  0.5832 -0.7069  0.1193
 4948SOL    HW226304   3.319   3.029   8.435 -2.7317  0.7947  2.3471
 4949SOL     OW26305   1.853   1.733   4.896 -0.4219 -0.4108  0.3337
 4949SOL    HW126306   1.781   1.704   4.951 -0.2834  1.0272  1.2653
 4949SOL    HW226307   1.866   1.820   4.934  0.8820 -0.1709 -0.6750
 4950SOL     OW26308   2.659   3.921   1.680 -0.0888  0.9009  0.5086
 4950SOL    HW126309   2.740   3.971   1.669  0.2509  0.3539  0.5161
 4950SOL    HW226310   2.612   3.970   1.612 -0.1852  0.4504  0.2483
 4951SOL     OW26311   1.889   4.666  16.412 -0.5633 -0.5930 -0.2772
 4951SOL    HW126312   1.858   4.643  16.500  2.3289 -0.5447  0.7743
 4951SOL    HW226313   1.933   4.585  16.386 -1.4987  0.0051 -3.6390
 4952SOL     OW26314   0.514   3.989   6.697 -0.2927  0.1165  0.0594
 4952SOL    HW126315   0.503   4.070   6.646 -1.1900  0.7942  1.3356
 4952SOL    HW226316   0.423   3.992   6.727 -1.3270  2.2719 -3.1531
 4953SOL     OW26317   3.800   4.430   0.205 -0.7146  0.7806 -0.0053
 4953SOL    HW126318   3.741   4.423   0.281  1.5725 -0.5049  1.6530
 4953SOL    HW226319   3.798   4.339   0.174  0.8300  1.2297 -1.3760
 4954SOL     OW26320   1.092   0.786   3.524 -0.4123 -0.1702  0.0130
 4954SOL    HW126321   1.046   0.711   3.486 -0.0168  0.1204 -1.0627
 4954SOL    HW226322   1.167   0.790   3.465 -0.3151 -0.2406  0.1335
 4955SOL     OW26323   2.953   0.061  11.473  0.4203  0.1036 -0.2106
 4955SOL    HW126324   3.031   0.057  11.528 -0.0775  1.3246  0.5795
 4955SOL    HW226325   2.944   4.691  11.458 -0.6409  0.5516 -2.3267
 4956SOL     OW26326   3.799   3.196   1.774  0.5881  0.1934 -0.1582
 4956SOL    HW126327   3.718   3.218   1.728  0.2352 -1.0142 -0.1026
 4956SOL    HW226328   3.807   3.104   1.751 -0.1312  0.0351  0.2112
 4957SOL     OW26329   2.436   3.115  17.089  0.3477  0.2907 -0.2055
 4957SOL    HW126330   2.380   3.180  17.044 -1.9877 -1.6350 -0.0688
 4957SOL    HW226331   2.466   3.168  17.163  0.3730  2.8040 -1.9855
 4958SOL     OW26332   0.099   0.541  16.498 -0.2795 -0.0361  0.1122
 4958SOL    HW126333   0.113   0.532  16.404  0.7099 -0.0619  0.2558
 4958SOL    HW226334   0.085   0.452  16.530 -1.9717 -0.2354 -1.2227
 4959SOL     OW26335   3.766   0.060   5.733  0.6399  0.1924  1.0242
 4959SOL    HW126336   3.737   4.705   5.780  0.2501 -0.0140  0.4345
 4959SOL    HW226337   3.785   0.016   5.650 -1.5398  1.7083 -0.3027
 4960SOL     OW26338   2.691   3.548   9.259  0.2999  0.5443 -0.0123
 4960SOL    HW126339   2.764   3.487   9.267 -0.6604 -0.2443  2.8417
 4960SOL    HW226340   2.675   3.543   9.165 -2.9372 -1.0461  0.6318
 4961SOL     OW26341   1.771   4.157   6.701  0.0697 -0.0478 -0.3057
 4961SOL    HW126342   1.807   4.068   6.710 -2.7923 -0.6672  5.4062
 4961SOL    HW226343   1.788   4.178   6.609  0.0700 -0.6760 -0.4513
 4962SOL     OW26344   1.898   1.635  14.189  0.1348  0.4521  0.2374
 4962SOL    HW126345   1.819   1.652  14.240 -1.1052 -2.7989 -0.5927
 4962SOL    HW226346   1.861   1.562  14.140 -0.9572  1.7915 -0.9184
 4963SOL     OW26347   3.476   0.134   4.900 -0.2948 -1.0684 -0.1547
 4963SOL    HW126348   3.487   0.044   4.933 -0.3231 -1.4464 -1.1683
 4963SOL    HW226349   3.395   0.163   4.940  0.2371  0.3787 -0.1502
 4964SOL     OW26350   0.748   0.870   7.928 -0.2692 -0.2783 -0.1224
 4964SOL    HW126351   0.809   0.931   7.969  0.6251 -2.5051  1.8638
 4964SOL    HW226352   0.728   0.829   8.013 -0.3694 -0.2006 -0.1085
 4965SOL     OW26353   1.855   2.730   9.108 -0.3377  0.3148 -0.1838
 4965SOL    HW126354   1.813   2.645   9.093  1.2243 -0.8187  2.0141
 4965SOL    HW226355   1.792   2.798   9.081  0.4168  1.2202  0.3535
 4966SOL     OW26356   0.074   3.212  12.855 -0.6212  0.6410 -0.4375
 4966SOL    HW126357   0.154   3.162  12.837 -1.3789 -0.5418 -0.5665
 4966SOL    HW226358   0.107   3.264  12.927  0.5687 -0.5623 -0.1205
 4967SOL     OW26359   2.318   0.875   2.613  0.5199 -0.4274 -0.2907
 4967SOL    HW126360   2.296   0.784   2.633 -3.5782  0.7210  0.6035
 4967SOL    HW226361   2.279   0.921   2.688  1.0061 -1.2895  0.4901
 4968SOL     OW26362   2.331   0.802   9.702  0.0599  0.1324 -0.7149
 4968SOL    HW126363   2.316   0.893   9.677  0.1141  0.6058  0.9729
 4968SOL    HW226364   2.244   0.776   9.735 -0.4723 -0.3871 -2.5584
 4969SOL     OW26365   1.391   0.078   6.016  0.3605  0.0880  0.0571
 4969SOL    HW126366   1.369   0.170   6.005  0.4716  0.3051  1.6986
 4969SOL    HW226367   1.478   0.078   5.977  0.2552 -0.7469 -0.1734
 4970SOL     OW26368   3.024   2.702   7.389 -0.0914 -0.3971 -0.7282
 4970SOL    HW126369   2.985   2.709   7.477  0.2663 -0.4443 -0.5684
 4970SOL    HW226370   3.114   2.732   7.401 -0.4299  1.0422 -1.8408
 4971SOL     OW26371   2.207   2.031  16.751 -0.2601  0.6670  0.4245
 4971SOL    HW126372   2.228   1.953  16.802 -1.2722 -0.0213 -0.2064
 4971SOL    HW226373   2.287   2.029  16.698 -0.9329 -1.2571 -0.4859
 4972SOL     OW26374   0.779   0.780   3.101 -0.4382  0.3034  0.0023
 4972SOL    HW126375   0.724   0.717   3.146 -2.4183  1.7831 -0.3466
 4972SOL    HW226376   0.866   0.740   3.103 -0.6103 -0.0343  0.6604
 4973SOL     OW26377   4.038   3.051   4.720 -0.3520 -0.3439 -0.6390
 4973SOL    HW126378   3.997   2.964   4.719 -0.9500 -0.0549 -0.9223
 4973SOL    HW226379   4.055   3.062   4.626 -2.3142  2.8722 -0.6083
 4974SOL     OW26380   0.512   3.351   2.324  0.2586  0.1928  0.3172
 4974SOL    HW126381   0.422   3.324   2.339  0.6558 -0.4982  1.4685
 4974SOL    HW226382   0.550   3.283   2.268  0.9952  0.4481  0.5096
 4975SOL     OW26383   4.505   4.409   7.483 -0.0031  0.4814  0.2559
 4975SOL    HW126384   4.482   4.431   7.574 -2.8796  0.8982 -0.5595
 4975SOL    HW226385   4.600   4.406   7.480 -0.0363  1.0582 -1.1499
 4976SOL     OW26386   0.133   3.110   4.028 -0.0884 -0.9734 -0.7713
 4976SOL    HW126387   0.167   3.050   3.963  1.2562  1.5489 -2.4061
 4976SOL    HW226388   0.135   3.194   3.982 -0.1272 -1.5625 -1.8306
 4977SOL     OW26389   3.737   3.635   4.931 -0.1312  0.2411  0.2922
 4977SOL    HW126390   3.717   3.673   5.017 -0.6362 -0.8433  0.6541
 4977SOL    HW226391   3.728   3.542   4.953  1.1600 -0.2797 -1.4758
 4978SOL     OW26392   2.922   0.217  15.393 -0.1656 -0.5710 -0.5683
 4978SOL    HW126393   2.991   0.152  15.403 -1.2234 -1.4340  1.2500
 4978SOL    HW226394   2.867   0.178  15.325  0.6384  1.0440 -2.1426
 4979SOL     OW26395   0.245   2.152   5.285  0.2468 -0.0481 -0.0338
 4979SOL    HW126396   0.246   2.069   5.333  1.8767 -1.3644 -2.3257
 4979SOL    HW226397   0.170   2.200   5.320 -1.4468 -2.0075 -0.9198
 4980SOL     OW26398   1.788   3.037   3.054 -0.3502 -0.1134 -0.0940
 4980SOL    HW126399   1.824   3.022   3.141 -1.3820 -1.4128  0.1114
 4980SOL    HW226400   1.702   2.996   3.068 -0.7648 -0.4141 -3.4025
 4981SOL     OW26401   1.951   0.886   8.673  0.1657 -0.0496 -0.2711
 4981SOL    HW126402   2.014   0.931   8.730 -1.3983 -1.6868  2.7430
 4981SOL    HW226403   2.008   0.810   8.663 -1.2744 -0.8151 -2.4773
 4982SOL     OW26404   2.491   3.976   6.660 -0.3042 -0.2667 -0.6197
 4982SOL    HW126405   2.556   3.988   6.729 -1.2258 -1.0818  0.3976
 4982SOL    HW226406   2.526   3.906   6.604  1.4311 -0.5521  0.8182
 4983SOL     OW26407   0.071   3.735   8.841 -0.1757 -0.8791 -0.2928
 4983SOL    HW126408   0.112   3.723   8.926  0.4101 -1.7703 -0.7046
 4983SOL    HW226409   0.005   3.804   8.850  1.1054  0.3500 -0.4187
 4984SOL     OW26410   4.056   2.674  15.874  0.2399 -0.2829 -0.1733
 4984SOL    HW126411   4.123   2.728  15.915  0.6196 -1.1897  0.4258
 4984SOL    HW226412   4.043   2.606  15.941 -1.5829  1.4518  1.2082
 4985SOL     OW26413   0.193   3.985   6.152 -0.5589 -0.7321 -0.4201
 4985SOL    HW126414   0.142   4.064   6.137 -0.7409 -0.4174  1.8465
 4985SOL    HW226415   0.145   3.913   6.111  0.9944 -0.9806 -1.7826
 4986SOL     OW26416   2.525   4.193   4.167 -0.9043 -0.2153  0.2266
 4986SOL    HW126417   2.480   4.109   4.156 -0.9120 -0.3055  0.9529
 4986SOL    HW226418   2.616   4.168   4.150 -0.5592  0.5518  0.9470
 4987SOL     OW26419   4.095   0.581   3.919  0.0039  0.4064 -0.0371
 4987SOL    HW126420   4.109   0.656   3.860  0.3191  0.5227  0.1832
 4987SOL    HW226421   4.095   0.626   4.003 -1.1767  0.0583  0.1403
 4988SOL     OW26422   1.303   3.514   2.970  0.2514 -0.3198 -0.5115
 4988SOL    HW126423   1.213   3.529   3.000 -0.1236 -0.2050 -1.6783
 4988SOL    HW226424   1.298   3.440   2.910  4.0188 -0.2318 -0.9357
 4989SOL     OW26425   2.520   0.227   5.920  0.3320  0.2468  0.1903
 4989SOL    HW126426   2.468   0.284   5.976  1.5528  0.5656  0.9858
 4989SOL    HW226427   2.451   0.163   5.901  1.0986 -0.8488  1.1454
 4990SOL     OW26428   1.914   0.211   8.242  0.2551  0.0697 -0.2593
 4990SOL    HW126429   1.824   0.178   8.249  0.6729 -0.5189  2.3283
 4990SOL    HW226430   1.962   0.151   8.299 -0.3675 -0.1421  0.0503
 4991SOL     OW26431   3.728   2.598   7.966  0.5668  0.2368  0.1386
 4991SOL    HW126432   3.802   2.568   8.018 -0.1794  0.3783  1.3033
 4991SOL    HW226433   3.726   2.688   7.998 -2.2910 -0.0021  0.6645
 4992SOL     OW26434   1.339   0.633  16.319 -0.4968  0.4305  0.3685
 4992SOL    HW126435   1.285   0.712  16.315 -0.1401  0.7161  1.2127
 4992SOL    HW226436   1.321   0.610  16.411  2.0840 -1.7508  0.3240
 4993SOL     OW26437   3.265   0.170  12.827 -0.2954  0.2152  0.3005
 4993SOL    HW126438   3.216   0.248  12.799 -0.2550  0.1364  0.0127
 4993SOL    HW226439   3.349   0.215  12.834 -0.1573  0.3956 -2.4426
 4994SOL     OW26440   2.070   1.119   5.767  0.2506 -0.2949 -0.0193
 4994SOL    HW126441   2.163   1.106   5.748  0.5430 -0.6481  1.6749
 4994SOL    HW226442   2.025   1.035   5.755  0.6374  0.0840 -3.9377
 4995SOL     OW26443   1.596   1.062   1.852 -0.5980 -0.0456  0.3053
 4995SOL    HW126444   1.512   1.042   1.811 -0.3358 -0.6345  0.0552
 4995SOL    HW226445   1.604   1.151   1.818 -0.5291 -0.5488 -0.9976
 4996SOL     OW26446   0.739   3.123   2.315 -0.8485  0.4004  0.4431
 4996SOL    HW126447   0.663   3.095   2.263 -0.4246 -2.6692  1.4504
 4996SOL    HW226448   0.742   3.044   2.369  2.5188  0.9459  1.0425
 4997SOL     OW26449   4.080   3.782  11.279 -0.0681 -0.0092  0.2401
 4997SOL    HW126450   4.155   3.777  11.220 -0.3622  1.3533 -0.2281
 4997SOL    HW226451   4.066   3.875  11.295  0.2213  0.0643  0.0754
 4998SOL     OW26452   3.900   0.055   6.880  0.0752  0.3373  0.0085
 4998SOL    HW126453   3.838   0.107   6.830 -0.8455  0.6853  1.5078
 4998SOL    HW226454   3.937   0.001   6.810 -1.4355 -0.5237 -0.1087
 4999SOL     OW26455   2.782   4.340   5.741 -0.3409  0.4442  0.2767
 4999SOL    HW126456   2.742   4.253   5.734  1.3333 -0.3478  0.6903
 4999SOL    HW226457   2.713   4.386   5.789 -0.9971  0.4737 -0.6871
 5000SOL     OW26458   4.199   2.837   5.667  0.0763  0.0862 -0.0931
 5000SOL    HW126459   4.264   2.903   5.642 -1.8060  1.9333 -0.1021
 5000SOL    HW226460   4.263   2.767   5.673  0.0670 -0.1099 -2.1286
 5001SOL     OW26461   2.261   0.565  13.904  0.2414 -0.0826  0.4303
 5001SOL    HW126462   2.278   0.612  13.985  1.2626 -0.9418  0.7216
 5001SOL    HW226463   2.237   0.480  13.940 -1.0505 -0.7236 -1.9470
 5002SOL     OW26464   1.222   2.746  17.531 -0.2157  0.7881 -0.4521
 5002SOL    HW126465   1.230   2.742  17.435  0.9270  1.0422 -0.3625
 5002SOL    HW226466   1.179   2.661  17.541 -0.6828  1.1774  0.8430
 5003SOL     OW26467   4.187   4.254   6.373  0.6082  0.4651  0.1781
 5003SOL    HW126468   4.124   4.257   6.446 -0.6308  2.0014 -0.9588
 5003SOL    HW226469   4.173   4.337   6.328 -1.3002 -0.3603 -0.7602
 5004SOL     OW26470   2.138   1.623   7.196  0.2204  0.1217 -0.0432
 5004SOL    HW126471   2.088   1.687   7.146 -2.2706 -1.4266  0.4240
 5004SOL    HW226472   2.174   1.684   7.260  0.2177  0.0474  0.0288
 5005SOL     OW26473   2.076   4.356   3.419  0.4348 -0.0021 -0.3175
 5005SOL    HW126474   2.156   4.405   3.438  0.1840  0.7684 -1.2630
 5005SOL    HW226475   2.022   4.431   3.395  0.7712  0.6342  0.9454
 5006SOL     OW26476   3.438   3.231   2.435  0.2800  0.3731  0.6161
 5006SOL    HW126477   3.415   3.314   2.478  1.8492  1.4467 -0.6075
 5006SOL    HW226478   3.353   3.202   2.402  0.5759 -1.6855  1.7037
 5007SOL     OW26479   4.123   4.140   1.496  0.2187  0.2261  0.3589
 5007SOL    HW126480   4.067   4.203   1.541 -0.9697  0.5253 -1.5212
 5007SOL    HW226481   4.192   4.200   1.468  1.2546  0.1360  2.7116
 5008SOL     OW26482   4.242   4.644  14.702  0.0882 -0.5934 -0.5684
 5008SOL    HW126483   4.148   4.628  14.706  0.0773 -0.0668  1.4248
 5008SOL    HW226484   4.256   4.715  14.639  2.4545  1.2545  2.0286
 5009SOL     OW26485   1.587   0.449   2.031  0.2191  0.2409 -0.0365
 5009SOL    HW126486   1.526   0.427   1.961 -1.1108  1.7257  0.6472
 5009SOL    HW226487   1.651   0.504   1.986  1.5441 -1.5378 -0.3020
 5010SOL     OW26488   1.703   2.868   3.239  0.8763  0.1402 -0.6667
 5010SOL    HW126489   1.611   2.848   3.260  0.9876 -1.1706 -1.4154
 5010SOL    HW226490   1.737   2.852   3.327 -0.2652 -0.8986 -0.3991
 5011SOL     OW26491   4.547   0.494  11.828 -0.2999  0.1353 -0.1322
 5011SOL    HW126492   4.479   0.560  11.815  0.6039  1.4147  1.7467
 5011SOL    HW226493   4.600   0.506  11.749 -1.1008  0.9604 -0.5523
 5012SOL     OW26494   3.759   0.137   3.500  0.3851 -0.4945 -0.3394
 5012SOL    HW126495   3.714   0.221   3.491  0.4310 -0.6584 -2.0459
 5012SOL    HW226496   3.784   0.109   3.412  2.5672  1.7412 -0.4561
 5013SOL     OW26497   0.257   2.021  12.446  0.7290 -0.1657 -0.0750
 5013SOL    HW126498   0.352   2.007  12.448  0.6860 -0.1305  1.6741
 5013SOL    HW226499   0.244   2.023  12.351  2.2229  1.4145 -0.2392
 5014SOL     OW26500   3.754   2.016  14.476 -0.1459  0.0701 -0.0024
 5014SOL    HW126501   3.689   2.013  14.405 -0.6324 -0.6751  0.4779
 5014SOL    HW226502   3.762   2.111  14.479 -1.1891  0.1730 -0.5857
 5015SOL     OW26503   1.101   3.648   7.984 -0.0080  0.1540 -0.5146
 5015SOL    HW126504   1.100   3.663   8.078 -2.8289 -0.8611 -0.3654
 5015SOL    HW226505   1.181   3.693   7.956  0.7816 -0.1892  1.1899
 5016SOL     OW26506   4.336   0.508  12.193  0.3042 -0.3259  0.3916
 5016SOL    HW126507   4.339   0.507  12.288  1.8441 -0.8910  0.3466
 5016SOL    HW226508   4.334   0.599  12.162 -2.7269 -1.2626 -2.1304
 5017SOL     OW26509   3.379   2.779   5.778 -0.1330 -0.0723  0.4012
 5017SOL    HW126510   3.460   2.729   5.768 -0.7260 -1.4813  2.7118
 5017SOL    HW226511   3.376   2.828   5.696 -2.5955 -0.9590 -0.0493
 5018SOL     OW26512   2.073   3.407   8.830 -0.7257 -0.6422 -0.3315
 5018SOL    HW126513   2.090   3.378   8.920 -0.3158 -0.9905 -0.5235
 5018SOL    HW226514   2.068   3.501   8.849 -3.1604  0.0528 -4.4197
 5019SOL     OW26515   2.976   4.602   6.145  0.0884  0.1760 -0.0877
 5019SOL    HW126516   2.940   4.660   6.078  0.8034  0.0719 -0.5716
 5019SOL    HW226517   2.902   4.549   6.174 -0.6548  0.8445 -0.7522
 5020SOL     OW26518   0.237   1.256  12.734 -0.6696  0.2634 -0.3831
 5020SOL    HW126519   0.326   1.226  12.751 -0.4883  0.5141 -0.8896
 5020SOL    HW226520   0.207   1.304  12.811  2.0500  2.9638 -1.0443
 5021SOL     OW26521   2.551   2.075   3.781 -0.3218  0.3491  0.0448
 5021SOL    HW126522   2.535   1.988   3.819  0.0132  0.1187 -0.3410
 5021SOL    HW226523   2.477   2.124   3.816  0.1204  0.7902  0.3686
 5022SOL     OW26524   2.946   4.392   0.596 -0.2846  0.4060  0.2490
 5022SOL    HW126525   2.877   4.334   0.629 -0.6836  0.4055 -0.5892
 5022SOL    HW226526   3.018   4.331   0.584 -0.6037  0.1877 -0.5377
 5023SOL     OW26527   2.158   0.681   8.731  0.1154  0.0461 -0.2574
 5023SOL    HW126528   2.193   0.707   8.645 -0.4878 -0.2999 -0.6071
 5023SOL    HW226529   2.238   0.673   8.782  1.0001 -2.5305 -2.0274
 5024SOL     OW26530   2.592   3.779   2.775 -0.2404  0.1008 -0.0681
 5024SOL    HW126531   2.624   3.779   2.866  1.4423 -0.0064 -0.6542
 5024SOL    HW226532   2.600   3.871   2.749  1.5894  0.9372  3.3452
 5025SOL     OW26533   3.920   0.155   0.765 -0.1598 -0.2377 -0.3842
 5025SOL    HW126534   3.908   0.238   0.719 -2.0616 -1.1122 -1.4824
 5025SOL    HW226535   4.012   0.131   0.758  0.0493  0.0895  1.4198
 5026SOL     OW26536   2.881   3.425   3.822 -0.5855  0.0714  0.0721
 5026SOL    HW126537   2.811   3.478   3.859  0.9223  1.9204  0.2223
 5026SOL    HW226538   2.957   3.430   3.879 -0.3621  0.4879 -0.2601
 5027SOL     OW26539   3.339   0.456   8.615 -0.2232 -0.0213 -0.0222
 5027SOL    HW126540   3.380   0.373   8.637 -0.9466 -0.3094  0.2468
 5027SOL    HW226541   3.405   0.487   8.553  0.9814  0.6052  1.5943
 5028SOL     OW26542   1.675   2.613   8.863 -0.1674 -0.0555 -0.2140
 5028SOL    HW126543   1.694   2.536   8.918  1.8667 -1.2786 -2.6125
 5028SOL    HW226544   1.586   2.608   8.829 -1.2608 -0.3920  2.6412
 5029SOL     OW26545   1.820   2.066   7.617 -0.1702  0.3261  0.4298
 5029SOL    HW126546   1.876   2.108   7.552 -0.5619  0.3838  0.1300
 5029SOL    HW226547   1.877   2.008   7.668  2.4400  2.4528 -0.0964
 5030SOL     OW26548   0.293   2.530   0.749  0.4559  0.0077  0.3669
 5030SOL    HW126549   0.325   2.619   0.738  1.1103 -0.4145 -1.0183
 5030SOL    HW226550   0.212   2.544   0.799 -0.3687 -0.5979 -0.8205
 5031SOL     OW26551   3.155   1.756  13.049 -0.4836  0.2604  0.3881
 5031SOL    HW126552   3.241   1.781  13.084  0.4799 -1.2082 -0.8804
 5031SOL    HW226553   3.092   1.803  13.102  0.8607  0.5100  1.7677
 5032SOL     OW26554   1.682   1.600   5.404  0.0038  0.0989  0.1338
 5032SOL    HW126555   1.726   1.613   5.489  0.1620 -0.9739  0.2088
 5032SOL    HW226556   1.621   1.527   5.414  0.2754 -0.3923 -1.7802
 5033SOL     OW26557   3.821   1.373   1.353  0.6287 -0.4440  0.1791
 5033SOL    HW126558   3.894   1.345   1.297  0.0426 -4.2308  1.2576
 5033SOL    HW226559   3.739   1.333   1.322 -0.3233  0.5456  1.4182
 5034SOL     OW26560   4.328   0.246  17.449  0.5448 -0.4451 -0.4065
 5034SOL    HW126561   4.282   0.240  17.533  0.1465 -1.3504 -0.6855
 5034SOL    HW226562   4.398   0.185  17.474  1.7560  2.1475  2.6040
 5035SOL     OW26563   1.558   3.904  12.495 -0.0096  0.0938 -0.0154
 5035SOL    HW126564   1.605   3.983  12.522  1.2128 -0.5130 -0.4017
 5035SOL    HW226565   1.468   3.935  12.497 -0.2116 -0.4818  0.0363
 5036SOL     OW26566   2.215   3.843   5.218  0.5751 -0.3063  0.1881
 5036SOL    HW126567   2.151   3.775   5.237 -0.3994  0.3455 -0.7227
 5036SOL    HW226568   2.159   3.913   5.186 -1.1503 -1.7448  0.0572
 5037SOL     OW26569   1.492   3.855   5.683  0.3440  0.3491 -0.5436
 5037SOL    HW126570   1.455   3.813   5.761  0.9002  1.0314  0.0903
 5037SOL    HW226571   1.516   3.776   5.635  2.2607 -0.0044  1.0149
 5038SOL     OW26572   0.884   0.433   1.835  0.1435  0.0704  0.1068
 5038SOL    HW126573   0.797   0.471   1.850  0.2360  0.1699  0.3997
 5038SOL    HW226574   0.876   0.362   1.898 -1.3414  0.3665  0.2556
 5039SOL     OW26575   1.558   3.379   3.063  0.5459  0.0442  0.5148
 5039SOL    HW126576   1.500   3.303   3.067  0.0088  0.3532 -1.0454
 5039SOL    HW226577   1.493   3.449   3.066  0.1984 -0.2637  0.2199
 5040SOL     OW26578   2.892   4.104  17.087  0.1738  0.2938  0.0307
 5040SOL    HW126579   2.911   4.176  17.027  0.9293 -0.0353 -0.1268
 5040SOL    HW226580   2.962   4.043  17.062  0.5543 -0.6323  3.3386
 5041SOL     OW26581   4.302   4.195  10.942  0.0207  0.1054  0.0696
 5041SOL    HW126582   4.327   4.103  10.953 -0.3767  0.1160  1.0300
 5041SOL    HW226583   4.302   4.227  11.032  0.6152  1.9662 -0.5868
 5042SOL     OW26584   2.744   1.640   4.619 -0.8184 -0.3654 -0.0692
 5042SOL    HW126585   2.676   1.670   4.679 -0.2318  1.6087 -0.3744
 5042SOL    HW226586   2.697   1.634   4.535 -0.6245 -1.4877 -0.1018
 5043SOL     OW26587   0.298   3.836   5.449  0.4454 -0.4394  0.9578
 5043SOL    HW126588   0.287   3.761   5.391  0.7573  0.2281  0.0375
 5043SOL    HW226589   0.392   3.831   5.471 -0.2811 -0.5468  4.1301
 5044SOL     OW26590   2.715   2.007   7.625 -0.2858  0.0602  0.0828
 5044SOL    HW126591   2.800   2.046   7.644 -0.2679  1.0554 -1.9950
 5044SOL    HW226592   2.745   1.970   7.542  1.5537  0.3647  0.6217
 5045SOL     OW26593   4.445   4.091   7.831  0.2127 -0.0486 -0.0740
 5045SOL    HW126594   4.403   4.007   7.812  0.6154 -0.1617 -0.4606
 5045SOL    HW226595   4.382   4.130   7.892 -0.2404  0.9268 -1.1551
 5046SOL     OW26596   0.508   2.035  11.281 -0.2586  0.3959 -0.1725
 5046SOL    HW126597   0.417   2.065  11.283 -0.2148  0.8897 -4.9314
 5046SOL    HW226598   0.551   2.120  11.286  1.5938 -0.4926 -0.7562
 5047SOL     OW26599   0.933   1.112   9.825 -0.4445 -0.6218  0.5225
 5047SOL    HW126600   0.932   1.017   9.839 -1.1624 -0.6176  0.4974
 5047SOL    HW226601   0.877   1.144   9.896  0.9678  1.2438  0.8011
 5048SOL     OW26602   2.963   4.587  11.724 -0.0193 -0.2233 -0.0109
 5048SOL    HW126603   2.954   4.581  11.629 -1.3393  0.6840  0.0582
 5048SOL    HW226604   3.040   4.643  11.738 -0.9378  0.8825  0.6818
 5049SOL     OW26605   1.921   2.323  17.696  0.2940  0.4659  0.8441
 5049SOL    HW126606   1.981   2.300   0.069 -2.0198 -0.3812  2.5184
 5049SOL    HW226607   1.951   2.412  17.680  0.0905  0.8671  2.6966
 5050SOL     OW26608   3.690   1.700  13.009  0.5537  0.3538 -0.2817
 5050SOL    HW126609   3.669   1.615  13.048 -1.2351  0.4903 -0.9579
 5050SOL    HW226610   3.653   1.691  12.921  2.2110  0.0447 -0.9424
 5051SOL     OW26611   0.370   1.340  15.241 -0.5813 -0.0655 -0.1471
 5051SOL    HW126612   0.321   1.408  15.194 -0.3313 -0.8551 -1.5570
 5051SOL    HW226613   0.407   1.278  15.178  0.3850  0.5691 -0.2048
 5052SOL     OW26614   0.045   0.715   1.922 -0.1362  0.3571  0.2613
 5052SOL    HW126615   0.036   0.757   1.837  0.2475  0.7822  0.4321
 5052SOL    HW226616   0.133   0.744   1.944  0.0722  0.3310 -0.5576
 5053SOL     OW26617   4.572   0.555   2.986  0.4158 -0.0969 -0.1771
 5053SOL    HW126618   4.570   0.611   3.063  0.7164 -1.3184  0.7244
 5053SOL    HW226619   4.660   0.518   2.998 -0.2442 -1.1961  1.2329
 5054SOL     OW26620   3.338   3.297   1.824  0.1301 -0.0419 -0.4278
 5054SOL    HW126621   3.287   3.307   1.905  0.8369 -1.9392  0.2410
 5054SOL    HW226622   3.378   3.213   1.845 -2.6851 -1.1105  0.7434
 5055SOL     OW26623   0.942   2.614   6.226 -0.1695 -0.5111 -0.3357
 5055SOL    HW126624   0.880   2.610   6.299 -0.8924 -2.6617 -1.0797
 5055SOL    HW226625   0.885   2.651   6.159 -1.1241  0.4621  1.0233
 5056SOL     OW26626   3.052   4.670  17.306 -0.4168 -0.4883 -0.4374
 5056SOL    HW126627   2.980   4.670  17.242 -0.7057 -0.1512 -0.1120
 5056SOL    HW226628   3.090   0.029  17.277 -0.4543 -0.8397 -1.4876
 5057SOL     OW26629   2.379   2.128   7.007  1.2274 -0.3722  0.2069
 5057SOL    HW126630   2.357   2.221   7.012  2.4033 -0.1015  0.3555
 5057SOL    HW226631   2.360   2.103   7.098 -1.6990 -0.5587 -0.4557
 5058SOL     OW26632   1.170   0.403  13.982 -0.0889 -0.1331  0.3959
 5058SOL    HW126633   1.089   0.428  14.028 -1.1590  0.7505 -1.9503
 5058SOL    HW226634   1.227   0.387  14.057  3.2525  3.2805 -1.3832
 5059SOL     OW26635   0.714   1.589   4.248 -0.6252  0.2208 -0.1556
 5059SOL    HW126636   0.725   1.587   4.344  0.8229 -1.3274 -0.3524
 5059SOL    HW226637   0.791   1.635   4.214 -0.1249 -0.4077  0.1098
 5060SOL     OW26638   1.659   1.706  12.175  0.1684 -0.5187  0.2718
 5060SOL    HW126639   1.596   1.651  12.221 -0.2985 -0.8382 -0.7546
 5060SOL    HW226640   1.686   1.772  12.239  0.0421  0.6092 -0.8569
 5061SOL     OW26641   1.226   0.969   1.255 -0.1206 -0.4656 -0.1603
 5061SOL    HW126642   1.286   0.941   1.324  0.4988 -0.0196 -0.5244
 5061SOL    HW226643   1.266   0.934   1.176 -0.5983  0.3767 -0.7716
 5062SOL     OW26644   0.923   0.744   1.105  0.0314 -0.2035  0.0999
 5062SOL    HW126645   0.890   0.674   1.161  0.0711 -0.8527 -0.6833
 5062SOL    HW226646   0.936   0.813   1.169 -1.5811 -0.4853  0.7183
 5063SOL     OW26647   3.720   0.220   6.733  0.3328  0.1097 -0.1035
 5063SOL    HW126648   3.751   0.290   6.675 -1.8453  1.5181  0.4362
 5063SOL    HW226649   3.641   0.192   6.688 -1.0734 -0.0858  2.4983
 5064SOL     OW26650   1.587   0.954   0.937  0.0011  0.6954 -0.7900
 5064SOL    HW126651   1.570   0.920   0.849  0.0129  0.7782 -0.8234
 5064SOL    HW226652   1.657   0.890   0.954  0.1861  0.5084 -2.3083
 5065SOL     OW26653   1.690   1.835   2.435 -0.4579  0.8951  0.2683
 5065SOL    HW126654   1.653   1.762   2.385  0.5224  2.1509 -2.2804
 5065SOL    HW226655   1.678   1.894   2.361  0.1385 -1.5772 -1.8074
 5066SOL     OW26656   4.691   3.918  16.365 -0.0331 -0.0585  0.2615
 5066SOL    HW126657   4.680   3.871  16.448 -0.0639 -3.0327 -1.4208
 5066SOL    HW226658   4.611   3.904  16.315 -0.1516  0.0635  0.4180
 5067SOL     OW26659   0.535   3.161   1.821 -0.2870  0.1973  0.1504
 5067SOL    HW126660   0.492   3.140   1.903 -2.3576 -3.5363 -1.8914
 5067SOL    HW226661   0.483   3.100   1.769  0.0989 -0.4883  0.5801
 5068SOL     OW26662   3.053   3.772  14.295  0.6631  0.3767  0.5964
 5068SOL    HW126663   3.039   3.783  14.389 -1.7377  0.8090  0.1881
 5068SOL    HW226664   3.054   3.860  14.259 -0.0059  0.5779  1.0739
 5069SOL     OW26665   4.531   1.375   7.256  0.4565  0.8861  0.0110
 5069SOL    HW126666   4.559   1.383   7.164 -0.4445  0.8400 -0.2654
 5069SOL    HW226667   4.457   1.315   7.249  0.6556  1.0875 -4.0951
 5070SOL     OW26668   2.609   3.614  11.419 -0.0006 -0.5162 -0.0663
 5070SOL    HW126669   2.629   3.698  11.459 -0.5619 -0.1501 -0.5561
 5070SOL    HW226670   2.517   3.605  11.444 -0.0023 -1.1142 -0.2848
 5071SOL     OW26671   1.893   0.857   6.252  0.1654  0.0675 -0.4307
 5071SOL    HW126672   1.873   0.925   6.187  1.5857 -0.0905 -1.0285
 5071SOL    HW226673   1.815   0.802   6.261  2.3784 -2.9966 -0.1581
 5072SOL     OW26674   3.230   2.479  15.235  0.0837  0.1558 -0.2645
 5072SOL    HW126675   3.168   2.497  15.165 -2.0872 -1.1943  1.3050
 5072SOL    HW226676   3.227   2.564  15.280 -0.5694  0.3217 -0.6219
 5073SOL     OW26677   4.265   3.173   9.174  0.0876  0.4977 -0.4434
 5073SOL    HW126678   4.324   3.188   9.100  2.0126  0.1107  0.9995
 5073SOL    HW226679   4.304   3.233   9.238 -0.6107 -1.1413  1.5195
 5074SOL     OW26680   1.912   0.462   8.736 -0.1252 -0.3250 -0.1322
 5074SOL    HW126681   1.844   0.421   8.683 -0.1282  1.4883 -1.5338
 5074SOL    HW226682   1.937   0.537   8.682  2.2815 -1.1085 -0.1089
 5075SOL     OW26683   3.287   3.788  16.386 -0.3561  0.2184  0.4439
 5075SOL    HW126684   3.325   3.771  16.300 -0.0813 -0.2125  0.6534
 5075SOL    HW226685   3.285   3.883  16.394 -5.3422 -0.0613  2.6078
 5076SOL     OW26686   3.859   2.691   4.994 -0.2005  0.1015 -0.4487
 5076SOL    HW126687   3.916   2.745   5.049 -0.6285 -1.6306  1.7046
 5076SOL    HW226688   3.782   2.679   5.049 -2.2497  3.3875 -2.6186
 5077SOL     OW26689   4.454   4.105   7.546  0.3768 -0.3574 -0.0249
 5077SOL    HW126690   4.431   4.083   7.636  0.2918 -0.5190 -0.0874
 5077SOL    HW226691   4.487   4.195   7.553  0.1806 -0.1371 -1.9014
 5078SOL     OW26692   2.334   0.382   2.157  0.0223 -0.0440  0.4535
 5078SOL    HW126693   2.351   0.472   2.127 -1.4023  0.2749  0.5973
 5078SOL    HW226694   2.319   0.402   2.249  0.9054  2.0789  0.1383
 5079SOL     OW26695   0.656   1.950  10.241  0.4459 -0.2516  0.0571
 5079SOL    HW126696   0.648   1.910  10.327  1.0961 -0.1799  0.1460
 5079SOL    HW226697   0.674   2.041  10.264 -0.0021 -0.2902  0.5747
 5080SOL     OW26698   2.591   2.457   5.881  0.5547  0.2201 -0.0723
 5080SOL    HW126699   2.675   2.461   5.926  1.0665  0.2113 -1.0175
 5080SOL    HW226700   2.585   2.361   5.874  0.5829  0.2729 -0.8480
 5081SOL     OW26701   4.170   1.597   6.225 -0.5563  0.0637  0.4693
 5081SOL    HW126702   4.226   1.519   6.230  0.8561  0.9806 -1.2351
 5081SOL    HW226703   4.120   1.584   6.144 -0.3569 -2.2341  0.7006
 5082SOL     OW26704   1.788   2.885   6.669  0.2284  0.5718  0.5453
 5082SOL    HW126705   1.840   2.883   6.588  0.4540  1.5023  0.6626
 5082SOL    HW226706   1.841   2.953   6.711  2.0199  0.4303 -1.4679
 5083SOL     OW26707   3.112   3.748   5.788  0.6308  0.6474 -0.5197
 5083SOL    HW126708   3.038   3.754   5.848  0.8732  0.4049 -0.2013
 5083SOL    HW226709   3.063   3.746   5.705 -1.3756  0.7815  0.6628
 5084SOL     OW26710   1.419   1.038   2.082  0.0858 -0.1585 -0.1390
 5084SOL    HW126711   1.361   1.090   2.027 -0.6800 -1.5958 -0.7082
 5084SOL    HW226712   1.495   1.035   2.025 -0.0092  0.4263 -0.2988
 5085SOL     OW26713   0.847   3.892   3.871 -0.1682 -0.0528 -0.2058
 5085SOL    HW126714   0.758   3.917   3.898 -0.7766 -1.7126 -0.7209
 5085SOL    HW226715   0.885   3.979   3.858 -0.0668  0.0164  0.5671
 5086SOL     OW26716   0.599   2.201   3.727 -0.1232  0.7253  0.7109
 5086SOL    HW126717   0.690   2.210   3.702 -0.6165 -0.9876 -1.6593
 5086SOL    HW226718   0.572   2.167   3.642  0.6973 -1.0010  1.1426
 5087SOL     OW26719   0.377   4.120   8.931  0.1426 -0.1040  0.3783
 5087SOL    HW126720   0.379   4.145   8.839  1.1932  1.9465  0.9626
 5087SOL    HW226721   0.379   4.025   8.918 -0.1281  0.0413 -0.7187
 5088SOL     OW26722   4.457   2.715   3.658  0.1139 -0.4181 -0.1029
 5088SOL    HW126723   4.471   2.638   3.604 -1.1769 -1.4165  0.9903
 5088SOL    HW226724   4.548   2.732   3.684 -0.1959  0.5825  0.3524
 5089SOL     OW26725   3.331   2.390   7.706 -0.1257  0.5950 -0.3201
 5089SOL    HW126726   3.407   2.340   7.675 -0.8258  1.2933 -3.2048
 5089SOL    HW226727   3.256   2.355   7.657 -0.6008  3.8232 -1.8991
 5090SOL     OW26728   2.342   3.303   0.552 -0.8344 -0.6081  0.5905
 5090SOL    HW126729   2.356   3.223   0.602 -0.5410  0.6651  2.5273
 5090SOL    HW226730   2.374   3.275   0.466  0.1911 -1.4529  1.2556
 5091SOL     OW26731   4.712   4.709  10.174  0.3617  0.0949 -0.0578
 5091SOL    HW126732   4.721   0.072  10.135 -2.8971  0.2849 -0.4261
 5091SOL    HW226733   0.080   4.688  10.187  0.0554 -0.5222  1.1655
 5092SOL     OW26734   4.120   1.181   4.920  0.1637  0.2490  0.5616
 5092SOL    HW126735   4.050   1.245   4.934  0.2688  0.5126 -0.1415
 5092SOL    HW226736   4.134   1.199   4.827 -0.3021  2.3898  0.8988
 5093SOL     OW26737   2.260   2.357   1.940 -0.0801 -0.4094 -0.2159
 5093SOL    HW126738   2.224   2.288   1.885  2.3715 -1.6871 -0.1925
 5093SOL    HW226739   2.354   2.342   1.932  0.0741  1.3841 -1.8908
 5094SOL     OW26740   2.421   2.702   8.806  0.1946  0.0377 -0.7429
 5094SOL    HW126741   2.493   2.752   8.846 -0.1282  0.1630 -0.3137
 5094SOL    HW226742   2.363   2.776   8.792 -0.5731 -0.7314 -1.5582
 5095SOL     OW26743   4.355   2.154   6.830  0.3860  0.4277  0.0271
 5095SOL    HW126744   4.345   2.070   6.786  2.3314  0.2473 -0.0427
 5095SOL    HW226745   4.357   2.131   6.923 -2.4311 -0.2034 -0.0683
 5096SOL     OW26746   1.400   2.356   6.050  0.2563 -0.3133  0.6394
 5096SOL    HW126747   1.467   2.288   6.052  1.6057  1.0002 -0.0714
 5096SOL    HW226748   1.333   2.313   6.104  0.2834 -0.0784  0.8578
 5097SOL     OW26749   0.172   4.225   7.743  0.2823 -0.0827  0.3706
 5097SOL    HW126750   0.211   4.211   7.830  0.6486  0.0186  0.2204
 5097SOL    HW226751   0.208   4.313   7.729 -1.2948  0.8345  1.9248
 5098SOL     OW26752   2.576   1.315  14.945 -0.2360 -0.1157 -0.0370
 5098SOL    HW126753   2.598   1.327  14.853 -1.2594  1.0336 -0.1377
 5098SOL    HW226754   2.625   1.380  14.996 -0.2353 -1.5700  1.7806
 5099SOL     OW26755   0.399   0.889  11.603 -0.2961  0.1240 -0.6410
 5099SOL    HW126756   0.314   0.928  11.586 -1.2015 -0.1191  3.1264
 5099SOL    HW226757   0.403   0.905  11.698 -0.6024  0.9927 -0.7804
 5100SOL     OW26758   2.639   1.241  16.423 -0.1238  0.5779 -0.4920
 5100SOL    HW126759   2.677   1.262  16.338  0.1233 -0.2749 -0.5949
 5100SOL    HW226760   2.572   1.178  16.396 -0.2284  0.5676 -0.2127
 5101SOL     OW26761   1.241   0.957   6.310 -0.4026 -0.1754  0.3865
 5101SOL    HW126762   1.238   1.025   6.244  1.1787  0.4953  1.0246
 5101SOL    HW226763   1.330   0.973   6.340  0.1161  1.5504 -2.0983
 5102SOL     OW26764   2.927   1.023   1.331  0.4557 -0.1847  0.1866
 5102SOL    HW126765   3.008   0.995   1.373  0.0412 -0.6828  0.6525
 5102SOL    HW226766   2.943   1.010   1.238  1.9116 -0.5471  0.4929
 5103SOL     OW26767   4.116   2.084   8.763 -0.5188  0.1074  0.3079
 5103SOL    HW126768   4.039   2.070   8.819 -0.1731 -1.8853  0.2651
 5103SOL    HW226769   4.157   2.164   8.795  1.3194 -0.5208 -0.5262
 5104SOL     OW26770   4.688   1.163   6.917 -0.2925 -0.6742  0.0239
 5104SOL    HW126771   4.627   1.188   6.848  0.2661  1.3536  0.2648
 5104SOL    HW226772   0.019   1.099   6.872  0.9876  0.4804 -0.0769
 5105SOL     OW26773   3.566   1.631   6.825 -0.6439 -0.1447 -0.1402
 5105SOL    HW126774   3.659   1.650   6.809 -0.1305 -1.5019  1.2181
 5105SOL    HW226775   3.558   1.689   6.901 -1.6695  1.3435 -1.3898
 5106SOL     OW26776   4.132   1.407   4.498 -0.0863  0.2137 -0.3984
 5106SOL    HW126777   4.053   1.385   4.448 -0.3669 -2.6885  1.3288
 5106SOL    HW226778   4.198   1.417   4.430 -0.3757  1.9087 -0.4221
 5107SOL     OW26779   1.003   3.266   2.906  0.0441  0.3786 -0.3767
 5107SOL    HW126780   0.957   3.283   2.988 -1.0658 -0.2536 -0.8719
 5107SOL    HW226781   0.940   3.252   2.836 -0.6145  0.5687  0.1750
 5108SOL     OW26782   1.515   0.410   0.103  0.2995  0.4385 -0.1643
 5108SOL    HW126783   1.445   0.474   0.095 -0.6891 -0.6596 -0.2306
 5108SOL    HW226784   1.587   0.457   0.145 -0.5837 -0.3648  2.2290
 5109SOL     OW26785   1.772   1.912   6.054 -0.3158  0.2650  0.2202
 5109SOL    HW126786   1.832   1.946   6.120  1.4819 -0.9377 -0.7970
 5109SOL    HW226787   1.836   1.853   6.015 -1.6036 -1.3959  0.6499
 5110SOL     OW26788   3.082   2.103  16.840  0.2262 -0.3465  0.0148
 5110SOL    HW126789   3.101   2.086  16.932 -0.4214  0.4387  0.2986
 5110SOL    HW226790   3.148   2.167  16.812  0.8520 -1.7154 -1.6113
 5111SOL     OW26791   2.053   1.240   8.796  0.6793 -0.4376 -0.0974
 5111SOL    HW126792   2.125   1.179   8.813  0.1053 -1.0299  0.1755
 5111SOL    HW226793   2.003   1.240   8.878  0.5894 -0.6414 -0.1532
 5112SOL     OW26794   4.429   4.395   7.198 -0.5505 -0.0773 -1.0777
 5112SOL    HW126795   4.516   4.409   7.160 -0.0369  3.1497  1.2881
 5112SOL    HW226796   4.454   4.364   7.285 -1.6246 -1.7160 -1.3411
 5113SOL     OW26797   2.290   2.758   7.437  0.2713  0.6170 -0.2037
 5113SOL    HW126798   2.289   2.835   7.493  0.1742 -0.6171  1.4859
 5113SOL    HW226799   2.304   2.687   7.499  0.2873  1.6816  1.0081
 5114SOL     OW26800   0.236   3.549  16.249 -0.1386 -0.0264  0.3179
 5114SOL    HW126801   0.265   3.623  16.195 -1.1491 -0.4632 -0.7990
 5114SOL    HW226802   0.211   3.594  16.330 -0.7195  0.5530 -0.1753
 5115SOL     OW26803   3.751   2.601  13.174 -0.7085 -0.7916  0.3305
 5115SOL    HW126804   3.762   2.690  13.207  0.1911 -1.1439  1.0015
 5115SOL    HW226805   3.813   2.556  13.232 -1.0156  0.6270  1.7564
 5116SOL     OW26806   1.272   1.767   5.852  0.1092 -0.7267  0.2816
 5116SOL    HW126807   1.313   1.692   5.809 -1.7790 -1.6291  0.0872
 5116SOL    HW226808   1.346   1.793   5.908 -0.1743  2.7862 -1.0232
 5117SOL     OW26809   2.462   2.771   3.912 -0.1885 -1.0477  0.0732
 5117SOL    HW126810   2.495   2.711   3.844  2.5720 -0.5983  1.0303
 5117SOL    HW226811   2.466   2.850   3.859  1.8144 -2.0949 -1.3612
 5118SOL     OW26812   0.355   3.002  13.548 -0.1141 -0.2148  0.3928
 5118SOL    HW126813   0.309   3.000  13.632 -0.6225 -2.2505  0.0708
 5118SOL    HW226814   0.282   3.024  13.490 -1.2581 -1.2815  1.4207
 5119SOL     OW26815   4.051   1.522   5.984 -0.0702 -0.5014  0.0936
 5119SOL    HW126816   4.037   1.610   5.950 -1.5144 -0.0484  1.8508
 5119SOL    HW226817   4.061   1.463   5.910 -0.5481  1.0473 -1.2145
 5120SOL     OW26818   2.506   2.345   8.244 -0.8711 -0.3881 -0.3873
 5120SOL    HW126819   2.578   2.404   8.268 -3.3824  2.1433  0.9692
 5120SOL    HW226820   2.526   2.271   8.300 -0.5420  0.4103  0.5487
 5121SOL     OW26821   4.318   4.056   5.094  0.4115 -0.0692  0.2722
 5121SOL    HW126822   4.267   3.995   5.148 -0.3511  1.2069  1.0125
 5121SOL    HW226823   4.407   4.021   5.100 -0.4595 -2.2184  0.5683
 5122SOL     OW26824   0.975   1.473   2.168 -0.2418  0.1760  0.6673
 5122SOL    HW126825   0.992   1.493   2.260  1.9829 -1.8276  0.6959
 5122SOL    HW226826   0.897   1.420   2.188  0.6037 -2.2377 -2.4403
 5123SOL     OW26827   3.785   4.072   1.461  0.3145 -0.0807  0.7612
 5123SOL    HW126828   3.715   4.133   1.439  4.2539  3.5912 -1.4950
 5123SOL    HW226829   3.772   4.080   1.556 -1.8918 -1.9239  0.6132
 5124SOL     OW26830   2.013   4.296  12.317 -0.2836 -0.1049  0.2891
 5124SOL    HW126831   2.012   4.387  12.346 -1.3296  0.2810 -0.9812
 5124SOL    HW226832   1.974   4.241  12.385 -1.2850  2.5672  1.8945
 5125SOL     OW26833   3.501   2.400  15.212 -0.4092 -0.0603 -0.9729
 5125SOL    HW126834   3.410   2.428  15.225 -0.2982 -1.3516  2.6788
 5125SOL    HW226835   3.500   2.390  15.117 -0.3185 -1.2687 -0.8433
 5126SOL     OW26836   0.245   3.076   0.605  0.4041  0.3787 -0.7754
 5126SOL    HW126837   0.165   3.120   0.578 -1.2925 -0.6393  2.6090
 5126SOL    HW226838   0.254   3.001   0.546  2.1547 -0.9007  1.1055
 5127SOL     OW26839   2.108   1.762   2.322 -0.0892 -0.0710  0.1042
 5127SOL    HW126840   2.048   1.773   2.248  0.1705  0.0073 -0.0961
 5127SOL    HW226841   2.189   1.733   2.280  1.1314  1.9317  1.0671
 5128SOL     OW26842   1.959   2.299   3.167 -0.0682  0.2426  0.2271
 5128SOL    HW126843   1.905   2.340   3.234 -0.4734 -1.3654  0.8841
 5128SOL    HW226844   1.972   2.377   3.113  0.5834 -0.8450 -1.2067
 5129SOL     OW26845   1.979   4.099   1.162  0.4558 -0.6665 -0.6085
 5129SOL    HW126846   2.014   4.150   1.090  0.8003  1.0526  0.7664
 5129SOL    HW226847   1.908   4.061   1.112 -0.3325 -2.8359  2.1422
 5130SOL     OW26848   2.697   2.144  14.243 -0.7461  0.3049 -0.0252
 5130SOL    HW126849   2.736   2.206  14.181 -0.7273  1.6263  1.2931
 5130SOL    HW226850   2.610   2.121  14.211 -0.3072 -1.5322  0.1278
 5131SOL     OW26851   4.144   3.459  16.764 -0.1770  0.7997  0.4015
 5131SOL    HW126852   4.124   3.446  16.857  0.7454  0.4998  0.5496
 5131SOL    HW226853   4.193   3.541  16.768  0.4873  0.3306  1.6587
 5132SOL     OW26854   3.652   3.906  16.404  0.3561 -0.2471  0.2007
 5132SOL    HW126855   3.608   3.983  16.366  1.7497  0.1060 -0.6723
 5132SOL    HW226856   3.649   3.936  16.495 -0.4679  0.6882 -0.1303
 5133SOL     OW26857   0.385   1.862   2.692  0.3588 -0.6288  0.0892
 5133SOL    HW126858   0.446   1.796   2.726 -0.9463 -1.4500  0.8687
 5133SOL    HW226859   0.364   1.818   2.610  1.6074  2.3771 -1.8129
 5134SOL     OW26860   2.056   0.938   3.887 -0.0643  0.4349  0.1942
 5134SOL    HW126861   2.066   1.028   3.921  1.4395 -0.0170  0.9649
 5134SOL    HW226862   2.023   0.957   3.799 -0.1377  1.2572  0.3934
 5135SOL     OW26863   3.269   2.302   1.451 -0.4242  0.0934 -0.6540
 5135SOL    HW126864   3.280   2.341   1.364 -0.4107  0.7495 -0.3562
 5135SOL    HW226865   3.195   2.346   1.492 -1.7664  0.3407 -3.3370
 5136SOL     OW26866   1.337   0.774   3.368 -0.1969 -0.3280 -0.1939
 5136SOL    HW126867   1.294   0.706   3.315  1.7890 -1.3751 -0.4630
 5136SOL    HW226868   1.430   0.753   3.367  0.1765  1.3906 -0.6942
 5137SOL     OW26869   2.126   1.632  10.584  0.2641 -0.5927 -1.2494
 5137SOL    HW126870   2.187   1.654  10.514  2.3892  0.5177  0.9228
 5137SOL    HW226871   2.147   1.539  10.593 -0.7727 -0.8153 -1.1047
 5138SOL     OW26872   3.348   4.154   8.970  0.8087  1.1848 -0.1416
 5138SOL    HW126873   3.351   4.155   8.874 -0.0431  2.4585 -0.1527
 5138SOL    HW226874   3.256   4.169   8.990  0.8126 -0.2368  0.8986
 5139SOL     OW26875   0.765   0.225   4.983  0.5003  0.5020 -0.2127
 5139SOL    HW126876   0.843   0.170   4.979 -0.1825 -0.7254  2.6511
 5139SOL    HW226877   0.796   0.311   5.012  1.7583  0.5384 -1.6866
 5140SOL     OW26878   4.483   0.738   7.502  0.2990 -0.2882 -0.0606
 5140SOL    HW126879   4.555   0.675   7.513  0.3739 -0.0743  0.7015
 5140SOL    HW226880   4.515   0.826   7.483 -1.9231  0.2653 -1.1883
 5141SOL     OW26881   1.499   1.714   1.227 -0.1439  0.0114  0.0844
 5141SOL    HW126882   1.554   1.698   1.304 -0.8687  1.0060  0.8076
 5141SOL    HW226883   1.523   1.639   1.173 -0.2681  0.2650 -0.3218
 5142SOL     OW26884   0.957   2.870   1.943 -0.3975  0.3316  0.4405
 5142SOL    HW126885   1.043   2.844   1.976 -1.2518 -0.4727  2.0191
 5142SOL    HW226886   0.954   2.814   1.865 -0.1090 -0.8035  1.2402
 5143SOL     OW26887   4.500   3.832   5.132  0.1430  0.3478  0.6730
 5143SOL    HW126888   4.523   3.766   5.067  2.3088  1.7505  0.0495
 5143SOL    HW226889   4.578   3.876   5.164 -0.4141  1.1914  0.8742
 5144SOL     OW26890   0.022   3.252  15.152 -0.9322  0.0560  0.0045
 5144SOL    HW126891   0.067   3.320  15.101 -0.3499 -0.1113  0.2933
 5144SOL    HW226892   4.704   3.221  15.071 -2.0513  2.3838 -0.3063
 5145SOL     OW26893   1.346   3.105  10.787 -0.7573  0.4281 -0.3395
 5145SOL    HW126894   1.304   3.142  10.865 -2.1134 -0.4816 -0.6532
 5145SOL    HW226895   1.394   3.186  10.766  2.3398 -1.4938 -0.6608
 5146SOL     OW26896   4.088   3.717   3.645  0.0261  0.1985  0.4302
 5146SOL    HW126897   4.141   3.654   3.693 -0.9434 -0.3547  0.7867
 5146SOL    HW226898   4.030   3.655   3.600 -0.3399  0.6865  0.2365
 5147SOL     OW26899   3.001   2.682   2.981  0.7919 -0.5759 -0.5611
 5147SOL    HW126900   2.943   2.739   3.032  1.0034  0.0971 -1.0776
 5147SOL    HW226901   3.083   2.684   3.031  0.1869  0.3669  0.3947
 5148SOL     OW26902   3.234   2.908   2.366 -0.7241 -0.3990 -0.2058
 5148SOL    HW126903   3.256   2.982   2.423  0.3863  0.2040 -1.4298
 5148SOL    HW226904   3.243   2.945   2.278  2.2736  2.3923  1.2960
 5149SOL     OW26905   2.806   2.694  15.901 -0.1211 -0.2881 -0.9564
 5149SOL    HW126906   2.838   2.666  15.815 -0.9485 -0.3174 -1.2547
 5149SOL    HW226907   2.747   2.621  15.918 -1.0587  0.5399 -0.6675
 5150SOL     OW26908   1.776   3.791   6.262 -0.1221  0.2233  0.6096
 5150SOL    HW126909   1.869   3.810   6.254 -0.4230  0.9609 -1.1622
 5150SOL    HW226910   1.770   3.707   6.307 -0.0453  0.7512  1.6159
 5151SOL     OW26911   3.951   0.170  11.635  0.0193 -0.2479  0.0320
 5151SOL    HW126912   3.993   0.131  11.559 -0.0359 -0.5179  0.1425
 5151SOL    HW226913   3.967   0.109  11.706  1.0679 -0.2913 -0.2506
 5152SOL     OW26914   0.954   3.367   0.327 -0.3543  0.1519  0.2266
 5152SOL    HW126915   0.872   3.344   0.283  1.2598 -1.5487 -1.8534
 5152SOL    HW226916   0.990   3.279   0.320 -0.8191 -0.0513  0.3536
 5153SOL     OW26917   0.208   0.553   6.539 -0.3319  0.0130 -0.0046
 5153SOL    HW126918   0.276   0.588   6.481  0.2034 -2.2432 -0.7336
 5153SOL    HW226919   0.131   0.569   6.484 -0.1823  1.9027  0.3414
 5154SOL     OW26920   1.617   3.807   4.583  0.0551 -0.0219 -0.0412
 5154SOL    HW126921   1.594   3.717   4.607  0.0676 -0.1826 -0.6345
 5154SOL    HW226922   1.537   3.850   4.612  0.3387  0.4877 -0.0178
 5155SOL     OW26923   4.174   1.279   0.255  0.2027 -0.5779  0.3157
 5155SOL    HW126924   4.203   1.193   0.285  0.6795 -0.6930 -0.4824
 5155SOL    HW226925   4.126   1.254   0.176  0.8479 -1.5895  0.2427
 5156SOL     OW26926   4.092   4.263   7.451  0.1248 -0.2711  0.7856
 5156SOL    HW126927   4.161   4.320   7.485  0.6741  0.5718 -1.7165
 5156SOL    HW226928   4.061   4.319   7.380 -0.8090 -2.1169 -0.2634
 5157SOL     OW26929   2.933   0.344   5.257 -0.1411 -0.2699 -0.1266
 5157SOL    HW126930   2.958   0.271   5.201 -1.6366 -1.0696  0.2483
 5157SOL    HW226931   2.941   0.420   5.200 -3.3373 -0.6276 -1.0558
 5158SOL     OW26932   3.226   2.034   9.674  0.1125 -0.7999  0.6442
 5158SOL    HW126933   3.160   2.098   9.647 -0.6166 -2.3477 -1.2714
 5158SOL    HW226934   3.276   2.031   9.592  0.2717  0.7051  0.6909
 5159SOL     OW26935   4.695   0.718   2.184  0.8596 -0.3322 -0.0665
 5159SOL    HW126936   4.622   0.658   2.167  2.6939 -2.0226 -2.0097
 5159SOL    HW226937   0.011   0.715   2.097  1.9359  0.3100  0.4091
 5160SOL     OW26938   1.052   0.201   3.066  0.1512 -1.1396 -0.5256
 5160SOL    HW126939   1.080   0.172   2.979 -1.2715 -2.1651 -0.6525
 5160SOL    HW226940   1.006   0.284   3.052 -0.0337 -1.4195 -1.5849
 5161SOL     OW26941   0.371   1.777  12.088 -0.0761  0.3703 -0.0774
 5161SOL    HW126942   0.319   1.854  12.068  0.6716  1.0082  0.4630
 5161SOL    HW226943   0.461   1.806  12.075 -0.2709  0.4896 -1.1325
 5162SOL     OW26944   2.353   1.561   2.501 -0.1756  0.4287 -0.1447
 5162SOL    HW126945   2.435   1.609   2.511  1.1551 -2.3882  2.1775
 5162SOL    HW226946   2.305   1.588   2.579 -0.8793  0.2727 -0.5244
 5163SOL     OW26947   1.148   3.421   2.219  0.5676  0.7740 -0.4351
 5163SOL    HW126948   1.130   3.514   2.207 -0.1343  0.2940 -3.2137
 5163SOL    HW226949   1.065   3.380   2.244 -0.3093  3.0090  0.3090
 5164SOL     OW26950   3.286   2.628   7.298  0.0268 -0.0539 -0.9598
 5164SOL    HW126951   3.381   2.621   7.297  0.1026  0.8793  1.2691
 5164SOL    HW226952   3.272   2.676   7.216 -1.1665 -0.7061 -1.1389
 5165SOL     OW26953   4.013   4.305  12.197 -0.2972  0.1464 -0.0918
 5165SOL    HW126954   4.004   4.211  12.212 -1.3912  0.1181 -0.8809
 5165SOL    HW226955   4.108   4.310  12.202 -0.1306 -0.7688 -2.3207
 5166SOL     OW26956   3.027   3.131   6.083 -0.5076  0.5729  0.3871
 5166SOL    HW126957   3.049   3.193   6.153  2.7111 -1.1713  0.8997
 5166SOL    HW226958   2.964   3.181   6.031  0.6813  0.7246 -0.9101
 5167SOL     OW26959   3.313   3.301   8.964  0.3688  0.6203  0.2715
 5167SOL    HW126960   3.248   3.313   8.894  2.0329 -2.4948 -1.8242
 5167SOL    HW226961   3.249   3.313   9.034 -0.6052  0.0047 -0.4961
 5168SOL     OW26962   0.210   1.639   6.367  0.3161  0.1348  0.0820
 5168SOL    HW126963   0.248   1.643   6.279 -2.1333 -0.7059 -1.0484
 5168SOL    HW226964   0.131   1.587   6.347  0.1604  0.3419  0.1621
 5169SOL     OW26965   1.616   3.262   4.553  0.0825  0.3379 -0.3506
 5169SOL    HW126966   1.685   3.310   4.508  1.0944 -0.0796  0.7698
 5169SOL    HW226967   1.551   3.243   4.485 -2.3208  4.0746  0.8637
 5170SOL     OW26968   3.724   3.453   8.369  0.3468 -0.5681  0.2744
 5170SOL    HW126969   3.805   3.468   8.321 -0.5411 -0.2653 -1.1384
 5170SOL    HW226970   3.658   3.491   8.310 -1.0639 -0.3061  2.0196
 5171SOL     OW26971   2.597   0.568   7.480 -0.1443 -0.4925  0.0765
 5171SOL    HW126972   2.648   0.491   7.502  1.0451 -0.4009 -2.3858
 5171SOL    HW226973   2.643   0.596   7.401 -1.3120  0.2309 -0.3607
 5172SOL     OW26974   0.264   1.514   3.735  0.2560  0.0291  0.4374
 5172SOL    HW126975   0.187   1.486   3.685  0.2706 -0.3023  0.6052
 5172SOL    HW226976   0.259   1.460   3.813  1.7279 -0.5994  0.0858
 5173SOL     OW26977   4.415   3.826   7.729 -0.5336  0.0294  0.1424
 5173SOL    HW126978   4.367   3.781   7.659  1.1380 -1.3571 -0.0857
 5173SOL    HW226979   4.439   3.751   7.784  3.1715  1.4209  0.4072
 5174SOL     OW26980   4.309   0.150   8.349 -0.0381 -0.6135  0.3634
 5174SOL    HW126981   4.339   0.080   8.407 -1.0649 -1.0270  0.3894
 5174SOL    HW226982   4.382   0.210   8.364 -0.3407 -0.1009 -0.2414
 5175SOL     OW26983   0.957   4.076  13.231  0.2760  0.3319 -0.5891
 5175SOL    HW126984   0.915   3.995  13.259  2.4492 -0.9247 -0.9342
 5175SOL    HW226985   0.894   4.095  13.162  0.6814  1.0229 -0.7651
 5176SOL     OW26986   0.066   2.781   0.616 -0.3007 -0.2627  0.7956
 5176SOL    HW126987   0.124   2.752   0.686 -0.4708  1.7785  1.8009
 5176SOL    HW226988   4.717   2.721   0.633 -2.9136  2.2332 -1.6118
 5177SOL     OW26989   1.273   0.289   3.953 -0.3948 -0.5838 -0.2101
 5177SOL    HW126990   1.273   0.346   3.876 -1.4968  0.1133  0.3061
 5177SOL    HW226991   1.350   0.323   3.999 -1.0558  0.3679  0.2006
 5178SOL     OW26992   2.609   2.632   7.103  0.5614 -0.1782 -0.4741
 5178SOL    HW126993   2.555   2.706   7.131  2.7336  0.7357  1.2856
 5178SOL    HW226994   2.694   2.671   7.123 -1.3584  2.1749  3.0980
 5179SOL     OW26995   2.667   0.325  16.584  0.1604 -0.0567  0.2649
 5179SOL    HW126996   2.707   0.238  16.579  0.3727 -0.0051  0.9919
 5179SOL    HW226997   2.586   0.303  16.630  0.6628  0.8291  1.5727
 5180SOL     OW26998   0.580   0.550   7.444  0.1503 -0.5360 -0.5222
 5180SOL    HW126999   0.545   0.591   7.523  1.3282  0.3575 -0.4681
 5180SOL    HW227000   0.615   0.472   7.487  1.4783 -0.1456 -0.8740
 5181SOL     OW27001   4.489   1.944  16.456  0.1982  0.1221 -0.1798
 5181SOL    HW127002   4.542   1.939  16.376  2.6257  0.1214  1.4215
 5181SOL    HW227003   4.451   1.857  16.471 -2.0850  1.0533 -0.5399
 5182SOL     OW27004   3.087   2.214  16.346 -0.0144 -0.5391  0.4737
 5182SOL    HW127005   3.090   2.154  16.421 -2.4755 -0.6554  0.4792
 5182SOL    HW227006   3.080   2.153  16.272 -0.8979  0.1497 -0.0171
 5183SOL     OW27007   3.094   0.166   3.681 -0.1404 -0.1922  0.1477
 5183SOL    HW127008   3.178   0.161   3.635  1.3851 -0.6999  2.9389
 5183SOL    HW227009   3.066   0.076   3.662  0.3016 -0.4766  0.8168
 5184SOL     OW27010   1.130   0.899   0.706 -0.1392 -0.3726 -0.7964
 5184SOL    HW127011   1.093   0.814   0.728  0.0454  0.0493  1.1177
 5184SOL    HW227012   1.222   0.887   0.730 -0.3108 -0.9347 -0.4353
 5185SOL     OW27013   1.283   0.329  13.481 -0.3154 -0.5187  0.4969
 5185SOL    HW127014   1.326   0.395  13.536 -0.5454  1.5029 -1.7731
 5185SOL    HW227015   1.276   0.259  13.546 -0.5197  1.0019  2.1061
 5186SOL     OW27016   1.138   4.316   5.103 -0.2690  0.2943 -0.4461
 5186SOL    HW127017   1.164   4.226   5.122  1.5704  1.0570  0.6408
 5186SOL    HW227018   1.164   4.315   5.011  1.0088  2.9915 -0.1111
 5187SOL     OW27019   3.228   4.307   3.776 -0.4664  0.2058 -0.0561
 5187SOL    HW127020   3.212   4.400   3.789 -0.8993  0.3354 -1.4876
 5187SOL    HW227021   3.196   4.302   3.686  1.9615 -0.2518 -0.8880
 5188SOL     OW27022   3.380   4.503   4.768  0.3753  0.6000 -0.5239
 5188SOL    HW127023   3.421   4.554   4.838 -0.7604 -0.7404  1.1369
 5188SOL    HW227024   3.313   4.459   4.820 -0.5955  0.5194 -1.8456
 5189SOL     OW27025   2.056   3.889   7.422 -0.3734  0.3980 -0.2737
 5189SOL    HW127026   2.135   3.838   7.437 -1.2274 -0.6092  0.8551
 5189SOL    HW227027   2.045   3.923   7.511  0.1745 -3.0745  1.1126
 5190SOL     OW27028   4.040   2.955  10.185 -0.0128 -0.1141 -0.7205
 5190SOL    HW127029   3.970   2.905  10.142 -1.8838  1.8178  0.0767
 5190SOL    HW227030   3.999   2.967  10.271 -1.5880 -0.1027 -1.4773
 5191SOL     OW27031   2.842   2.005  12.596 -0.1849  0.0160 -0.2762
 5191SOL    HW127032   2.931   1.979  12.574 -0.0069  0.5470 -0.1880
 5191SOL    HW227033   2.812   1.992  12.506  0.6478 -0.0758 -0.5356
 5192SOL     OW27034   2.436   3.263   6.052 -0.3183 -0.6451 -0.2686
 5192SOL    HW127035   2.364   3.249   5.991  1.2904 -0.9466 -2.0991
 5192SOL    HW227036   2.387   3.243   6.132  0.4956 -1.2265  0.0892
 5193SOL     OW27037   3.267   1.056   4.479  0.6730  0.0012 -0.5610
 5193SOL    HW127038   3.267   1.139   4.432  0.6604  0.1719 -0.2585
 5193SOL    HW227039   3.284   1.096   4.564 -2.6127 -0.2750  0.1907
 5194SOL     OW27040   2.585   2.921  16.892 -0.3678 -0.0608 -0.6367
 5194SOL    HW127041   2.677   2.897  16.880  0.3460  2.1726  0.2628
 5194SOL    HW227042   2.587   3.016  16.874  2.4652  0.0407  0.1917
 5195SOL     OW27043   0.540   1.793   7.174 -0.0099  0.4064  0.1359
 5195SOL    HW127044   0.464   1.734   7.175  0.3544 -0.0482  1.4817
 5195SOL    HW227045   0.585   1.751   7.248  1.8236  0.8299 -0.7477
 5196SOL     OW27046   4.355   1.681   4.540 -0.3833  0.5409 -0.7813
 5196SOL    HW127047   4.349   1.648   4.450  2.4814 -0.8971 -0.4721
 5196SOL    HW227048   4.450   1.671   4.548 -0.3113  1.6713 -0.2065
 5197SOL     OW27049   3.064   3.518   8.244  0.2520 -0.1256  0.0940
 5197SOL    HW127050   3.133   3.467   8.202  0.5522  0.1790  0.2163
 5197SOL    HW227051   3.020   3.446   8.288  0.7646 -0.2767  0.3571
 5198SOL     OW27052   1.920   0.269   1.915  0.2894 -0.0876 -0.3613
 5198SOL    HW127053   1.927   0.363   1.934  1.0225 -0.4195  0.9888
 5198SOL    HW227054   1.937   0.269   1.821 -1.0380 -0.7134 -0.6066
 5199SOL     OW27055   2.712   0.558   8.261 -0.8987  0.0252 -0.1131
 5199SOL    HW127056   2.649   0.629   8.251 -1.1518 -0.3012 -0.8625
 5199SOL    HW227057   2.783   0.598   8.211  0.7125  0.7706  2.8044
 5200SOL     OW27058   1.956   3.491  13.843  0.2393 -0.2578  0.5715
 5200SOL    HW127059   1.990   3.509  13.931  0.5672  1.7446  0.0355
 5200SOL    HW227060   2.015   3.545  13.791  0.8909 -0.3673  1.1938
 5201SOL     OW27061   0.834   1.172   6.158 -0.3303 -0.0737  0.2490
 5201SOL    HW127062   0.884   1.149   6.080 -0.2106  0.4083  0.1849
 5201SOL    HW227063   0.745   1.140   6.139 -0.7016 -0.0644  1.9694
 5202SOL     OW27064   4.193   0.318  13.728 -0.3130  0.9150 -0.4559
 5202SOL    HW127065   4.209   0.338  13.636  0.7899 -0.2916 -0.5324
 5202SOL    HW227066   4.099   0.328  13.745 -0.6066  0.8670 -2.0296
 5203SOL     OW27067   4.495   3.879   8.531  0.3578 -0.3789 -0.2482
 5203SOL    HW127068   4.447   3.812   8.484 -1.8665  0.8180  0.2837
 5203SOL    HW227069   4.462   3.954   8.481  0.0321 -0.5207 -0.2414
 5204SOL     OW27070   2.144   0.793   0.704  0.1336 -0.2765 -0.0872
 5204SOL    HW127071   2.118   0.724   0.642 -1.7368  2.6431 -2.6023
 5204SOL    HW227072   2.208   0.838   0.649 -0.0434  0.1244  0.0344
 5205SOL     OW27073   3.006   2.720  12.167 -0.0735 -0.1926  0.3700
 5205SOL    HW127074   3.007   2.624  12.159 -0.8267 -0.3663  2.3765
 5205SOL    HW227075   2.954   2.748  12.092 -0.8142  2.4312  1.8552
 5206SOL     OW27076   3.819   0.527   5.947  0.2124  0.4025  0.0387
 5206SOL    HW127077   3.742   0.569   5.984 -0.4518 -0.1350 -0.7378
 5206SOL    HW227078   3.819   0.437   5.982  1.8223 -0.3267 -1.8141
 5207SOL     OW27079   1.423   3.848   1.903  0.4303  0.2624 -0.7214
 5207SOL    HW127080   1.426   3.827   1.996 -0.3745 -0.2348 -0.8104
 5207SOL    HW227081   1.431   3.943   1.895 -1.9646  0.4918 -0.4693
 5208SOL     OW27082   2.650   0.557  13.577  0.0509  0.0080 -0.5056
 5208SOL    HW127083   2.596   0.586  13.502 -0.4014  1.5294  0.3948
 5208SOL    HW227084   2.731   0.551  13.527  0.6573  1.3818  0.3097
 5209SOL     OW27085   4.576   3.951   4.727  0.0294  0.4109  0.3677
 5209SOL    HW127086   4.601   3.860   4.747 -4.2185 -0.8240  0.1717
 5209SOL    HW227087   4.484   3.931   4.711  0.0737 -1.6400  2.5619
 5210SOL     OW27088   2.149   4.041   4.279  0.0358  0.1905  0.2234
 5210SOL    HW127089   2.083   4.033   4.347  0.1495 -0.6181  0.2384
 5210SOL    HW227090   2.163   3.947   4.273 -0.8359  0.1385 -1.0490
 5211SOL     OW27091   2.580   0.135   6.542 -0.2633  0.6697 -0.3877
 5211SOL    HW127092   2.582   0.221   6.501 -1.0258 -0.2533 -2.3421
 5211SOL    HW227093   2.632   0.153   6.620 -0.6508  3.0034 -0.6717
 5212SOL     OW27094   1.154   0.581  10.707 -0.5660 -0.1427  0.2992
 5212SOL    HW127095   1.155   0.656  10.647  1.7978  0.3463  0.9428
 5212SOL    HW227096   1.076   0.534  10.679 -1.0203  1.3786 -1.0141
 5213SOL     OW27097   2.560   0.705   4.498  0.5336 -0.0257  0.0284
 5213SOL    HW127098   2.593   0.739   4.415  1.2075 -2.3245 -0.6558
 5213SOL    HW227099   2.477   0.663   4.475 -0.3210  0.6490  1.8813
 5214SOL     OW27100   0.034   2.805   4.780 -0.0024 -0.0009  0.1700
 5214SOL    HW127101   0.065   2.784   4.868 -2.0221 -0.7235  0.7060
 5214SOL    HW227102   0.086   2.752   4.719  1.2514  0.6073  0.7212
 5215SOL     OW27103   2.154   4.712  15.050 -0.2792 -0.2896 -0.3823
 5215SOL    HW127104   2.228   4.654  15.069  0.0479  0.3399  0.2844
 5215SOL    HW227105   2.142   0.024  15.138  1.5249  1.9283 -1.0354
 5216SOL     OW27106   1.313   2.421   5.350 -0.1867 -0.3400 -0.4342
 5216SOL    HW127107   1.275   2.334   5.362 -1.3673  0.4707  1.8112
 5216SOL    HW227108   1.276   2.434   5.263 -2.1689  0.2584  0.4973
 5217SOL     OW27109   3.393   3.619   2.085 -0.2141 -0.5140  0.0685
 5217SOL    HW127110   3.471   3.664   2.052 -0.3851  0.1933  0.6128
 5217SOL    HW227111   3.433   3.598   2.169  1.5580  1.5279 -0.2502
 5218SOL     OW27112   4.713   1.973   9.667 -0.0254  0.2315 -0.9979
 5218SOL    HW127113   4.651   2.025   9.718  0.4211 -1.7089  1.5090
 5218SOL    HW227114   0.053   2.040   9.643  0.1939  0.5417  0.4567
 5219SOL     OW27115   2.969   2.555  13.203  0.6963 -0.0875 -0.6552
 5219SOL    HW127116   2.960   2.621  13.134  1.9567  0.0946 -0.6419
 5219SOL    HW227117   2.919   2.484  13.164 -1.5303 -0.0833  2.1710
 5220SOL     OW27118   2.456   3.543   4.318  0.1524  0.2069  0.1569
 5220SOL    HW127119   2.394   3.470   4.316 -0.5163  0.7696  0.4862
 5220SOL    HW227120   2.425   3.596   4.245 -1.0793 -0.6034  0.0879
 5221SOL     OW27121   2.848   1.384   9.028  0.2511 -0.4560  0.0617
 5221SOL    HW127122   2.827   1.406   9.119 -2.5202 -0.0126 -0.6880
 5221SOL    HW227123   2.831   1.468   8.986 -1.5106 -1.4000 -1.1263
 5222SOL     OW27124   4.236   3.292   4.016 -0.0656 -0.3872  0.1918
 5222SOL    HW127125   4.196   3.205   4.023  2.1133 -1.2999  1.3759
 5222SOL    HW227126   4.297   3.281   3.944 -0.7660  0.5819 -0.5475
 5223SOL     OW27127   3.188   4.427   7.038  0.0460 -0.2816  0.3081
 5223SOL    HW127128   3.253   4.372   6.995 -0.6762  0.5686 -1.8575
 5223SOL    HW227129   3.244   4.495   7.075 -1.4381  1.5127 -0.7359
 5224SOL     OW27130   0.355   2.516  11.174  0.6099 -0.0258 -0.4761
 5224SOL    HW127131   0.406   2.524  11.093 -0.2135 -0.0745 -1.0002
 5224SOL    HW227132   0.270   2.496  11.135  0.3221 -1.6882  0.9719
 5225SOL     OW27133   0.878   2.110   7.214 -0.2269 -0.4112 -0.2764
 5225SOL    HW127134   0.806   2.062   7.253  0.4123 -0.5222  0.7535
 5225SOL    HW227135   0.845   2.134   7.127 -2.2135  2.3047  1.2385
 5226SOL     OW27136   3.461   0.942  11.168  0.1187 -0.1879 -0.0656
 5226SOL    HW127137   3.406   0.913  11.241  0.3838  1.5480  0.8128
 5226SOL    HW227138   3.459   0.856  11.126  5.8921  0.4629 -1.7153
 5227SOL     OW27139   2.440   1.594   8.274 -0.3036 -0.3118  0.1860
 5227SOL    HW127140   2.472   1.684   8.284 -0.4660 -0.2026 -0.2539
 5227SOL    HW227141   2.510   1.555   8.326  0.3707  0.2580 -0.2977
 5228SOL     OW27142   3.050   3.196   5.705 -0.6341 -0.2556 -0.1357
 5228SOL    HW127143   2.968   3.185   5.657  0.0028 -1.8583 -0.8652
 5228SOL    HW227144   3.077   3.106   5.722 -0.6254  0.1876  2.2258
 5229SOL     OW27145   2.909   4.163   2.692  0.2664  0.0330 -0.2090
 5229SOL    HW127146   2.953   4.103   2.753  0.5350 -0.5180 -0.9466
 5229SOL    HW227147   2.815   4.154   2.708  0.4418 -2.8216 -0.7140
 5230SOL     OW27148   4.055   3.471   7.471 -0.2457 -0.4002  0.2517
 5230SOL    HW127149   4.014   3.557   7.462  1.1431  0.2380 -0.0004
 5230SOL    HW227150   4.132   3.509   7.514 -0.7603  0.8990  0.0276
 5231SOL     OW27151   1.780   0.852  16.255  1.1651 -0.2900  0.1507
 5231SOL    HW127152   1.705   0.898  16.294  1.2224  0.8588 -1.0716
 5231SOL    HW227153   1.808   0.918  16.192  0.5627  0.0713  0.2579
 5232SOL     OW27154   3.454   3.358   4.781  0.0277  0.0936  0.2096
 5232SOL    HW127155   3.455   3.434   4.840 -0.9390  1.4875 -1.5987
 5232SOL    HW227156   3.366   3.320   4.786 -0.2128  0.2531 -3.3680
 5233SOL     OW27157   4.096   2.885   3.201  0.1889  0.2030  0.1535
 5233SOL    HW127158   4.085   2.819   3.270  0.4173  1.6716  1.5809
 5233SOL    HW227159   4.097   2.963   3.256  1.0346  0.6394 -0.4794
 5234SOL     OW27160   4.523   3.895  12.272  0.1445 -0.6276 -0.0646
 5234SOL    HW127161   4.602   3.840  12.273  1.0859  0.7093 -1.0401
 5234SOL    HW227162   4.456   3.827  12.274 -1.1921  0.6253 -2.0141
 5235SOL     OW27163   3.424   1.341   5.970  0.5200 -0.4351  0.2145
 5235SOL    HW127164   3.425   1.321   6.064 -1.3575 -1.3807  0.0376
 5235SOL    HW227165   3.506   1.297   5.948  0.0925 -1.7208  1.1579
 5236SOL     OW27166   0.557   4.379   7.570 -1.0560 -0.3980 -0.2805
 5236SOL    HW127167   0.551   4.301   7.515 -0.0066 -1.2513  0.8195
 5236SOL    HW227168   0.466   4.397   7.592 -0.9382  1.2392 -1.0906
 5237SOL     OW27169   0.012   4.301   9.350  0.2821  0.3070 -0.1380
 5237SOL    HW127170   0.094   4.267   9.314 -0.0992  0.3740 -1.0871
 5237SOL    HW227171   4.679   4.311   9.274  2.8540 -2.6081 -2.4218
 5238SOL     OW27172   0.857   4.724   8.681 -0.3554  0.3152 -0.2789
 5238SOL    HW127173   0.935   0.000   8.737 -0.0185 -1.5771 -0.7201
 5238SOL    HW227174   0.803   0.068   8.720  0.8878  1.5976 -0.8039
 5239SOL     OW27175   1.254   3.833   8.120 -0.3427  0.0933  0.1451
 5239SOL    HW127176   1.339   3.870   8.144  0.5649 -1.6745 -0.3601
 5239SOL    HW227177   1.209   3.830   8.205  0.0925  2.4311  0.4556
 5240SOL     OW27178   4.421   3.379   5.271  0.0280 -0.0524  0.3785
 5240SOL    HW127179   4.382   3.467   5.269 -0.0197 -0.0275  2.3082
 5240SOL    HW227180   4.369   3.351   5.196 -0.2084  1.3833  0.0109
 5241SOL     OW27181   0.723   3.719   3.706 -0.3425  0.0897  0.1405
 5241SOL    HW127182   0.795   3.769   3.743 -0.4481  1.2530 -1.2153
 5241SOL    HW227183   0.660   3.735   3.776 -0.9260  0.2039 -0.4057
 5242SOL     OW27184   4.693   2.143   6.590 -0.4654  0.1762  0.1472
 5242SOL    HW127185   0.014   2.092   6.522 -0.6876 -0.8902  0.7897
 5242SOL    HW227186   4.609   2.168   6.553 -0.6878  0.3503  0.7669
 5243SOL     OW27187   0.382   4.317   0.623  0.1540  0.2747 -0.0124
 5243SOL    HW127188   0.456   4.258   0.613  0.1143  0.0201  1.1034
 5243SOL    HW227189   0.422   4.404   0.628 -0.7026  0.8401 -3.0288
 5244SOL     OW27190   2.386   1.159   6.571 -0.1985  0.8031 -1.1762
 5244SOL    HW127191   2.398   1.224   6.501 -0.3277  1.2480 -0.7811
 5244SOL    HW227192   2.350   1.221   6.634 -2.3878 -1.4327 -0.2192
 5245SOL     OW27193   0.272   0.694  13.197 -0.0345 -0.1686 -0.2185
 5245SOL    HW127194   0.354   0.666  13.155  0.5474  2.2110 -0.7011
 5245SOL    HW227195   0.204   0.654  13.143 -2.0105  2.0229  0.6510
 5246SOL     OW27196   2.531   0.481   1.594 -0.4847  0.2477  0.3930
 5246SOL    HW127197   2.487   0.397   1.587 -0.2838  0.2638 -0.9732
 5246SOL    HW227198   2.528   0.500   1.688  1.4563  0.3617  0.4274
 5247SOL     OW27199   2.787   1.950   6.347 -0.3008 -0.1306  0.4634
 5247SOL    HW127200   2.768   1.866   6.305  0.5080 -0.5155  0.8632
 5247SOL    HW227201   2.704   1.968   6.390 -0.9008  1.0668 -1.2024
 5248SOL     OW27202   1.390   1.921   7.628 -0.0989 -0.4930 -0.1531
 5248SOL    HW127203   1.473   1.908   7.673  0.1180  0.8948 -0.1597
 5248SOL    HW227204   1.320   1.876   7.676  0.3054 -1.0625 -0.1001
 5249SOL     OW27205   0.444   3.937   8.202 -0.6164  0.1841 -0.2753
 5249SOL    HW127206   0.431   4.015   8.256 -0.0580  0.2998 -0.3115
 5249SOL    HW227207   0.361   3.944   8.154 -0.2212 -1.0646 -1.1380
 5250SOL     OW27208   2.540   2.296   2.985  0.4280 -0.0911 -0.5845
 5250SOL    HW127209   2.553   2.202   3.001 -0.3024 -0.0192  0.4108
 5250SOL    HW227210   2.519   2.288   2.892  0.2362  1.2642 -0.6545
 5251SOL     OW27211   4.474   1.619   0.757  0.0515 -0.4567  0.1972
 5251SOL    HW127212   4.393   1.607   0.807  0.0211  0.5758  0.3939
 5251SOL    HW227213   4.523   1.680   0.812 -2.6582  2.4143 -0.5735
 5252SOL     OW27214   2.949   0.597   0.676 -0.5687 -0.0594  0.2150
 5252SOL    HW127215   2.934   0.670   0.616 -0.3356 -1.1189 -1.1208
 5252SOL    HW227216   2.864   0.594   0.720 -0.4961  0.1083  0.3677
 5253SOL     OW27217   0.191   3.578   8.276  0.8241 -0.0882  0.2410
 5253SOL    HW127218   0.113   3.548   8.322 -0.0421  0.0918 -1.0960
 5253SOL    HW227219   0.265   3.558   8.334  1.5734  2.6418  0.2080
 5254SOL     OW27220   1.085   4.684   1.377 -0.0690 -0.1663 -0.1408
 5254SOL    HW127221   1.035   0.028   1.424  1.7311  1.0620 -0.0082
 5254SOL    HW227222   1.147   0.009   1.323 -0.3388  0.2522 -0.0795
 5255SOL     OW27223   1.200   3.891   2.304  0.6420 -0.6006  0.0098
 5255SOL    HW127224   1.151   3.843   2.237 -1.5626  0.0339  1.1733
 5255SOL    HW227225   1.289   3.874   2.272  0.6006 -0.6219 -0.0933
 5256SOL     OW27226   0.524   3.665   8.028  0.3461  0.0364  0.1944
 5256SOL    HW127227   0.588   3.600   8.058 -1.5671 -2.1030 -0.3287
 5256SOL    HW227228   0.520   3.711   8.112  0.0736 -0.8031  0.6482
 5257SOL     OW27229   2.232   2.396  17.153 -0.0757 -0.2537  0.3243
 5257SOL    HW127230   2.202   2.318  17.108 -0.8222 -0.5690  1.3582
 5257SOL    HW227231   2.325   2.375  17.160  0.3703  1.2853 -1.1500
 5258SOL     OW27232   2.597   3.056   8.357  0.0134 -0.4723  0.1698
 5258SOL    HW127233   2.577   3.081   8.447 -1.2853  0.7998 -0.4657
 5258SOL    HW227234   2.512   3.027   8.323 -0.2310  0.9856 -0.4779
 5259SOL     OW27235   3.446   4.542   4.276  0.0500 -0.6111 -0.2967
 5259SOL    HW127236   3.389   4.504   4.209  1.9852 -1.6127 -1.3726
 5259SOL    HW227237   3.377   4.594   4.317 -1.2028 -1.4845 -1.3025
 5260SOL     OW27238   2.783   2.879  10.419 -0.1182 -0.4198  0.3258
 5260SOL    HW127239   2.775   2.786  10.441  0.7389 -0.8173 -1.0786
 5260SOL    HW227240   2.876   2.881  10.398  0.1173 -0.9167  1.3183
 5261SOL     OW27241   1.970   4.332   7.001 -0.7475  0.0512  0.5630
 5261SOL    HW127242   2.005   4.358   7.086 -0.8902  1.7584  0.1201
 5261SOL    HW227243   2.031   4.259   6.992 -0.1282  0.9838 -2.9925
 5262SOL     OW27244   3.237   3.472   4.470 -0.0632 -0.3005 -0.0935
 5262SOL    HW127245   3.217   3.380   4.487  0.3168 -0.3366  0.1609
 5262SOL    HW227246   3.330   3.462   4.492  0.2095 -1.8947 -1.9591
 5263SOL     OW27247   1.679   2.988   4.201  0.2566 -0.1526 -0.1784
 5263SOL    HW127248   1.735   2.949   4.268  0.1415  2.9670  1.7352
 5263SOL    HW227249   1.746   3.026   4.144  0.9253 -2.3933 -0.8573
 5264SOL     OW27250   1.213   0.800  10.094 -0.0040  0.0570  0.6889
 5264SOL    HW127251   1.237   0.839  10.010 -0.2781  4.3201  2.5481
 5264SOL    HW227252   1.138   0.741  10.080 -1.1428  1.7201 -0.2941
 5265SOL     OW27253   1.172   0.699   2.889  0.0738 -0.7717 -0.3483
 5265SOL    HW127254   1.108   0.642   2.845 -1.0071  1.5061 -1.7017
 5265SOL    HW227255   1.179   0.768   2.823  0.6696 -1.3180 -0.8586
 5266SOL     OW27256   2.129   4.555   5.681 -0.3444  0.2772  0.3222
 5266SOL    HW127257   2.106   4.544   5.774 -1.0314 -0.4709  0.0587
 5266SOL    HW227258   2.075   4.630   5.658 -0.8895 -0.1025  0.3702
 5267SOL     OW27259   0.351   4.334  14.486 -0.0927 -0.4252 -0.1865
 5267SOL    HW127260   0.421   4.271  14.503  0.8753  0.3276 -1.3854
 5267SOL    HW227261   0.305   4.328  14.570  1.1189 -0.5343  0.4713
 5268SOL     OW27262   0.268   4.497  11.756 -0.2207  0.0013  0.1139
 5268SOL    HW127263   0.220   4.548  11.821  1.4387  1.6902  0.0002
 5268SOL    HW227264   0.358   4.529  11.756 -0.3618  0.4010  1.2777
 5269SOL     OW27265   1.278   4.313  15.144  0.1009  0.7040  0.1047
 5269SOL    HW127266   1.331   4.364  15.082  0.8316  0.5919  0.6432
 5269SOL    HW227267   1.320   4.227  15.140  0.2185  0.8002 -0.6808
 5270SOL     OW27268   2.589   1.152  13.911 -0.6005 -0.0692  0.4678
 5270SOL    HW127269   2.546   1.100  13.843  2.0847 -2.9797  1.0093
 5270SOL    HW227270   2.513   1.208  13.926  1.0431  1.6178  2.4881
 5271SOL     OW27271   0.921   3.904   9.326  0.9103 -0.1075 -0.1142
 5271SOL    HW127272   0.924   3.942   9.414 -0.3432  1.7652 -0.8584
 5271SOL    HW227273   0.962   3.821   9.350  0.4223  0.2652  2.0073
 5272SOL     OW27274   1.140   1.231  12.386  0.2706 -0.0129  0.2216
 5272SOL    HW127275   1.217   1.176  12.372  0.1183 -0.3806  0.8345
 5272SOL    HW227276   1.190   1.307  12.416 -1.5362  1.1191  0.3517
 5273SOL     OW27277   2.123   0.189   8.863  0.3468 -0.0236 -0.3351
 5273SOL    HW127278   2.205   0.232   8.888  1.7156 -2.7019 -0.2226
 5273SOL    HW227279   2.118   0.237   8.781  0.6562  1.0870  0.2963
 5274SOL     OW27280   3.367   1.159  12.121  0.0226  0.4460 -0.0579
 5274SOL    HW127281   3.416   1.077  12.122 -0.6572  0.0163 -0.9736
 5274SOL    HW227282   3.301   1.142  12.188 -1.9177  3.4389 -1.1833
 5275SOL     OW27283   2.892   3.509   4.950  0.8867  0.3271  0.3979
 5275SOL    HW127284   2.884   3.534   4.858 -0.5742  1.7255  0.9150
 5275SOL    HW227285   2.803   3.525   4.982  0.3680 -0.5424 -0.5771
 5276SOL     OW27286   1.144   1.734   6.657  0.5488  0.1325  0.1370
 5276SOL    HW127287   1.161   1.827   6.644 -2.2883  0.6599  0.2025
 5276SOL    HW227288   1.196   1.712   6.734  1.0433 -0.9520 -0.4974
 5277SOL     OW27289   1.836   1.020   5.055  0.1166 -0.1339  0.2336
 5277SOL    HW127290   1.918   1.008   5.008 -0.8502 -1.8608 -1.0113
 5277SOL    HW227291   1.856   0.971   5.135 -0.8163 -1.1466 -0.1548
 5278SOL     OW27292   2.496   2.540   3.088 -0.0896 -0.4791 -0.0266
 5278SOL    HW127293   2.489   2.581   3.002  0.6034 -0.2356  0.0327
 5278SOL    HW227294   2.504   2.450   3.059 -0.5974 -0.1073 -1.3093
 5279SOL     OW27295   3.675   3.131   8.778  0.1118  0.1436  0.0462
 5279SOL    HW127296   3.764   3.156   8.803  0.4909 -1.2039  0.0575
 5279SOL    HW227297   3.625   3.174   8.848  1.3726  0.2716  0.8766
 5280SOL     OW27298   0.410   1.678   7.781 -0.4947  0.3565  0.5610
 5280SOL    HW127299   0.422   1.623   7.858 -0.1985 -1.0026 -0.4604
 5280SOL    HW227300   0.331   1.638   7.745 -0.5083  1.0479 -0.1844
 5281SOL     OW27301   2.126   4.134   8.059  0.1742 -0.3712 -0.3273
 5281SOL    HW127302   2.191   4.078   8.099  1.0663  0.1970 -0.9794
 5281SOL    HW227303   2.048   4.117   8.111 -0.7565  1.6753 -1.0374
 5282SOL     OW27304   0.867   4.092   3.110  0.5076  0.3061 -0.0341
 5282SOL    HW127305   0.929   4.037   3.159 -0.9887 -1.4208 -0.0789
 5282SOL    HW227306   0.930   4.157   3.081  0.5292 -1.4262 -3.8785
 5283SOL     OW27307   3.392   0.687   7.182 -0.2840  0.4584  0.1778
 5283SOL    HW127308   3.391   0.651   7.271  0.9376  0.1390  0.0635
 5283SOL    HW227309   3.481   0.653   7.172 -0.5271 -0.1858  0.1777
 5284SOL     OW27310   0.599   1.598   2.397  1.2219  0.4458  0.2442
 5284SOL    HW127311   0.602   1.502   2.401  1.3057  0.5540  2.8786
 5284SOL    HW227312   0.555   1.613   2.313  1.1004 -0.3522  0.1577
 5285SOL     OW27313   1.410   1.868   1.843  0.5271 -0.0975 -0.3994
 5285SOL    HW127314   1.433   1.872   1.750  1.0389  1.1891 -0.2169
 5285SOL    HW227315   1.344   1.800   1.828  1.6883 -1.5232  0.9455
 5286SOL     OW27316   4.665   0.215   2.700  0.3273 -0.7698  0.2350
 5286SOL    HW127317   4.608   0.146   2.668 -1.2070  0.4152  0.4266
 5286SOL    HW227318   0.009   0.150   2.720  0.8517 -0.8740 -1.8496
 5287SOL     OW27319   0.166   3.769   1.993  0.1101 -0.2128 -0.0076
 5287SOL    HW127320   0.148   3.856   2.028  0.2051 -0.3281  0.3375
 5287SOL    HW227321   0.090   3.723   2.029  0.5606  0.4854  1.8766
 5288SOL     OW27322   4.059   1.931   7.976  0.5860 -0.0032 -0.5887
 5288SOL    HW127323   4.053   1.883   7.893  2.1621 -0.7029 -0.3073
 5288SOL    HW227324   4.119   2.002   7.954  1.7591 -0.3768  1.4222
 5289SOL     OW27325   2.952   0.111  13.567  0.2683 -0.4538 -0.2580
 5289SOL    HW127326   2.878   0.171  13.576  1.1335  0.2820  1.8214
 5289SOL    HW227327   2.907   0.026  13.566 -0.8701  0.1415 -0.4153
 5290SOL     OW27328   3.767   1.625   9.753  0.3417  0.3850  0.1666
 5290SOL    HW127329   3.840   1.611   9.814  0.6116 -1.2181 -0.5194
 5290SOL    HW227330   3.697   1.565   9.780 -0.3986  0.5431 -1.4123
 5291SOL     OW27331   0.005   2.191   4.746 -0.1282 -0.6675 -0.3833
 5291SOL    HW127332   4.638   2.160   4.737 -1.0254  1.4666  1.3149
 5291SOL    HW227333   0.029   2.208   4.655  0.1727  2.1263  0.2233
 5292SOL     OW27334   1.853   0.239  10.006 -0.3647  0.1831  0.0850
 5292SOL    HW127335   1.863   0.178   9.932  2.9713 -1.2043  1.7156
 5292SOL    HW227336   1.866   0.321   9.958  1.3061 -0.5004 -0.6313
 5293SOL     OW27337   2.928   0.198   7.712  0.4846  0.0829  0.1937
 5293SOL    HW127338   2.988   0.125   7.697  0.5910  0.4983 -1.3403
 5293SOL    HW227339   2.872   0.162   7.781 -2.3779  0.5519 -1.8713
 5294SOL     OW27340   0.284   0.282   7.141  0.0628  0.5875 -0.2907
 5294SOL    HW127341   0.263   0.194   7.172  1.0974  0.1375 -0.8778
 5294SOL    HW227342   0.376   0.266   7.122  0.1734 -1.1356  1.7093
 5295SOL     OW27343   2.124   0.695   8.253 -0.6232 -0.2676 -0.5873
 5295SOL    HW127344   2.219   0.703   8.258 -0.7998  1.8032 -0.5628
 5295SOL    HW227345   2.123   0.622   8.190  0.3746 -0.8756  0.1113
 5296SOL     OW27346   1.589   0.048   3.073 -0.1247 -0.1103  0.5325
 5296SOL    HW127347   1.670   0.098   3.088 -0.7706  0.4465  2.1369
 5296SOL    HW227348   1.621   4.686   3.098  0.4595 -0.2431 -0.6332
 5297SOL     OW27349   0.197   3.041   6.644 -0.1451  0.3656 -0.1213
 5297SOL    HW127350   0.185   3.120   6.697 -3.4280  1.1455 -2.0334
 5297SOL    HW227351   0.278   3.008   6.683 -1.3862 -2.2778  0.2228
 5298SOL     OW27352   0.267   3.961   6.430  0.8036  0.1546  0.1211
 5298SOL    HW127353   0.266   3.906   6.352  0.8471 -0.8312  0.8188
 5298SOL    HW227354   0.331   4.028   6.404 -1.5534  2.3475  0.0092
 5299SOL     OW27355   1.759   0.931   2.969 -0.1709 -0.8872  0.4735
 5299SOL    HW127356   1.719   0.873   3.033 -2.1409  0.2167  0.2326
 5299SOL    HW227357   1.686   0.992   2.973 -1.8353 -2.7258 -2.1420
 5300SOL     OW27358   4.015   3.165   6.323  0.7326  0.4618 -0.7349
 5300SOL    HW127359   4.094   3.191   6.372  0.2265 -1.1625  0.9353
 5300SOL    HW227360   3.998   3.241   6.267  0.4076  0.0129 -1.2398
 5301SOL     OW27361   1.903   3.543   3.685 -0.3769  0.2345 -0.2977
 5301SOL    HW127362   1.954   3.513   3.610  0.5282 -0.3660  0.5677
 5301SOL    HW227363   1.968   3.588   3.739 -0.6417 -0.4592  0.5862
 5302SOL     OW27364   3.121   0.712  16.470  0.0420 -0.0348 -0.3819
 5302SOL    HW127365   3.147   0.755  16.552 -0.1775  1.7678 -1.2673
 5302SOL    HW227366   3.134   0.618  16.489 -2.3222 -0.2530  0.1080
 5303SOL     OW27367   0.209   2.492   2.221  0.0330 -0.3648  0.3489
 5303SOL    HW127368   0.138   2.540   2.177 -0.0895  0.0797  1.0326
 5303SOL    HW227369   0.202   2.409   2.175 -0.1209  0.1478 -0.5599
 5304SOL     OW27370   0.710   0.985   6.615 -0.2736 -0.5965  0.0822
 5304SOL    HW127371   0.752   1.058   6.570 -1.7787  1.5632  2.1886
 5304SOL    HW227372   0.788   0.940   6.648 -0.7811 -2.8877 -1.8930
 5305SOL     OW27373   3.862   3.122  13.198 -0.1827  0.6186  0.3065
 5305SOL    HW127374   3.823   3.036  13.209  0.4350  0.0654 -1.8343
 5305SOL    HW227375   3.793   3.187  13.209 -0.0541  0.8853 -0.4862
 5306SOL     OW27376   3.629   4.134   7.046 -0.4608  0.3614  0.3231
 5306SOL    HW127377   3.716   4.099   7.027 -1.1146 -0.6719 -0.7653
 5306SOL    HW227378   3.597   4.076   7.114  0.0597 -1.2325 -0.8034
 5307SOL     OW27379   3.861   4.583  13.739 -0.5341 -0.1799  0.2341
 5307SOL    HW127380   3.938   4.640  13.733 -0.0175 -1.1275 -2.4695
 5307SOL    HW227381   3.834   4.590  13.647  1.2532  1.9954 -0.1286
 5308SOL     OW27382   3.833   1.351   4.725  0.1067  0.1411  0.4349
 5308SOL    HW127383   3.814   1.351   4.819 -0.2745 -1.0421  0.3506
 5308SOL    HW227384   3.824   1.258   4.707  2.1736  0.2726 -1.2866
 5309SOL     OW27385   2.082   4.426  12.623 -0.2098  0.7604  0.5397
 5309SOL    HW127386   2.127   4.474  12.553 -0.9316  0.6300 -0.0225
 5309SOL    HW227387   2.123   4.459  12.702 -0.3611 -1.0712  1.3865
 5310SOL     OW27388   0.847   1.532   9.038 -0.1728 -0.2090 -0.3628
 5310SOL    HW127389   0.909   1.512   8.969  0.9614  3.8379 -0.5007
 5310SOL    HW227390   0.798   1.449   9.037 -0.0364 -0.2961  0.6204
 5311SOL     OW27391   0.129   2.727   8.725  0.8671  0.3294  0.3775
 5311SOL    HW127392   0.111   2.763   8.812 -0.0695 -2.2581  1.2638
 5311SOL    HW227393   0.044   2.687   8.707  0.4870  0.8673  0.9521
 5312SOL     OW27394   0.735   0.363   6.136 -0.5315 -0.5367  0.7301
 5312SOL    HW127395   0.770   0.451   6.154  2.0275 -1.2081 -0.9014
 5312SOL    HW227396   0.681   0.345   6.212 -0.2762 -0.6725  0.8774
 5313SOL     OW27397   0.999   1.514   1.336 -0.1712  0.0989  0.5332
 5313SOL    HW127398   0.968   1.604   1.329 -0.5677 -0.1015 -0.3422
 5313SOL    HW227399   1.084   1.517   1.294 -1.2561  0.9478 -1.6070
 5314SOL     OW27400   1.759   4.104   6.351 -0.1190  0.1843 -0.2624
 5314SOL    HW127401   1.743   4.090   6.257 -0.2255  0.6634 -0.3139
 5314SOL    HW227402   1.803   4.187   6.335  0.4848  0.3849  2.4755
 5315SOL     OW27403   3.428   4.036  11.857 -0.0807 -0.2956 -0.6977
 5315SOL    HW127404   3.442   3.995  11.942  1.4647 -3.5205 -2.5261
 5315SOL    HW227405   3.503   4.001  11.809 -1.0299 -1.4448 -1.3458
 5316SOL     OW27406   3.412   1.242   0.405 -0.0990 -0.0508 -0.5533
 5316SOL    HW127407   3.484   1.286   0.449  1.4855 -1.7345 -1.4958
 5316SOL    HW227408   3.336   1.280   0.449 -0.7391  0.4865 -2.1178
 5317SOL     OW27409   3.704   3.803  12.263  0.3961  0.7478 -0.0065
 5317SOL    HW127410   3.644   3.873  12.289 -1.0523  1.3426 -4.8622
 5317SOL    HW227411   3.673   3.732  12.318  1.8611  0.6540  0.6943
 5318SOL     OW27412   1.961   2.442   8.779  1.1577  0.0921  0.2119
 5318SOL    HW127413   1.992   2.392   8.855 -3.2375 -2.7973  0.0886
 5318SOL    HW227414   1.964   2.530   8.817  2.0687  0.3475 -0.4451
 5319SOL     OW27415   4.417   4.250   3.248  0.4283 -0.0994 -0.2693
 5319SOL    HW127416   4.397   4.339   3.221  0.4970 -0.0638 -0.2011
 5319SOL    HW227417   4.328   4.219   3.268  1.2899  0.6250  4.5458
 5320SOL     OW27418   2.977   3.336   2.987 -0.6043  0.5043 -0.4511
 5320SOL    HW127419   2.963   3.427   2.960  0.3548  0.7959  0.0206
 5320SOL    HW227420   2.927   3.293   2.918  0.4054 -1.1703 -0.1147
 5321SOL     OW27421   4.487   4.650   6.200  0.2732 -0.1261  0.3281
 5321SOL    HW127422   4.580   4.635   6.185  0.1159 -0.7633 -0.0098
 5321SOL    HW227423   4.448   4.563   6.213  0.3843 -0.1894  0.2293
 5322SOL     OW27424   3.895   3.099   6.641 -0.2002 -0.1576  0.2034
 5322SOL    HW127425   3.911   3.016   6.596 -1.3925 -0.3754  0.1970
 5322SOL    HW227426   3.913   3.156   6.566 -0.6499 -2.0346 -1.3207
 5323SOL     OW27427   0.288   1.462   2.707 -0.3166  0.2216  0.4712
 5323SOL    HW127428   0.247   1.457   2.794  1.4869 -2.4581  1.1802
 5323SOL    HW227429   0.260   1.381   2.664  0.7317  0.4719 -0.6679
 5324SOL     OW27430   3.659   1.701  12.209  0.3917  0.3620  0.3140
 5324SOL    HW127431   3.712   1.750  12.146  2.9560  0.7586  2.8316
 5324SOL    HW227432   3.730   1.697  12.272  3.6188  2.9409 -3.1250
 5325SOL     OW27433   0.658   0.417  14.193  0.5824 -0.2263  0.3799
 5325SOL    HW127434   0.635   0.509  14.179  1.3717 -0.2863 -1.4394
 5325SOL    HW227435   0.735   0.401  14.138  0.8741 -0.5421  0.8872
 5326SOL     OW27436   3.165   1.764  13.573  1.2553 -0.1403  0.2874
 5326SOL    HW127437   3.225   1.835  13.548  1.0005  0.3516  1.1130
 5326SOL    HW227438   3.201   1.697  13.514 -0.4455  0.5948 -1.5784
 5327SOL     OW27439   4.024   0.498  15.135 -0.0718  0.3596  0.0374
 5327SOL    HW127440   4.100   0.455  15.175  0.6745  2.5080  0.9141
 5327SOL    HW227441   3.952   0.438  15.152 -0.1246  0.0411 -1.3571
 5328SOL     OW27442   1.679   3.298   6.594 -0.0211 -0.3024  0.3632
 5328SOL    HW127443   1.606   3.359   6.585  0.7372  0.4332 -0.8019
 5328SOL    HW227444   1.738   3.348   6.650  0.8269 -0.7581 -0.1068
 5329SOL     OW27445   4.392   4.485  10.419  0.1578  0.0045  0.1046
 5329SOL    HW127446   4.345   4.563  10.449  0.7459 -0.3995  2.0637
 5329SOL    HW227447   4.352   4.420  10.477  2.5434  0.4950  2.2592
 5330SOL     OW27448   0.519   0.700  12.061 -0.2289  0.1193 -0.4327
 5330SOL    HW127449   0.553   0.715  11.973  1.6594 -0.6274  0.1680
 5330SOL    HW227450   0.540   0.783  12.106  2.2863  0.6731 -2.6576
 5331SOL     OW27451   2.281   1.779   1.655 -0.0195  0.1378 -0.3564
 5331SOL    HW127452   2.328   1.815   1.579  0.7672  0.5634  0.3306
 5331SOL    HW227453   2.324   1.694   1.646 -1.7253 -0.7780  0.0946
 5332SOL     OW27454   4.183   2.656   3.590 -0.1921  0.3235 -0.2228
 5332SOL    HW127455   4.168   2.578   3.643  2.8491  1.2356  1.9635
 5332SOL    HW227456   4.258   2.686   3.642 -0.4442 -1.2246  1.0182
 5333SOL     OW27457   0.625   4.221   8.105 -0.5628 -0.6699  0.5518
 5333SOL    HW127458   0.614   4.198   8.198 -0.2111 -4.1274 -0.2715
 5333SOL    HW227459   0.715   4.251   8.111 -0.6193 -0.1943 -1.0254
 5334SOL     OW27460   2.965   0.326  14.698 -0.2405 -0.1556  0.7756
 5334SOL    HW127461   2.968   0.273  14.777 -0.4460 -1.6423 -0.2101
 5334SOL    HW227462   2.962   0.412  14.740  0.9460 -0.2869  1.1174
 5335SOL     OW27463   4.639   1.147   8.117  0.1640 -0.2958  0.3313
 5335SOL    HW127464   4.635   1.238   8.087 -0.2016 -0.5865 -0.4820
 5335SOL    HW227465   4.635   1.168   8.211 -2.7002 -0.6336  0.2947
 5336SOL     OW27466   1.758   0.598   1.857 -1.1450 -0.3761  0.7126
 5336SOL    HW127467   1.822   0.588   1.927 -0.5282 -0.6185  0.1114
 5336SOL    HW227468   1.754   0.691   1.839 -0.2875 -0.9612 -2.3480
 5337SOL     OW27469   2.997   0.435  16.841 -0.0411  0.1154  0.0025
 5337SOL    HW127470   3.020   0.347  16.872  2.3417 -0.2022 -2.7478
 5337SOL    HW227471   3.078   0.481  16.819  1.1637 -2.1885 -0.3830
 5338SOL     OW27472   3.369   4.413  15.579  0.1787  0.1344  0.3445
 5338SOL    HW127473   3.462   4.408  15.600  0.2274  2.4875  0.6934
 5338SOL    HW227474   3.348   4.493  15.628 -0.4381 -0.2542  0.7125
 5339SOL     OW27475   1.527   0.071   8.655  0.0357  0.5685 -0.1506
 5339SOL    HW127476   1.549   4.724   8.595 -1.4376  0.3508 -0.4220
 5339SOL    HW227477   1.435   0.081   8.631  0.3872  0.5524 -1.4835
 5340SOL     OW27478   0.249   0.221  17.442  0.5739  0.0030 -0.4671
 5340SOL    HW127479   0.201   0.146  17.479  0.4246 -0.2700 -1.2086
 5340SOL    HW227480   0.339   0.209  17.470  0.3536  0.9845  0.6755
 5341SOL     OW27481   1.063   3.812   8.764  0.7777  0.2604 -0.1156
 5341SOL    HW127482   1.075   3.728   8.718 -0.8533  0.6945 -1.3159
 5341SOL    HW227483   1.114   3.791   8.843 -0.2762  0.0238  0.4915
 5342SOL     OW27484   2.561   1.657   3.007  0.6757 -0.1375 -0.5577
 5342SOL    HW127485   2.621   1.716   3.053 -0.8952  1.4550 -0.5492
 5342SOL    HW227486   2.595   1.645   2.919 -0.9877  1.6344 -1.4180
 5343SOL     OW27487   2.913   3.573  17.592 -0.2038 -0.5926 -0.1890
 5343SOL    HW127488   2.898   3.482  17.616 -2.9747 -0.2325 -0.5371
 5343SOL    HW227489   2.999   3.588  17.632  0.2376 -2.8556 -0.3084
 5344SOL     OW27490   0.412   1.062   2.845 -0.5410 -0.1985 -0.0306
 5344SOL    HW127491   0.431   0.972   2.820  1.4054  0.2603 -0.2557
 5344SOL    HW227492   0.431   1.047   2.938 -2.3111  0.1632  0.3858
 5345SOL     OW27493   2.342   4.014   8.203 -0.3544 -0.0464  0.2333
 5345SOL    HW127494   2.346   3.951   8.274 -1.0704 -0.9651 -0.5393
 5345SOL    HW227495   2.434   4.004   8.177 -1.2552 -1.9404 -2.2078
 5346SOL     OW27496   4.249   2.703   3.013 -0.4460 -0.0340  0.0073
 5346SOL    HW127497   4.310   2.776   3.013  0.4992 -0.8184 -0.0262
 5346SOL    HW227498   4.204   2.734   3.092  1.9341  1.9659  0.5705
 5347SOL     OW27499   1.638   1.355   5.519 -0.1812  0.0024  0.4230
 5347SOL    HW127500   1.730   1.330   5.532  0.1771  0.4038 -1.3506
 5347SOL    HW227501   1.600   1.352   5.607 -1.0614  0.2885  0.0415
 5348SOL     OW27502   2.863   4.232   4.899  0.0664 -0.8510 -0.0112
 5348SOL    HW127503   2.810   4.300   4.941  2.7622  0.6744  0.8990
 5348SOL    HW227504   2.898   4.283   4.826  0.0367 -2.0403 -0.8711
 5349SOL     OW27505   3.821   1.875  12.040  0.2875  0.9569 -0.0570
 5349SOL    HW127506   3.905   1.870  11.995 -0.8302  0.7515 -2.1398
 5349SOL    HW227507   3.772   1.932  11.980 -0.3865 -0.0733 -0.4894
 5350SOL     OW27508   2.953   3.823   3.047  0.0437  0.1300 -0.2860
 5350SOL    HW127509   3.008   3.844   3.122  0.2621  1.1534 -0.7315
 5350SOL    HW227510   2.980   3.884   2.978  0.7137 -0.5121 -0.5899
 5351SOL     OW27511   1.702   3.754   0.611 -0.3017 -0.0966 -0.2075
 5351SOL    HW127512   1.740   3.698   0.679  2.1787  5.1334  2.7346
 5351SOL    HW227513   1.656   3.809   0.675 -0.7299  0.3348 -0.8822
 5352SOL     OW27514   3.995   0.342   7.562  0.2868  0.3842 -0.1362
 5352SOL    HW127515   4.087   0.318   7.551  0.5717  0.7758  1.4618
 5352SOL    HW227516   3.998   0.421   7.508 -2.5433  1.4056  1.2415
 5353SOL     OW27517   3.112   3.381   3.972 -0.3014 -0.0294  0.1967
 5353SOL    HW127518   3.155   3.353   4.053 -0.0385 -0.9267 -0.2533
 5353SOL    HW227519   3.154   3.331   3.902 -0.8079  2.0878 -1.6334
 5354SOL     OW27520   0.773   1.825   2.427 -0.0673 -0.3639  0.1153
 5354SOL    HW127521   0.699   1.821   2.487 -1.5420  1.5642 -1.5547
 5354SOL    HW227522   0.749   1.750   2.372 -1.0785 -0.0007  0.0480
 5355SOL     OW27523   2.005   1.275   3.587  0.4946  0.0066  0.7601
 5355SOL    HW127524   2.049   1.335   3.527  1.2091 -0.8556  0.4103
 5355SOL    HW227525   1.943   1.337   3.625  0.0382  1.1811 -1.9068
 5356SOL     OW27526   2.010   1.807   2.592  0.0928  0.1181 -0.2415
 5356SOL    HW127527   2.051   1.831   2.508  0.3814 -1.3975 -0.5487
 5356SOL    HW227528   1.925   1.776   2.561  0.4544 -1.5049  0.3954
 5357SOL     OW27529   1.499   2.457   7.242  0.2944 -0.2325  0.6294
 5357SOL    HW127530   1.469   2.449   7.151 -0.5563 -0.7998  0.9643
 5357SOL    HW227531   1.506   2.367   7.273 -0.7670  0.0966  1.8237
 5358SOL     OW27532   1.071   0.459  16.625  0.1076  0.1201  0.5273
 5358SOL    HW127533   1.158   0.491  16.650  1.3516 -2.3856 -0.6177
 5358SOL    HW227534   1.012   0.534  16.623  1.2270  1.0057  0.9072
 5359SOL     OW27535   1.865   3.237   8.174  0.9066 -0.2251  0.0643
 5359SOL    HW127536   1.832   3.147   8.173 -1.7645  0.7472 -1.0175
 5359SOL    HW227537   1.817   3.269   8.098  0.8201  2.5714  1.3022
 5360SOL     OW27538   3.499   4.153   1.511  0.4475  0.1205  0.2953
 5360SOL    HW127539   3.518   4.060   1.523  1.0388  0.1578 -0.3684
 5360SOL    HW227540   3.447   4.154   1.431  0.3348  0.6279  0.3686
 5361SOL     OW27541   1.364   4.034   1.156  0.6502 -0.0830  0.0917
 5361SOL    HW127542   1.409   3.949   1.155 -0.2213 -0.5669  0.9512
 5361SOL    HW227543   1.392   4.064   1.070 -1.5152  1.2832 -0.1252
 5362SOL     OW27544   1.397   2.734  12.490  0.0544  0.5573 -0.6649
 5362SOL    HW127545   1.414   2.812  12.542  2.3246 -1.0044  0.9412
 5362SOL    HW227546   1.346   2.676  12.548  0.4538  0.7740 -0.0978
 5363SOL     OW27547   3.977   3.505   4.834  0.1077  0.2935  0.0173
 5363SOL    HW127548   4.015   3.449   4.901  0.6581  1.3998  0.6366
 5363SOL    HW227549   3.919   3.559   4.888 -0.9890 -1.6154  0.7202
 5364SOL     OW27550   0.708   1.733   6.957  0.4868 -0.3194  0.2352
 5364SOL    HW127551   0.674   1.711   6.870  1.5068 -1.0566  0.0198
 5364SOL    HW227552   0.637   1.777   7.004 -1.7877 -1.4256 -2.1156
 5365SOL     OW27553   1.351   1.203  13.518  0.0755  1.0324 -0.0262
 5365SOL    HW127554   1.321   1.112  13.515 -1.0590  1.3986  0.0646
 5365SOL    HW227555   1.325   1.236  13.432  0.2436  1.0277 -0.0779
 5366SOL     OW27556   2.150   3.395   6.121  0.2976 -0.0609 -0.4006
 5366SOL    HW127557   2.064   3.420   6.153  0.1330 -1.2982  0.1397
 5366SOL    HW227558   2.196   3.350   6.192  0.0516  3.0858  1.7391
 5367SOL     OW27559   1.273   1.202   3.581  0.6511  0.8413 -0.2418
 5367SOL    HW127560   1.274   1.161   3.667  1.0595  0.2180 -0.5401
 5367SOL    HW227561   1.365   1.228   3.587  0.1989  2.3099  0.3107
 5368SOL     OW27562   0.268   2.359  12.353  0.1804  0.1548 -0.3140
 5368SOL    HW127563   0.281   2.306  12.274  1.9068 -1.1204  0.8164
 5368SOL    HW227564   0.298   2.436  12.304 -0.8228  1.3766  1.0279
 5369SOL     OW27565   3.575   2.696   5.414 -0.1738 -0.4933  0.5954
 5369SOL    HW127566   3.535   2.770   5.460 -0.0355 -0.4614  0.6629
 5369SOL    HW227567   3.548   2.628   5.477  0.0910 -1.5300 -0.4018
 5370SOL     OW27568   1.667   0.112   5.829 -0.2345  0.3660  0.0369
 5370SOL    HW127569   1.629   0.052   5.764 -0.7952  0.0625  0.6423
 5370SOL    HW227570   1.615   0.191   5.818  0.1828  0.6956  0.4798
 5371SOL     OW27571   2.980   3.480  14.484  0.4450  0.2579  0.2284
 5371SOL    HW127572   3.007   3.397  14.524  2.6504 -0.5465 -2.9245
 5371SOL    HW227573   2.893   3.454  14.453 -0.6277  0.0583  3.3653
 5372SOL     OW27574   2.418   1.666   5.520 -0.1648 -0.0335 -0.0603
 5372SOL    HW127575   2.446   1.610   5.447  1.0649 -0.9724  1.1374
 5372SOL    HW227576   2.494   1.715   5.552 -0.1066  0.2577 -0.6377
 5373SOL     OW27577   1.692   4.217   3.171  0.0455  0.6480 -0.2764
 5373SOL    HW127578   1.704   4.190   3.262 -0.2746 -1.0080 -0.7377
 5373SOL    HW227579   1.692   4.132   3.129 -0.0593  0.9008 -0.7812
 5374SOL     OW27580   3.708   4.578  14.478  0.4597 -0.0035 -0.6059
 5374SOL    HW127581   3.641   4.574  14.411  0.5827 -2.1718 -0.6047
 5374SOL    HW227582   3.729   4.488  14.504 -0.7789  0.0472  0.5566
 5375SOL     OW27583   4.224   1.672   5.540  0.1366 -0.2459 -0.2600
 5375SOL    HW127584   4.224   1.622   5.622  1.8415  2.1481  1.1889
 5375SOL    HW227585   4.313   1.707   5.544 -0.2821  0.9433 -1.5803
 5376SOL     OW27586   2.394   4.482   5.729  0.3075  0.1900 -0.3656
 5376SOL    HW127587   2.312   4.530   5.716  1.7323  1.4172 -4.6773
 5376SOL    HW227588   2.367   4.390   5.726 -2.9946  1.1978 -1.6730
 5377SOL     OW27589   2.415   2.075  16.550  0.0440 -0.5478 -0.0998
 5377SOL    HW127590   2.349   2.122  16.499  0.4283  1.0405  0.8737
 5377SOL    HW227591   2.492   2.073  16.493 -0.8156 -0.8672 -1.2511
 5378SOL     OW27592   3.153   4.558   6.642  0.7052  0.3892 -0.2867
 5378SOL    HW127593   3.081   4.504   6.675 -0.7702  2.7759  0.4024
 5378SOL    HW227594   3.137   4.543   6.549  4.4614 -2.9252 -0.4105
 5379SOL     OW27595   3.581   1.733   1.654 -0.1606  0.0107 -0.2198
 5379SOL    HW127596   3.655   1.793   1.644 -0.9168  1.1344  1.1253
 5379SOL    HW227597   3.604   1.656   1.600  0.1939 -0.6185  0.8320
 5380SOL     OW27598   2.424   3.068   8.851 -0.3298  0.0030 -0.5943
 5380SOL    HW127599   2.451   3.018   8.928  0.0534 -0.9805 -1.3577
 5380SOL    HW227600   2.347   3.016   8.829 -0.7007  0.9453 -1.5317
 5381SOL     OW27601   1.261   2.485   7.441 -0.6756 -0.0999  0.1374
 5381SOL    HW127602   1.226   2.514   7.356  0.0525 -0.1370 -0.1710
 5381SOL    HW227603   1.340   2.438   7.417 -0.8405 -1.0422  1.4579
 5382SOL     OW27604   2.001   3.588  15.903 -0.3316 -0.1879  0.1679
 5382SOL    HW127605   2.050   3.570  15.823 -1.3066  0.8267 -0.6405
 5382SOL    HW227606   2.043   3.517  15.952 -0.4272  0.9022  1.8402
 5383SOL     OW27607   2.815   0.004   9.043 -0.0751 -0.2815  0.2584
 5383SOL    HW127608   2.858   0.013   9.128 -1.4899  1.5933  0.7644
 5383SOL    HW227609   2.723   0.004   9.066  0.1273 -0.4484  1.0472
 5384SOL     OW27610   3.071   2.691   0.529  0.5313 -0.6799 -0.8383
 5384SOL    HW127611   3.123   2.651   0.599 -0.7594  0.0511  0.5339
 5384SOL    HW227612   3.117   2.772   0.508 -0.6309  0.2250  0.0750
 5385SOL     OW27613   4.062   3.836   4.900 -0.1885 -0.5950  0.4598
 5385SOL    HW127614   3.971   3.867   4.898  0.2811  0.7368  0.2687
 5385SOL    HW227615   4.088   3.911   4.848 -1.5254 -0.3677  0.1052
 5386SOL     OW27616   2.147   4.414   4.396 -0.7797 -0.1622 -0.0778
 5386SOL    HW127617   2.207   4.382   4.328 -1.7911 -0.9606 -0.5908
 5386SOL    HW227618   2.221   4.442   4.450  0.3587  0.2633 -1.8319
 5387SOL     OW27619   4.684   3.598   0.369  0.4025  0.7279 -0.9584
 5387SOL    HW127620   4.707   3.513   0.332  0.7510  0.9261 -1.2033
 5387SOL    HW227621   4.702   3.585   0.462 -0.7284 -1.1199 -1.0213
 5388SOL     OW27622   0.246   3.838   8.464  0.5722  0.3108  0.4595
 5388SOL    HW127623   0.210   3.927   8.467 -0.3726 -0.0350 -0.9029
 5388SOL    HW227624   0.179   3.801   8.522 -0.8494 -0.4349 -1.6921
 5389SOL     OW27625   0.643   4.719  16.347  0.2434 -0.0164  0.2864
 5389SOL    HW127626   0.614   0.032  16.263 -1.3794 -1.4637  0.1932
 5389SOL    HW227627   0.738   0.003  16.340  0.1213  2.7067  1.7901
 5390SOL     OW27628   4.349   2.226   8.452  0.1037 -0.1548 -0.0178
 5390SOL    HW127629   4.342   2.303   8.396 -0.3158 -0.7916 -0.8266
 5390SOL    HW227630   4.259   2.228   8.484 -0.1146 -0.5481 -0.6026
 5391SOL     OW27631   3.932   3.997  11.704 -0.6469 -0.3140  0.4249
 5391SOL    HW127632   3.916   3.994  11.798  2.7333  0.6272  1.0468
 5391SOL    HW227633   4.002   4.063  11.707 -1.2515  0.3832 -0.8261
 5392SOL     OW27634   2.007   4.573  17.637 -0.5789  0.0534 -0.3799
 5392SOL    HW127635   2.056   4.495  17.665  1.6279  1.2363 -0.9697
 5392SOL    HW227636   2.061   4.649  17.656  0.6425 -0.8690 -0.1274
 5393SOL     OW27637   3.844   2.957   3.486  0.0894 -0.5348 -0.3789
 5393SOL    HW127638   3.846   2.862   3.477 -1.2074 -0.3723 -2.3150
 5393SOL    HW227639   3.936   2.983   3.485  0.3983 -1.4428  2.0475
 5394SOL     OW27640   3.497   1.588   2.443  0.3105  0.9082  0.3721
 5394SOL    HW127641   3.558   1.607   2.373  0.2932 -1.1262 -0.1725
 5394SOL    HW227642   3.533   1.648   2.508 -0.1331  2.6777 -1.0244
 5395SOL     OW27643   1.113   2.721  12.002 -0.3027 -0.4235  0.1339
 5395SOL    HW127644   1.191   2.747  12.053 -1.0245 -1.0541  1.5570
 5395SOL    HW227645   1.048   2.786  12.029 -0.2884 -0.2910 -0.1509
 5396SOL     OW27646   1.938   1.659  12.257  0.9143 -0.2756  0.4098
 5396SOL    HW127647   1.862   1.708  12.228 -0.3944 -1.7525  1.3529
 5396SOL    HW227648   1.975   1.726  12.316  0.0158  2.1501 -1.8041
 5397SOL     OW27649   1.904   0.516  17.644 -0.4272 -0.1226  0.0909
 5397SOL    HW127650   1.849   0.580  17.688 -0.1483  1.2291 -1.5500
 5397SOL    HW227651   1.984   0.560  17.674  0.8227 -0.9322 -2.0959
 5398SOL     OW27652   4.060   3.486   0.876 -0.2170 -0.5585 -0.3536
 5398SOL    HW127653   4.066   3.401   0.918  1.3644  0.9786  2.4953
 5398SOL    HW227654   4.151   3.508   0.896 -0.7188 -0.1917  1.5171
 5399SOL     OW27655   4.573   0.917   4.724 -0.4788 -0.5605 -0.3878
 5399SOL    HW127656   4.513   0.953   4.790 -0.4086 -1.7477  0.3129
 5399SOL    HW227657   4.560   0.976   4.649  0.9156 -1.1898 -1.1253
 5400SOL     OW27658   4.524   0.467   9.406  0.6197 -0.1415  0.2910
 5400SOL    HW127659   4.505   0.509   9.322 -2.2274 -0.7529  0.6083
 5400SOL    HW227660   4.619   0.471   9.418  0.5602 -0.6610  0.9415
 5401SOL     OW27661   2.332   1.331   7.136  0.1911 -0.2000  0.1817
 5401SOL    HW127662   2.373   1.297   7.057 -1.3467 -2.0479  0.1863
 5401SOL    HW227663   2.378   1.277   7.200 -3.2655 -1.4961  1.6036
 5402SOL     OW27664   0.415   3.460   3.364  0.4000  0.1654  0.5593
 5402SOL    HW127665   0.402   3.554   3.356  0.8924  0.3316  1.6683
 5402SOL    HW227666   0.348   3.435   3.301  0.7552  0.4660  0.0622
 5403SOL     OW27667   3.992   1.249   4.335 -0.2334  0.2019  0.3896
 5403SOL    HW127668   3.920   1.204   4.380  1.7528 -1.8318  1.5397
 5403SOL    HW227669   3.945   1.293   4.264 -0.0640 -1.4225 -0.7403
 5404SOL     OW27670   1.685   3.326   3.549  0.3085  0.1701  0.0264
 5404SOL    HW127671   1.656   3.417   3.555  0.2921  0.2518 -1.2934
 5404SOL    HW227672   1.649   3.309   3.462  0.8967 -1.8690  0.1989
 5405SOL     OW27673   3.529   3.882   1.504 -0.0084  0.5274  0.2924
 5405SOL    HW127674   3.582   3.869   1.426 -1.3829  1.3721 -0.7882
 5405SOL    HW227675   3.555   3.802   1.549 -0.1937  0.3085  0.0046
 5406SOL     OW27676   3.171   2.938   4.805 -0.3861 -0.5161 -0.2664
 5406SOL    HW127677   3.081   2.924   4.777 -0.7374  0.2426  0.5013
 5406SOL    HW227678   3.198   2.852   4.836  2.7934  0.4995 -0.2133
 5407SOL     OW27679   3.932   1.517   2.437 -0.2186  0.1158  0.3900
 5407SOL    HW127680   3.973   1.431   2.448 -1.5610 -0.5106  0.6011
 5407SOL    HW227681   3.846   1.506   2.479  0.4037 -0.8668  1.4092
 5408SOL     OW27682   0.149   0.855   2.324 -0.1711 -0.1740 -0.0317
 5408SOL    HW127683   0.088   0.809   2.267  0.6599 -1.1545 -0.1290
 5408SOL    HW227684   0.112   0.942   2.342  1.5723  0.3016  1.3530
 5409SOL     OW27685   1.371   4.116  12.490  0.1330  0.5582 -0.2905
 5409SOL    HW127686   1.419   4.197  12.475  1.1350  0.3910  2.1347
 5409SOL    HW227687   1.336   4.161  12.567  1.0337 -0.3654  0.6549
 5410SOL     OW27688   0.392   4.286   3.292  0.0999  0.7345 -0.6915
 5410SOL    HW127689   0.363   4.292   3.201 -0.9249 -1.9995 -0.5467
 5410SOL    HW227690   0.486   4.270   3.280  0.0428  1.4398 -2.0387
 5411SOL     OW27691   2.603   0.253   8.792  0.1182  0.1685 -0.3380
 5411SOL    HW127692   2.570   0.171   8.754  0.8910  0.2496 -1.1816
 5411SOL    HW227693   2.535   0.276   8.855 -0.6310 -0.3100 -0.9630
 5412SOL     OW27694   4.345   1.294   5.117 -0.0192  0.7681 -0.5647
 5412SOL    HW127695   4.296   1.240   5.178  1.5247 -0.1056 -0.1037
 5412SOL    HW227696   4.286   1.295   5.041 -1.7156  1.9564  0.7593
 5413SOL     OW27697   2.396   0.351   5.397  0.0002  0.7033  0.6857
 5413SOL    HW127698   2.334   0.292   5.441  0.9134 -0.0897  0.8996
 5413SOL    HW227699   2.457   0.365   5.469  0.4043 -0.3690  0.5568
 5414SOL     OW27700   4.029   0.672  17.004  0.2566 -0.6783  0.2819
 5414SOL    HW127701   4.044   0.595  16.950  0.5463 -1.8266  2.0050
 5414SOL    HW227702   3.949   0.708  16.967 -0.6252 -1.0329  1.8773
 5415SOL     OW27703   1.990   4.109   3.291  0.2479 -0.1771 -0.3401
 5415SOL    HW127704   2.068   4.102   3.237  1.6006 -1.3677  1.7952
 5415SOL    HW227705   2.007   4.180   3.352 -0.9707  0.8322 -1.1628
 5416SOL     OW27706   2.181   1.653   8.575 -0.5285  0.2691 -0.4017
 5416SOL    HW127707   2.225   1.583   8.624 -0.2823 -0.6454 -1.9590
 5416SOL    HW227708   2.110   1.610   8.529 -1.7329  0.4528  1.2811
 5417SOL     OW27709   3.144   3.839   7.951 -0.5064 -0.3594  0.0371
 5417SOL    HW127710   3.221   3.879   7.991 -0.4747 -2.1139  1.7490
 5417SOL    HW227711   3.103   3.812   8.034  0.1474 -0.8665  0.1928
 5418SOL     OW27712   2.255   2.262   4.715  0.1149  0.2925 -0.5696
 5418SOL    HW127713   2.182   2.241   4.657  0.3273 -0.9205 -0.3917
 5418SOL    HW227714   2.295   2.339   4.674 -0.3568  1.5805  1.3750
 5419SOL     OW27715   3.064   4.710   4.186  0.2421 -0.7694 -0.0396
 5419SOL    HW127716   3.080   0.022   4.099 -2.2347  0.6651  0.0891
 5419SOL    HW227717   2.978   0.017   4.215  0.9088  1.2904 -0.2447
 5420SOL     OW27718   0.351   0.983  15.314 -0.2258 -0.2250  0.0868
 5420SOL    HW127719   0.355   1.019  15.225 -1.8610 -0.6393 -0.1534
 5420SOL    HW227720   0.292   1.039  15.364 -1.8662 -1.1133 -0.8598
 5421SOL     OW27721   3.532   1.808  16.594 -0.1368  0.0909 -0.2602
 5421SOL    HW127722   3.554   1.889  16.549 -2.0725  0.9304  0.3009
 5421SOL    HW227723   3.575   1.741  16.540 -1.1507  0.9239 -2.1267
 5422SOL     OW27724   0.914   1.645   7.130  0.2884 -0.1876 -0.0848
 5422SOL    HW127725   0.951   1.728   7.161 -1.1543  0.3623  0.1686
 5422SOL    HW227726   0.846   1.677   7.071 -0.7341 -2.3793 -0.1041
 5423SOL     OW27727   3.624   4.600  17.577  0.2691 -0.6302 -0.0603
 5423SOL    HW127728   3.622   4.577  17.670 -2.0422 -1.0333 -0.2188
 5423SOL    HW227729   3.655   4.689  17.590 -0.3404 -0.5065  0.5418
 5424SOL     OW27730   3.682   3.311  13.274 -0.0555 -0.3443 -0.3892
 5424SOL    HW127731   3.683   3.404  13.251  2.0760 -0.4507 -0.7834
 5424SOL    HW227732   3.650   3.298  13.363  1.6782 -0.6028  0.2058
 5425SOL     OW27733   2.292   1.971   4.077  0.2905  0.1867 -0.4969
 5425SOL    HW127734   2.357   1.976   4.147  1.1519  1.8445 -1.4368
 5425SOL    HW227735   2.334   1.912   4.015  0.0181  0.0877 -0.5881
 5426SOL     OW27736   1.331   2.259   6.495  0.0575 -0.5171  0.2637
 5426SOL    HW127737   1.346   2.312   6.573  0.8935 -0.0753 -0.1838
 5426SOL    HW227738   1.274   2.313   6.440 -0.0229 -1.5927 -0.7201
 5427SOL     OW27739   0.960   4.560   6.649 -0.3155 -0.0007 -0.2759
 5427SOL    HW127740   1.033   4.585   6.594 -0.6299  1.0252 -0.2179
 5427SOL    HW227741   0.986   4.476   6.688  1.3283  0.5513 -0.2119
 5428SOL     OW27742   1.357   3.170   8.551  0.1680 -0.2433 -0.5141
 5428SOL    HW127743   1.334   3.104   8.616 -0.3387  2.3335  1.8997
 5428SOL    HW227744   1.432   3.208   8.597 -0.2422 -1.1818  0.9240
 5429SOL     OW27745   2.776   2.834   5.615  0.4131  0.8133  0.3442
 5429SOL    HW127746   2.816   2.763   5.565  0.8560  0.7450  0.8010
 5429SOL    HW227747   2.690   2.835   5.573  0.9151  0.4400 -0.6971
 5430SOL     OW27748   3.192   4.013  12.896  0.0899  0.1952  0.5245
 5430SOL    HW127749   3.209   4.090  12.843 -0.3098  0.1120  0.2778
 5430SOL    HW227750   3.234   4.037  12.979 -0.3181 -0.0015  0.7937
 5431SOL     OW27751   1.057   3.378  12.120  0.1643  0.3873 -0.4080
 5431SOL    HW127752   0.986   3.419  12.169  0.4122  0.8071 -0.3970
 5431SOL    HW227753   1.048   3.288  12.151  0.1250  0.1409 -1.1306
 5432SOL     OW27754   2.671   0.846   9.333  0.1620 -0.9246  0.1315
 5432SOL    HW127755   2.754   0.803   9.354  0.3503 -0.4656  0.3183
 5432SOL    HW227756   2.642   0.875   9.419  0.7722 -0.5008  0.1890
 5433SOL     OW27757   2.994   2.059   2.133 -0.5919 -0.3095  0.4705
 5433SOL    HW127758   3.052   2.053   2.056  1.5332  3.7083  1.7234
 5433SOL    HW227759   3.003   2.153   2.152  0.2792 -0.0138 -1.3563
 5434SOL     OW27760   0.660   0.728   2.660  0.0003  0.4163  0.6262
 5434SOL    HW127761   0.659   0.632   2.661  0.8385  0.3738 -2.4056
 5434SOL    HW227762   0.714   0.745   2.583 -0.7952 -1.0863 -0.2603
 5435SOL     OW27763   4.512   0.331  12.051  0.1686  0.2006  0.1946
 5435SOL    HW127764   4.530   0.386  11.975  0.5360 -0.3591 -0.1265
 5435SOL    HW227765   4.452   0.381  12.106 -0.3623  0.2973 -0.4727
 5436SOL     OW27766   1.460   4.152   7.487 -0.2034  0.3920 -0.4646
 5436SOL    HW127767   1.464   4.116   7.576  0.7987 -2.1371 -1.5470
 5436SOL    HW227768   1.476   4.245   7.502 -1.4827  0.6028 -0.3447
 5437SOL     OW27769   3.664   2.340   2.976  0.0925 -0.0073  0.4955
 5437SOL    HW127770   3.753   2.360   2.946 -0.6704  0.2849 -1.5502
 5437SOL    HW227771   3.680   2.245   2.980  1.4705  0.1932 -0.0755
 5438SOL     OW27772   3.227   0.551   3.929 -0.4560 -0.3186 -0.1080
 5438SOL    HW127773   3.154   0.508   3.975  0.7715 -1.9584  0.3264
 5438SOL    HW227774   3.185   0.615   3.872  0.0684  0.3153  0.2186
 5439SOL     OW27775   3.495   0.335   4.450 -0.0486 -0.1034  0.1030
 5439SOL    HW127776   3.587   0.345   4.427 -0.2586  1.7040  0.0237
 5439SOL    HW227777   3.487   0.362   4.541 -0.0959  0.0580  0.0507
 5440SOL     OW27778   4.412   0.247   8.666 -0.1458 -0.4514 -0.1402
 5440SOL    HW127779   4.431   0.266   8.575 -1.4361 -2.4096 -0.8213
 5440SOL    HW227780   4.342   0.310   8.684 -0.4991 -1.0467  0.5778
 5441SOL     OW27781   4.441   4.001   2.319 -0.0940 -0.0924 -0.4034
 5441SOL    HW127782   4.479   3.982   2.233 -1.4078  0.4245 -1.1083
 5441SOL    HW227783   4.383   4.074   2.296 -1.7576 -0.9203  1.1076
 5442SOL     OW27784   0.789   2.016  10.660 -0.3745 -0.0706 -0.4819
 5442SOL    HW127785   0.868   1.996  10.711  0.1080  3.3367  0.1174
 5442SOL    HW227786   0.818   2.082  10.598 -0.6978  1.1701  0.6764
 5443SOL     OW27787   4.240   4.675   0.346 -0.3388 -0.0961 -0.2331
 5443SOL    HW127788   4.265   4.608   0.282 -0.4254  0.0748 -0.4458
 5443SOL    HW227789   4.145   4.663   0.343 -0.4272  0.1877  1.8109
 5444SOL     OW27790   3.531   4.335   5.420 -0.4013 -0.0583 -0.0162
 5444SOL    HW127791   3.496   4.322   5.508 -1.5948  2.2301 -0.1404
 5444SOL    HW227792   3.602   4.271   5.427 -1.2429 -0.7873  1.8673
 5445SOL     OW27793   0.744   1.335   2.237 -0.0493  0.5516  0.6850
 5445SOL    HW127794   0.685   1.369   2.305  0.4416 -0.9441  1.8305
 5445SOL    HW227795   0.755   1.244   2.264 -0.2557  0.0149 -1.0175
 5446SOL     OW27796   2.006   0.404  10.352  0.3516 -0.0785  0.0851
 5446SOL    HW127797   2.037   0.460  10.281  2.1924 -1.7339 -0.4362
 5446SOL    HW227798   1.981   0.469  10.418 -0.8953  0.8503 -1.3194
 5447SOL     OW27799   3.606   3.088   9.565  0.1740 -0.1143  0.7639
 5447SOL    HW127800   3.634   3.117   9.652 -1.7339  1.1594  0.9546
 5447SOL    HW227801   3.681   3.031   9.547 -1.0542 -0.9218 -1.7410
 5448SOL     OW27802   0.498   3.224   3.941  0.1060 -0.1303 -0.4226
 5448SOL    HW127803   0.510   3.319   3.941  1.4293 -0.3032 -2.3306
 5448SOL    HW227804   0.474   3.220   3.848 -1.8913  1.1548  0.0374
 5449SOL     OW27805   2.812   4.463   5.460 -0.1894 -0.1242 -0.5361
 5449SOL    HW127806   2.824   4.432   5.550 -1.4266  0.5989 -0.1173
 5449SOL    HW227807   2.869   4.539   5.474  0.3231 -1.1216  2.9341
 5450SOL     OW27808   0.725   2.717   5.033 -0.2748  0.0674  0.1756
 5450SOL    HW127809   0.811   2.695   5.071  0.1190  1.4363  0.0877
 5450SOL    HW227810   0.732   2.811   5.014 -1.5827  0.2361  0.5333
 5451SOL     OW27811   3.437   1.324  11.883  0.3223  0.6853  0.6556
 5451SOL    HW127812   3.495   1.250  11.863 -0.8099  0.4341 -1.7405
 5451SOL    HW227813   3.455   1.325  11.977  0.3707 -1.4937  0.6798
 5452SOL     OW27814   3.446   0.130  10.833 -0.3041  0.2827 -0.8541
 5452SOL    HW127815   3.470   0.209  10.882  0.1625  0.1190 -0.8156
 5452SOL    HW227816   3.456   0.163  10.744  1.1126  0.2921 -0.6937
 5453SOL     OW27817   0.899   1.232  16.761  0.2734 -0.2348 -0.6480
 5453SOL    HW127818   0.883   1.317  16.720  0.5400  0.1817  0.1061
 5453SOL    HW227819   0.840   1.177  16.709  1.4636 -1.6561 -0.4623
 5454SOL     OW27820   2.376   1.613   4.304 -0.2195  0.4742 -0.0885
 5454SOL    HW127821   2.372   1.517   4.313 -1.6108  0.3027 -2.3534
 5454SOL    HW227822   2.285   1.623   4.276 -0.0345 -2.6300 -1.8587
 5455SOL     OW27823   1.747   3.668   2.669  0.2558 -0.2576  0.1963
 5455SOL    HW127824   1.766   3.762   2.661  1.6468 -0.4709  0.9639
 5455SOL    HW227825   1.659   3.671   2.632 -0.4346  2.6230  2.0779
 5456SOL     OW27826   2.024   3.173   4.902  0.5622  0.6118  0.2883
 5456SOL    HW127827   2.044   3.175   4.995 -2.8897  1.0313  1.0289
 5456SOL    HW227828   2.101   3.123   4.876  1.2442 -0.3085  4.1803
 5457SOL     OW27829   1.415   0.833   8.465 -0.8933 -0.2303  0.7236
 5457SOL    HW127830   1.498   0.848   8.512  0.5301  0.0774 -1.9146
 5457SOL    HW227831   1.366   0.886   8.528 -1.2522 -0.7146  0.8476
 5458SOL     OW27832   4.142   1.425   7.656  0.5599  0.1245  0.2564
 5458SOL    HW127833   4.091   1.349   7.685 -2.3737  1.4220 -1.5408
 5458SOL    HW227834   4.096   1.452   7.577  1.7074  2.3561  0.3658
 5459SOL     OW27835   4.707   2.597   7.233 -0.2128 -0.0940  0.2697
 5459SOL    HW127836   4.685   2.562   7.146 -2.2327 -0.9368  1.1152
 5459SOL    HW227837   0.015   2.513   7.266 -2.1246 -1.0918 -0.3900
 5460SOL     OW27838   0.219   2.592  10.214 -0.4153 -0.3925  0.1891
 5460SOL    HW127839   0.228   2.684  10.187 -1.9122 -0.4781 -0.6007
 5460SOL    HW227840   0.132   2.597  10.252 -1.1271  1.9344 -1.7030
 5461SOL     OW27841   2.661   4.182   2.766 -0.9763 -0.5805  0.2810
 5461SOL    HW127842   2.595   4.234   2.721  0.2904  0.1807 -0.7215
 5461SOL    HW227843   2.692   4.239   2.836  0.9997  0.3550 -1.3387
 5462SOL     OW27844   3.940   2.013   7.586 -0.2183 -0.1018 -0.1620
 5462SOL    HW127845   3.929   2.097   7.540  1.3344  0.1116 -0.1415
 5462SOL    HW227846   3.895   1.950   7.530 -0.4866 -1.1226  1.2195
 5463SOL     OW27847   0.832   1.465   6.172 -0.5015  0.2108 -0.5088
 5463SOL    HW127848   0.925   1.463   6.193 -0.1753  2.2929 -1.7366
 5463SOL    HW227849   0.815   1.372   6.159  3.6813 -0.7180  0.6026
 5464SOL     OW27850   4.001   0.620   6.556  0.3299  0.6788  0.4664
 5464SOL    HW127851   3.961   0.600   6.472  2.0415 -1.4957  0.1768
 5464SOL    HW227852   4.010   0.528   6.581 -0.7890  0.8854  1.6230
 5465SOL     OW27853   0.859   4.712  10.012  0.0425 -0.1704 -0.5398
 5465SOL    HW127854   0.815   4.659  10.079 -0.1470  0.7401  0.0486
 5465SOL    HW227855   0.816   0.072  10.027  2.0413  0.8266 -0.5189
 5466SOL     OW27856   1.502   2.622   5.413 -0.0615  0.3051 -0.3408
 5466SOL    HW127857   1.438   2.565   5.370  1.0070 -0.6905 -0.6221
 5466SOL    HW227858   1.576   2.585   5.365  0.4485  1.7063 -0.6466
 5467SOL     OW27859   2.937   0.316  13.314  0.8184  0.2195 -0.0430
 5467SOL    HW127860   2.849   0.346  13.289 -0.0611 -1.5675  0.9501
 5467SOL    HW227861   2.928   0.313  13.409 -0.1146 -0.0083 -0.1403
 5468SOL     OW27862   3.780   4.367   6.071 -0.1638  0.5269 -0.1755
 5468SOL    HW127863   3.785   4.280   6.031 -0.4686  0.5946 -0.3582
 5468SOL    HW227864   3.742   4.339   6.154 -0.1194 -2.2090 -1.0719
 5469SOL     OW27865   3.010   0.873  13.509  0.0038 -0.0926 -0.1392
 5469SOL    HW127866   3.100   0.841  13.511 -0.1066 -0.3951 -0.0760
 5469SOL    HW227867   3.030   0.921  13.428 -1.5225 -0.4985 -0.7568
 5470SOL     OW27868   2.570   0.933   7.396 -0.4434  0.3760  0.3630
 5470SOL    HW127869   2.654   0.888   7.404 -0.9376 -0.7412 -0.6750
 5470SOL    HW227870   2.531   0.907   7.480 -1.0140  1.1595  0.3420
 5471SOL     OW27871   0.371   2.192   9.297  0.1479 -0.3212 -0.1473
 5471SOL    HW127872   0.356   2.223   9.386 -0.6804  0.0287 -0.4038
 5471SOL    HW227873   0.434   2.122   9.316  2.3754  1.5373 -0.8310
 5472SOL     OW27874   1.637   1.952   5.053  0.6535  0.0519 -0.2715
 5472SOL    HW127875   1.662   1.881   5.112  3.6718  1.8647  0.6520
 5472SOL    HW227876   1.711   2.011   5.073  0.0981  0.4545  0.6123
 5473SOL     OW27877   0.191   3.576  15.144  0.0853 -0.2307  0.1266
 5473SOL    HW127878   0.194   3.509  15.075 -1.0311  0.2746 -0.4105
 5473SOL    HW227879   0.096   3.579  15.147  0.0108 -2.9363  0.4438
 5474SOL     OW27880   3.090   3.354  13.243  0.4514 -0.2113  0.0347
 5474SOL    HW127881   3.164   3.385  13.296  0.0708  0.3087  0.2675
 5474SOL    HW227882   3.031   3.430  13.240 -0.2943 -0.8155 -0.3192
 5475SOL     OW27883   3.620   3.390   5.942  0.2745 -0.3839 -0.4564
 5475SOL    HW127884   3.573   3.368   6.023 -0.4929  2.0327 -0.2715
 5475SOL    HW227885   3.545   3.389   5.884 -0.1793 -1.6209  0.1355
 5476SOL     OW27886   2.951   3.330  13.660 -0.0701  0.4438 -0.2196
 5476SOL    HW127887   2.858   3.342  13.679  0.3886  0.9122  1.7135
 5476SOL    HW227888   2.957   3.381  13.579  1.4073  1.3706  0.4870
 5477SOL     OW27889   3.181   3.457   5.648  0.4167  0.0080 -0.6067
 5477SOL    HW127890   3.121   3.382   5.654 -2.1326  2.1628  0.9322
 5477SOL    HW227891   3.183   3.474   5.554 -1.0115  1.2989 -0.4060
 5478SOL     OW27892   0.914   3.518   6.775 -0.5515 -1.2015  0.3574
 5478SOL    HW127893   0.971   3.575   6.724 -1.2007  1.6839  2.8880
 5478SOL    HW227894   0.862   3.591   6.807  2.3758  1.7747 -1.7533
 5479SOL     OW27895   3.937   1.910   1.328 -0.0555 -0.3466  0.1919
 5479SOL    HW127896   4.002   1.853   1.370  0.9242  0.6380  0.0026
 5479SOL    HW227897   3.960   1.883   1.239  0.9750 -1.0871  0.6775
 5480SOL     OW27898   3.111   0.335   1.990  0.0767 -0.0295  0.5986
 5480SOL    HW127899   3.090   0.261   1.933 -1.4820  0.0968  1.0338
 5480SOL    HW227900   3.177   0.304   2.052  1.0227  0.7302 -0.0229
 5481SOL     OW27901   1.692   2.048   2.653  0.0584 -0.0694 -0.0689
 5481SOL    HW127902   1.613   2.040   2.706 -1.6263  1.7700 -2.2893
 5481SOL    HW227903   1.666   1.980   2.592  0.8951  1.7742 -2.4609
 5482SOL     OW27904   3.388   4.721   6.391  0.7752 -0.1045 -0.6302
 5482SOL    HW127905   3.305   4.693   6.350  0.8823  0.6868 -1.3978
 5482SOL    HW227906   3.435   4.640   6.370  0.4926 -0.3785 -0.2063
 5483SOL     OW27907   4.545   0.812   4.124 -0.1492 -0.6507  0.0436
 5483SOL    HW127908   4.538   0.833   4.031  1.2348  1.9344  0.5366
 5483SOL    HW227909   4.540   0.716   4.128  0.2005 -0.8031 -3.0816
 5484SOL     OW27910   0.115   2.856  12.482  0.2537 -0.0194 -0.5056
 5484SOL    HW127911   0.060   2.819  12.414 -1.7829 -1.0276  1.6804
 5484SOL    HW227912   0.079   2.816  12.561  2.9834  1.4565  1.4961
 5485SOL     OW27913   0.903   0.500   1.259 -0.1834 -0.0321  0.5551
 5485SOL    HW127914   0.991   0.512   1.293 -0.2412  0.7241  0.4296
 5485SOL    HW227915   0.928   0.445   1.185  2.5020  0.2882  1.2312
 5486SOL     OW27916   0.830   1.372   3.202  0.0973  0.3029 -0.0603
 5486SOL    HW127917   0.765   1.331   3.259  0.9474 -0.9432 -0.0140
 5486SOL    HW227918   0.776   1.386   3.124 -2.2760  0.3518  1.5897
 5487SOL     OW27919   1.849   3.030  12.772  0.0762 -0.1355 -0.0496
 5487SOL    HW127920   1.875   2.950  12.726  2.8787  2.4375 -2.9171
 5487SOL    HW227921   1.815   3.087  12.703  3.5579  2.2915  0.2832
 5488SOL     OW27922   3.556   3.479   1.190  0.0602 -0.2950 -0.5313
 5488SOL    HW127923   3.520   3.428   1.117  1.6110  1.1645 -2.3207
 5488SOL    HW227924   3.640   3.505   1.152  0.0841 -0.1514 -0.3773
 5489SOL     OW27925   2.523   2.377   2.350  0.5863  0.7512 -0.5192
 5489SOL    HW127926   2.492   2.454   2.398 -0.6644 -1.0503  1.6023
 5489SOL    HW227927   2.598   2.410   2.301  0.7258 -1.4469 -1.8136
 5490SOL     OW27928   3.239   2.723   6.905 -0.5915 -0.4652 -0.1396
 5490SOL    HW127929   3.180   2.796   6.920 -2.0717 -1.9457  1.1910
 5490SOL    HW227930   3.273   2.759   6.823 -0.2074 -0.3310  0.0724
 5491SOL     OW27931   3.202   3.012   7.841  0.0745 -0.1025 -0.5912
 5491SOL    HW127932   3.145   3.003   7.918 -1.3377 -0.0809 -1.6288
 5491SOL    HW227933   3.288   2.989   7.876  0.3383  3.2386  0.9887
 5492SOL     OW27934   1.040   2.935   2.698 -0.4900 -0.3525 -0.4052
 5492SOL    HW127935   0.978   2.981   2.641 -0.5651 -1.0918 -0.9208
 5492SOL    HW227936   0.996   2.938   2.783  0.1689  0.6126 -0.1016
 5493SOL     OW27937   0.428   0.802   2.795 -0.3092 -0.0789 -0.7199
 5493SOL    HW127938   0.417   0.710   2.816 -1.3190  0.1593 -0.1945
 5493SOL    HW227939   0.497   0.795   2.729  0.6128  1.1893  0.1062
 5494SOL     OW27940   1.706   4.533  10.264 -0.5614  0.0018 -0.1194
 5494SOL    HW127941   1.736   4.606  10.209  0.7520 -0.0788  0.4856
 5494SOL    HW227942   1.666   4.462  10.213 -0.4459 -0.1147 -0.0470
 5495SOL     OW27943   1.404   2.584  13.384 -0.6984 -1.2145  0.2955
 5495SOL    HW127944   1.446   2.658  13.429 -1.5870  0.4452 -1.6223
 5495SOL    HW227945   1.455   2.580  13.303 -1.0803 -0.4866  0.0143
 5496SOL     OW27946   2.682   2.562   8.579 -0.1771  0.0659  0.5679
 5496SOL    HW127947   2.694   2.552   8.485  0.7820 -1.3092  0.8417
 5496SOL    HW227948   2.610   2.625   8.586  0.4222  0.7073  1.0348
 5497SOL     OW27949   3.216   2.665   7.927  0.1785  0.2707 -0.8837
 5497SOL    HW127950   3.264   2.592   7.965 -1.2048  0.7584  1.7778
 5497SOL    HW227951   3.129   2.626   7.918  0.7844 -1.2924  0.0396
 5498SOL     OW27952   0.339   1.024   1.840 -0.1382  0.0369 -0.0934
 5498SOL    HW127953   0.385   1.101   1.872 -2.9210  2.1621 -1.1510
 5498SOL    HW227954   0.368   0.947   1.889  1.4658 -0.8606 -2.4613
 5499SOL     OW27955   1.686   0.561   9.557 -0.2774  0.2963  0.2751
 5499SOL    HW127956   1.686   0.603   9.643 -1.6410  2.3943 -0.7383
 5499SOL    HW227957   1.717   0.473   9.576  1.2220  0.4073 -1.6867
 5500SOL     OW27958   2.348   2.231   2.496  0.3283 -0.1401  0.1116
 5500SOL    HW127959   2.415   2.280   2.448 -0.0945 -2.6313 -3.0519
 5500SOL    HW227960   2.369   2.139   2.478  0.5693 -0.2753  1.1202
 5501SOL     OW27961   3.406   4.392   7.717  0.5485  0.4966  0.4986
 5501SOL    HW127962   3.418   4.303   7.684  0.7471  0.5971  0.2960
 5501SOL    HW227963   3.476   4.433   7.666  1.4329 -0.9736  0.5353
 5502SOL     OW27964   3.429   3.753   8.033  0.3486 -0.2604 -0.3243
 5502SOL    HW127965   3.523   3.754   8.051 -0.2129  0.8444  2.5056
 5502SOL    HW227966   3.402   3.812   8.103  2.8572  1.6258 -0.9619
 5503SOL     OW27967   0.708   0.439   2.686 -0.2596  0.6118  0.0130
 5503SOL    HW127968   0.661   0.360   2.663 -0.6697  1.5092 -2.1815
 5503SOL    HW227969   0.795   0.432   2.646 -0.2341 -2.5229  0.6300
 5504SOL     OW27970   4.198   0.093   2.258  0.2043 -0.0004 -0.0704
 5504SOL    HW127971   4.155   0.142   2.328  2.9380  1.6836  0.4675
 5504SOL    HW227972   4.209   0.161   2.191 -0.8435  1.1931  0.9739
 5505SOL     OW27973   1.287   0.819  12.657 -0.2398 -0.2968  0.2782
 5505SOL    HW127974   1.218   0.882  12.677 -1.7336 -0.9244 -2.9399
 5505SOL    HW227975   1.299   0.821  12.562  0.2094  1.8511  0.3648
 5506SOL     OW27976   4.365   0.600  16.816  0.6418  1.6979  0.3921
 5506SOL    HW127977   4.387   0.574  16.905  0.7813 -0.5535 -0.2952
 5506SOL    HW227978   4.449   0.568  16.783 -0.1706  2.5937 -2.5450
 5507SOL     OW27979   3.318   2.045   5.319 -0.4957 -0.0952  0.1211
 5507SOL    HW127980   3.307   1.964   5.271 -2.8207 -0.2346  0.8611
 5507SOL    HW227981   3.412   2.034   5.333 -0.9150 -1.4146  1.8887
 5508SOL     OW27982   1.913   0.816   5.308  0.8200  0.2030  0.0886
 5508SOL    HW127983   1.950   0.799   5.395 -1.2627 -1.9458  0.5513
 5508SOL    HW227984   1.940   0.744   5.251 -0.3163 -0.7109  0.7039
 5509SOL     OW27985   0.817   4.423   1.997  0.2238  0.0719  0.2863
 5509SOL    HW127986   0.845   4.371   2.072  0.3550  0.0854  0.2459
 5509SOL    HW227987   0.847   4.507   2.031  3.1549 -0.8119 -0.1565
 5510SOL     OW27988   4.162   2.254   5.529 -0.4146 -0.1180 -0.3571
 5510SOL    HW127989   4.257   2.249   5.513 -0.1047  2.1025  0.7499
 5510SOL    HW227990   4.160   2.202   5.610  0.2754  2.0184  1.0482
 5511SOL     OW27991   4.030   1.639   1.519  0.1036  0.4245  0.6469
 5511SOL    HW127992   4.092   1.680   1.458  0.0884 -0.0756  0.3023
 5511SOL    HW227993   4.085   1.569   1.555  0.7071  0.9951  0.8320
 5512SOL     OW27994   0.665   1.503   7.563 -0.0172  0.0967  0.2496
 5512SOL    HW127995   0.617   1.553   7.497 -2.0578 -0.6422  1.1707
 5512SOL    HW227996   0.707   1.442   7.503 -0.8280  1.1321 -1.3452
 5513SOL     OW27997   0.133   1.844   1.641  0.1061  0.4033 -0.0323
 5513SOL    HW127998   0.041   1.820   1.643  0.0751  0.4798 -0.7866
 5513SOL    HW227999   0.134   1.911   1.710  1.4410  1.1135 -0.7361
 5514SOL     OW28000   0.145   4.568   9.800 -0.4629 -0.1956 -0.2871
 5514SOL    HW128001   0.081   4.517   9.850 -0.7695  0.2449 -0.2333
 5514SOL    HW228002   0.123   4.526   9.716  0.3390 -1.7970  0.3057
 5515SOL     OW28003   4.170   2.761  12.415  0.1641  0.1851 -0.1395
 5515SOL    HW128004   4.083   2.738  12.448 -0.3518  1.1674 -0.7915
 5515SOL    HW228005   4.157   2.753  12.321 -0.6055 -0.4713  0.0239
 5516SOL     OW28006   0.088   0.498   9.387  0.3455  0.2526 -0.2974
 5516SOL    HW128007   0.136   0.424   9.424  0.0303  0.9852  1.5691
 5516SOL    HW228008   0.131   0.571   9.431 -0.5359  1.1637 -0.9502
 5517SOL     OW28009   2.066   1.410   1.990  0.3963 -0.0789  0.2671
 5517SOL    HW128010   2.118   1.417   2.071 -1.5948  0.9511  1.4462
 5517SOL    HW228011   1.978   1.425   2.025  0.1620  0.7494 -0.6581
 5518SOL     OW28012   1.547   4.572   2.617  0.5269 -0.3244  0.1605
 5518SOL    HW128013   1.581   4.488   2.587  2.4871  1.3829 -2.4128
 5518SOL    HW228014   1.533   4.571   2.711  1.2828  0.9232  0.2853
 5519SOL     OW28015   0.034   1.231   8.790 -0.1686  0.1377  0.4287
 5519SOL    HW128016   4.675   1.227   8.742  1.2046 -1.1480 -1.8031
 5519SOL    HW228017   0.091   1.268   8.723 -0.3029 -0.9918 -0.3024
 5520SOL     OW28018   1.719   1.383   3.300  0.3833 -0.0653  0.0677
 5520SOL    HW128019   1.788   1.334   3.255  0.5245 -0.0869  0.3048
 5520SOL    HW228020   1.745   1.471   3.273  1.2416  0.7589  3.5495
 5521SOL     OW28021   4.553   1.695  13.132  0.3396  0.0052 -0.3303
 5521SOL    HW128022   4.616   1.702  13.205  0.8503 -0.2090 -0.7532
 5521SOL    HW228023   4.596   1.644  13.064 -2.0064 -0.9838 -1.0476
 5522SOL     OW28024   2.766   2.959   6.959 -0.3974 -0.1623  0.2929
 5522SOL    HW128025   2.845   2.964   7.012  0.8511 -1.8873 -1.4148
 5522SOL    HW228026   2.790   2.886   6.902 -1.7136  1.1754 -1.9870
 5523SOL     OW28027   3.509   2.798   1.588  0.1598 -0.0559  0.6251
 5523SOL    HW128028   3.557   2.728   1.544 -0.7724 -0.1350 -0.2683
 5523SOL    HW228029   3.571   2.870   1.596 -0.9404  1.0604 -0.8949
 5524SOL     OW28030   2.674   1.369   5.472  0.5731  0.3621 -0.3616
 5524SOL    HW128031   2.726   1.290   5.460  1.4063  0.8092  0.3273
 5524SOL    HW228032   2.748   1.430   5.471  0.2889  0.7341  1.3828
 5525SOL     OW28033   3.900   4.065   3.099  0.5518 -0.9091  0.3688
 5525SOL    HW128034   3.964   4.024   3.158 -2.5305 -2.8437  2.3594
 5525SOL    HW228035   3.846   3.987   3.092 -0.9622  0.0683  1.3056
 5526SOL     OW28036   3.379   4.576   0.268  0.6577  0.0908  0.4547
 5526SOL    HW128037   3.365   4.643   0.201 -0.4883 -2.6955 -2.0428
 5526SOL    HW228038   3.473   4.561   0.258  1.0932  2.7002  0.5724
 5527SOL     OW28039   1.684   2.646   3.698  0.0753  0.3664 -0.2346
 5527SOL    HW128040   1.614   2.711   3.693 -0.1433  0.1327 -0.2356
 5527SOL    HW228041   1.680   2.608   3.610 -0.5994  0.4339 -0.2336
 5528SOL     OW28042   3.342   4.712  17.020 -0.2052  0.5778  0.1191
 5528SOL    HW128043   3.431   4.715  16.983  0.0408  0.3757  0.6932
 5528SOL    HW228044   3.290   4.716  16.940  0.2899 -0.5119 -0.2634
 5529SOL     OW28045   0.261   3.038  15.007  0.4104 -0.2584  0.4581
 5529SOL    HW128046   0.315   3.102  14.961 -1.1613  0.5862 -0.1745
 5529SOL    HW228047   0.319   3.007  15.077  1.1584  0.7260  0.2870
 5530SOL     OW28048   1.930   4.053   5.452  0.1451  1.0206 -0.4733
 5530SOL    HW128049   1.990   4.000   5.503 -0.2848  1.8482  0.8921
 5530SOL    HW228050   1.959   4.141   5.474  0.6204  0.8092 -0.2633
 5531SOL     OW28051   2.162   0.040  13.728  0.3371  0.0585 -0.3062
 5531SOL    HW128052   2.106   4.698  13.767 -0.1575  0.1170 -0.9209
 5531SOL    HW228053   2.205   0.077  13.805 -2.3665  0.7597  0.8476
 5532SOL     OW28054   1.526   2.124   9.954  0.3121 -0.1624  0.1680
 5532SOL    HW128055   1.604   2.070   9.962  0.0354 -0.4484  0.8852
 5532SOL    HW228056   1.482   2.075   9.884 -1.4863 -0.1701  1.3103
 5533SOL     OW28057   3.579   4.086   9.167  0.1477 -0.0540 -0.4507
 5533SOL    HW128058   3.493   4.092   9.126 -0.0622 -0.3324 -0.0568
 5533SOL    HW228059   3.632   4.128   9.099  0.5880 -0.4885 -0.3830
 5534SOL     OW28060   4.633   2.705   7.672  0.7435 -0.6619  0.5328
 5534SOL    HW128061   4.539   2.689   7.658  0.7841  0.6777 -1.2606
 5534SOL    HW228062   4.666   2.616   7.664 -0.3958 -1.0677  0.2383
 5535SOL     OW28063   1.854   1.209  11.011  0.0625  0.6628  0.0522
 5535SOL    HW128064   1.784   1.158  10.970  2.9718 -2.1141 -1.4226
 5535SOL    HW228065   1.881   1.144  11.076  0.1779 -1.1768 -1.8340
 5536SOL     OW28066   0.533   3.544   7.736 -0.3190 -0.0658  0.3729
 5536SOL    HW128067   0.494   3.462   7.765 -0.5022 -0.2937 -0.4946
 5536SOL    HW228068   0.502   3.611   7.797  0.1609  0.6348 -0.1373
 5537SOL     OW28069   4.597   4.388   5.125 -0.3406  0.3921 -0.4241
 5537SOL    HW128070   4.527   4.327   5.102  1.1280 -1.3455 -0.3347
 5537SOL    HW228071   4.656   4.375   5.050 -2.0401 -0.5560 -1.6121
 5538SOL     OW28072   2.951   0.904   5.075 -0.1372  0.2537 -0.2123
 5538SOL    HW128073   2.876   0.880   5.131 -0.1279  0.5593 -0.0712
 5538SOL    HW228074   3.014   0.921   5.145 -1.1789  1.8362  0.3517
 5539SOL     OW28075   3.662   2.667   0.097 -0.6012 -0.3505 -0.3042
 5539SOL    HW128076   3.700   2.740   0.146  2.5079 -0.5857 -2.3160
 5539SOL    HW228077   3.699   2.591   0.141  1.4414  0.7333 -0.1068
 5540SOL     OW28078   1.737   2.194   0.374 -0.0458  0.3022 -0.2817
 5540SOL    HW128079   1.767   2.182   0.464  0.9031 -0.2733 -0.6790
 5540SOL    HW228080   1.753   2.108   0.335 -0.1070  0.3321 -0.3720
 5541SOL     OW28081   3.705   4.431  14.186 -0.4803  0.4265  0.0204
 5541SOL    HW128082   3.722   4.374  14.261  0.3083  0.5113 -0.0991
 5541SOL    HW228083   3.764   4.505  14.201  1.5703 -1.2218  0.0999
 5542SOL     OW28084   1.056   4.118  10.456 -0.3973 -0.2599 -0.4287
 5542SOL    HW128085   1.071   4.062  10.532 -0.1541  0.9015  0.3935
 5542SOL    HW228086   0.961   4.125  10.449 -0.5277  0.8648  2.2194
 5543SOL     OW28087   0.794   1.037   7.213 -0.0135  0.4266  0.6690
 5543SOL    HW128088   0.881   1.021   7.251  1.0155 -1.8776 -2.6570
 5543SOL    HW228089   0.757   0.948   7.214 -0.0351  0.4178 -0.8480
 5544SOL     OW28090   2.549   0.098   9.133 -0.0788 -0.4460 -0.0935
 5544SOL    HW128091   2.464   0.133   9.159 -0.3369 -2.1884  1.4276
 5544SOL    HW228092   2.600   0.161   9.183  0.1349  0.2036 -1.1409
 5545SOL     OW28093   0.878   0.882   6.873  0.6613  0.1409 -0.2059
 5545SOL    HW128094   0.921   0.964   6.897  0.2928  0.7711 -1.6902
 5545SOL    HW228095   0.958   0.830   6.866 -0.1261 -1.1661  0.3990
 5546SOL     OW28096   1.560   3.454   7.035 -0.5473 -0.5230 -0.1435
 5546SOL    HW128097   1.481   3.445   6.982  0.9219  0.1677 -2.4593
 5546SOL    HW228098   1.527   3.441   7.124  2.1494  1.2724  1.1607
 5547SOL     OW28099   2.049   4.385   7.261  0.8464 -0.4446  0.6490
 5547SOL    HW128100   2.069   4.467   7.306  0.1419 -0.2046  0.5330
 5547SOL    HW228101   1.965   4.364   7.303  0.0233  0.7284 -0.3911
 5548SOL     OW28102   1.768   2.457   9.089  0.2073  0.1210 -0.1701
 5548SOL    HW128103   1.840   2.420   9.039 -0.3469 -1.5597  0.2936
 5548SOL    HW228104   1.792   2.463   9.182  0.2521 -0.2853 -0.1566
 5549SOL     OW28105   2.288   0.432   9.804  0.1674  0.4290  0.5386
 5549SOL    HW128106   2.358   0.496   9.796 -0.3426  0.5766 -2.8068
 5549SOL    HW228107   2.300   0.391   9.890 -1.8130  0.5765  0.8986
 5550SOL     OW28108   1.621   0.050   4.200 -0.5475 -0.0083 -0.2117
 5550SOL    HW128109   1.530   0.079   4.187 -0.3533  0.3862 -0.7030
 5550SOL    HW228110   1.612   4.679   4.208  1.5138 -0.1858 -0.1309
 5551SOL     OW28111   2.597   1.251   2.886  0.0244  0.5660 -0.1135
 5551SOL    HW128112   2.668   1.212   2.836  0.4570 -1.2204  1.8806
 5551SOL    HW228113   2.568   1.323   2.829 -0.8458  0.4046  0.1247
 5552SOL     OW28114   1.234   1.837   1.092  0.2227 -0.2721 -0.1524
 5552SOL    HW128115   1.195   1.898   1.154  4.8936  1.5828  0.9760
 5552SOL    HW228116   1.321   1.875   1.081 -1.1323  2.6277 -0.9241
 5553SOL     OW28117   4.155   4.198   8.530  0.5043 -0.1416 -0.1111
 5553SOL    HW128118   4.118   4.279   8.565  2.2515 -0.2127  1.8980
 5553SOL    HW228119   4.155   4.143   8.608  0.2811  2.2897  1.5885
 5554SOL     OW28120   4.609   2.942   7.815  0.8940 -0.2928 -0.5326
 5554SOL    HW128121   4.516   2.956   7.797  0.9542 -1.4492 -1.6821
 5554SOL    HW228122   4.630   2.862   7.767 -0.7171 -0.6126 -0.7143
 5555SOL     OW28123   3.705   2.893   2.002 -0.1052  0.1470 -0.4428
 5555SOL    HW128124   3.781   2.840   1.979  0.6420  0.3538  1.5221
 5555SOL    HW228125   3.664   2.833   2.065 -0.5687  1.2363  0.2845
 5556SOL     OW28126   1.762   0.526  12.529 -0.0282  0.2406 -0.6498
 5556SOL    HW128127   1.810   0.585  12.472 -1.8764  3.4001  1.0608
 5556SOL    HW228128   1.773   0.581  12.607 -0.7007  0.7605 -0.9224
 5557SOL     OW28129   4.493   4.587   0.994  0.1255 -0.6239 -0.5094
 5557SOL    HW128130   4.492   4.681   0.976  3.3245 -0.4351  0.3667
 5557SOL    HW228131   4.504   4.555   0.905 -1.3354  2.8387 -1.8935
 5558SOL     OW28132   3.020   4.360   2.855  0.3323 -0.6034 -0.2797
 5558SOL    HW128133   2.976   4.311   2.785  1.1437 -2.2777  0.3766
 5558SOL    HW228134   3.107   4.321   2.865  1.0547  0.3175 -3.0018
 5559SOL     OW28135   4.256   4.197  16.602 -0.5743 -0.4551  0.0764
 5559SOL    HW128136   4.293   4.228  16.519 -0.8080 -0.0275  0.1296
 5559SOL    HW228137   4.180   4.255  16.611  0.7136  1.6115 -2.2749
 5560SOL     OW28138   0.606   2.823   5.346  0.3916  0.5434 -0.3967
 5560SOL    HW128139   0.679   2.780   5.301 -0.5096 -1.0918 -0.2792
 5560SOL    HW228140   0.622   2.917   5.343  1.2129  0.4035 -0.4641
 5561SOL     OW28141   0.500   3.639   2.282  0.1892 -0.1802 -0.0736
 5561SOL    HW128142   0.466   3.611   2.196 -0.6602  0.2089  0.1330
 5561SOL    HW228143   0.525   3.551   2.309  1.7707  1.1940  2.8736
 5562SOL     OW28144   2.890   3.959   8.919  0.8675  0.1462 -0.2442
 5562SOL    HW128145   2.874   4.050   8.942  1.4965 -0.0735  1.0548
 5562SOL    HW228146   2.946   3.976   8.842 -0.1336 -0.8346 -1.1903
 5563SOL     OW28147   2.658   3.655  17.604  0.3543  0.2149  0.4338
 5563SOL    HW128148   2.744   3.622  17.579 -0.3568  0.2548 -2.0541
 5563SOL    HW228149   2.664   3.741  17.562  0.8633  0.4843  1.0766
 5564SOL     OW28150   0.341   0.860   6.476  0.1918  0.3196  0.1358
 5564SOL    HW128151   0.359   0.799   6.405 -0.9141  0.6808 -0.4484
 5564SOL    HW228152   0.356   0.804   6.552 -1.7478 -1.9506 -1.1618
 5565SOL     OW28153   2.806   3.596  15.627  0.6887  0.0347 -0.1267
 5565SOL    HW128154   2.875   3.581  15.691  0.2382 -2.1490 -0.1356
 5565SOL    HW228155   2.793   3.505  15.600 -0.8323 -0.5948  2.7214
 5566SOL     OW28156   4.037   4.591  10.406 -0.5089 -0.1164  0.0602
 5566SOL    HW128157   4.044   4.545  10.322 -0.6655  0.2529 -0.1540
 5566SOL    HW228158   4.026   4.509  10.454  1.2812 -0.5827 -0.3389
 5567SOL     OW28159   2.863   4.070   8.237 -0.0766  0.2960  0.3712
 5567SOL    HW128160   2.948   4.083   8.278  0.4399  1.3741 -1.0750
 5567SOL    HW228161   2.809   4.080   8.315 -0.3795 -0.7457  0.3088
 5568SOL     OW28162   2.210   0.600   5.124 -0.3789 -0.4512 -0.1044
 5568SOL    HW128163   2.116   0.619   5.130 -0.6153 -1.3527 -0.9569
 5568SOL    HW228164   2.221   0.618   5.030  1.8534 -2.5692 -0.2342
 5569SOL     OW28165   3.958   1.910   6.754 -0.7320  0.6481 -0.8283
 5569SOL    HW128166   3.999   1.875   6.674 -1.8536  0.7646 -1.4541
 5569SOL    HW228167   4.007   1.980   6.796  1.2463 -0.2812 -1.5848
 5570SOL     OW28168   3.550   3.003  10.020  0.1257 -0.1810  0.0284
 5570SOL    HW128169   3.611   3.029   9.951 -1.1419 -1.6946 -1.6743
 5570SOL    HW228170   3.469   2.996   9.968  0.9456 -0.8107 -1.1690
 5571SOL     OW28171   3.120   4.588   3.808 -0.3035 -0.1941 -0.3953
 5571SOL    HW128172   3.198   4.638   3.785 -0.6851 -0.0055 -1.2901
 5571SOL    HW228173   3.082   4.640   3.878  0.9524  0.0124  0.1199
 5572SOL     OW28174   4.660   4.207  10.961  0.5433 -0.0729  0.1653
 5572SOL    HW128175   4.709   4.125  10.971  2.3993  1.2132  1.6022
 5572SOL    HW228176   4.709   4.268  11.015  2.6424  0.9055 -2.8408
 5573SOL     OW28177   1.613   4.233   9.407  0.0534  0.5172 -0.1109
 5573SOL    HW128178   1.517   4.243   9.408 -0.1160 -0.9356 -1.9684
 5573SOL    HW228179   1.623   4.156   9.461 -1.4006  1.1337  1.0365
 5574SOL     OW28180   2.967   3.540   6.243 -0.2108  0.1409 -0.0550
 5574SOL    HW128181   2.904   3.605   6.275  0.5903 -0.0634  1.9692
 5574SOL    HW228182   3.030   3.572   6.307 -1.1338  0.4668  0.6941
 5575SOL     OW28183   3.438   4.481  14.628 -0.3677 -0.2931 -0.1849
 5575SOL    HW128184   3.347   4.468  14.603 -0.9665  0.6800  1.4483
 5575SOL    HW228185   3.473   4.471  14.540  0.8288  1.4899  0.0742
 5576SOL     OW28186   1.024   1.009   3.152  0.1237 -0.1468  0.2875
 5576SOL    HW128187   1.036   0.915   3.160 -1.7866 -0.5344 -1.4390
 5576SOL    HW228188   1.081   1.028   3.077 -1.1272 -1.0374 -0.8884
 5577SOL     OW28189   2.958   3.142   9.097 -0.6194 -0.3531 -0.1528
 5577SOL    HW128190   2.987   3.100   9.015 -0.2798 -3.7632  1.7042
 5577SOL    HW228191   3.044   3.148   9.139 -0.9628 -1.5676  0.7372
 5578SOL     OW28192   4.716   0.592   6.382 -0.2333  0.0321  0.5530
 5578SOL    HW128193   4.683   0.671   6.338 -1.1584  0.3742  1.8545
 5578SOL    HW228194   4.642   0.533   6.366  1.8126 -2.1289 -0.8718
 5579SOL     OW28195   1.180   3.047   7.364 -0.2140  0.3979  0.1180
 5579SOL    HW128196   1.106   3.058   7.423 -1.0706 -0.4906 -0.7941
 5579SOL    HW228197   1.186   3.122   7.304  0.6459  0.1517 -0.1063
 5580SOL     OW28198   3.481   3.150   6.137 -0.2033 -0.1109  0.1038
 5580SOL    HW128199   3.418   3.199   6.189 -0.2901  1.0668 -1.1129
 5580SOL    HW228200   3.434   3.119   6.060  0.5892 -1.6290  0.2302
 5581SOL     OW28201   4.047   1.904  13.053  0.0565 -0.0490  0.5863
 5581SOL    HW128202   3.960   1.888  13.089 -0.8214  0.7705 -1.1974
 5581SOL    HW228203   4.049   1.998  13.072 -0.0595  0.0009  0.3438
 5582SOL     OW28204   0.846   3.854  13.334 -0.4699 -0.1661  0.2748
 5582SOL    HW128205   0.813   3.905  13.408  0.9345  2.1457 -0.6977
 5582SOL    HW228206   0.789   3.777  13.340  0.3355 -0.7666  0.1860
 5583SOL     OW28207   4.389   2.777   1.470  0.2801  0.2816  0.0396
 5583SOL    HW128208   4.316   2.783   1.408 -0.7538  0.3174  1.2669
 5583SOL    HW228209   4.452   2.758   1.401 -0.6655  0.7118 -0.9328
 5584SOL     OW28210   2.859   4.106   7.952 -0.4607  0.1429  0.0588
 5584SOL    HW128211   2.815   4.183   7.989 -1.8574 -0.2437 -0.7875
 5584SOL    HW228212   2.873   4.067   8.038 -1.7468  1.2338  0.7547
 5585SOL     OW28213   0.780   3.319   7.935 -0.7462 -0.1050 -0.1638
 5585SOL    HW128214   0.786   3.357   7.848 -1.1737 -1.6969 -0.8807
 5585SOL    HW228215   0.717   3.247   7.931 -2.4711  1.4572 -1.2789
 5586SOL     OW28216   2.506   0.990  17.425  0.1601  0.0127  0.3688
 5586SOL    HW128217   2.452   1.015  17.351  0.2356 -1.0805 -0.0575
 5586SOL    HW228218   2.533   1.079  17.448 -0.2943  0.0801  0.6483
 5587SOL     OW28219   1.621   1.797   9.257  0.0722  0.0550  0.3526
 5587SOL    HW128220   1.663   1.720   9.294  0.6541  0.2880  0.1661
 5587SOL    HW228221   1.534   1.777   9.292  0.1676  2.0446  1.7473
 5588SOL     OW28222   4.695   2.173   2.494  0.2799 -0.1051  0.1840
 5588SOL    HW128223   0.066   2.178   2.483  0.7325 -1.0558  3.6604
 5588SOL    HW228224   4.669   2.264   2.478 -1.2282 -0.9372 -2.0436
 5589SOL     OW28225   0.671   0.403   8.930 -0.6773  0.2917 -0.8941
 5589SOL    HW128226   0.610   0.465   8.970 -2.0245 -0.8502 -1.1856
 5589SOL    HW228227   0.754   0.450   8.932 -0.9114  0.5568  2.5043
 5590SOL     OW28228   1.601   3.725   4.312  0.5613  0.1020 -0.3329
 5590SOL    HW128229   1.598   3.753   4.403 -0.4034  1.3423 -0.7429
 5590SOL    HW228230   1.527   3.664   4.301 -1.1443  2.0822  0.2654
 5591SOL     OW28231   1.143   2.918   3.008 -0.0022  0.5408  0.7044
 5591SOL    HW128232   1.061   2.949   3.047 -0.4002 -0.5701  0.7499
 5591SOL    HW228233   1.153   2.998   2.957 -2.9446  0.5455  0.1112
 5592SOL     OW28234   1.069   4.446   1.746 -0.1697 -0.5824  0.3458
 5592SOL    HW128235   1.111   4.434   1.831 -0.8654 -0.4673  0.7122
 5592SOL    HW228236   0.978   4.420   1.763 -0.2322 -0.2421  0.5391
 5593SOL     OW28237   2.355   2.940  16.600 -0.6491 -0.0968 -0.2215
 5593SOL    HW128238   2.319   2.888  16.671 -1.3132 -1.0246 -1.2372
 5593SOL    HW228239   2.302   3.017  16.623 -0.7457 -0.0391 -0.6333
 5594SOL     OW28240   3.998   1.603   3.968  0.0914 -0.3059  0.8585
 5594SOL    HW128241   3.966   1.649   3.891  0.6053 -2.0114 -0.3649
 5594SOL    HW228242   3.981   1.514   3.939  1.8560 -0.6807  0.9413
 5595SOL     OW28243   0.857   3.505   5.181  0.6944 -0.1594 -0.6615
 5595SOL    HW128244   0.934   3.453   5.203 -0.0908 -0.5034  1.2884
 5595SOL    HW228245   0.832   3.473   5.095 -0.8298 -1.7694  0.3768
 5596SOL     OW28246   2.148   4.019   2.909 -0.4581 -0.3367 -0.6545
 5596SOL    HW128247   2.112   3.935   2.938  0.5211  0.2029  2.1670
 5596SOL    HW228248   2.156   4.007   2.815 -1.5543  0.7719 -0.8865
 5597SOL     OW28249   3.466   1.890   6.305  0.4796 -0.8308 -0.2479
 5597SOL    HW128250   3.452   1.829   6.378 -1.2581  0.6414  0.6469
 5597SOL    HW228251   3.381   1.934   6.306  0.8204 -0.1785  0.6376
 5598SOL     OW28252   2.945   0.711   3.917 -0.0192  0.4779  0.1788
 5598SOL    HW128253   2.882   0.704   3.845  2.3651 -1.8663 -1.6996
 5598SOL    HW228254   2.946   0.620   3.948  1.0638  0.3688 -0.1779
 5599SOL     OW28255   4.378   2.149   5.013  0.1612 -0.2258  0.2456
 5599SOL    HW128256   4.397   2.177   4.924 -2.3041  0.4042 -0.0677
 5599SOL    HW228257   4.321   2.076   4.988 -1.3172  0.8345  0.5219
 5600SOL     OW28258   4.461   4.251   6.891  0.1353 -0.1190  0.1202
 5600SOL    HW128259   4.544   4.297   6.885  0.5730 -0.7377  1.4742
 5600SOL    HW228260   4.407   4.287   6.821 -0.4875 -0.1271  0.5871
 5601SOL     OW28261   3.969   1.252   3.942  0.1001  0.5441 -0.0793
 5601SOL    HW128262   4.052   1.245   3.990  0.3477 -0.5367 -0.6546
 5601SOL    HW228263   3.990   1.311   3.870 -0.4323  1.7872  0.7798
 5602SOL     OW28264   1.283   0.183   1.553 -0.1122  0.5454 -0.2917
 5602SOL    HW128265   1.268   0.108   1.610 -1.8451 -0.5688 -2.2283
 5602SOL    HW228266   1.213   0.246   1.572 -2.2750 -1.4108 -1.7611
 5603SOL     OW28267   2.171   1.137   6.896  0.3847  0.1550 -0.6056
 5603SOL    HW128268   2.130   1.190   6.965  1.6156 -1.0458  1.0517
 5603SOL    HW228269   2.122   1.161   6.818 -3.0134 -0.2974  1.3719
 5604SOL     OW28270   0.483   3.363   7.108 -0.4510  0.7069  0.2336
 5604SOL    HW128271   0.409   3.402   7.155  0.6537  1.6168  1.1879
 5604SOL    HW228272   0.471   3.412   7.027  1.1404  2.0163  0.7878
 5605SOL     OW28273   2.583   0.393  11.966  0.5831 -0.3171  0.5697
 5605SOL    HW128274   2.576   0.485  11.942 -0.0627 -0.3415  0.6600
 5605SOL    HW228275   2.646   0.385  12.037  1.7549  0.5536 -0.3778
 5606SOL     OW28276   3.861   4.158   9.477  0.1761 -1.0816 -0.1594
 5606SOL    HW128277   3.791   4.210   9.516  2.0920  0.7497  0.8632
 5606SOL    HW228278   3.831   4.146   9.387 -1.5931 -1.6495  0.5160
 5607SOL     OW28279   3.686   3.582   9.958  0.4955 -0.4579 -0.2097
 5607SOL    HW128280   3.777   3.569   9.983  0.9099  0.2143 -1.3769
 5607SOL    HW228281   3.665   3.660  10.010  0.7056 -0.7167  0.2584
 5608SOL     OW28282   2.528   4.295   3.067 -0.4531  0.1697  0.2753
 5608SOL    HW128283   2.473   4.266   2.994  0.5067  0.2276 -0.4614
 5608SOL    HW228284   2.462   4.346   3.115 -1.6606 -0.2111 -0.9889
 5609SOL     OW28285   3.635   2.062   7.372 -0.2484 -0.3060 -0.5550
 5609SOL    HW128286   3.564   2.026   7.318 -1.7769  0.7037  0.8011
 5609SOL    HW228287   3.593   2.135   7.416  2.2134  0.2223  0.9133
 5610SOL     OW28288   1.827   0.373   9.755  0.1430  0.6674 -0.6103
 5610SOL    HW128289   1.916   0.350   9.728  0.6769  0.0710  1.6790
 5610SOL    HW228290   1.854   0.451   9.805  1.2949 -0.3758  0.3884
 5611SOL     OW28291   4.298   2.219   2.994 -0.5411  0.5478 -0.2173
 5611SOL    HW128292   4.384   2.206   3.034  0.9423  2.8063 -2.6784
 5611SOL    HW228293   4.282   2.140   2.941 -2.7649 -1.5562  3.5586
 5612SOL     OW28294   1.366   1.823   0.466  0.2491  0.0549 -0.7265
 5612SOL    HW128295   1.283   1.829   0.419  0.3023 -1.8139 -1.0822
 5612SOL    HW228296   1.422   1.871   0.405  2.4432 -2.4128 -0.6433
 5613SOL     OW28297   1.921   4.520   0.753  0.2008  0.9244 -0.0735
 5613SOL    HW128298   1.901   4.552   0.841 -0.6576  0.9323 -0.2748
 5613SOL    HW228299   2.016   4.509   0.753  0.0286 -0.6504 -1.3123
 5614SOL     OW28300   2.327   2.491  15.492 -0.1146 -0.1875 -0.1223
 5614SOL    HW128301   2.417   2.523  15.476 -0.1084  0.3999  1.1167
 5614SOL    HW228302   2.277   2.556  15.443  1.0469  0.7407 -0.0956
 5615SOL     OW28303   1.301   0.945  13.517 -0.3281  0.3460 -0.2331
 5615SOL    HW128304   1.278   0.856  13.489  0.9467  0.4030 -1.4296
 5615SOL    HW228305   1.261   0.938  13.604 -0.3377 -0.0633 -0.2713
 5616SOL     OW28306   2.918   3.615  13.186 -0.3373  0.0479 -0.0526
 5616SOL    HW128307   2.844   3.675  13.177 -1.4300 -1.1468  0.8740
 5616SOL    HW228308   2.990   3.678  13.187 -0.1381 -0.2194  1.7303
 5617SOL     OW28309   2.427   4.159   1.702 -0.1904  0.6010 -0.2910
 5617SOL    HW128310   2.391   4.229   1.646 -0.4267  1.6677  1.1714
 5617SOL    HW228311   2.387   4.081   1.663 -1.8698  1.7971 -0.9985
 5618SOL     OW28312   2.104   2.642   1.481  0.6701  0.4159 -0.2205
 5618SOL    HW128313   2.151   2.717   1.517  1.3745 -0.7781  1.3473
 5618SOL    HW228314   2.045   2.618   1.553 -0.8204  1.3414 -1.1335
 5619SOL     OW28315   2.499   2.084   8.792 -0.3859  0.0017 -0.2966
 5619SOL    HW128316   2.500   2.101   8.886 -1.5809 -0.1098 -0.2646
 5619SOL    HW228317   2.561   2.150   8.761 -0.9275  0.1997 -0.9566
 5620SOL     OW28318   1.088   1.822  12.315 -0.4044 -0.0974  0.4623
 5620SOL    HW128319   1.178   1.792  12.333 -0.6206 -0.5544  0.7916
 5620SOL    HW228320   1.095   1.909  12.354 -0.9621  0.9233 -1.7636
 5621SOL     OW28321   3.845   4.062   3.399 -0.1706  0.0623  0.1007
 5621SOL    HW128322   3.876   3.987   3.449  2.3144  0.5442 -0.7201
 5621SOL    HW228323   3.750   4.058   3.413 -0.0513  0.8744  1.1771
 5622SOL     OW28324   4.328   2.783   6.439  0.1823  0.5431 -0.4841
 5622SOL    HW128325   4.316   2.771   6.345  3.0176 -1.0679 -0.6338
 5622SOL    HW228326   4.252   2.734   6.472 -0.1836 -0.5213 -2.9669
 5623SOL     OW28327   4.010   3.865   4.145 -0.4349  0.0657  0.7832
 5623SOL    HW128328   3.939   3.858   4.080  0.3050  1.8249 -0.2135
 5623SOL    HW228329   4.003   3.955   4.178  1.9027  0.3300  0.5138
 5624SOL     OW28330   1.253   0.383  16.261 -0.9101  0.3560 -0.9753
 5624SOL    HW128331   1.274   0.475  16.277  3.2367 -0.6021 -0.9676
 5624SOL    HW228332   1.320   0.347  16.203 -0.3128  0.7982 -0.5566
 5625SOL     OW28333   3.382   1.751   8.745  0.2363 -0.4556 -0.2732
 5625SOL    HW128334   3.458   1.809   8.749 -1.9283  2.2928  0.4669
 5625SOL    HW228335   3.409   1.664   8.775  1.6916  0.4044  0.8898
 5626SOL     OW28336   2.810   1.974   7.926  0.4856 -0.0141 -0.0418
 5626SOL    HW128337   2.736   1.940   7.876  0.1627 -1.3118  1.3415
 5626SOL    HW228338   2.816   1.910   7.996 -1.7600  0.8712  0.9915
 5627SOL     OW28339   4.682   0.120   8.532  0.0570  0.4627 -0.4128
 5627SOL    HW128340   0.047   0.089   8.550 -1.0776 -0.7634  3.0722
 5627SOL    HW228341   4.639   0.088   8.611 -2.0289 -0.4879 -1.9279
 5628SOL     OW28342   1.461   3.480   6.628  0.5869  0.2909 -0.1234
 5628SOL    HW128343   1.448   3.491   6.722 -1.3288 -2.9172 -0.0245
 5628SOL    HW228344   1.481   3.569   6.598  0.6056  0.2809 -0.1406
 5629SOL     OW28345   3.586   1.641   1.908 -0.0168  0.1536  0.3809
 5629SOL    HW128346   3.571   1.665   1.817  0.2845 -1.4706 -0.0940
 5629SOL    HW228347   3.578   1.548   1.889 -2.0971  0.1479  1.3355
 5630SOL     OW28348   0.337   0.699  14.148  0.1730  0.0348 -0.0772
 5630SOL    HW128349   0.398   0.694  14.222  0.8132  5.3420 -0.2919
 5630SOL    HW228350   0.270   0.754  14.187 -0.0813 -0.7352  0.5795
 5631SOL     OW28351   1.367   4.714   2.258 -0.0563 -0.0239 -0.4514
 5631SOL    HW128352   1.285   4.706   2.306  0.2389 -0.4435 -0.0123
 5631SOL    HW228353   1.342   0.059   2.198  1.8367  2.3120  1.4271
 5632SOL     OW28354   1.048   1.210   0.935  0.1720 -0.6086 -0.0174
 5632SOL    HW128355   1.045   1.270   0.860  0.1141 -1.1675 -0.4665
 5632SOL    HW228356   1.142   1.218   0.949 -0.4227  1.1026  3.0223
 5633SOL     OW28357   1.311   3.658  10.978  0.2992 -0.0736 -0.0152
 5633SOL    HW128358   1.230   3.619  10.945  0.0742 -0.0526  0.5235
 5633SOL    HW228359   1.357   3.590  11.027 -2.6529 -0.4807  2.2107
 5634SOL     OW28360   1.981   0.066   2.810 -0.1371 -1.0047 -0.0808
 5634SOL    HW128361   1.899   0.032   2.845 -0.1656 -1.8709 -0.9777
 5634SOL    HW228362   2.017   4.710   2.771  1.1057 -0.8197  0.6994
 5635SOL     OW28363   3.285   1.609  15.528  0.6258 -0.2601 -0.6894
 5635SOL    HW128364   3.329   1.608  15.614  0.4436  1.2786 -0.5724
 5635SOL    HW228365   3.232   1.530  15.536  0.0900  0.2359  0.7993
 5636SOL     OW28366   0.147   4.508   3.962 -0.3637  0.0354  0.7518
 5636SOL    HW128367   0.054   4.495   3.983 -0.3406  0.6551  1.2604
 5636SOL    HW228368   0.153   4.601   3.942 -0.0544 -0.1023  0.2068
 5637SOL     OW28369   1.107   2.526   1.253  0.0359 -0.3431 -0.0661
 5637SOL    HW128370   1.022   2.562   1.281 -1.3330 -3.1823 -0.5861
 5637SOL    HW228371   1.109   2.461   1.324 -2.0435  1.1961  1.4163
 5638SOL     OW28372   2.775   2.858   3.800  0.5411 -0.4429  0.2086
 5638SOL    HW128373   2.793   2.783   3.858 -1.1178 -0.6217  0.5072
 5638SOL    HW228374   2.769   2.801   3.724 -1.0388 -0.4167  0.3145
 5639SOL     OW28375   3.928   3.752  15.329 -0.3450  0.2040 -0.8081
 5639SOL    HW128376   3.954   3.727  15.418  1.0863  1.5228 -0.8419
 5639SOL    HW228377   3.870   3.823  15.357 -2.0189 -1.6358  0.4186
 5640SOL     OW28378   1.958   0.328  15.070 -0.0927 -0.5961  0.1570
 5640SOL    HW128379   2.047   0.292  15.074  0.3459  0.4773  0.0781
 5640SOL    HW228380   1.910   0.266  15.125 -1.1658  0.0253 -0.0883
 5641SOL     OW28381   1.111   2.342   7.654 -0.7339  0.0461  0.1764
 5641SOL    HW128382   1.179   2.276   7.656 -0.7470  0.0220 -0.3080
 5641SOL    HW228383   1.149   2.397   7.586  1.7506 -1.1953  0.5814
 5642SOL     OW28384   2.111   3.471   1.246 -0.0899 -0.1817  0.2122
 5642SOL    HW128385   2.162   3.410   1.298  1.3836 -0.0645 -1.0933
 5642SOL    HW228386   2.153   3.464   1.160 -0.9767  0.4820 -0.2808
 5643SOL     OW28387   4.499   2.632   0.111  0.3810  0.1034  0.2762
 5643SOL    HW128388   4.572   2.599   0.059  1.8491 -0.5969  2.7943
 5643SOL    HW228389   4.452   2.553   0.137 -2.0845  1.7368  0.8177
 5644SOL     OW28390   3.075   1.705   7.532  0.1498  0.1302 -0.2745
 5644SOL    HW128391   3.092   1.798   7.547 -1.3207  0.3106  0.2717
 5644SOL    HW228392   2.980   1.708   7.522  0.2522  0.1059 -1.2125
 5645SOL     OW28393   3.473   0.384  11.754  0.4304  0.0965 -0.3350
 5645SOL    HW128394   3.433   0.396  11.841 -1.0783 -1.2168 -0.8433
 5645SOL    HW228395   3.395   0.403  11.702 -0.1244 -1.2424  0.0057
 5646SOL     OW28396   3.340   2.355   8.209  0.3833 -0.0353 -0.3062
 5646SOL    HW128397   3.373   2.412   8.140  0.1442  0.2360 -0.1963
 5646SOL    HW228398   3.370   2.265   8.197 -3.2748 -1.1347 -1.4236
 5647SOL     OW28399   2.881   4.535  10.073  0.3593  0.2262 -0.3979
 5647SOL    HW128400   2.882   4.466  10.140 -0.4385  0.9900  0.4035
 5647SOL    HW228401   2.855   4.604  10.135 -0.3821 -0.2065 -0.2233
 5648SOL     OW28402   1.867   3.750  15.077 -0.0506  0.6318  0.5325
 5648SOL    HW128403   1.815   3.691  15.131 -1.3109  0.9349 -0.3566
 5648SOL    HW228404   1.898   3.815  15.140  2.9484 -1.0344  0.8130
 5649SOL     OW28405   1.514   0.495   3.006  0.1386  0.0834 -0.6277
 5649SOL    HW128406   1.551   0.542   2.932 -1.3448  0.1179 -1.3488
 5649SOL    HW228407   1.501   0.405   2.978  1.3424 -0.1714 -0.3441
 5650SOL     OW28408   3.258   2.830   8.251 -0.4762  0.2690 -0.0671
 5650SOL    HW128409   3.241   2.914   8.294  1.9001  0.4311  0.5435
 5650SOL    HW228410   3.169   2.804   8.226 -0.3963 -0.4340  0.3899
 5651SOL     OW28411   1.855   0.320   7.960 -0.0472  0.6359 -0.5382
 5651SOL    HW128412   1.827   0.241   7.914 -2.8175  1.9565 -1.1061
 5651SOL    HW228413   1.898   0.284   8.037 -3.0509 -2.2400 -0.1909
 5652SOL     OW28414   0.722   0.767   5.307  0.2483 -0.2100 -0.0026
 5652SOL    HW128415   0.667   0.841   5.281  1.0888  0.1654 -0.7030
 5652SOL    HW228416   0.801   0.820   5.315  0.3677 -0.2324 -1.0088
 5653SOL     OW28417   2.261   3.781   6.776  0.2891  0.1656 -0.3992
 5653SOL    HW128418   2.347   3.778   6.735 -0.6713 -1.3412 -2.2669
 5653SOL    HW228419   2.276   3.836   6.853  0.2062 -0.9211  0.3996
 5654SOL     OW28420   1.914   4.606  15.188  0.1160  0.3946 -0.4988
 5654SOL    HW128421   1.900   4.683  15.244 -0.8088 -0.7750  0.8708
 5654SOL    HW228422   1.965   4.638  15.114  1.5509 -0.9354 -0.0835
 5655SOL     OW28423   3.435   4.484   5.211  0.7064 -0.3449  0.1762
 5655SOL    HW128424   3.474   4.444   5.288 -0.0206  0.0217  0.7353
 5655SOL    HW228425   3.396   4.560   5.254  3.0097 -0.6318  2.7367
 5656SOL     OW28426   1.183   1.943   2.961 -0.0571  0.1109  0.7690
 5656SOL    HW128427   1.101   1.939   3.011  0.2822 -0.7175  1.2576
 5656SOL    HW228428   1.151   2.002   2.893 -4.2992 -1.9362  0.9762
 5657SOL     OW28429   2.507   4.193   6.499  0.1164 -0.0093 -0.2430
 5657SOL    HW128430   2.485   4.134   6.426  0.5442  0.4868 -0.7703
 5657SOL    HW228431   2.469   4.150   6.576  3.2638 -1.4554  0.5103
 5658SOL     OW28432   4.382   2.657   4.769 -0.1667 -0.0424 -0.4105
 5658SOL    HW128433   4.355   2.664   4.860  2.4731  1.5863  0.2396
 5658SOL    HW228434   4.431   2.576   4.773 -0.0561  0.0412 -0.1317
 5659SOL     OW28435   4.538   4.414  11.317  0.1356  0.7219  0.3177
 5659SOL    HW128436   4.583   4.329  11.319 -1.4461 -0.0828  1.5252
 5659SOL    HW228437   4.619   4.461  11.298  0.2733 -0.0212 -0.9437
 5660SOL     OW28438   3.632   1.295   8.082 -0.1809  0.0689  0.6351
 5660SOL    HW128439   3.716   1.250   8.074  0.6588  1.7489  0.1238
 5660SOL    HW228440   3.571   1.227   8.052 -1.5264  1.4934  0.1648
 5661SOL     OW28441   0.445   0.618   8.832  0.4514  0.4255  0.1503
 5661SOL    HW128442   0.438   0.702   8.787  2.1302 -1.0134 -2.7395
 5661SOL    HW228443   0.408   0.646   8.916 -1.2858  1.2498 -0.8978
 5662SOL     OW28444   1.269   0.213  11.165 -0.2770 -0.3936 -0.0470
 5662SOL    HW128445   1.269   0.154  11.240 -1.4604  0.1652  0.4004
 5662SOL    HW228446   1.258   0.298  11.207 -0.9374  0.2343 -1.4956
 5663SOL     OW28447   0.011   3.408   5.096  0.3812 -0.7537  0.6412
 5663SOL    HW128448   0.031   3.396   5.189 -0.9622  1.0568  1.1607
 5663SOL    HW228449   4.716   3.318   5.068 -1.8431 -0.4440  1.2286
 5664SOL     OW28450   2.563   3.185   4.256 -0.3951 -0.5797  0.2487
 5664SOL    HW128451   2.531   3.102   4.290 -0.5695 -0.4151  0.4920
 5664SOL    HW228452   2.650   3.193   4.294  0.4411 -2.0521 -1.4136
 5665SOL     OW28453   0.410   0.437  15.765 -0.1561  0.1406 -0.0058
 5665SOL    HW128454   0.383   0.507  15.823 -1.3675 -0.7733  0.5288
 5665SOL    HW228455   0.409   0.481  15.680 -2.5373 -0.0952 -0.1030
 5666SOL     OW28456   1.454   3.939  14.454  0.1808 -0.1144  0.6003
 5666SOL    HW128457   1.445   3.850  14.419  0.4934  0.4682 -0.9533
 5666SOL    HW228458   1.549   3.946  14.469 -0.2215 -0.9707  3.4237
 5667SOL     OW28459   1.392   1.531   5.799  0.1585  0.0262  0.1796
 5667SOL    HW128460   1.333   1.455   5.796 -1.5673  1.3020  1.3349
 5667SOL    HW228461   1.477   1.498   5.827  0.2212  1.6010  1.8409
 5668SOL     OW28462   1.243   0.829  16.834  0.3781  0.1681  0.6818
 5668SOL    HW128463   1.206   0.874  16.910 -1.4362  2.0905 -1.3077
 5668SOL    HW228464   1.188   0.876  16.771  0.0725 -0.0508  0.7855
 5669SOL     OW28465   3.649   4.714   8.543  0.2513  0.0980  0.2455
 5669SOL    HW128466   3.662   4.649   8.612 -1.5619 -1.0549 -0.5217
 5669SOL    HW228467   3.716   4.681   8.482 -0.8381 -2.0089  0.1810
 5670SOL     OW28468   2.516   0.781   6.852  0.2310  0.2391  0.1030
 5670SOL    HW128469   2.464   0.765   6.773 -0.0350  0.5781  0.2094
 5670SOL    HW228470   2.475   0.862   6.880  0.3384 -0.5399  2.5495
 5671SOL     OW28471   3.363   3.880   3.728 -0.3753 -0.3860 -0.3569
 5671SOL    HW128472   3.373   3.786   3.742  0.8905 -0.4458 -1.6958
 5671SOL    HW228473   3.451   3.908   3.753 -0.9213  2.5800 -1.7589
 5672SOL     OW28474   3.386   3.754   6.678 -0.1432 -0.2718 -1.1807
 5672SOL    HW128475   3.420   3.767   6.590  0.6004  0.9702 -0.7087
 5672SOL    HW228476   3.463   3.705   6.706  0.2579  0.2468 -1.3683
 5673SOL     OW28477   2.279   1.145   7.459 -0.6244  0.5981  0.3419
 5673SOL    HW128478   2.363   1.163   7.416 -0.7289  0.3544  0.0409
 5673SOL    HW228479   2.316   1.097   7.534 -2.0025  1.2091  1.4088
 5674SOL     OW28480   4.049   3.453   8.739  0.6039  0.4603  0.2861
 5674SOL    HW128481   4.030   3.530   8.686 -0.6458  0.8278  1.2614
 5674SOL    HW228482   4.141   3.469   8.760  0.4784 -0.5727  1.6724
 5675SOL     OW28483   3.877   2.412  11.644 -0.1651  0.3778  0.1960
 5675SOL    HW128484   3.882   2.418  11.739  0.3135  1.4416  0.1110
 5675SOL    HW228485   3.928   2.334  11.624  0.5960  1.1694 -0.9796
 5676SOL     OW28486   2.803   4.569   8.801 -0.4227  0.0778 -0.0627
 5676SOL    HW128487   2.708   4.570   8.792 -0.2853  1.9245 -1.4343
 5676SOL    HW228488   2.824   4.626   8.875  0.4220  0.3531 -0.5145
 5677SOL     OW28489   1.303   4.208   6.593  0.0309 -0.3904  0.3840
 5677SOL    HW128490   1.239   4.166   6.535  2.0996  0.7131 -2.7016
 5677SOL    HW228491   1.375   4.147   6.609 -1.3469 -1.6486  1.8509
 5678SOL     OW28492   1.588   1.674  11.899 -0.3416  0.2301  0.4892
 5678SOL    HW128493   1.609   1.688  11.991 -0.6264 -0.0571  0.5975
 5678SOL    HW228494   1.588   1.579  11.893  1.3712  0.0847  2.5901
 5679SOL     OW28495   1.365   2.460   7.012  0.3051 -0.2488 -0.2041
 5679SOL    HW128496   1.392   2.375   6.975 -2.1198 -0.3798 -1.7316
 5679SOL    HW228497   1.380   2.514   6.935  1.1078 -0.6460 -0.3215
 5680SOL     OW28498   4.709   0.092  16.749 -0.2467  0.1173 -0.0382
 5680SOL    HW128499   0.025   0.119  16.667 -1.6990  0.7606 -0.5323
 5680SOL    HW228500   4.651   0.164  16.771  0.8692  0.6708  1.1160
 5681SOL     OW28501   3.480   3.152   8.201 -0.8193  0.1684 -0.2092
 5681SOL    HW128502   3.513   3.242   8.200  0.2849 -0.2218  0.4808
 5681SOL    HW228503   3.533   3.106   8.135  0.1964  1.2169 -0.1213
 5682SOL     OW28504   0.307   2.030   7.045 -0.5601 -0.1947 -0.5992
 5682SOL    HW128505   0.270   1.946   7.072  1.1978 -0.4991  0.9042
 5682SOL    HW228506   0.242   2.098   7.063  2.9928  3.1597 -0.3230
 5683SOL     OW28507   0.439   0.860   6.183  0.1475  0.2858 -0.7706
 5683SOL    HW128508   0.488   0.778   6.177 -0.7170 -0.4905  2.7788
 5683SOL    HW228509   0.496   0.920   6.231  1.1563 -0.0172 -1.5733
 5684SOL     OW28510   2.509   3.491  12.785 -0.0730 -0.5677 -0.2287
 5684SOL    HW128511   2.601   3.468  12.769 -0.2401  0.4510 -2.6567
 5684SOL    HW228512   2.516   3.567  12.843  0.5925 -0.1892 -0.8081
 5685SOL     OW28513   2.133   2.736   3.380 -0.6734 -0.0367 -0.2983
 5685SOL    HW128514   2.134   2.643   3.356 -0.0773 -0.8645  2.8924
 5685SOL    HW228515   2.145   2.789   3.301  0.3656 -1.5129 -1.1464
 5686SOL     OW28516   2.013   0.761   2.374 -0.1146 -0.0595 -0.2790
 5686SOL    HW128517   2.075   0.831   2.393 -0.8221  0.5466 -0.1708
 5686SOL    HW228518   2.034   0.747   2.282  0.0112  2.6308 -0.6648
 5687SOL     OW28519   1.147   0.150   2.598 -0.3094 -0.2861  0.5321
 5687SOL    HW128520   1.198   0.070   2.595  1.5656  0.7928  3.5755
 5687SOL    HW228521   1.128   0.171   2.507 -1.1763  0.2373  0.8237
 5688SOL     OW28522   1.740   1.617   3.105 -0.1367  0.0025  0.1645
 5688SOL    HW128523   1.647   1.636   3.116 -0.3861 -0.3249 -1.3218
 5688SOL    HW228524   1.763   1.698   3.059 -0.8976  0.9347  1.4140
 5689SOL     OW28525   2.300   1.183   2.860 -0.7618 -0.1469 -0.5169
 5689SOL    HW128526   2.353   1.237   2.918 -0.1636 -1.6106  0.2954
 5689SOL    HW228527   2.250   1.243   2.804  0.5512  0.5443 -0.9831
 5690SOL     OW28528   1.422   3.402   1.178  0.7365 -0.8982 -0.3752
 5690SOL    HW128529   1.421   3.420   1.084  0.9504  2.4237  0.2583
 5690SOL    HW228530   1.405   3.483   1.226 -0.8284 -0.2363 -2.0816
 5691SOL     OW28531   3.170   2.912   7.601  0.1775 -0.3304  0.3717
 5691SOL    HW128532   3.203   2.823   7.616  1.3555 -0.0228 -0.4305
 5691SOL    HW228533   3.168   2.955   7.686  2.5791  0.2387  0.1289
 5692SOL     OW28534   2.371   3.631  17.572  0.1028 -0.1639 -0.5385
 5692SOL    HW128535   2.463   3.605  17.573  0.2506  0.3568 -0.4965
 5692SOL    HW228536   2.338   3.565  17.633  2.5722 -0.4621  0.4528
 5693SOL     OW28537   3.599   4.307   1.714  0.1079  0.2512 -0.2949
 5693SOL    HW128538   3.683   4.260   1.712  0.4948  0.9349  0.3337
 5693SOL    HW228539   3.550   4.261   1.645 -0.7889  1.2438 -0.3097
 5694SOL     OW28540   2.373   3.717   3.275 -0.7124  0.1937  0.3403
 5694SOL    HW128541   2.345   3.752   3.191 -2.2071 -0.9253  0.3871
 5694SOL    HW228542   2.352   3.626   3.258  2.3287 -0.2150 -1.1954
 5695SOL     OW28543   0.002   4.547   9.160 -0.2331  0.1149 -0.0013
 5695SOL    HW128544   0.072   4.542   9.095 -0.5396 -0.2424 -0.3031
 5695SOL    HW228545   4.645   4.506   9.129  1.1911 -0.2718 -3.1718
 5696SOL     OW28546   2.321   2.942   1.969 -0.0026 -0.3103  0.3907
 5696SOL    HW128547   2.277   2.859   1.952 -0.1971  0.1531 -1.3924
 5696SOL    HW228548   2.375   2.937   1.889  1.1428 -0.0571  1.1472
 5697SOL     OW28549   1.156   4.236   2.916 -0.4595  0.1805 -0.2287
 5697SOL    HW128550   1.226   4.235   2.981 -1.9824 -1.1462  1.3798
 5697SOL    HW228551   1.113   4.319   2.937 -1.9445 -0.8642  0.7803
 5698SOL     OW28552   3.274   2.467   1.253 -0.1164  0.0719 -0.2570
 5698SOL    HW128553   3.365   2.497   1.243 -0.1727  0.0323 -0.9086
 5698SOL    HW228554   3.225   2.542   1.221  2.5634  1.4716 -1.1009
 5699SOL     OW28555   0.346   1.019  10.558 -0.3783 -0.0431 -0.2015
 5699SOL    HW128556   0.306   1.099  10.526 -1.8088 -0.5540  0.3100
 5699SOL    HW228557   0.354   0.966  10.478 -0.4835  0.0610 -0.2803
 5700SOL     OW28558   1.509   1.805   5.362  0.0636 -0.6162  0.1015
 5700SOL    HW128559   1.554   1.721   5.365  2.5945  0.7902  2.0832
 5700SOL    HW228560   1.454   1.787   5.438  0.2845 -1.6098  0.0231
 5701SOL     OW28561   0.713   2.341   4.307 -1.2831  0.5862 -0.2050
 5701SOL    HW128562   0.646   2.407   4.322 -0.4822  1.3890 -0.1405
 5701SOL    HW228563   0.781   2.394   4.265 -0.1035  0.3980  1.4569
 5702SOL     OW28564   0.030   2.764   6.334 -0.0624 -0.2189 -0.1230
 5702SOL    HW128565   4.682   2.701   6.332 -0.6391  0.4573 -0.7108
 5702SOL    HW228566   4.713   2.832   6.387  1.0167  0.2864  0.0552
 5703SOL     OW28567   1.136   0.877   4.709 -0.3368  0.9845  0.2787
 5703SOL    HW128568   1.050   0.852   4.678  0.4510 -2.1647  0.6984
 5703SOL    HW228569   1.189   0.850   4.634  1.1198  0.0160  1.6443
 5704SOL     OW28570   0.328   2.319   7.695 -0.1321 -0.4321  0.1817
 5704SOL    HW128571   0.259   2.307   7.759 -1.3623  0.1717 -1.0219
 5704SOL    HW228572   0.374   2.236   7.689 -2.0538 -1.3128 -2.4352
 5705SOL     OW28573   0.845   1.395   2.924 -0.1742 -0.1721 -0.9061
 5705SOL    HW128574   0.915   1.358   2.978 -0.1864  0.6718 -0.3128
 5705SOL    HW228575   0.875   1.484   2.905 -2.3784  0.7085 -0.2654
 5706SOL     OW28576   3.237   1.100  11.089  0.1202 -0.3476  0.0018
 5706SOL    HW128577   3.316   1.059  11.124 -0.8215 -1.8787  0.3352
 5706SOL    HW228578   3.281   1.184  11.079  0.7120 -0.5950  0.5132
 5707SOL     OW28579   2.310   2.463   3.650  0.1427  0.0714 -0.3954
 5707SOL    HW128580   2.287   2.555   3.638 -1.0665 -0.5939 -3.0600
 5707SOL    HW228581   2.289   2.427   3.564  0.5293 -0.9352 -0.0800
 5708SOL     OW28582   1.178   1.851  16.204  0.0462  0.4267  0.1070
 5708SOL    HW128583   1.174   1.801  16.285 -0.4543  0.5383  0.1486
 5708SOL    HW228584   1.258   1.812  16.168  1.1913  2.0139  0.9447
 5709SOL     OW28585   0.777   4.607   0.843  0.6298 -0.5269  0.1796
 5709SOL    HW128586   0.770   4.691   0.889 -0.4930 -0.3270 -0.3424
 5709SOL    HW228587   0.692   4.572   0.867 -0.6318  2.3499 -0.1206
 5710SOL     OW28588   0.236   3.135  13.103  0.3534  0.6302 -0.1062
 5710SOL    HW128589   0.218   3.171  13.189  4.7904  3.6319 -0.4189
 5710SOL    HW228590   0.323   3.172  13.089  1.0508 -0.8118  0.4467
 5711SOL     OW28591   0.200   4.458  11.484 -0.4559 -0.5298 -0.1777
 5711SOL    HW128592   0.199   4.458  11.580  3.2630 -1.4093 -0.1659
 5711SOL    HW228593   0.273   4.403  11.458  0.3796 -0.7711  2.6778
 5712SOL     OW28594   1.702   2.682   2.357  0.1416 -0.0220 -0.1566
 5712SOL    HW128595   1.699   2.612   2.292 -3.3650 -0.1986  0.2053
 5712SOL    HW228596   1.614   2.714   2.376  0.0395 -0.0580 -0.5883
 5713SOL     OW28597   2.460   1.286   6.884  0.0263 -0.1109 -0.3104
 5713SOL    HW128598   2.533   1.346   6.896 -0.0589 -0.0555 -0.0679
 5713SOL    HW228599   2.407   1.335   6.821 -1.7702  0.0415  1.2960
 5714SOL     OW28600   2.841   2.435   3.294 -0.1186  0.3722  0.0368
 5714SOL    HW128601   2.932   2.406   3.288 -0.4999 -0.9704  0.7757
 5714SOL    HW228602   2.789   2.370   3.248 -1.0613  0.6546  0.7055
 5715SOL     OW28603   4.386   1.457  11.276  0.0246 -0.4609 -0.2981
 5715SOL    HW128604   4.323   1.446  11.205 -2.3792  0.7040  1.6466
 5715SOL    HW228605   4.462   1.485  11.226 -0.5425 -0.0527 -0.9205
 5716SOL     OW28606   2.243   4.425   6.525  0.3393 -0.1488  0.3537
 5716SOL    HW128607   2.200   4.344   6.497 -1.4365  0.4537  1.3611
 5716SOL    HW228608   2.172   4.489   6.531  0.6302  0.4871 -2.5530
 5717SOL     OW28609   1.320   4.233  10.167 -0.2684  0.2464  0.0753
 5717SOL    HW128610   1.242   4.187  10.135 -0.5455  0.9127 -0.2032
 5717SOL    HW228611   1.296   4.264  10.254 -0.8190 -2.0770  0.7723
 5718SOL     OW28612   3.565   4.160   3.473  0.2090 -0.2266  0.3267
 5718SOL    HW128613   3.551   4.154   3.568 -0.0141  2.4597  0.4826
 5718SOL    HW228614   3.531   4.074   3.450 -1.2262  0.2476  0.6761
 5719SOL     OW28615   3.819   2.782  15.536  0.6087 -0.0315  0.1655
 5719SOL    HW128616   3.864   2.706  15.500  1.2542  0.9587 -1.1065
 5719SOL    HW228617   3.822   2.834  15.456  1.5608 -1.2372 -0.5840
 5720SOL     OW28618   2.226   0.470  17.698 -0.2847  0.1729  0.9070
 5720SOL    HW128619   2.320   0.458   0.013  0.4329  0.5565 -3.8533
 5720SOL    HW228620   2.224   0.425  17.613  0.0457  3.1726 -0.6945
 5721SOL     OW28621   1.500   1.501   1.043  0.1498  0.1088  0.1145
 5721SOL    HW128622   1.409   1.530   1.044  0.4504  1.0531 -1.8855
 5721SOL    HW228623   1.522   1.510   0.951 -1.4223  1.1922 -0.1648
 5722SOL     OW28624   2.326   3.525   2.904  0.2447 -0.3044 -0.5165
 5722SOL    HW128625   2.237   3.525   2.869 -0.7970 -1.4875  2.1954
 5722SOL    HW228626   2.369   3.456   2.852  1.6980 -2.2300  3.2194
 5723SOL     OW28627   1.291   2.238  16.119 -0.1934 -0.1759  0.0724
 5723SOL    HW128628   1.321   2.328  16.106  0.4278 -0.7600 -2.5365
 5723SOL    HW228629   1.318   2.194  16.038 -0.3496 -0.2130  0.0410
 5724SOL     OW28630   4.209   1.247   0.916 -0.4013  0.2701  0.5637
 5724SOL    HW128631   4.283   1.239   0.856 -0.6074  0.1526  0.3261
 5724SOL    HW228632   4.142   1.204   0.862 -0.8456  0.4242  0.9983
 5725SOL     OW28633   0.556   0.132  16.104  0.6327 -0.5244 -0.0298
 5725SOL    HW128634   0.576   0.226  16.112 -0.1497 -0.4987  1.4776
 5725SOL    HW228635   0.521   0.120  16.016  4.1308  0.4667 -1.5921
 5726SOL     OW28636   0.580   2.252   5.867 -0.4549 -0.7319 -0.0582
 5726SOL    HW128637   0.604   2.257   5.960  3.8700 -1.7462 -1.1288
 5726SOL    HW228638   0.661   2.268   5.820 -1.1056  1.7586 -0.3500
 5727SOL     OW28639   1.132   4.692   4.300 -0.0109 -0.5164 -0.0455
 5727SOL    HW128640   1.059   0.028   4.287  0.7168  0.6483  1.3499
 5727SOL    HW228641   1.116   4.677   4.393  0.1316  0.0894  0.0702
 5728SOL     OW28642   0.241   2.779  12.866 -0.2201 -1.0311 -0.0925
 5728SOL    HW128643   0.256   2.756  12.958 -0.6968 -0.9844 -0.0009
 5728SOL    HW228644   0.299   2.727  12.811  0.6718  0.2972 -0.4283
 5729SOL     OW28645   3.025   4.322  12.820 -0.0517 -0.6117 -0.0299
 5729SOL    HW128646   2.967   4.389  12.785  2.5151  2.1571  1.0050
 5729SOL    HW228647   2.962   4.259  12.855 -0.4772 -1.7736 -2.8854
 5730SOL     OW28648   4.216   2.357   9.776  0.1342  0.0606  0.1057
 5730SOL    HW128649   4.122   2.352   9.757  0.5870 -0.6157 -1.8706
 5730SOL    HW228650   4.237   2.264   9.770 -1.6807 -0.2153 -1.6904
 5731SOL     OW28651   3.107   4.434   8.863 -0.5702  0.2173  0.4655
 5731SOL    HW128652   3.050   4.407   8.935  0.0261  1.6484  1.4894
 5731SOL    HW228653   3.088   4.528   8.872  1.1405  0.5184  0.9383
 5732SOL     OW28654   1.490   2.792   4.140  0.3170 -0.2815 -0.0021
 5732SOL    HW128655   1.538   2.747   4.070  0.9767  0.6731 -0.1528
 5732SOL    HW228656   1.554   2.856   4.170  2.3252 -1.2065 -2.2937
 5733SOL     OW28657   0.486   2.927  10.783 -0.3646 -0.2156 -0.2060
 5733SOL    HW128658   0.575   2.933  10.817 -0.0579 -1.7134 -0.7318
 5733SOL    HW228659   0.503   2.982  10.706 -2.7041  1.9639  0.8307
 5734SOL     OW28660   1.428   3.849  10.657  0.3782 -0.1287  0.0484
 5734SOL    HW128661   1.443   3.845  10.563 -0.8402 -0.9584 -0.1161
 5734SOL    HW228662   1.502   3.891  10.702 -0.3628  2.5774 -1.3313
 5735SOL     OW28663   3.981   3.691   2.551 -0.1382 -0.2117  0.1143
 5735SOL    HW128664   4.068   3.729   2.557 -0.3081  0.0228  1.1736
 5735SOL    HW228665   4.011   3.604   2.524 -3.0286 -1.6608  1.5846
 5736SOL     OW28666   0.778   2.742   6.041  0.2635  0.8146  0.1214
 5736SOL    HW128667   0.822   2.726   5.957  2.1386  1.8160  0.9081
 5736SOL    HW228668   0.727   2.819   6.018 -1.4119 -0.2861  0.1311
 5737SOL     OW28669   4.158   0.042  14.398  0.0213 -0.1068  0.1860
 5737SOL    HW128670   4.063   0.043  14.404  0.0306  0.5260  0.1959
 5737SOL    HW228671   4.178   0.108  14.465  1.4736 -0.8203  0.4815
 5738SOL     OW28672   1.516   4.486   1.214 -0.3473  0.7248  0.4446
 5738SOL    HW128673   1.457   4.430   1.265 -0.3127 -1.5362 -1.9474
 5738SOL    HW228674   1.508   4.569   1.261 -3.8744  0.8454 -0.3904
 5739SOL     OW28675   1.356   3.599   0.856  0.0714  0.3761 -0.5120
 5739SOL    HW128676   1.357   3.507   0.830  4.3739  0.0209  0.9527
 5739SOL    HW228677   1.446   3.614   0.884 -1.1217  2.7986  2.0300
 5740SOL     OW28678   1.961   4.316  15.209  0.3772  0.1660  0.4885
 5740SOL    HW128679   1.975   4.406  15.179 -0.0744 -0.4922 -1.7060
 5740SOL    HW228680   1.921   4.321  15.296 -0.5285  2.1291 -0.0371
 5741SOL     OW28681   3.526   3.081  14.383  0.1795  0.1937 -0.1255
 5741SOL    HW128682   3.477   2.999  14.388  0.7956 -0.1720 -0.0115
 5741SOL    HW228683   3.594   3.081  14.450 -0.3724  1.6632  0.4194
 5742SOL     OW28684   3.978   0.918   3.411 -0.6751 -0.1433  0.1854
 5742SOL    HW128685   3.912   0.866   3.364  1.5994 -1.5765 -1.3695
 5742SOL    HW228686   4.052   0.857   3.413 -2.9666 -2.9800 -1.1480
 5743SOL     OW28687   2.952   4.393   7.692  0.1176 -0.5394  0.0542
 5743SOL    HW128688   2.949   4.329   7.621  1.9240  0.5793 -1.0278
 5743SOL    HW228689   2.860   4.399   7.720  0.1137 -1.0077  0.1305
 5744SOL     OW28690   0.447   4.619   4.041  0.1965 -0.2044  0.0885
 5744SOL    HW128691   0.473   4.595   3.952  0.7189 -2.3129  0.8008
 5744SOL    HW228692   0.430   4.535   4.083 -0.9138  0.8026  1.6574
 5745SOL     OW28693   3.649   1.004   2.941  0.2107 -0.0887 -0.3144
 5745SOL    HW128694   3.711   1.050   2.996  0.8231 -1.2361 -0.0445
 5745SOL    HW228695   3.639   1.074   2.877  1.0495  1.1361  0.9201
 5746SOL     OW28696   4.379   1.451   8.360 -0.0680  0.7170  0.3949
 5746SOL    HW128697   4.471   1.429   8.351 -0.1248  0.5077  0.3174
 5746SOL    HW228698   4.360   1.539   8.328 -1.6171  1.0017  2.1252
 5747SOL     OW28699   2.750   0.078   3.007  0.2715  0.0550  0.8736
 5747SOL    HW128700   2.789   0.035   2.931  3.6085  4.3318  0.1352
 5747SOL    HW228701   2.814   0.148   3.021  0.2815 -0.0367  1.3026
 5748SOL     OW28702   2.483   3.950   6.342  0.4254  0.1215 -0.3096
 5748SOL    HW128703   2.562   3.975   6.296 -0.3868  1.1879 -1.1178
 5748SOL    HW228704   2.439   3.910   6.267 -3.9919 -0.4569  2.5219
 5749SOL     OW28705   0.588   3.477   3.831 -0.0299 -0.4235  0.0475
 5749SOL    HW128706   0.641   3.555   3.810  1.4536 -1.2643  0.6729
 5749SOL    HW228707   0.506   3.498   3.786  0.7906 -1.8001 -2.0695
 5750SOL     OW28708   1.634   1.929   6.423 -0.1506  0.2130  0.6816
 5750SOL    HW128709   1.609   1.854   6.477  2.2274 -1.5648 -0.6974
 5750SOL    HW228710   1.557   1.955   6.374 -0.4367  0.6619  1.3676
 5751SOL     OW28711   2.849   1.426   5.188 -0.0859  0.2022  0.6022
 5751SOL    HW128712   2.788   1.353   5.182 -0.3104  0.2632  2.1520
 5751SOL    HW228713   2.877   1.405   5.277  2.6519 -0.5398 -0.4437
 5752SOL     OW28714   0.761   4.149  10.479  0.3414  0.4866  0.5048
 5752SOL    HW128715   0.667   4.142  10.493  0.6269  0.7804  2.6245
 5752SOL    HW228716   0.772   4.244  10.490 -0.6602  0.5396  1.0142
 5753SOL     OW28717   2.430   4.449   2.560  0.1935 -0.0987 -0.0309
 5753SOL    HW128718   2.367   4.418   2.625  0.2809  0.2383  0.2129
 5753SOL    HW228719   2.472   4.525   2.600  2.1501 -1.0795 -0.2378
 5754SOL     OW28720   0.687   2.980  14.965 -0.4506  0.3598  0.1477
 5754SOL    HW128721   0.741   2.901  14.960 -0.4405  0.4173 -0.6864
 5754SOL    HW228722   0.676   2.999  14.872 -0.8810 -0.0131  0.1265
 5755SOL     OW28723   0.486   3.522  16.372 -1.1566 -0.0268  0.5191
 5755SOL    HW128724   0.492   3.618  16.365  0.4721 -0.0373  1.9405
 5755SOL    HW228725   0.401   3.508  16.332 -0.7715  1.3583 -0.7996
 5756SOL     OW28726   3.665   2.120   4.008 -0.0035 -0.2990  0.4324
 5756SOL    HW128727   3.650   2.210   4.038  3.0704 -0.6316  3.0265
 5756SOL    HW228728   3.756   2.111   3.980 -0.6711 -2.2785 -1.1444
 5757SOL     OW28729   1.573   3.462  17.600 -0.1434  0.1541 -0.3981
 5757SOL    HW128730   1.501   3.509  17.558 -1.4327  0.2415  1.8902
 5757SOL    HW228731   1.577   3.511  17.681 -4.3365 -0.5973  0.2663
 5758SOL     OW28732   2.013   3.854   9.626 -0.1251 -0.3163 -0.5069
 5758SOL    HW128733   2.096   3.903   9.627 -0.1444 -0.2751 -1.1373
 5758SOL    HW228734   2.041   3.763   9.630 -0.6635 -0.3793  2.0087
 5759SOL     OW28735   2.326   1.335  12.054  0.3192 -0.3204 -0.2216
 5759SOL    HW128736   2.334   1.348  12.149 -1.0738 -1.5837  0.0744
 5759SOL    HW228737   2.232   1.317  12.056  0.4986 -1.4163 -1.1935
 5760SOL     OW28738   2.287   1.421   8.740 -0.5235 -0.1846  0.3110
 5760SOL    HW128739   2.303   1.449   8.830 -1.9998 -2.9931  1.4441
 5760SOL    HW228740   2.208   1.367   8.748 -1.4701  1.5201  2.5608
 5761SOL     OW28741   2.950   1.725   8.417 -0.5788  0.1225  0.2610
 5761SOL    HW128742   2.916   1.642   8.448  2.2861 -0.1218  2.7622
 5761SOL    HW228743   2.935   1.780   8.494  2.9406 -1.0125  1.7425
 5762SOL     OW28744   3.341   3.005  12.054  0.5879 -0.7498  0.3858
 5762SOL    HW128745   3.311   3.005  12.145 -0.6784  0.3148 -0.0518
 5762SOL    HW228746   3.270   2.954  12.014  0.9278 -1.0125  0.1159
 5763SOL     OW28747   2.863   1.625   8.915  0.2981  0.4528  0.4640
 5763SOL    HW128748   2.870   1.697   8.977  4.6624  0.8181 -0.4600
 5763SOL    HW228749   2.899   1.663   8.835 -2.4022  1.0955 -0.4273
 5764SOL     OW28750   2.163   3.745   4.265 -0.1220  0.2806 -0.6148
 5764SOL    HW128751   2.219   3.729   4.188 -0.5878 -0.6922 -0.7441
 5764SOL    HW228752   2.092   3.686   4.238  0.4044 -0.6398  0.0039
 5765SOL     OW28753   0.049   4.024   8.779  0.5469 -0.5279 -0.0685
 5765SOL    HW128754   4.691   3.983   8.750 -0.8772  2.1934  0.1280
 5765SOL    HW228755   0.029   4.022   8.872  0.5130 -1.7578 -0.0950
 5766SOL     OW28756   1.981   2.978  11.493 -0.2592 -0.3221 -0.3803
 5766SOL    HW128757   2.062   3.020  11.465 -0.0730  0.2187  0.9988
 5766SOL    HW228758   1.914   3.020  11.439 -0.0309 -0.6613 -0.9282
 5767SOL     OW28759   4.647   3.392   0.692 -0.4698  0.0437 -0.3959
 5767SOL    HW128760   4.589   3.460   0.659 -3.1921 -2.7145 -1.3527
 5767SOL    HW228761   4.616   3.377   0.781 -1.0780  0.0324 -0.6155
 5768SOL     OW28762   1.180   3.092   3.541 -0.4262 -0.1628  0.2607
 5768SOL    HW128763   1.091   3.127   3.545 -0.8395 -1.4751  2.4010
 5768SOL    HW228764   1.181   3.053   3.628 -1.7842  0.1700  0.4299
 5769SOL     OW28765   3.234   3.858   2.228  0.0177  0.3371  0.0867
 5769SOL    HW128766   3.311   3.881   2.175  0.1913  0.1590  0.2612
 5769SOL    HW228767   3.167   3.835   2.165 -0.4874  2.3750 -0.1131
 5770SOL     OW28768   4.509   2.516   5.973  0.2647 -0.3344 -0.7463
 5770SOL    HW128769   4.603   2.531   5.961  0.2017  0.8262  0.2195
 5770SOL    HW228770   4.512   2.488   6.064 -1.8766 -3.1798 -1.5387
 5771SOL     OW28771   0.855   1.460   3.632 -0.2631  0.0707  0.2341
 5771SOL    HW128772   0.829   1.550   3.651  1.3186  0.2826  1.4483
 5771SOL    HW228773   0.951   1.455   3.632 -0.1708  1.9258  2.7548
 5772SOL     OW28774   1.154   3.500  17.663 -0.3561  0.4109 -0.2961
 5772SOL    HW128775   1.164   3.404  17.668 -2.2336  0.2199 -0.2524
 5772SOL    HW228776   1.059   3.510  17.671 -0.3127 -0.0316  0.7804
 5773SOL     OW28777   2.379   1.580   6.911  0.2843 -0.2157 -0.3896
 5773SOL    HW128778   2.327   1.658   6.929  0.1609 -0.6461  1.1493
 5773SOL    HW228779   2.413   1.566   7.000  3.7260 -0.8780 -1.8211
 5774SOL     OW28780   1.928   4.584   2.617  0.4651  0.2124 -0.2208
 5774SOL    HW128781   1.903   4.650   2.553 -0.4889  0.6772  0.6327
 5774SOL    HW228782   1.850   4.540   2.651  0.9105 -0.1296  0.3655
 5775SOL     OW28783   1.864   1.793   4.490 -0.3097  0.3695 -0.1219
 5775SOL    HW128784   1.806   1.866   4.512 -0.3230  0.3054  0.0553
 5775SOL    HW228785   1.889   1.820   4.402  1.3961 -1.0534 -0.0709
 5776SOL     OW28786   4.485   3.007   4.703  0.8535 -0.4021 -0.2843
 5776SOL    HW128787   4.540   2.930   4.689  1.4628 -0.2003  1.0044
 5776SOL    HW228788   4.517   3.051   4.625  1.1391 -0.8351 -0.4104
 5777SOL     OW28789   2.069   2.244   6.837 -0.3594 -0.3136 -0.3957
 5777SOL    HW128790   1.989   2.246   6.889 -0.8501  1.1691 -1.1984
 5777SOL    HW228791   2.115   2.314   6.884 -1.1213  0.2197 -0.4540
 5778SOL     OW28792   0.267   2.738   8.351  0.1702  0.2659 -0.0992
 5778SOL    HW128793   0.263   2.833   8.336  0.2146  0.4230  0.9004
 5778SOL    HW228794   0.220   2.707   8.273  3.9064 -1.2132 -1.8009
 5779SOL     OW28795   0.979   3.249   2.344 -0.3182 -0.3897  0.6649
 5779SOL    HW128796   0.893   3.209   2.328 -2.3182  4.0467  0.4230
 5779SOL    HW228797   1.033   3.177   2.375 -3.4212 -2.6625  0.8358
 5780SOL     OW28798   1.941   3.106   4.610 -0.4328 -0.0896 -0.2415
 5780SOL    HW128799   1.984   3.177   4.562  2.0040 -2.7488 -1.9570
 5780SOL    HW228800   1.989   3.097   4.692  0.0866 -1.0885 -0.6685
 5781SOL     OW28801   4.010   1.588   4.674 -0.3971 -0.4385  0.3605
 5781SOL    HW128802   3.937   1.528   4.687 -1.7112  0.8694 -1.0370
 5781SOL    HW228803   4.050   1.541   4.600  1.6267 -0.9784  1.8077
 5782SOL     OW28804   3.683   0.400   7.598  0.3739 -0.4294  0.0848
 5782SOL    HW128805   3.695   0.350   7.678 -2.0135 -1.0966  0.0290
 5782SOL    HW228806   3.769   0.386   7.557  0.7872  1.8770  0.1875
 5783SOL     OW28807   3.852   4.033   6.432 -0.0669 -0.4244 -0.6868
 5783SOL    HW128808   3.820   3.990   6.511  0.6608  0.0971 -0.1011
 5783SOL    HW228809   3.886   3.961   6.380  2.2318 -0.6145  1.0469
 5784SOL     OW28810   3.738   0.604   7.994 -0.2487  0.0256  0.6582
 5784SOL    HW128811   3.712   0.596   7.903 -1.5950  1.4740  0.9103
 5784SOL    HW228812   3.800   0.531   7.994 -1.1291 -0.7246  2.8641
 5785SOL     OW28813   3.796   2.135  10.768  0.6962  0.2457  0.3664
 5785SOL    HW128814   3.748   2.186  10.833  1.8526 -0.4333  1.7605
 5785SOL    HW228815   3.766   2.172  10.685 -1.4947  0.5575  1.3065
 5786SOL     OW28816   2.817   0.992   9.021 -0.6298  0.0988 -0.0309
 5786SOL    HW128817   2.870   0.939   8.962 -0.1617  0.4489  0.0631
 5786SOL    HW228818   2.879   1.006   9.093 -1.1038 -0.0916  0.4110
 5787SOL     OW28819   1.598   3.911   0.812  0.0366  0.3465 -0.2827
 5787SOL    HW128820   1.527   3.861   0.852 -1.8562  3.2344 -0.0815
 5787SOL    HW228821   1.575   4.004   0.812 -1.8317 -0.1168 -0.1441
 5788SOL     OW28822   1.554   3.295   8.694  0.0683  0.1861  0.0225
 5788SOL    HW128823   1.617   3.337   8.636  0.1333 -1.3570 -1.0421
 5788SOL    HW228824   1.614   3.304   8.768 -1.4622  1.0604  1.1679
 5789SOL     OW28825   0.303   3.990   2.691 -0.1073 -0.4040 -0.5140
 5789SOL    HW128826   0.218   3.948   2.676 -0.2071 -1.2313  2.3489
 5789SOL    HW228827   0.282   4.083   2.695 -1.4700 -0.6180 -3.0752
 5790SOL     OW28828   0.984   0.448  14.236  0.1528 -0.0402 -0.2484
 5790SOL    HW128829   0.916   0.480  14.296 -0.9404 -0.9855 -0.9945
 5790SOL    HW228830   0.967   0.479  14.147 -0.7889  2.2409  0.7196
 5791SOL     OW28831   3.844   4.185   3.824  0.6463  0.4163 -0.0174
 5791SOL    HW128832   3.874   4.118   3.762 -0.8515 -0.9507  0.7423
 5791SOL    HW228833   3.759   4.213   3.792  0.4620 -0.5097 -0.3383
 5792SOL     OW28834   1.109   3.382  15.179  0.3308 -0.3895  0.0686
 5792SOL    HW128835   1.095   3.435  15.258  1.4259  0.3195 -0.2099
 5792SOL    HW228836   1.079   3.437  15.107 -1.1285 -0.2408  0.7732
 5793SOL     OW28837   1.040   1.024   2.414 -0.1525 -0.4760  0.2833
 5793SOL    HW128838   0.981   1.057   2.346  0.6854  0.8211  0.1920
 5793SOL    HW228839   1.098   1.100   2.417 -2.4886  1.2680  1.3188
 5794SOL     OW28840   3.291   1.012   8.069 -0.1870 -0.5279  0.3404
 5794SOL    HW128841   3.226   0.996   8.001 -1.7255  0.4525  1.5772
 5794SOL    HW228842   3.354   1.059   8.014 -0.5506  2.0048  2.1067
 5795SOL     OW28843   3.336   0.264  15.583 -0.1284 -0.6865  0.6902
 5795SOL    HW128844   3.367   0.353  15.598 -1.3627  0.5300 -3.9269
 5795SOL    HW228845   3.264   0.272  15.646 -0.9292 -0.2355 -0.2746
 5796SOL     OW28846   4.109   4.233   3.880 -0.1910  0.4466  0.3483
 5796SOL    HW128847   4.014   4.226   3.867 -0.0398 -0.1993 -0.3969
 5796SOL    HW228848   4.144   4.257   3.794 -0.1584  0.3740  0.3412
 5797SOL     OW28849   2.017   0.318  16.822 -0.2734 -0.2931 -0.4528
 5797SOL    HW128850   1.966   0.314  16.742  2.6922  2.5490 -2.4919
 5797SOL    HW228851   2.091   0.264  16.794 -0.3799 -0.4528 -0.4263
 5798SOL     OW28852   3.773   3.995   4.457 -0.7470 -0.3271  0.1708
 5798SOL    HW128853   3.740   4.059   4.394 -1.7651  0.1090  1.1233
 5798SOL    HW228854   3.745   4.031   4.542  0.5127  2.2659 -0.5193
 5799SOL     OW28855   0.676   3.540  12.602  0.5284 -0.1563  0.4172
 5799SOL    HW128856   0.639   3.562  12.688 -0.0355  0.7414 -0.0496
 5799SOL    HW228857   0.751   3.599  12.612  1.5302 -1.3636 -0.0016
 5800SOL     OW28858   1.717   0.971   5.582 -0.6002 -0.6961 -0.2425
 5800SOL    HW128859   1.788   0.916   5.550  0.6277  1.4197 -1.1998
 5800SOL    HW228860   1.670   0.994   5.502  1.6662  1.2771 -1.0185
 5801SOL     OW28861   3.205   1.507   7.954  0.4322 -0.1263 -0.4960
 5801SOL    HW128862   3.298   1.512   7.930  0.6698  1.9734  0.9050
 5801SOL    HW228863   3.216   1.434   8.015  1.7338 -1.2712 -2.0663
 5802SOL     OW28864   0.767   0.151   0.926  0.5611 -0.1307 -0.2518
 5802SOL    HW128865   0.816   0.230   0.903  0.8856  0.1771  1.4959
 5802SOL    HW228866   0.706   0.160   0.853 -1.1040 -0.0080  1.1505
 5803SOL     OW28867   2.879   0.815  11.382  0.2280 -0.1467  0.0969
 5803SOL    HW128868   2.902   0.899  11.422  0.6223  0.2258 -0.8925
 5803SOL    HW228869   2.883   0.744  11.446  2.0703 -0.3619 -0.2558
 5804SOL     OW28870   4.324   2.549   9.088 -0.0515 -0.3012 -0.6734
 5804SOL    HW128871   4.274   2.619   9.130 -1.6031 -1.1706 -1.0642
 5804SOL    HW228872   4.368   2.509   9.163  0.9544  1.0981 -0.5145
 5805SOL     OW28873   3.001   1.146  14.151 -0.4585 -0.2211 -0.2458
 5805SOL    HW128874   2.918   1.193  14.144 -1.4982 -2.2885 -1.6117
 5805SOL    HW228875   2.985   1.072  14.094  0.3969 -1.2211  0.8080
 5806SOL     OW28876   1.529   3.658   7.973 -0.0071  0.3139  0.1403
 5806SOL    HW128877   1.448   3.685   7.929 -0.7334 -1.7224  0.2150
 5806SOL    HW228878   1.578   3.740   7.975  0.4509  0.0048  1.8460
 5807SOL     OW28879   4.687   1.922   2.371  0.0252  0.1834  0.0706
 5807SOL    HW128880   4.690   2.013   2.399 -0.5021 -0.3042  1.7577
 5807SOL    HW228881   0.056   1.898   2.374  0.0135 -0.0558 -1.6749
 5808SOL     OW28882   4.187   0.126   4.263 -0.0780 -0.0733 -0.1105
 5808SOL    HW128883   4.211   0.034   4.255  0.4671  0.2357 -2.0999
 5808SOL    HW228884   4.191   0.142   4.357  0.2000 -0.8833  0.0097
 5809SOL     OW28885   0.891   0.387  10.257 -0.4815 -0.3755  0.3010
 5809SOL    HW128886   0.933   0.319  10.310 -0.1144 -0.4885 -0.1261
 5809SOL    HW228887   0.848   0.338  10.186  0.3745  0.8001 -1.0399
 5810SOL     OW28888   1.317   1.045   1.766 -0.5732 -1.0847  0.2855
 5810SOL    HW128889   1.248   0.997   1.811 -1.6654  1.4009  1.2199
 5810SOL    HW228890   1.306   1.122   1.821 -0.4938 -1.6902  1.1482
 5811SOL     OW28891   4.675   1.976   3.456  0.2040  0.2035 -0.3052
 5811SOL    HW128892   0.001   1.937   3.385 -1.2060  1.3132 -1.8846
 5811SOL    HW228893   0.020   1.989   3.522  0.9770  0.2902 -1.1340
 5812SOL     OW28894   0.475   0.427   5.414 -0.3157  0.4859  0.3302
 5812SOL    HW128895   0.388   0.390   5.431 -0.5063  1.2330  1.0092
 5812SOL    HW228896   0.497   0.380   5.334 -2.7150  1.0755 -0.6477
 5813SOL     OW28897   2.260   0.073   7.286 -0.7937 -0.4846 -0.1641
 5813SOL    HW128898   2.182   0.022   7.308 -0.5942  0.1239  1.9264
 5813SOL    HW228899   2.207   0.152   7.284 -0.6013 -0.3994 -1.9342
 5814SOL     OW28900   2.737   4.200   0.734 -0.0179 -0.2181  0.4983
 5814SOL    HW128901   2.740   4.129   0.670  1.3157  0.6856 -0.4319
 5814SOL    HW228902   2.808   4.170   0.792 -0.6574 -1.6215  0.5481
 5815SOL     OW28903   4.027   4.315  16.662  0.5588 -1.0734 -0.0503
 5815SOL    HW128904   4.018   4.406  16.690  2.6648 -1.1405  0.7928
 5815SOL    HW228905   4.021   4.276  16.749  0.7646 -3.0982 -0.9241
 5816SOL     OW28906   2.251   2.221   9.172 -0.2244  0.0271 -0.2625
 5816SOL    HW128907   2.290   2.218   9.260 -1.8080 -3.1115  0.3475
 5816SOL    HW228908   2.184   2.289   9.175  0.6482  0.7463  3.2905
 5817SOL     OW28909   1.358   3.538   0.167 -0.6860 -0.0091  0.8824
 5817SOL    HW128910   1.278   3.527   0.115  0.4303 -0.2803 -0.7968
 5817SOL    HW228911   1.403   3.605   0.116  0.5010 -1.3736  0.1252
 5818SOL     OW28912   0.253   3.463   8.636  0.2443  0.4138 -0.2972
 5818SOL    HW128913   0.305   3.454   8.716 -1.6768 -1.8156  0.7200
 5818SOL    HW228914   0.300   3.425   8.562  0.9150  0.0356  0.3346
 5819SOL     OW28915   0.804   1.859   7.506 -0.3653 -0.0920  0.0463
 5819SOL    HW128916   0.845   1.880   7.590  0.3842  5.1180 -1.6042
 5819SOL    HW228917   0.778   1.941   7.463  1.7774  0.5358 -0.0505
 5820SOL     OW28918   3.556   1.319   7.385 -0.0756  0.3477  0.2333
 5820SOL    HW128919   3.519   1.406   7.372 -2.3627 -0.7275 -0.3715
 5820SOL    HW228920   3.636   1.315   7.332  0.3724  1.1699  0.8483
 5821SOL     OW28921   3.339   0.326  15.181  0.7874  0.3085  0.2040
 5821SOL    HW128922   3.248   0.350  15.196  0.8521  1.0768 -0.6531
 5821SOL    HW228923   3.380   0.364  15.259  1.0859 -0.6105  0.4944
 5822SOL     OW28924   4.098   4.559   1.854 -0.1117 -0.2843  0.1561
 5822SOL    HW128925   4.022   4.532   1.803 -0.5187  1.9840 -0.4706
 5822SOL    HW228926   4.113   4.649   1.824 -1.9972  0.0549  0.2288
 5823SOL     OW28927   0.636   2.806   3.158  0.3789 -0.1308 -0.5660
 5823SOL    HW128928   0.713   2.842   3.202 -0.4270  1.7055 -0.6489
 5823SOL    HW228929   0.579   2.852   3.221  0.6126  2.1032 -1.9715
 5824SOL     OW28930   0.790   2.494   2.171 -0.7113 -0.0029  0.4085
 5824SOL    HW128931   0.796   2.526   2.261 -1.0249 -0.0845  0.4586
 5824SOL    HW228932   0.768   2.576   2.126 -1.1921  0.3030  1.1982
 5825SOL     OW28933   4.132   2.507   8.578 -0.6149  0.3429 -0.5935
 5825SOL    HW128934   4.085   2.533   8.657  1.5164  1.1589  0.4007
 5825SOL    HW228935   4.164   2.420   8.602 -0.1864  0.3559 -1.1018
 5826SOL     OW28936   0.718   0.723   8.208  0.3075  0.3032 -0.3624
 5826SOL    HW128937   0.682   0.812   8.205  0.4931  0.4080  0.6219
 5826SOL    HW228938   0.652   0.685   8.267 -0.2082 -2.2846 -2.5987
 5827SOL     OW28939   1.848   2.678   5.496 -0.5576  0.1502  0.0620
 5827SOL    HW128940   1.799   2.691   5.577 -0.2534  2.5850 -0.1286
 5827SOL    HW228941   1.816   2.595   5.462 -0.2988  1.0042 -2.2536
 5828SOL     OW28942   2.100   3.523  12.787  0.1514  0.7771 -0.0244
 5828SOL    HW128943   2.102   3.438  12.832 -0.1173  1.6648  1.6810
 5828SOL    HW228944   2.151   3.577  12.848  2.4789 -0.2119 -1.0801
 5829SOL     OW28945   0.538   1.820   1.825  0.1873  0.6841  0.6819
 5829SOL    HW128946   0.489   1.804   1.744  1.4781 -0.0372  0.0438
 5829SOL    HW228947   0.522   1.741   1.877  0.4877 -0.2847 -0.6919
 5830SOL     OW28948   4.267   4.601   4.207 -0.1509  0.1140  0.4936
 5830SOL    HW128949   4.350   4.606   4.158 -0.8676  2.7883 -0.4720
 5830SOL    HW228950   4.300   4.557   4.285  0.0146 -0.6794 -0.0203
 5831SOL     OW28951   2.293   2.144   3.836  0.4442  0.7014  0.2156
 5831SOL    HW128952   2.231   2.217   3.832 -0.1599  0.0558 -2.0982
 5831SOL    HW228953   2.279   2.100   3.920  0.7682 -0.8302 -0.5343
 5832SOL     OW28954   3.884   0.751   6.273  0.0841  0.1852 -0.2593
 5832SOL    HW128955   3.872   0.657   6.288 -0.2881  0.5605  1.7767
 5832SOL    HW228956   3.975   0.749   6.241 -0.1849 -1.7068 -0.8705
 5833SOL     OW28957   1.421   1.330   8.373  0.3726  0.0811 -0.0326
 5833SOL    HW128958   1.508   1.316   8.412  0.8597  2.3305 -0.3169
 5833SOL    HW228959   1.430   1.347   8.279  2.0510 -0.8467 -0.0351
 5834SOL     OW28960   0.856   4.395  14.263  0.1300  0.0472 -0.7712
 5834SOL    HW128961   0.900   4.448  14.198  2.0759  0.5408  0.9637
 5834SOL    HW228962   0.900   4.311  14.252  1.7153  0.8866 -0.7180
 5835SOL     OW28963   0.901   3.633   5.406 -0.2185  0.7029 -0.1187
 5835SOL    HW128964   0.863   3.606   5.323  0.5190  0.6673 -0.4374
 5835SOL    HW228965   0.825   3.616   5.462  1.6056 -1.2401  1.7519
 5836SOL     OW28966   3.242   2.791   9.695  0.2305 -0.7342  0.3678
 5836SOL    HW128967   3.215   2.851   9.625  0.8067  0.7112  1.3921
 5836SOL    HW228968   3.210   2.716   9.645  1.1042 -1.5362  1.0144
 5837SOL     OW28969   1.930   4.495   3.648 -0.0867  0.0835 -0.7091
 5837SOL    HW128970   1.880   4.557   3.596 -1.6531  0.0323  0.7303
 5837SOL    HW228971   2.007   4.550   3.663  1.0217 -0.8987 -2.8567
 5838SOL     OW28972   3.775   4.045   7.485  0.0280 -0.0476  0.2482
 5838SOL    HW128973   3.758   4.029   7.578 -2.6466 -0.2293 -0.2727
 5838SOL    HW228974   3.871   4.047   7.489  0.1201 -1.7934 -1.1364
 5839SOL     OW28975   2.113   2.095  13.993 -0.4398 -0.1075 -0.2488
 5839SOL    HW128976   2.035   2.043  14.010  0.0816 -0.8002  0.0262
 5839SOL    HW228977   2.090   2.152  13.919 -3.3012 -1.9863 -0.7941
 5840SOL     OW28978   0.370   0.953   7.802  0.6034 -0.1674 -0.0932
 5840SOL    HW128979   0.439   0.937   7.738 -0.0489  0.0835 -0.8632
 5840SOL    HW228980   0.294   0.922   7.752 -0.1990  0.2359  0.8837
 5841SOL     OW28981   1.053   2.360   1.976  0.6590 -0.1225  0.0963
 5841SOL    HW128982   1.030   2.405   2.058  0.3681  0.2336 -0.1808
 5841SOL    HW228983   1.135   2.314   1.993  1.0892  0.5257 -0.2163
 5842SOL     OW28984   1.433   2.323  10.089  0.4022 -0.2837 -0.4017
 5842SOL    HW128985   1.362   2.345  10.028 -0.0193  0.6091  0.4178
 5842SOL    HW228986   1.470   2.256  10.032  2.8886  1.3472 -0.6647
 5843SOL     OW28987   3.122   2.868   6.224 -0.5930 -0.2585 -0.3391
 5843SOL    HW128988   3.074   2.938   6.178 -1.3796 -1.3631 -1.2153
 5843SOL    HW228989   3.183   2.829   6.161  0.0670  2.8877 -1.6483
 5844SOL     OW28990   0.816   1.941   1.466  0.0277  0.1764 -0.4245
 5844SOL    HW128991   0.827   1.968   1.557  0.1237 -0.9334 -0.1061
 5844SOL    HW228992   0.895   1.972   1.422  0.6921  0.3527  0.8740
 5845SOL     OW28993   3.794   2.381   5.262  0.0790 -0.4076  0.2055
 5845SOL    HW128994   3.869   2.434   5.289  0.6854 -2.3125  2.3516
 5845SOL    HW228995   3.729   2.448   5.240  2.9840  2.0729 -0.7237
 5846SOL     OW28996   3.263   3.280   3.755 -0.3837  0.0211  0.4765
 5846SOL    HW128997   3.177   3.244   3.734  0.4389 -0.8498 -1.3905
 5846SOL    HW228998   3.297   3.198   3.789  0.5442  0.3800  0.4026
 5847SOL     OW28999   4.234   3.530   3.790 -0.3232  0.1335  0.4372
 5847SOL    HW129000   4.285   3.459   3.831  1.1847 -1.1329 -3.6018
 5847SOL    HW229001   4.219   3.494   3.703  1.8328  2.0246 -0.7107
 5848SOL     OW29002   1.148   3.997  15.901  0.5474  0.6129 -0.1435
 5848SOL    HW129003   1.176   3.987  15.810 -1.7622 -2.3046 -0.5312
 5848SOL    HW229004   1.115   3.908  15.914  0.5090  0.6417 -0.0477
 5849SOL     OW29005   4.025   2.653  12.919  0.3326 -0.5626  0.3937
 5849SOL    HW129006   3.968   2.729  12.906 -0.8479 -1.4541  0.3481
 5849SOL    HW229007   4.101   2.682  12.868  0.1805 -0.9485 -0.0463
 5850SOL     OW29008   0.742   3.714  12.089 -0.1909 -0.1780 -0.1603
 5850SOL    HW129009   0.699   3.795  12.117  2.3622 -0.2173  3.9081
 5850SOL    HW229010   0.706   3.696  12.002 -1.0914 -0.6726  0.3110
 5851SOL     OW29011   1.917   1.899   3.332 -0.8365 -0.5339 -0.2344
 5851SOL    HW129012   1.887   1.942   3.252  0.6329  1.1061  0.1051
 5851SOL    HW229013   1.997   1.853   3.305 -0.8104 -0.3703 -0.4275
 5852SOL     OW29014   1.774   1.797  11.745  0.1650 -0.4127  0.5865
 5852SOL    HW129015   1.701   1.763  11.798 -1.0050  1.6279  0.3271
 5852SOL    HW229016   1.852   1.780  11.798  0.3141  0.3474  0.6140
 5853SOL     OW29017   2.798   3.102  16.574  0.5098 -0.5830  0.1731
 5853SOL    HW129018   2.861   3.124  16.643  0.1509 -2.0438  0.9767
 5853SOL    HW229019   2.767   3.014  16.598 -0.3375 -0.5364 -0.7567
 5854SOL     OW29020   3.436   4.470   6.565  0.2378  0.0116 -0.2710
 5854SOL    HW129021   3.435   4.480   6.470 -0.9052 -0.0273 -0.2560
 5854SOL    HW229022   3.344   4.485   6.585  0.1166  0.1882 -0.9592
 5855SOL     OW29023   2.742   4.313  15.112  0.4722  0.7275 -0.1011
 5855SOL    HW129024   2.716   4.302  15.020 -0.1090  0.9884  0.0313
 5855SOL    HW229025   2.837   4.322  15.105  0.8371 -3.0878 -0.1702
 5856SOL     OW29026   4.104   4.074   0.001 -0.3738  0.2796  0.3971
 5856SOL    HW129027   4.017   4.111  17.684  0.0127  1.6213  1.4868
 5856SOL    HW229028   4.155   4.124   0.064 -0.0985 -0.5797  0.8661
 5857SOL     OW29029   1.293   1.948   7.036 -0.3579 -0.0463  0.4145
 5857SOL    HW129030   1.257   2.012   6.974 -0.9512 -0.2318  0.5735
 5857SOL    HW229031   1.361   1.998   7.082 -0.3653 -0.4615  0.8656
 5858SOL     OW29032   0.914   0.844   9.436  0.0828  0.1103 -0.0132
 5858SOL    HW129033   0.819   0.839   9.425  0.0640  3.9513 -1.4104
 5858SOL    HW229034   0.930   0.928   9.395  0.6295  0.8547  1.7137
 5859SOL     OW29035   1.826   0.892   4.487 -0.5633 -0.0591 -0.2001
 5859SOL    HW129036   1.907   0.880   4.437  0.0379  0.7232  0.5912
 5859SOL    HW229037   1.852   0.957   4.553  3.6566 -0.5300 -1.3644
 5860SOL     OW29038   4.186   0.104   2.993 -0.2306 -0.1355 -0.0212
 5860SOL    HW129039   4.118   0.170   3.004 -0.0823 -0.1301  0.8278
 5860SOL    HW229040   4.166   0.027   3.046  1.0210 -1.1637 -1.0416
 5861SOL     OW29041   2.660   3.631   2.326  0.3176 -0.4077  0.2804
 5861SOL    HW129042   2.675   3.560   2.263  0.7356 -0.1820  0.1261
 5861SOL    HW229043   2.565   3.635   2.314 -0.0526  0.4435  3.5181
 5862SOL     OW29044   2.238   1.994   3.596  0.2526 -0.1286 -0.1227
 5862SOL    HW129045   2.277   2.060   3.655 -0.4700 -1.2547  1.6005
 5862SOL    HW229046   2.152   2.028   3.574  1.1638  1.4132 -1.3759
 5863SOL     OW29047   1.553   0.077   2.448 -0.6257  0.7360  0.2417
 5863SOL    HW129048   1.484   0.059   2.384 -1.5484  0.7198  1.2374
 5863SOL    HW229049   1.555   4.717   2.494 -0.9474  0.7787  0.3301
 5864SOL     OW29050   4.101   3.414  11.075  1.1599  0.4652 -0.0524
 5864SOL    HW129051   4.185   3.455  11.097  1.0040  0.5175  0.4463
 5864SOL    HW229052   4.039   3.469  11.123 -0.3210  0.6255 -2.1554
 5865SOL     OW29053   1.466   1.206   7.835 -0.0278 -0.3074 -0.2271
 5865SOL    HW129054   1.380   1.180   7.802  0.6608 -2.3377 -0.4237
 5865SOL    HW229055   1.482   1.157   7.916  1.0317  0.7458  0.1858
 5866SOL     OW29056   3.590   0.009  16.916  0.1684  0.3430  0.0787
 5866SOL    HW129057   3.620   0.082  16.863 -0.7578 -0.4685 -1.5783
 5866SOL    HW229058   3.657   0.010  16.984  0.4004 -0.9297 -0.1381
 5867SOL     OW29059   1.342   3.744   3.925  0.6481 -1.0439 -0.2239
 5867SOL    HW129060   1.395   3.787   3.858 -1.9726 -1.6469 -2.6886
 5867SOL    HW229061   1.353   3.652   3.900  0.3022 -1.1490  0.0041
 5868SOL     OW29062   3.738   1.181   4.221 -0.3121  0.2179  0.4773
 5868SOL    HW129063   3.670   1.248   4.220 -0.6874 -0.1476  1.3936
 5868SOL    HW229064   3.674   1.110   4.220  1.2964 -1.2437 -0.5511
 5869SOL     OW29065   1.700   3.872   7.949  0.2396 -0.2968 -0.2193
 5869SOL    HW129066   1.727   3.902   7.863 -1.5860 -0.4082 -0.8398
 5869SOL    HW229067   1.752   3.921   8.013 -0.0897  1.4871 -1.3448
 5870SOL     OW29068   1.132   4.161   8.252 -0.1128 -0.1560  0.4041
 5870SOL    HW129069   1.102   4.153   8.161 -0.9084  1.6267  0.5081
 5870SOL    HW229070   1.162   4.072   8.268 -0.6074 -0.8095 -2.2870
 5871SOL     OW29071   4.378   3.432   2.993  0.4424 -0.8544 -0.0659
 5871SOL    HW129072   4.343   3.461   2.909  0.3272 -1.8942 -0.3873
 5871SOL    HW229073   4.451   3.488   3.019 -1.1726  0.2111  2.0870
 5872SOL     OW29074   0.358   2.963   7.788 -0.1887 -0.2325 -0.2546
 5872SOL    HW129075   0.287   2.936   7.846  1.1332 -2.4607  0.3199
 5872SOL    HW229076   0.426   2.991   7.848 -0.7982  0.7608 -0.0168
 5873SOL     OW29077   2.278   3.807   7.562 -0.3625  0.4936  0.2859
 5873SOL    HW129078   2.303   3.865   7.634  1.4966 -2.0631  1.6874
 5873SOL    HW229079   2.333   3.735   7.591  0.5214 -0.1390 -2.9683
 5874SOL     OW29080   3.542   0.982   4.204 -0.4773  0.0072  0.2564
 5874SOL    HW129081   3.456   1.023   4.203  0.3677  1.7810 -0.4476
 5874SOL    HW229082   3.525   0.929   4.281 -1.4732  0.1644  0.1464
 5875SOL     OW29083   3.498   0.860   8.159 -0.2329  0.0839  0.2073
 5875SOL    HW129084   3.417   0.910   8.145  1.5112  2.5620 -0.9212
 5875SOL    HW229085   3.556   0.917   8.209  0.9230  1.0604 -2.2452
 5876SOL     OW29086   1.095   4.437   2.286  0.6690  0.1939  0.2269
 5876SOL    HW129087   1.028   4.399   2.342  0.8622  1.7818  1.5589
 5876SOL    HW229088   1.071   4.530   2.286  1.2430  0.3456 -2.2130
 5877SOL     OW29089   0.247   2.197   6.272  0.4538  0.3819  0.1664
 5877SOL    HW129090   0.257   2.268   6.335 -1.4171 -1.3340  2.3979
 5877SOL    HW229091   0.234   2.248   6.192  0.6801  0.5833  0.2591
 5878SOL     OW29092   2.513   0.688  13.390 -0.0806  0.0473 -0.1114
 5878SOL    HW129093   2.467   0.703  13.307  0.0592 -1.6193 -0.5016
 5878SOL    HW229094   2.587   0.747  13.377 -0.9966  1.3313  0.4824
 5879SOL     OW29095   4.133   0.922   2.790  0.2072  0.3329  0.1569
 5879SOL    HW129096   4.067   0.990   2.796 -0.7660 -0.4409 -2.0604
 5879SOL    HW229097   4.129   0.879   2.876 -2.7210 -0.2252 -0.2750
 5880SOL     OW29098   3.929   4.454   4.656 -0.0934 -0.0811 -0.4017
 5880SOL    HW129099   3.953   4.508   4.581 -3.5240  0.2873 -1.2318
 5880SOL    HW229100   3.854   4.500   4.694 -1.2583 -1.2948 -1.2438
 5881SOL     OW29101   4.573   1.498   5.706 -0.3268  0.2280 -0.0334
 5881SOL    HW129102   4.532   1.414   5.684 -1.7681  1.4233 -1.8457
 5881SOL    HW229103   4.607   1.526   5.621  1.6957  1.1449  1.0886
 5882SOL     OW29104   1.006   0.972  12.427  0.4903 -0.3223  0.5394
 5882SOL    HW129105   1.043   0.989  12.514 -0.4186  1.0872  0.6504
 5882SOL    HW229106   1.070   0.913  12.387 -1.7067 -1.9954 -0.5142
 5883SOL     OW29107   2.934   2.658   6.192  0.1952 -0.0449  0.0338
 5883SOL    HW129108   2.957   2.578   6.238 -0.2500  1.2865  2.5398
 5883SOL    HW229109   2.992   2.725   6.227  0.0460  0.4218 -0.6159
 5884SOL     OW29110   4.049   0.370  14.691 -0.2263  0.4049  0.4069
 5884SOL    HW129111   4.011   0.301  14.745 -0.5626  1.3685  1.4095
 5884SOL    HW229112   4.021   0.440  14.749  1.0481  1.8187 -0.6721
 5885SOL     OW29113   2.282   4.359  12.250 -0.0527  0.4042  0.0271
 5885SOL    HW129114   2.267   4.382  12.159  0.4943 -2.0066 -0.6808
 5885SOL    HW229115   2.230   4.280  12.262 -0.1427  0.5873  0.8746
 5886SOL     OW29116   3.622   3.732   2.222 -0.3309 -0.1194 -0.6033
 5886SOL    HW129117   3.662   3.713   2.137  0.6052  2.3221 -0.6971
 5886SOL    HW229118   3.697   3.764   2.272  0.8741 -4.4151  0.3402
 5887SOL     OW29119   4.461   1.454   6.034 -0.3938  0.0334  0.1216
 5887SOL    HW129120   4.505   1.391   5.977 -2.4287 -0.7952 -0.5597
 5887SOL    HW229121   4.532   1.487   6.089 -0.3257  0.4285 -0.2007
 5888SOL     OW29122   0.182   2.275   9.110 -0.0936 -0.0513  0.1702
 5888SOL    HW129123   0.274   2.254   9.127  0.3758  1.2245 -0.7069
 5888SOL    HW229124   0.144   2.222   9.179  0.6036  1.8279  2.0127
 5889SOL     OW29125   0.586   4.160   5.737 -0.0507 -0.0213 -0.2299
 5889SOL    HW129126   0.550   4.156   5.648 -0.6696 -1.4085  0.0844
 5889SOL    HW229127   0.501   4.168   5.781  0.3009  1.1034  0.2456
 5890SOL     OW29128   3.694   3.151   2.289 -0.4274  1.0589  0.2977
 5890SOL    HW129129   3.624   3.177   2.348 -0.5082 -1.5953  1.3854
 5890SOL    HW229130   3.672   3.060   2.270  2.8098  0.0038  1.4969
 5891SOL     OW29131   1.184   0.224   3.322 -0.3427 -0.4978 -0.5230
 5891SOL    HW129132   1.148   0.231   3.234 -2.0482  0.5331  0.2448
 5891SOL    HW229133   1.148   0.139   3.349  0.5489 -0.5862  0.3867
 5892SOL     OW29134   3.640   3.783  10.124 -0.2431 -0.1616 -0.0958
 5892SOL    HW129135   3.698   3.781  10.200 -1.6315 -0.4380  0.9387
 5892SOL    HW229136   3.561   3.816  10.166  1.2644  0.9706  1.8693
 5893SOL     OW29137   4.486   3.763   0.344  0.1996 -0.6931 -0.3489
 5893SOL    HW129138   4.553   3.696   0.354 -0.4988 -1.4264 -0.5937
 5893SOL    HW229139   4.429   3.743   0.418 -0.9779 -0.1868 -1.1317
 5894SOL     OW29140   4.671   3.847  16.896 -0.1263 -0.0476  0.3942
 5894SOL    HW129141   4.651   3.779  16.961 -0.5594 -0.2696  0.0277
 5894SOL    HW229142   0.033   3.871  16.930 -0.2889  0.3638  0.5153
 5895SOL     OW29143   3.089   0.906   5.332  0.1470  0.0629 -0.3326
 5895SOL    HW129144   3.140   0.930   5.408  1.0852  0.4986 -1.1026
 5895SOL    HW229145   3.001   0.925   5.365  0.7566  1.5984  0.4152
 5896SOL     OW29146   0.394   1.770   1.611  0.1817  0.3626 -0.0115
 5896SOL    HW129147   0.388   1.722   1.529 -1.3256 -0.7608  0.7576
 5896SOL    HW229148   0.301   1.793   1.619  0.1489 -0.0890  0.9955
 5897SOL     OW29149   1.512   0.503   0.701 -0.6237 -0.2905  0.0299
 5897SOL    HW129150   1.429   0.502   0.653 -1.6478 -2.0038  1.8757
 5897SOL    HW229151   1.579   0.492   0.633 -1.8581  2.8331 -1.6497
 5898SOL     OW29152   2.312   0.859   3.593 -0.0112  0.1187  0.3646
 5898SOL    HW129153   2.371   0.878   3.520 -1.0401 -2.7082 -1.1925
 5898SOL    HW229154   2.239   0.903   3.549  0.5939  1.8551  1.0801
 5899SOL     OW29155   1.787   2.257  11.245 -0.6472 -0.2996 -0.0801
 5899SOL    HW129156   1.770   2.242  11.152 -0.8031  0.6244 -0.1925
 5899SOL    HW229157   1.801   2.351  11.249  1.1506 -0.6759  2.7138
 5900SOL     OW29158   4.707   2.059   8.641 -0.0426  0.3102  0.2650
 5900SOL    HW129159   0.063   2.042   8.590 -0.3021  0.9872 -0.3593
 5900SOL    HW229160   0.024   2.074   8.727  0.4457 -0.9175  0.2498
 5901SOL     OW29161   3.502   4.209   5.108  0.4446  0.0124 -0.4836
 5901SOL    HW129162   3.432   4.207   5.042  1.9741  0.4102 -2.1388
 5901SOL    HW229163   3.469   4.254   5.185 -1.6298  2.0847 -2.5729
 5902SOL     OW29164   3.663   1.795   0.096  0.2086 -0.0286  0.3139
 5902SOL    HW129165   3.675   1.761   0.184 -2.7502 -4.3237 -0.9682
 5902SOL    HW229166   3.573   1.768   0.079 -0.1988  0.7057  1.3316
 5903SOL     OW29167   3.148   0.571  16.015 -0.4877 -0.0151 -0.3913
 5903SOL    HW129168   3.118   0.650  15.970 -0.5897 -0.2456 -0.7221
 5903SOL    HW229169   3.087   0.500  15.998 -1.2729 -0.2385  3.1931
 5904SOL     OW29170   0.476   3.316   6.017  0.1179 -0.2938  0.0066
 5904SOL    HW129171   0.530   3.290   6.092  0.5600 -0.3630 -0.3359
 5904SOL    HW229172   0.443   3.395   6.059 -0.3422 -0.4567 -0.0548
 5905SOL     OW29173   1.397   0.021  11.624  0.0790 -0.0872 -0.8182
 5905SOL    HW129174   1.337   4.723  11.695  0.5067  3.0710  0.5169
 5905SOL    HW229175   1.398   4.663  11.575 -2.4815 -0.6008 -0.0315
 5906SOL     OW29176   0.741   0.702   4.058  0.4912 -0.1771  0.1858
 5906SOL    HW129177   0.650   0.673   4.055  0.6462 -0.4151 -2.0051
 5906SOL    HW229178   0.781   0.663   3.980  1.4504  0.4807  0.3525
 5907SOL     OW29179   0.272   3.487   4.957 -0.5063 -0.0683  0.2511
 5907SOL    HW129180   0.259   3.511   4.865  1.0195  1.8551  0.5252
 5907SOL    HW229181   0.189   3.447   4.982 -0.5652  1.4007  2.4065
 5908SOL     OW29182   3.201   2.202  15.295  0.0618 -0.3738 -0.1955
 5908SOL    HW129183   3.219   2.287  15.255  2.1486 -1.9895 -2.7003
 5908SOL    HW229184   3.253   2.215  15.375 -0.8413 -1.4145  0.5674
 5909SOL     OW29185   1.871   3.106   4.037  0.6920  0.6548  0.3136
 5909SOL    HW129186   1.812   3.146   3.974 -0.1258  1.4575  1.6145
 5909SOL    HW229187   1.956   3.132   4.000  0.4069  1.5482  0.3069
 5910SOL     OW29188   0.333   2.735   2.187  0.1749  0.4826  0.2015
 5910SOL    HW129189   0.294   2.648   2.195  0.0973  0.7504  2.5969
 5910SOL    HW229190   0.269   2.780   2.131 -0.0576  0.5746  0.5423
 5911SOL     OW29191   0.593   1.330   2.972 -0.1970 -0.3254 -0.2570
 5911SOL    HW129192   0.618   1.238   2.974  1.9660  0.2209 -1.4972
 5911SOL    HW229193   0.673   1.354   2.926  1.0963 -0.3749  1.9676
 5912SOL     OW29194   4.117   4.100   8.001  0.8303  0.6372  0.1033
 5912SOL    HW129195   4.143   4.133   8.087  3.7178  2.2265 -1.3640
 5912SOL    HW229196   4.059   4.170   7.970 -1.8575 -2.5063 -2.0031
 5913SOL     OW29197   2.005   0.049   5.578  0.6021 -0.6540 -0.3850
 5913SOL    HW129198   1.984   0.141   5.590 -1.0883 -1.0761 -0.1507
 5913SOL    HW229199   1.941   0.019   5.513  1.2159 -1.6486 -0.5360
 5914SOL     OW29200   2.093   0.152   4.633  0.2107  0.0694  0.5276
 5914SOL    HW129201   2.156   0.179   4.700  0.2458  1.9367 -0.2374
 5914SOL    HW229202   2.147   0.148   4.554 -2.4416  1.9888 -1.4275
 5915SOL     OW29203   1.353   2.167  15.849 -0.6681  0.1148 -0.0307
 5915SOL    HW129204   1.272   2.214  15.833 -0.7157 -0.5749 -1.7717
 5915SOL    HW229205   1.340   2.108  15.775  2.6763 -2.0674  1.0754
 5916SOL     OW29206   0.737   0.593   3.775  0.2601 -0.2415  0.3782
 5916SOL    HW129207   0.669   0.660   3.764  0.3874 -0.0614  0.6939
 5916SOL    HW229208   0.734   0.570   3.682 -0.6361 -0.5978  0.4985
 5917SOL     OW29209   2.036   2.714   7.595 -0.5585  0.2753 -0.3121
 5917SOL    HW129210   1.965   2.756   7.643  0.9845  0.2302  1.9840
 5917SOL    HW229211   2.111   2.767   7.621 -0.6841  0.5039 -0.4155
 5918SOL     OW29212   2.104   3.231  12.840  0.3046  0.1004 -0.4087
 5918SOL    HW129213   2.045   3.170  12.797 -1.2406  0.9991  0.4453
 5918SOL    HW229214   2.090   3.206  12.932 -1.7298 -3.6347 -1.7864
 5919SOL     OW29215   0.171   0.608  15.797 -0.1221  0.1120 -0.1390
 5919SOL    HW129216   0.096   0.666  15.811 -1.1298 -1.0419 -0.7186
 5919SOL    HW229217   0.227   0.673  15.756 -0.6522  0.6138 -0.0637
 5920SOL     OW29218   2.003   3.305   8.597  0.5024  0.1995  0.9610
 5920SOL    HW129219   1.910   3.324   8.589  0.2151 -0.7217  1.9526
 5920SOL    HW229220   2.021   3.325   8.689  1.8456 -1.4442  1.0731
 5921SOL     OW29221   0.411   1.675  12.396 -0.3673  0.2782  0.1714
 5921SOL    HW129222   0.500   1.643  12.381 -0.3922  0.6815 -0.8647
 5921SOL    HW229223   0.389   1.720  12.314  0.2146 -1.6955 -1.0756
 5922SOL     OW29224   3.959   2.477   8.942 -0.8448  0.0380  0.4961
 5922SOL    HW129225   3.942   2.549   8.881 -1.7979 -0.7862 -0.2053
 5922SOL    HW229226   3.874   2.453   8.976 -1.0881  0.3002  0.0765
 5923SOL     OW29227   3.760   2.491   0.293 -0.3126  0.4446 -0.0310
 5923SOL    HW129228   3.765   2.561   0.358 -0.5002  1.1953 -0.8224
 5923SOL    HW229229   3.708   2.426   0.339  0.3634  0.7802  1.1945
 5924SOL     OW29230   4.008   3.884   1.572 -0.0658 -0.2133 -0.0176
 5924SOL    HW129231   4.066   3.955   1.545  0.2223 -0.0092  1.1559
 5924SOL    HW229232   4.073   3.822   1.605 -1.2476 -0.4384  1.8692
 5925SOL     OW29233   2.630   2.244   4.971 -0.2353 -0.0975  0.1287
 5925SOL    HW129234   2.724   2.247   4.991 -0.9819 -0.6742  3.7779
 5925SOL    HW229235   2.634   2.230   4.876  1.3069 -1.2903  0.3739
 5926SOL     OW29236   2.618   0.325  14.071  0.1026  0.4192 -0.1877
 5926SOL    HW129237   2.649   0.301  13.984  1.1071 -1.0628  0.5732
 5926SOL    HW229238   2.580   0.408  14.042  1.6830  1.1016 -0.3068
 5927SOL     OW29239   0.997   0.681   8.178 -0.1411 -0.8081 -0.5380
 5927SOL    HW129240   1.028   0.721   8.260 -0.7744  1.5120 -1.4463
 5927SOL    HW229241   0.905   0.685   8.202 -0.0262 -0.4173 -0.1716
 5928SOL     OW29242   4.143   2.704   7.311 -0.2132  0.2568 -0.0193
 5928SOL    HW129243   4.200   2.708   7.235 -1.1994  1.3061 -0.7064
 5928SOL    HW229244   4.161   2.792   7.345  2.2446 -0.4286  0.4263
 5929SOL     OW29245   0.161   3.259   8.099  0.1220 -0.4485 -0.1633
 5929SOL    HW129246   0.248   3.285   8.129  0.6866 -1.3023 -1.0387
 5929SOL    HW229247   0.139   3.325   8.034 -2.7969  0.1546  1.4153
 5930SOL     OW29248   3.179   0.003   8.393 -0.2904 -0.1214  0.2010
 5930SOL    HW129249   3.259   0.055   8.383  1.4238 -2.6597  0.5464
 5930SOL    HW229250   3.133   0.029   8.473 -0.1585 -2.1365  0.9410
 5931SOL     OW29251   2.551   4.653   7.753 -0.6729 -0.3143  0.2650
 5931SOL    HW129252   2.470   4.667   7.704  0.8011  3.9819 -0.8713
 5931SOL    HW229253   2.584   4.575   7.707 -0.8238  0.2381 -0.7823
 5932SOL     OW29254   1.793   0.988   4.011  0.2976 -0.1663 -0.0112
 5932SOL    HW129255   1.868   1.043   3.989 -0.3875  0.3237 -1.1489
 5932SOL    HW229256   1.762   0.970   3.922 -1.5656 -0.3790  0.6818
 5933SOL     OW29257   2.561   2.641  14.965 -0.3327  0.4736 -0.1454
 5933SOL    HW129258   2.595   2.661  15.053  2.0044 -1.4811 -0.6091
 5933SOL    HW229259   2.467   2.653  14.980  0.1765  0.4624  3.0965
 5934SOL     OW29260   2.452   1.305   3.553  0.1420 -0.3350  0.3281
 5934SOL    HW129261   2.455   1.274   3.463  2.5285 -0.6461  0.5113
 5934SOL    HW229262   2.413   1.390   3.531 -2.0029 -1.5971 -0.7864
 5935SOL     OW29263   3.275   1.079  14.046  0.3647 -0.2739  0.9154
 5935SOL    HW129264   3.359   1.051  14.010  0.7847  3.0232 -0.6886
 5935SOL    HW229265   3.226   1.051  13.969 -0.1835 -0.2659  1.2660
 5936SOL     OW29266   3.705   3.742   2.597 -0.3350  0.3643 -0.4160
 5936SOL    HW129267   3.696   3.687   2.675  0.2328  0.4858 -0.2671
 5936SOL    HW229268   3.799   3.758   2.591 -0.5444  1.4100 -0.8873
 5937SOL     OW29269   4.155   4.458   6.875  0.3625 -0.3079  0.4531
 5937SOL    HW129270   4.167   4.364   6.887 -1.8617 -0.5949  0.3331
 5937SOL    HW229271   4.067   4.468   6.838  0.3961 -1.2252  0.1155
 5938SOL     OW29272   4.010   1.417   3.741  0.3752  0.0590 -0.3745
 5938SOL    HW129273   4.104   1.435   3.732 -0.0620  2.6293  0.1633
 5938SOL    HW229274   3.985   1.400   3.650 -0.0026 -0.2225 -0.2141
 5939SOL     OW29275   1.043   2.119   3.486  0.5302  0.0805 -0.2723
 5939SOL    HW129276   1.037   2.055   3.557 -0.4945  1.3237  0.7436
 5939SOL    HW229277   1.090   2.193   3.522 -1.0965 -0.1522  2.3293
 5940SOL     OW29278   3.403   1.321   2.909  0.2497 -0.6615  0.3552
 5940SOL    HW129279   3.373   1.334   2.819 -0.0849  0.2237  0.5963
 5940SOL    HW229280   3.385   1.227   2.919  1.1635 -0.8861 -0.1609
 5941SOL     OW29281   1.959   0.403   2.725 -0.2338  0.0331 -0.3081
 5941SOL    HW129282   1.921   0.470   2.668  0.7654  0.5264 -0.4013
 5941SOL    HW229283   1.981   0.337   2.659  1.3781  1.8112 -1.5499
 5942SOL     OW29284   1.184   4.505  17.554 -0.1672 -0.1648  0.9249
 5942SOL    HW129285   1.196   4.411  17.542  0.7293  0.4986 -3.5160
 5942SOL    HW229286   1.105   4.520  17.502  0.2501  1.5326  0.7848
 5943SOL     OW29287   1.606   2.352  16.788  0.0066 -0.4209 -0.5414
 5943SOL    HW129288   1.520   2.370  16.827 -0.7849 -1.2414 -1.9292
 5943SOL    HW229289   1.629   2.438  16.753  1.2920  0.6013  2.7955
 5944SOL     OW29290   2.996   2.934   3.285 -0.3654 -0.1741  0.4043
 5944SOL    HW129291   2.942   2.987   3.226  0.5322 -1.4580 -1.5489
 5944SOL    HW229292   2.963   2.846   3.272 -0.0016  0.1025 -2.3468
 5945SOL     OW29293   1.035   2.063   7.553 -0.1262 -0.1206  0.2510
 5945SOL    HW129294   1.057   2.032   7.641 -1.4022 -0.0898  0.5810
 5945SOL    HW229295   0.962   2.123   7.569 -0.5905 -0.9606  1.3092
 5946SOL     OW29296   2.497   1.404   8.579  0.4322 -0.3017  0.4822
 5946SOL    HW129297   2.540   1.437   8.658  0.1438  0.9820  0.0979
 5946SOL    HW229298   2.408   1.386   8.608  1.2704 -2.3492  1.8493
 5947SOL     OW29299   2.554   4.492   8.754  0.6124 -0.4163  0.2153
 5947SOL    HW129300   2.489   4.426   8.729  0.0491  0.4687 -0.6151
 5947SOL    HW229301   2.506   4.567   8.719  0.7658  0.3078  1.5824
 5948SOL     OW29302   1.552   2.585  13.160  0.0529  0.0379  0.5841
 5948SOL    HW129303   1.566   2.584  13.065 -1.6695 -0.5706  0.3301
 5948SOL    HW229304   1.644   2.576  13.182 -0.5660  0.2842  3.3457
 5949SOL     OW29305   2.728   1.749   6.929  0.2488  0.5100  0.5683
 5949SOL    HW129306   2.746   1.842   6.915 -0.0379  0.2309 -1.6008
 5949SOL    HW229307   2.759   1.714   6.846 -1.2408  0.0386  0.2131
 5950SOL     OW29308   0.477   1.738   8.595 -0.2470 -0.0890  0.0321
 5950SOL    HW129309   0.420   1.801   8.639  0.5408 -0.9912  2.3179
 5950SOL    HW229310   0.560   1.769   8.631 -0.7981  0.2027  1.0644
 5951SOL     OW29311   2.236   2.719   2.751  0.0844 -0.8804 -0.0625
 5951SOL    HW129312   2.187   2.762   2.822  1.0228 -0.0843  0.0967
 5951SOL    HW229313   2.185   2.639   2.740 -0.4217 -0.5294 -0.3004
 5952SOL     OW29314   4.715   0.306  10.970 -0.3490 -0.1662  0.4432
 5952SOL    HW129315   0.055   0.251  10.924 -1.0337 -0.3195 -0.3295
 5952SOL    HW229316   4.703   0.269  11.058  0.1138  0.3158  0.7129
 5953SOL     OW29317   1.260   1.065  16.432  0.0012 -0.2329 -0.7405
 5953SOL    HW129318   1.282   1.158  16.435 -2.5535  0.4076 -1.7305
 5953SOL    HW229319   1.222   1.046  16.518 -0.7758 -1.2479 -1.3051
 5954SOL     OW29320   0.273   2.321   6.987  0.0760 -0.6155 -0.0248
 5954SOL    HW129321   0.298   2.413   6.976 -0.0910 -0.7150 -1.1821
 5954SOL    HW229322   0.300   2.319   7.079  0.2565  0.1793 -0.0579
 5955SOL     OW29323   3.574   0.066   3.714 -0.3977  0.0851  0.2453
 5955SOL    HW129324   3.654   0.078   3.662 -0.7241 -2.4800 -0.8825
 5955SOL    HW229325   3.597   0.121   3.788  1.6119 -0.9648  0.4022
 5956SOL     OW29326   0.490   3.835  15.906 -0.2611 -0.2094 -0.0319
 5956SOL    HW129327   0.472   3.749  15.868 -0.7590 -0.2927  0.3892
 5956SOL    HW229328   0.451   3.823  15.993  0.3383 -1.5654  0.0516
 5957SOL     OW29329   3.781   2.535   7.675  0.1429  0.2756 -0.6917
 5957SOL    HW129330   3.788   2.545   7.770 -0.9676  2.9608 -0.9022
 5957SOL    HW229331   3.802   2.620   7.639  0.4036 -0.7357 -2.8979
 5958SOL     OW29332   4.163   1.991  15.062  0.9838 -0.1247  0.3840
 5958SOL    HW129333   4.169   1.907  15.108 -0.7301  0.6419  1.9602
 5958SOL    HW229334   4.112   2.039  15.126  0.6809  1.2953 -0.9314
 5959SOL     OW29335   2.614   4.521  11.437  0.3402 -0.0346  0.3836
 5959SOL    HW129336   2.687   4.461  11.448 -0.2644 -0.6532  0.9918
 5959SOL    HW229337   2.653   4.607  11.454 -1.4156  0.7355  0.5882
 5960SOL     OW29338   3.765   2.451   3.456 -0.3398  0.0025  0.4713
 5960SOL    HW129339   3.705   2.461   3.382  0.3613 -0.6147 -0.1683
 5960SOL    HW229340   3.820   2.377   3.433 -0.5488  0.7271 -2.3395
 5961SOL     OW29341   2.640   2.528   1.762 -0.1989 -0.8680 -0.2107
 5961SOL    HW129342   2.658   2.599   1.824 -1.5379  1.6531 -2.7440
 5961SOL    HW229343   2.728   2.525   1.723 -0.0148 -2.5024  0.3027
 5962SOL     OW29344   2.288   2.145   7.876  0.4536  0.0371  0.5130
 5962SOL    HW129345   2.358   2.082   7.892  1.1968  0.1496 -2.3888
 5962SOL    HW229346   2.285   2.197   7.957  0.0101 -0.1992  0.6514
 5963SOL     OW29347   1.313   4.637   0.066 -0.2193  0.0929  0.2822
 5963SOL    HW129348   1.290   4.590  17.684  1.2354  1.2971 -0.8426
 5963SOL    HW229349   1.393   4.666   0.023 -0.8444  1.2321 -0.1145
 5964SOL     OW29350   0.085   0.641   8.811 -0.1799  0.0527 -0.3571
 5964SOL    HW129351   0.097   0.594   8.894  0.7058  2.3984  0.8630
 5964SOL    HW229352   0.074   0.732   8.837  3.0246 -0.7743  3.9115
 5965SOL     OW29353   3.395   3.381   9.336 -0.5834 -0.1288 -0.3345
 5965SOL    HW129354   3.329   3.392   9.404  0.6856  1.1309  0.6815
 5965SOL    HW229355   3.423   3.469   9.313 -0.4669  0.0045  0.3364
 5966SOL     OW29356   3.026   3.877   5.531 -0.2996  0.0739 -0.2591
 5966SOL    HW129357   2.986   3.963   5.519 -2.8247 -0.8241  1.5567
 5966SOL    HW229358   3.012   3.841   5.443  1.0180 -0.5147 -0.2284
 5967SOL     OW29359   1.171   3.476  13.644  0.1922  0.1367 -0.8179
 5967SOL    HW129360   1.234   3.405  13.630 -0.2800 -0.3664 -0.3996
 5967SOL    HW229361   1.185   3.545  13.580  1.0907  1.1445  0.4881
 5968SOL     OW29362   0.683   2.721   4.582 -0.6613  0.1361 -0.3381
 5968SOL    HW129363   0.657   2.787   4.518 -0.4601 -0.3060 -0.8829
 5968SOL    HW229364   0.659   2.770   4.661 -2.5484 -0.9964 -0.2132
 5969SOL     OW29365   3.594   1.976   5.332  0.0342 -0.1400 -0.0262
 5969SOL    HW129366   3.637   2.059   5.352  0.4931 -0.7159  1.3796
 5969SOL    HW229367   3.673   1.934   5.296 -0.0934  0.2339 -0.7490
 5970SOL     OW29368   3.572   0.233   6.973  0.1201  0.1396 -0.2083
 5970SOL    HW129369   3.572   0.138   6.976  0.3834  0.1327 -0.4674
 5970SOL    HW229370   3.618   0.259   6.893 -2.4241 -1.7896 -2.2655
 5971SOL     OW29371   3.490   3.353   2.771  0.2549  0.3923  0.1851
 5971SOL    HW129372   3.421   3.313   2.825  1.3905 -4.6879 -2.1321
 5971SOL    HW229373   3.437   3.393   2.702 -2.0337 -1.3175  0.9564
 5972SOL     OW29374   2.220   2.197   8.151 -0.5659 -0.2428 -0.3855
 5972SOL    HW129375   2.129   2.171   8.169 -0.5172  0.8747  1.3669
 5972SOL    HW229376   2.242   2.202   8.244  1.1250 -2.8660 -0.6483
 5973SOL     OW29377   1.666   3.945   3.051  0.0565 -0.1480 -0.1932
 5973SOL    HW129378   1.703   3.958   2.964 -2.2716  0.7291 -1.0589
 5973SOL    HW229379   1.592   3.885   3.038 -1.1951  1.3846 -0.0983
 5974SOL     OW29380   4.703   3.183   4.934  0.1932  0.1913  0.6823
 5974SOL    HW129381   4.624   3.129   4.943 -0.0136  0.1639 -1.1141
 5974SOL    HW229382   4.687   3.229   4.851  0.7013  2.1220  1.6611
 5975SOL     OW29383   1.809   3.276   5.838 -0.3214  0.5018  0.2224
 5975SOL    HW129384   1.734   3.246   5.786 -1.0943  1.5980  0.7053
 5975SOL    HW229385   1.769   3.269   5.925  0.5139  0.5463  0.6057
 5976SOL     OW29386   3.120   2.263   8.719  0.0041 -0.5500 -0.0802
 5976SOL    HW129387   3.149   2.183   8.674  0.0761 -0.0944 -0.8351
 5976SOL    HW229388   3.099   2.322   8.647  2.0381 -1.7287 -1.6430
 5977SOL     OW29389   2.671   4.381   5.032  0.2277  0.1145  0.0827
 5977SOL    HW129390   2.740   4.375   5.098 -0.3847  0.4905  0.7459
 5977SOL    HW229391   2.624   4.459   5.060  0.8947  0.1739  1.0477
 5978SOL     OW29392   3.008   2.872   8.530  0.3162  0.1229 -0.6224
 5978SOL    HW129393   3.050   2.946   8.488  1.3182 -0.6835 -1.0293
 5978SOL    HW229394   2.915   2.882   8.510  0.0611  0.3398  0.6448
 5979SOL     OW29395   3.318   1.186   6.482  0.3054 -0.0423 -0.5389
 5979SOL    HW129396   3.403   1.230   6.484  0.1830  0.1742 -0.2618
 5979SOL    HW229397   3.346   1.112   6.428 -0.1543 -0.9748  0.5225
 5980SOL     OW29398   0.486   0.536   2.850  0.2746  0.4823 -0.0796
 5980SOL    HW129399   0.545   0.489   2.792 -1.2403 -1.7550  0.1722
 5980SOL    HW229400   0.399   0.510   2.820 -0.9272  4.5591 -0.0724
 5981SOL     OW29401   3.311   4.713   0.926  0.1655 -0.2667 -0.5194
 5981SOL    HW129402   3.275   0.001   1.014 -0.8484 -2.6816 -0.6228
 5981SOL    HW229403   3.384   4.655   0.948 -0.4490 -0.7771  0.1684
 5982SOL     OW29404   0.915   2.064   8.900  0.8620 -0.0298  0.1995
 5982SOL    HW129405   0.875   2.150   8.914  1.0836  0.0033  0.6081
 5982SOL    HW229406   1.000   2.077   8.941  0.6507 -0.8146  0.8733
 5983SOL     OW29407   2.346   2.480   6.695  0.3599 -0.3456  0.1945
 5983SOL    HW129408   2.276   2.425   6.659  0.8263 -0.6701 -0.2019
 5983SOL    HW229409   2.305   2.566   6.691 -1.3692 -1.2095 -0.8797
 5984SOL     OW29410   2.273   2.356   3.379  0.0426 -0.2868 -0.2538
 5984SOL    HW129411   2.253   2.404   3.299 -1.5261 -0.6079 -0.0467
 5984SOL    HW229412   2.232   2.272   3.358  2.6888 -1.5607 -0.2987
 5985SOL     OW29413   2.656   0.255   1.892  0.5015  0.4809 -0.2818
 5985SOL    HW129414   2.581   0.196   1.882  1.7931 -1.8951  4.2455
 5985SOL    HW229415   2.730   0.196   1.882 -0.6440 -0.9774 -0.0722
 5986SOL     OW29416   0.165   1.120   6.702  0.0185 -0.7116 -0.4421
 5986SOL    HW129417   0.124   1.097   6.619 -0.1191  0.5592 -0.7245
 5986SOL    HW229418   0.195   1.038   6.741  0.1284 -0.4745 -0.0245
 5987SOL     OW29419   2.797   4.261   3.080  0.2767  0.3946  0.6463
 5987SOL    HW129420   2.824   4.351   3.061 -1.7438  0.8464 -0.1106
 5987SOL    HW229421   2.702   4.258   3.069  0.2509 -0.5762  1.1857
 5988SOL     OW29422   0.431   0.313   3.281 -0.1159  0.4898  0.4205
 5988SOL    HW129423   0.500   0.331   3.345  0.5355  5.5129 -1.7059
 5988SOL    HW229424   0.442   0.391   3.226  0.0787  0.5291  0.5154
 5989SOL     OW29425   1.276   1.377   2.245 -0.4411  0.3429 -0.1536
 5989SOL    HW129426   1.241   1.317   2.310 -0.2923 -0.1368 -0.5186
 5989SOL    HW229427   1.276   1.455   2.301  1.2649  0.4607 -0.3309
 5990SOL     OW29428   2.061   1.836   5.237 -0.3313 -0.3930  0.2317
 5990SOL    HW129429   2.085   1.863   5.326  2.7350 -1.6337 -0.2197
 5990SOL    HW229430   2.132   1.774   5.222  1.2808  1.1055  1.6664
 5991SOL     OW29431   2.709   3.095   8.084  0.2526 -0.3781 -0.2462
 5991SOL    HW129432   2.682   3.073   8.174 -1.3543  2.2331 -0.1022
 5991SOL    HW229433   2.785   3.151   8.100  0.3736 -1.4598  3.0640
 5992SOL     OW29434   2.756   3.687  16.655 -0.1531  0.3144 -1.0821
 5992SOL    HW129435   2.708   3.718  16.732 -2.0238 -0.5892 -1.8661
 5992SOL    HW229436   2.786   3.600  16.681 -1.7577 -0.2022 -0.9152
 5993SOL     OW29437   0.210   1.420   6.672 -0.1119  0.0237 -0.3614
 5993SOL    HW129438   0.190   1.434   6.764  0.0484 -0.1907 -0.2914
 5993SOL    HW229439   0.201   1.324   6.671  0.6358 -0.0384 -1.6875
 5994SOL     OW29440   3.925   2.421  13.040  0.2605 -0.2942 -0.8963
 5994SOL    HW129441   4.009   2.419  12.993  1.9242 -0.9060  2.0927
 5994SOL    HW229442   3.905   2.510  13.009  0.1453  0.2264  0.6508
 5995SOL     OW29443   0.660   4.231  13.639 -0.2010  0.4642  0.1562
 5995SOL    HW129444   0.678   4.245  13.546 -1.0910 -0.5892 -0.1738
 5995SOL    HW229445   0.724   4.292  13.675 -0.3329 -0.4297  1.9318
 5996SOL     OW29446   4.610   0.324   3.897  0.2781 -0.0576 -0.2010
 5996SOL    HW129447   4.629   0.292   3.808  0.0400 -2.5535  0.6288
 5996SOL    HW229448   4.695   0.307   3.937  0.5430 -1.0273 -1.1703
 5997SOL     OW29449   1.159   0.116   5.855 -0.2031  0.2138  0.4572
 5997SOL    HW129450   1.210   0.037   5.871  3.0436  2.5497  1.7627
 5997SOL    HW229451   1.088   0.103   5.918 -0.6980  0.1937 -0.1031
 5998SOL     OW29452   3.282   4.227   8.185 -0.1906  0.7135 -1.0733
 5998SOL    HW129453   3.373   4.232   8.155 -0.0666  0.1331 -0.8102
 5998SOL    HW229454   3.260   4.314   8.219  0.0598 -0.6312  2.5689
 5999SOL     OW29455   2.427   1.804  15.800 -0.0764  0.1135 -0.0143
 5999SOL    HW129456   2.468   1.718  15.793  0.5798  0.1106  3.6321
 5999SOL    HW229457   2.500   1.851  15.760  0.4520 -0.6594  0.0496
 6000SOL     OW29458   3.504   4.696   6.011  0.1083 -0.2339  0.0779
 6000SOL    HW129459   3.497   4.679   6.105 -0.5344 -0.0886  0.0579
 6000SOL    HW229460   3.413   4.687   5.980  1.3123 -1.3484 -3.2176
 6001SOL     OW29461   3.117   1.072  16.225 -0.3525 -0.0404 -0.1752
 6001SOL    HW129462   3.159   0.986  16.229  1.3770  0.8109 -0.0248
 6001SOL    HW229463   3.192   1.127  16.203  0.0396 -0.9766 -1.1791
 6002SOL     OW29464   0.406   2.360   3.511  0.1356 -0.0735  0.4567
 6002SOL    HW129465   0.379   2.370   3.420 -0.1200 -3.6461  0.1161
 6002SOL    HW229466   0.488   2.409   3.512 -0.6276  1.2098 -2.2306
 6003SOL     OW29467   1.964   3.556  13.368  0.3695  0.0814 -0.0361
 6003SOL    HW129468   2.046   3.508  13.379  1.2850  1.0354 -2.4763
 6003SOL    HW229469   1.903   3.489  13.397 -0.7284  1.6669  1.3448
 6004SOL     OW29470   0.960   2.228   5.438  0.3261  0.5115 -0.3070
 6004SOL    HW129471   0.894   2.179   5.487  3.1398 -1.6817  1.3384
 6004SOL    HW229472   1.042   2.178   5.445 -0.4873 -0.7998 -0.1130
 6005SOL     OW29473   3.546   1.933   8.129 -0.0460 -0.6436 -0.2174
 6005SOL    HW129474   3.584   1.922   8.042  0.8251  0.6355  0.0119
 6005SOL    HW229475   3.537   2.028   8.133  1.9645 -0.3740 -2.3765
 6006SOL     OW29476   3.378   1.553  14.722  0.4568 -0.1197 -0.0204
 6006SOL    HW129477   3.301   1.580  14.673 -0.1067 -2.0172 -0.1837
 6006SOL    HW229478   3.403   1.474  14.674  2.4094 -0.2876  1.2473
 6007SOL     OW29479   2.474   4.345  11.301  0.6237  0.1716 -0.1933
 6007SOL    HW129480   2.519   4.418  11.344 -0.0881 -0.4428  1.5929
 6007SOL    HW229481   2.383   4.370  11.289 -0.1510 -2.0417  1.0483
 6008SOL     OW29482   4.357   3.529   2.728  0.5217  1.1554 -0.4240
 6008SOL    HW129483   4.305   3.606   2.706 -1.2873  0.3549  1.1090
 6008SOL    HW229484   4.448   3.561   2.728  1.0792 -0.4567  1.0420
 6009SOL     OW29485   1.440   0.698   4.315  0.5000  0.1394  0.7814
 6009SOL    HW129486   1.492   0.766   4.358  2.6513 -0.3700 -1.0742
 6009SOL    HW229487   1.503   0.627   4.304 -0.6425 -0.3867 -2.3548
 6010SOL     OW29488   2.602   1.226   1.250 -0.0430 -0.6051 -0.3192
 6010SOL    HW129489   2.548   1.202   1.174 -1.2420 -0.2222  0.4042
 6010SOL    HW229490   2.629   1.312   1.220  0.4233 -0.9249 -0.8152
 6011SOL     OW29491   1.043   3.695   3.882 -0.4425  0.4418  0.3570
 6011SOL    HW129492   0.968   3.752   3.896 -0.0481  1.7502 -2.8592
 6011SOL    HW229493   1.119   3.748   3.904 -0.1067 -0.1587  0.6556
 6012SOL     OW29494   4.235   1.104   3.458 -0.2487  0.5436  0.5297
 6012SOL    HW129495   4.156   1.140   3.499 -0.9064 -0.7564  0.4161
 6012SOL    HW229496   4.286   1.184   3.452  1.7070 -0.7082  0.5202
 6013SOL     OW29497   3.592   2.261   2.249  0.2209  0.0724 -0.0766
 6013SOL    HW129498   3.510   2.234   2.209 -0.5332  1.0200  0.8483
 6013SOL    HW229499   3.649   2.276   2.174 -0.0988  1.4857 -0.0438
 6014SOL     OW29500   3.415   4.085   4.421  0.0490  0.1188 -0.3185
 6014SOL    HW129501   3.380   4.156   4.475 -2.3014  0.5679 -2.3793
 6014SOL    HW229502   3.499   4.119   4.392  0.7196 -1.0822  0.2441
 6015SOL     OW29503   3.487   2.470   2.397  0.2476 -0.1777 -0.2497
 6015SOL    HW129504   3.527   2.397   2.349  0.7473  0.5634 -0.9629
 6015SOL    HW229505   3.421   2.413   2.437  0.6232 -0.2983  0.2055
 6016SOL     OW29506   2.603   4.580   0.191  0.4721 -0.2372 -0.1160
 6016SOL    HW129507   2.641   4.592   0.104  1.7717 -1.8233  0.2289
 6016SOL    HW229508   2.671   4.542   0.246  0.9137 -0.4965 -0.8389
 6017SOL     OW29509   3.880   0.067   3.237 -0.0434  0.0835  0.1133
 6017SOL    HW129510   3.932   0.136   3.197  1.6201 -2.0449 -1.3594
 6017SOL    HW229511   3.886   4.720   3.173 -3.0736  0.1794 -0.3015
 6018SOL     OW29512   1.808   2.945   8.171 -0.2490 -0.2484 -0.2324
 6018SOL    HW129513   1.849   2.920   8.088  0.2111 -1.8994  0.4825
 6018SOL    HW229514   1.857   2.884   8.227  2.8395  1.6857 -0.8371
 6019SOL     OW29515   3.958   0.989   4.094 -0.1319 -0.1874 -0.4093
 6019SOL    HW129516   3.987   1.059   4.035  1.3208 -0.3629  0.0845
 6019SOL    HW229517   3.909   1.038   4.160  0.2931  0.6833 -0.7317
 6020SOL     OW29518   4.417   2.532   9.745  0.2556 -0.4218  0.5748
 6020SOL    HW129519   4.479   2.464   9.719  0.2113 -0.4831  0.6305
 6020SOL    HW229520   4.336   2.482   9.743  0.5109 -0.9264  2.3705
 6021SOL     OW29521   4.642   0.821  12.693  0.2629  0.1836  0.1954
 6021SOL    HW129522   4.708   0.763  12.655  0.9579 -0.2795  2.1500
 6021SOL    HW229523   4.575   0.824  12.624  0.3323  2.1482  0.2212
 6022SOL     OW29524   2.066   0.427   7.354 -0.0423  0.1271  0.1815
 6022SOL    HW129525   2.037   0.500   7.300 -3.7177 -0.6896  1.0568
 6022SOL    HW229526   2.115   0.381   7.286  1.7906  1.7511  0.4142
 6023SOL     OW29527   4.521   4.306   5.472 -0.5370  0.1246  0.4420
 6023SOL    HW129528   4.552   4.215   5.472  2.5519  1.1851  0.4530
 6023SOL    HW229529   4.492   4.312   5.381 -0.9731  1.3970  0.6638
 6024SOL     OW29530   3.913   4.351   1.920  0.3966 -0.9192  0.3539
 6024SOL    HW129531   3.967   4.281   1.884  1.3779 -1.0909  2.2006
 6024SOL    HW229532   3.901   4.413   1.847 -1.2120  1.0260  2.2746
 6025SOL     OW29533   0.974   1.160   0.617  0.0912 -0.0593  0.5835
 6025SOL    HW129534   1.024   1.084   0.647 -0.3436 -1.5807 -2.5519
 6025SOL    HW229535   1.019   1.230   0.666  0.2097 -0.2111  0.6928
 6026SOL     OW29536   2.812   3.042   5.813  0.2351 -0.0674 -0.0730
 6026SOL    HW129537   2.902   3.024   5.837 -0.7220 -4.7997 -0.0361
 6026SOL    HW229538   2.799   2.979   5.742  0.9653 -1.7483  1.2855
 6027SOL     OW29539   2.391   0.009   2.444  0.2042  0.3931  0.4666
 6027SOL    HW129540   2.337   0.056   2.380  0.1382 -0.5545 -0.1913
 6027SOL    HW229541   2.473   4.722   2.396 -0.3258 -0.7951 -0.1767
 6028SOL     OW29542   1.505   0.532   8.738  0.6299  0.3786  0.5808
 6028SOL    HW129543   1.574   0.466   8.729  1.1563  0.9970  0.0151
 6028SOL    HW229544   1.470   0.516   8.826  1.5970 -1.1458  0.6764
 6029SOL     OW29545   1.151   0.758  17.564 -0.0031  0.0222  0.2807
 6029SOL    HW129546   1.222   0.816  17.534 -1.0144  1.5499  0.8294
 6029SOL    HW229547   1.206   0.683  17.586 -1.3345 -0.8284  0.6987
 6030SOL     OW29548   1.566   3.604   5.562 -0.2119  0.2384 -0.1354
 6030SOL    HW129549   1.553   3.630   5.470  0.2904 -0.3513 -0.3791
 6030SOL    HW229550   1.500   3.534   5.559 -0.0115  0.0728 -0.8995
 6031SOL     OW29551   0.394   3.145   1.406  0.1367 -0.2534 -0.1745
 6031SOL    HW129552   0.375   3.138   1.500  2.3422 -1.7883  0.1491
 6031SOL    HW229553   0.361   3.059   1.380 -1.0228 -0.0877  0.7426
 6032SOL     OW29554   0.318   2.492   1.096  0.0939 -0.0416 -0.1412
 6032SOL    HW129555   0.314   2.405   1.056  0.1085 -0.1637  0.1267
 6032SOL    HW229556   0.400   2.534   1.069 -1.3856  2.1412 -1.2143
 6033SOL     OW29557   3.176   3.402   9.511 -0.3333  0.6760 -0.0443
 6033SOL    HW129558   3.230   3.353   9.573 -0.5344 -1.2044 -1.3488
 6033SOL    HW229559   3.086   3.379   9.530 -0.7272  0.4099 -2.1651
 6034SOL     OW29560   4.011   1.579  16.743  0.2090 -0.1332 -0.1772
 6034SOL    HW129561   4.010   1.671  16.716  0.7059  0.0864  0.5491
 6034SOL    HW229562   4.040   1.592  16.834 -0.0026 -1.8265  0.1337
 6035SOL     OW29563   2.692   2.697   4.579 -0.3271 -0.9528  1.0877
 6035SOL    HW129564   2.699   2.618   4.632  2.0579 -1.7264 -0.3458
 6035SOL    HW229565   2.625   2.745   4.628 -0.5800  0.2875 -0.4671
 6036SOL     OW29566   1.756   0.294  12.377  0.2042  0.2445 -0.1980
 6036SOL    HW129567   1.760   0.373  12.431 -0.3194 -0.5672  1.0363
 6036SOL    HW229568   1.845   0.298  12.343 -0.3808 -0.7375 -1.9016
 6037SOL     OW29569   4.229   0.445   8.715  0.4293 -0.0144  0.1381
 6037SOL    HW129570   4.198   0.517   8.660 -0.0335 -0.1833  0.1792
 6037SOL    HW229571   4.154   0.388   8.728  0.1699 -0.1815 -2.0516
 6038SOL     OW29572   0.647   2.125  15.912 -0.8084 -0.2019 -0.3276
 6038SOL    HW129573   0.561   2.092  15.885  1.0630 -2.2192 -3.8233
 6038SOL    HW229574   0.654   2.211  15.869 -0.4584 -0.7271 -1.3169
 6039SOL     OW29575   1.917   2.181   3.911 -0.5932  0.4172  0.3721
 6039SOL    HW129576   1.936   2.167   4.004 -0.3638  2.4447  0.6225
 6039SOL    HW229577   1.992   2.236   3.891 -0.3538 -0.4992 -1.2561
 6040SOL     OW29578   3.271   3.446   5.202 -0.0456  0.0166 -0.5692
 6040SOL    HW129579   3.303   3.369   5.155 -1.6948 -1.2094  0.2958
 6040SOL    HW229580   3.207   3.473   5.136 -1.3529 -0.6699  0.3994
 6041SOL     OW29581   4.517   2.544   5.398  0.1791  0.2147 -0.3620
 6041SOL    HW129582   4.518   2.629   5.442  0.7023  0.1395 -0.2352
 6041SOL    HW229583   4.576   2.567   5.326 -0.4361 -2.2073 -1.6171
 6042SOL     OW29584   4.709   4.403   9.639  0.0583  0.8616 -0.1646
 6042SOL    HW129585   4.622   4.442   9.644 -0.6416 -0.7252 -0.0870
 6042SOL    HW229586   4.710   4.368   9.550 -1.1814  0.5853 -0.0683
 6043SOL     OW29587   0.899   3.593   2.381  0.7569 -0.4643 -0.4594
 6043SOL    HW129588   0.856   3.546   2.310 -1.6003  0.1002  0.6107
 6043SOL    HW229589   0.865   3.683   2.377 -0.9225 -1.0239  1.3829
 6044SOL     OW29590   4.315   1.839  12.053 -0.2348 -0.3432 -0.3309
 6044SOL    HW129591   4.224   1.808  12.060 -0.1074 -1.0023 -1.7180
 6044SOL    HW229592   4.307   1.916  12.110 -1.5755 -1.2673  0.7202
 6045SOL     OW29593   4.271   4.066   4.359 -0.8394 -0.3052 -0.0645
 6045SOL    HW129594   4.229   3.980   4.365  0.8213 -1.1906 -0.8913
 6045SOL    HW229595   4.207   4.115   4.307 -0.1601 -0.4756 -1.0762
 6046SOL     OW29596   1.046   0.059  11.710  0.7110 -0.4677 -0.4656
 6046SOL    HW129597   1.097   0.133  11.677 -0.3309 -0.0126 -1.0612
 6046SOL    HW229598   1.111   0.017  11.765  1.4522 -0.0192 -0.9979
 6047SOL     OW29599   0.204   4.027  15.892 -0.4460 -0.2117 -0.2066
 6047SOL    HW129600   0.281   4.022  15.835 -0.1670 -1.7235  0.3130
 6047SOL    HW229601   0.207   4.115  15.930  0.0493 -1.9188  3.6032
 6048SOL     OW29602   0.698   2.356   7.455  0.9310  0.5561  0.1478
 6048SOL    HW129603   0.634   2.420   7.424 -0.4188 -1.0169 -0.3248
 6048SOL    HW229604   0.656   2.271   7.440  0.6288  1.1342 -2.3297
 6049SOL     OW29605   3.319   2.358   4.922  0.4604 -0.2821  0.1006
 6049SOL    HW129606   3.322   2.330   4.831 -0.3513  1.2349 -0.3865
 6049SOL    HW229607   3.263   2.289   4.958  1.3688 -1.7304 -1.2965
 6050SOL     OW29608   4.088   2.242   8.540  0.2456 -0.1971  0.2275
 6050SOL    HW129609   4.094   2.183   8.615  0.3913  1.1581  1.2956
 6050SOL    HW229610   3.997   2.271   8.545 -0.8420 -3.7313  1.0189
 6051SOL     OW29611   4.514   0.634   8.732  0.1187  0.0541 -0.3094
 6051SOL    HW129612   4.577   0.568   8.759  1.0515  0.8909 -0.4304
 6051SOL    HW229613   4.558   0.716   8.756 -0.6128  0.0564  0.9807
 6052SOL     OW29614   1.459   4.617   0.456  0.1902 -0.0584 -0.1303
 6052SOL    HW129615   1.403   4.655   0.389  1.6478 -1.9788 -2.4812
 6052SOL    HW229616   1.530   4.681   0.466  0.5297 -0.8649  2.5527
 6053SOL     OW29617   4.555   2.231   3.059 -0.6327 -0.3042  0.4577
 6053SOL    HW129618   4.621   2.162   3.057 -2.2466 -1.7875 -1.0493
 6053SOL    HW229619   4.587   2.287   2.988 -1.1920 -0.3001  0.2139
 6054SOL     OW29620   0.067   2.199  17.622 -0.2753 -0.2235  0.0826
 6054SOL    HW129621   0.099   2.237   0.006 -0.8973  0.4989 -0.0078
 6054SOL    HW229622   4.714   2.148  17.648 -2.0146  1.2649 -2.1384
 6055SOL     OW29623   0.320   0.132   9.408  0.1306  0.1229 -0.0898
 6055SOL    HW129624   0.309   0.037   9.403 -0.6275  0.1727  0.6897
 6055SOL    HW229625   0.312   0.169   9.320  1.8781 -0.3942 -0.4670
 6056SOL     OW29626   4.489   4.436   8.540 -0.0400 -0.2638 -0.1232
 6056SOL    HW129627   4.440   4.458   8.619 -3.8672 -0.6095 -2.4069
 6056SOL    HW229628   4.421   4.458   8.476 -0.0966 -4.7261 -1.5979
 6057SOL     OW29629   2.966   0.985   3.938 -0.4528  0.4513 -0.0315
 6057SOL    HW129630   2.987   0.992   4.031 -1.6316  0.7776  0.1996
 6057SOL    HW229631   2.945   0.891   3.933 -0.9646  0.6112 -0.8870
 6058SOL     OW29632   1.456   3.771   8.701 -0.7599 -0.1618 -0.2275
 6058SOL    HW129633   1.402   3.705   8.745  0.3222 -1.7706 -1.3500
 6058SOL    HW229634   1.465   3.725   8.618 -2.4628 -1.3412  0.2574
 6059SOL     OW29635   1.151   0.971  10.875  0.3536  0.0715 -0.4399
 6059SOL    HW129636   1.237   0.935  10.854  0.2970  0.1411 -0.7919
 6059SOL    HW229637   1.171   1.064  10.881 -1.2262  0.5104 -1.8236
 6060SOL     OW29638   1.453   3.977  17.008  0.5395 -0.1604  0.4342
 6060SOL    HW129639   1.453   3.955  16.915  0.6483  1.9983 -0.0613
 6060SOL    HW229640   1.437   4.071  17.003  1.1905  0.0275  1.8347
 6061SOL     OW29641   1.604   4.129   5.264 -0.1350  0.1812  0.4748
 6061SOL    HW129642   1.527   4.143   5.320 -0.3826 -1.0382  0.4539
 6061SOL    HW229643   1.557   4.082   5.195  0.7061  2.6134 -1.7232
 6062SOL     OW29644   1.998   2.931  12.348  0.5738  0.5942 -0.5041
 6062SOL    HW129645   1.931   2.985  12.306 -0.6613 -1.2907 -0.9330
 6062SOL    HW229646   2.045   3.000  12.395 -1.5583  0.7533  1.4158
 6063SOL     OW29647   3.061   2.398   3.033  0.2011  0.5643  0.7186
 6063SOL    HW129648   3.135   2.388   3.093  1.8592  1.4487 -1.1903
 6063SOL    HW229649   3.023   2.311   3.033 -1.5808  1.3395  0.2847
 6064SOL     OW29650   2.488   3.510   2.664 -0.0906  1.0030  0.1272
 6064SOL    HW129651   2.491   3.582   2.727 -1.2137  0.4620  0.8069
 6064SOL    HW229652   2.423   3.544   2.603  1.0762 -0.1769 -1.7629
 6065SOL     OW29653   3.676   2.318   4.846 -0.1255 -0.0216  0.2926
 6065SOL    HW129654   3.649   2.409   4.859  2.9400  1.1431 -1.4173
 6065SOL    HW229655   3.772   2.324   4.839 -0.3041  2.2814 -0.1941
 6066SOL     OW29656   0.488   1.829   1.282 -0.0164 -0.3802 -0.0941
 6066SOL    HW129657   0.508   1.812   1.190 -0.5625  1.0420 -0.4768
 6066SOL    HW229658   0.501   1.741   1.319  1.0926 -0.5202 -0.8169
 6067SOL     OW29659   3.713   1.413   5.602 -0.2663 -0.2451 -0.0416
 6067SOL    HW129660   3.641   1.356   5.576  1.4199 -2.5660  0.3578
 6067SOL    HW229661   3.664   1.475   5.657 -1.5125 -0.2492 -1.1599
 6068SOL     OW29662   4.101   0.798   3.748 -0.0520  0.0671 -0.6396
 6068SOL    HW129663   4.014   0.837   3.747  0.0834  0.3722 -0.4511
 6068SOL    HW229664   4.155   0.863   3.794 -1.0308  0.7359 -0.4487
 6069SOL     OW29665   3.338   1.941  13.473 -0.2727 -0.3181 -0.3442
 6069SOL    HW129666   3.385   2.004  13.527  0.8818  0.6648 -2.5282
 6069SOL    HW229667   3.272   1.999  13.435  0.2441  0.6265  0.1870
 6070SOL     OW29668   2.725   0.270  13.821  0.4499 -0.4548  0.1062
 6070SOL    HW129669   2.700   0.215  13.747  2.2650  0.4072 -1.1532
 6070SOL    HW229670   2.769   0.339  13.771 -1.3291  1.5373  1.3031
 6071SOL     OW29671   3.186   2.608   2.284  0.6369 -0.2205  0.4591
 6071SOL    HW129672   3.204   2.688   2.334 -0.4207  0.3696 -0.0878
 6071SOL    HW229673   3.264   2.556   2.302  1.4704  0.9550  0.2348
 6072SOL     OW29674   4.522   2.475   3.517  0.2101 -0.0045  0.4154
 6072SOL    HW129675   4.550   2.424   3.593  1.6278  0.5105  0.2426
 6072SOL    HW229676   4.518   2.407   3.451 -0.2005  0.0182  0.4186
 6073SOL     OW29677   4.650   1.966   0.714 -0.4231  0.5950 -0.2426
 6073SOL    HW129678   4.686   1.878   0.700  1.3518  0.9545  2.1586
 6073SOL    HW229679   4.636   1.954   0.808  0.3205 -1.2326 -0.3673
 6074SOL     OW29680   4.360   2.796   7.591  0.3569 -0.1158 -0.4289
 6074SOL    HW129681   4.401   2.755   7.515  0.8670  0.2376 -0.3415
 6074SOL    HW229682   4.295   2.854   7.551 -1.0142 -1.0545  0.4096
 6075SOL     OW29683   2.293   1.930   5.547 -0.0824 -0.3081 -0.1195
 6075SOL    HW129684   2.274   1.849   5.500  0.2175 -0.3479 -0.1718
 6075SOL    HW229685   2.369   1.963   5.498 -2.2364  0.6986 -2.7948
 6076SOL     OW29686   2.742   0.787   1.864  0.3752  0.0450  0.1942
 6076SOL    HW129687   2.699   0.820   1.785  1.0506 -1.5677 -0.8383
 6076SOL    HW229688   2.832   0.814   1.845  0.7867 -2.3727 -1.2883
 6077SOL     OW29689   1.045   0.670   2.501 -0.0139  0.2770  0.2008
 6077SOL    HW129690   1.116   0.658   2.438 -0.2830 -0.9417  0.1399
 6077SOL    HW229691   1.091   0.677   2.584 -1.1819 -0.0780  0.8736
 6078SOL     OW29692   3.921   4.000   6.027  0.1324 -0.2436 -0.1831
 6078SOL    HW129693   3.928   3.905   6.022 -1.8541 -0.4158  0.2786
 6078SOL    HW229694   3.954   4.012   6.116 -1.5464  0.4604  0.3306
 6079SOL     OW29695   1.833   3.580   0.757  0.0251 -0.2408 -0.1947
 6079SOL    HW129696   1.806   3.511   0.698 -2.3292  0.8182 -0.3412
 6079SOL    HW229697   1.915   3.535   0.777  1.0382  1.0600 -1.4613
 6080SOL     OW29698   3.344   0.285   3.838 -0.0366  0.4005  0.1233
 6080SOL    HW129699   3.347   0.228   3.761  1.4881  0.9971 -0.2601
 6080SOL    HW229700   3.302   0.363   3.804 -0.4524 -0.9542 -2.4018
 6081SOL     OW29701   2.268   0.935   6.682 -0.8161  0.3121 -0.0403
 6081SOL    HW129702   2.294   1.022   6.650 -1.0681  0.1319 -0.7439
 6081SOL    HW229703   2.193   0.967   6.731 -1.2911 -0.6546 -0.1446
 6082SOL     OW29704   1.927   4.611  13.825  0.2823  0.3031  0.0014
 6082SOL    HW129705   1.943   4.528  13.779  2.2020  0.6350  0.0597
 6082SOL    HW229706   1.986   4.598  13.899  1.7361 -0.2542 -1.2651
 6083SOL     OW29707   0.783   2.556   3.241 -0.0429  0.3216 -0.4879
 6083SOL    HW129708   0.777   2.631   3.183  0.0952  1.2682  0.7144
 6083SOL    HW229709   0.879   2.552   3.247  0.0795  0.0493 -2.7467
 6084SOL     OW29710   0.227   1.588   5.483 -0.0351 -0.2084 -0.1145
 6084SOL    HW129711   0.269   1.540   5.555  1.8970  0.7330 -0.6203
 6084SOL    HW229712   0.295   1.606   5.419 -0.6579  0.5688 -0.5633
 6085SOL     OW29713   1.602   2.355   9.812  0.0423  0.1555 -0.9670
 6085SOL    HW129714   1.524   2.351   9.756 -0.3711  0.8860 -0.4404
 6085SOL    HW229715   1.577   2.295   9.882 -0.4314  0.1184 -1.1679
 6086SOL     OW29716   0.678   2.818  11.106 -0.1974  0.3971 -0.2976
 6086SOL    HW129717   0.585   2.793  11.101 -0.4256  0.9855  0.9139
 6086SOL    HW229718   0.716   2.755  11.045  0.8792  0.2882  0.5066
 6087SOL     OW29719   1.085   1.170  14.908 -0.0662 -0.0216  0.2354
 6087SOL    HW129720   1.158   1.150  14.850 -0.7468 -0.9054 -0.3252
 6087SOL    HW229721   1.136   1.200  14.983  0.7955 -0.5086 -0.1525
 6088SOL     OW29722   2.013   2.967   6.467  0.0777  0.3297 -0.0085
 6088SOL    HW129723   2.103   2.956   6.499 -0.4635  0.5528  1.5955
 6088SOL    HW229724   1.986   2.875   6.461 -1.4214  0.9001 -1.8050
 6089SOL     OW29725   2.389   1.359   3.998 -0.3851 -0.5429 -0.1610
 6089SOL    HW129726   2.433   1.313   3.926  0.2915 -1.7439  1.0167
 6089SOL    HW229727   2.346   1.434   3.956 -0.1397 -0.9472 -1.1419
 6090SOL     OW29728   1.651   0.757   5.328 -0.0448  0.8772 -0.0220
 6090SOL    HW129729   1.742   0.785   5.324 -0.3376  1.7887 -0.2459
 6090SOL    HW229730   1.610   0.843   5.336 -0.7915  0.4193  1.0807
 6091SOL     OW29731   2.657   2.067   7.273 -0.2633 -0.2923  0.0266
 6091SOL    HW129732   2.585   2.114   7.316 -1.7706 -0.7383 -2.0007
 6091SOL    HW229733   2.606   1.998   7.231  0.3472 -0.6168 -0.1864
 6092SOL     OW29734   4.201   3.580   9.818  0.5025 -0.8493 -0.6748
 6092SOL    HW129735   4.225   3.644   9.884 -0.8062  0.6612 -1.6645
 6092SOL    HW229736   4.122   3.620   9.781  0.4756  0.7015  1.0897
 6093SOL     OW29737   0.102   0.868  10.563  0.3616 -0.2238 -0.3498
 6093SOL    HW129738   0.094   0.777  10.591 -0.8595  0.4086  1.3564
 6093SOL    HW229739   0.182   0.889  10.610  0.0834 -0.0159  0.0385
 6094SOL     OW29740   0.060   1.113   2.328 -0.3234  0.0434  0.1357
 6094SOL    HW129741   4.722   1.183   2.306 -0.3345 -0.0909 -0.2577
 6094SOL    HW229742   0.141   1.143   2.286  0.5663 -0.2442  1.6511
 6095SOL     OW29743   0.501   1.445   6.062 -0.8805  0.1832 -0.5505
 6095SOL    HW129744   0.452   1.365   6.081  0.2929 -0.3071  0.4001
 6095SOL    HW229745   0.561   1.451   6.136 -1.8462  0.1045  0.2394
 6096SOL     OW29746   1.757   0.983   1.498 -0.1068  0.1207  0.1797
 6096SOL    HW129747   1.720   0.923   1.433  2.6234 -0.0713 -1.1709
 6096SOL    HW229748   1.827   1.020   1.444 -2.2469  1.2084 -1.8668
 6097SOL     OW29749   4.402   1.417  10.949 -0.1904 -0.1445 -0.4380
 6097SOL    HW129750   4.379   1.327  10.973 -0.0183 -0.3187 -0.9223
 6097SOL    HW229751   4.311   1.443  10.936 -0.2579 -1.1866 -2.0587
 6098SOL     OW29752   1.154   2.630   2.936 -0.0123 -0.7960 -0.3135
 6098SOL    HW129753   1.115   2.599   2.854  0.6384 -0.4387 -0.7579
 6098SOL    HW229754   1.129   2.723   2.937 -0.3171 -0.8685 -1.2666
 6099SOL     OW29755   0.943   2.412   8.304 -0.0490 -0.1615  0.1620
 6099SOL    HW129756   0.901   2.483   8.255  1.4349  1.3104  1.0521
 6099SOL    HW229757   0.925   2.451   8.390 -1.6907  0.6855 -0.5577
 6100SOL     OW29758   2.851   0.274   3.466  0.6908  0.0574 -0.2783
 6100SOL    HW129759   2.926   0.333   3.456  0.8517  0.0973  1.0614
 6100SOL    HW229760   2.855   0.261   3.561  0.8437  0.1940 -0.2652
 6101SOL     OW29761   1.664   1.894   6.902  0.2725 -0.1951  0.4011
 6101SOL    HW129762   1.627   1.805   6.904 -0.3997  0.0908  0.5338
 6101SOL    HW229763   1.626   1.939   6.977  0.4295  1.1471 -0.3321
 6102SOL     OW29764   0.454   1.114   2.539  0.3768 -0.3466 -0.4143
 6102SOL    HW129765   0.520   1.044   2.536  0.5181 -0.2119 -0.4408
 6102SOL    HW229766   0.434   1.117   2.633  1.6363 -0.4843 -0.1340
 6103SOL     OW29767   1.919   2.682   6.509 -1.0476 -0.4484  0.6427
 6103SOL    HW129768   1.918   2.624   6.585  3.8140 -1.8202 -0.3447
 6103SOL    HW229769   1.966   2.632   6.442  0.4161 -0.1171  1.4166
 6104SOL     OW29770   4.446   2.275   9.440  0.2064  0.5533  0.4249
 6104SOL    HW129771   4.442   2.184   9.471  1.8527 -0.1039 -1.2924
 6104SOL    HW229772   4.482   2.311   9.521 -1.2283  2.1325  0.3582
 6105SOL     OW29773   2.377   3.204   7.272  0.3441 -0.1672  0.7684
 6105SOL    HW129774   2.420   3.119   7.272  3.0762  1.2244  0.9678
 6105SOL    HW229775   2.296   3.170   7.310  0.1585 -0.5781  0.0192
 6106SOL     OW29776   2.841   3.974   2.109 -0.5398  0.1706  0.2342
 6106SOL    HW129777   2.847   4.059   2.154  0.1400  1.2430 -1.9135
 6106SOL    HW229778   2.821   4.004   2.020  2.0050  0.8141 -0.1253
 6107SOL     OW29779   4.656   1.832   4.163 -0.4735 -0.6507 -0.8422
 6107SOL    HW129780   4.650   1.874   4.249 -2.2029 -1.5321 -0.5331
 6107SOL    HW229781   0.002   1.883   4.122 -1.7766  0.7813 -1.3163
 6108SOL     OW29782   3.272   0.186  13.135  0.5637 -0.0247 -0.3317
 6108SOL    HW129783   3.262   0.093  13.153  0.5137  0.2466  1.0559
 6108SOL    HW229784   3.246   0.201  13.044 -0.4653 -0.6156 -0.1317
 6109SOL     OW29785   4.501   4.433   9.068  0.4882  0.1012 -0.5318
 6109SOL    HW129786   4.466   4.515   9.034  1.8237  1.1359  0.5454
 6109SOL    HW229787   4.470   4.367   9.006 -1.3172 -0.0764  0.5599
 6110SOL     OW29788   2.497   0.785   3.180 -0.7881  0.2800 -0.4416
 6110SOL    HW129789   2.591   0.772   3.190 -0.9329 -0.0372  0.5380
 6110SOL    HW229790   2.458   0.723   3.119 -1.8328 -1.1455  1.6736
 6111SOL     OW29791   0.668   3.366  11.056 -0.2143 -0.5022  0.0040
 6111SOL    HW129792   0.644   3.276  11.079  0.5537 -0.5322  0.6665
 6111SOL    HW229793   0.666   3.350  10.962 -2.1412  1.0653 -0.2294
 6112SOL     OW29794   0.718   1.587   9.399  0.4802  0.1808  0.2829
 6112SOL    HW129795   0.719   1.679   9.424 -0.0997  0.0528  0.7941
 6112SOL    HW229796   0.812   1.573   9.385  0.0557 -2.0728 -0.3427
 6113SOL     OW29797   2.500   1.985   7.926  0.7188 -0.2568 -0.2661
 6113SOL    HW129798   2.500   1.893   7.900  1.1400 -0.0803 -0.8831
 6113SOL    HW229799   2.492   1.978   8.021  0.3109  0.2140 -0.2654
 6114SOL     OW29800   3.774   1.798  16.366 -0.6518 -0.7725  0.3074
 6114SOL    HW129801   3.829   1.793  16.445 -0.4192 -0.5207  0.1605
 6114SOL    HW229802   3.748   1.890  16.372 -0.7175 -0.7694 -0.0621
 6115SOL     OW29803   1.972   4.682  10.568  0.1676  0.2960  0.2487
 6115SOL    HW129804   1.934   0.043  10.546 -3.4845 -0.6985  2.7423
 6115SOL    HW229805   1.900   4.632  10.605  0.6371  0.5122  1.4828
 6116SOL     OW29806   3.789   4.284   3.199  0.0631 -0.1356  0.2138
 6116SOL    HW129807   3.782   4.233   3.279 -0.0840 -0.3506  0.0627
 6116SOL    HW229808   3.845   4.221   3.154 -1.0559 -1.2318  0.3562
 6117SOL     OW29809   2.143   2.243  14.345 -0.0188  0.2535  0.3638
 6117SOL    HW129810   2.154   2.306  14.274 -4.1025 -1.4799 -1.8344
 6117SOL    HW229811   2.206   2.264  14.414 -0.1140  1.3655  0.1055
 6118SOL     OW29812   1.209   2.677  15.806 -0.0588  0.3046  0.4902
 6118SOL    HW129813   1.139   2.613  15.818 -0.7958  1.0812  0.3297
 6118SOL    HW229814   1.239   2.700  15.894  1.9609 -0.4938 -0.0015
 6119SOL     OW29815   1.757   1.153   1.070 -0.1616 -0.2498 -0.4901
 6119SOL    HW129816   1.710   1.076   1.040 -0.6134  0.0629 -0.5813
 6119SOL    HW229817   1.817   1.128   1.141  0.8300  1.7908 -0.6052
 6120SOL     OW29818   0.380   1.492   7.505  0.2294  0.2249 -0.8417
 6120SOL    HW129819   0.309   1.495   7.569  0.8972  0.1542 -0.1042
 6120SOL    HW229820   0.457   1.454   7.547  1.8418  1.5742 -2.5815
 6121SOL     OW29821   0.577   1.417   3.644 -0.4570  0.4863 -0.0436
 6121SOL    HW129822   0.570   1.496   3.697 -0.1544  0.4248  0.0892
 6121SOL    HW229823   0.670   1.417   3.622 -0.1940  0.9088  1.0828
 6122SOL     OW29824   1.296   1.946  14.631  0.4536  0.0746 -0.0785
 6122SOL    HW129825   1.211   1.969  14.667  0.5349 -1.4362  1.0891
 6122SOL    HW229826   1.303   1.870  14.690  0.6616  0.9194  0.9849
 6123SOL     OW29827   3.486   2.965   7.057  0.4396  0.3461 -0.0736
 6123SOL    HW129828   3.525   3.018   6.988  1.3524 -1.1444 -0.6885
 6123SOL    HW229829   3.394   2.991   7.048  0.1570 -0.2417  1.0451
 6124SOL     OW29830   4.040   0.571   1.850 -0.1222  0.0726  0.4656
 6124SOL    HW129831   3.955   0.597   1.885 -0.2651 -0.2980  0.3983
 6124SOL    HW229832   4.040   0.476   1.865  1.0019 -0.1066 -0.6600
 6125SOL     OW29833   1.389   2.042   3.968 -0.6427 -0.0774  0.1430
 6125SOL    HW129834   1.439   1.971   4.008 -0.0592 -1.0942 -2.3726
 6125SOL    HW229835   1.418   2.120   4.016  0.3130 -0.1497 -0.3117
 6126SOL     OW29836   0.496   2.736   2.931  0.3512  0.0929  0.8201
 6126SOL    HW129837   0.552   2.779   2.866 -0.9524  0.9591  0.2690
 6126SOL    HW229838   0.549   2.751   3.009  0.3749  1.3295  0.5613
 6127SOL     OW29839   3.737   2.013   2.013 -0.0221  0.4844 -0.0268
 6127SOL    HW129840   3.753   2.107   2.005 -0.4490  0.6183  0.6631
 6127SOL    HW229841   3.782   2.003   2.097  0.9197 -1.0667 -0.7103
 6128SOL     OW29842   1.019   1.066   9.358  0.2647  0.2637  0.2275
 6128SOL    HW129843   1.052   1.156   9.359  1.5445 -0.2060  0.1704
 6128SOL    HW229844   1.005   1.054   9.265 -1.6037 -1.6309  0.7455
 6129SOL     OW29845   3.099   3.724   2.578  0.4804 -0.1714  0.1022
 6129SOL    HW129846   3.021   3.680   2.613 -2.1863  3.2216 -1.5615
 6129SOL    HW229847   3.118   3.681   2.495 -1.2976 -3.0158  1.1475
 6130SOL     OW29848   1.790   0.424  14.237  0.5045 -0.3334  0.9826
 6130SOL    HW129849   1.868   0.442  14.185 -0.2545  2.1880  0.7046
 6130SOL    HW229850   1.753   0.512  14.240  2.0326  0.3741 -1.4794
 6131SOL     OW29851   0.645   0.355   3.065 -0.2715  0.6055  0.3925
 6131SOL    HW129852   0.726   0.400   3.039  0.5198 -0.3415  1.2061
 6131SOL    HW229853   0.589   0.432   3.061  0.5855  1.0738 -2.4375
 6132SOL     OW29854   1.967   2.631   3.666 -0.2710 -0.0720  0.0934
 6132SOL    HW129855   2.013   2.668   3.591  1.6003 -3.9272 -0.6164
 6132SOL    HW229856   1.880   2.669   3.653 -0.2361 -0.4379 -1.1564
 6133SOL     OW29857   0.695   3.298   5.847  0.2063  0.3878 -0.5101
 6133SOL    HW129858   0.742   3.369   5.804 -0.4858  0.5700 -0.9658
 6133SOL    HW229859   0.651   3.342   5.920  1.8540  0.2654  0.5462
 6134SOL     OW29860   0.194   3.594   7.076 -0.0098  0.1575  0.6533
 6134SOL    HW129861   0.204   3.564   7.167 -0.6356  0.3339  0.7836
 6134SOL    HW229862   0.204   3.688   7.092 -0.9340  0.5069 -0.8336
 6135SOL     OW29863   4.372   0.178   9.104  0.2838 -0.4106 -0.4844
 6135SOL    HW129864   4.450   0.162   9.156  0.2908  1.6045  0.1155
 6135SOL    HW229865   4.397   0.247   9.043 -2.1212  1.3750  0.5658
 6136SOL     OW29866   0.648   0.552   6.533  0.1123  0.4360  0.2121
 6136SOL    HW129867   0.711   0.547   6.604 -0.3346 -2.2057  0.4059
 6136SOL    HW229868   0.666   0.646   6.523 -0.7183  0.4403 -1.3521
 6137SOL     OW29869   1.744   3.012   0.059  0.6375 -0.0211 -0.1799
 6137SOL    HW129870   1.723   2.919   0.053  1.3171 -0.1844 -0.1030
 6137SOL    HW229871   1.652   3.039   0.058  1.3363  2.2536 -2.4562
 6138SOL     OW29872   4.474   0.702   8.461  0.8393  0.3250  0.1448
 6138SOL    HW129873   4.559   0.747   8.458  0.1412  1.3717 -4.3098
 6138SOL    HW229874   4.459   0.661   8.546 -0.5309  1.4638  0.4477
 6139SOL     OW29875   2.130   3.659  13.732  0.3505  0.1909  0.5725
 6139SOL    HW129876   2.197   3.703  13.680 -0.8676  0.1978 -1.0007
 6139SOL    HW229877   2.091   3.735  13.777  1.1319  0.7078  0.3668
 6140SOL     OW29878   1.766   3.277   4.784 -0.6647  0.1560 -0.0636
 6140SOL    HW129879   1.847   3.235   4.815 -1.5631 -3.4524 -2.6537
 6140SOL    HW229880   1.762   3.238   4.697 -0.9735 -4.1029  1.8381
 6141SOL     OW29881   0.477   3.921   6.112 -0.7078  0.7872  0.2934
 6141SOL    HW129882   0.493   3.830   6.137 -1.5133  0.5946  0.1024
 6141SOL    HW229883   0.388   3.910   6.079 -0.1802 -0.8461 -0.5958
 6142SOL     OW29884   1.556   0.997  16.374 -0.4713 -0.3624  0.5458
 6142SOL    HW129885   1.461   1.004  16.365 -0.4553 -0.1377  0.5477
 6142SOL    HW229886   1.576   1.079  16.420  1.7739 -1.4546  1.5127
 6143SOL     OW29887   3.779   3.381   4.436  0.0908  0.3069 -0.3958
 6143SOL    HW129888   3.803   3.304   4.385  0.5976 -0.5318  1.1193
 6143SOL    HW229889   3.780   3.344   4.524  2.0945 -1.0398 -1.0060
 6144SOL     OW29890   2.074   3.927  13.928 -0.3581  0.5020 -0.1738
 6144SOL    HW129891   1.986   3.959  13.950 -1.0014 -1.6381  0.3487
 6144SOL    HW229892   2.090   3.851  13.984  2.7174  0.7371 -0.7139
 6145SOL     OW29893   0.306   4.140  10.924 -0.2762 -0.4204 -0.2563
 6145SOL    HW129894   0.285   4.165  10.834 -0.8730  0.5888  0.1631
 6145SOL    HW229895   0.271   4.052  10.940 -1.9115  0.1485 -0.6804
 6146SOL     OW29896   1.838   2.577  10.888  0.0188  0.0059  0.3921
 6146SOL    HW129897   1.806   2.667  10.877  2.1209  0.8328  0.9884
 6146SOL    HW229898   1.932   2.591  10.872  0.0227  0.4499  0.8166
 6147SOL     OW29899   1.439   4.402  15.387 -0.3332  0.0776  0.2419
 6147SOL    HW129900   1.375   4.390  15.317  0.4121  1.2840 -0.6389
 6147SOL    HW229901   1.507   4.454  15.345  1.4255 -2.7648 -0.4180
 6148SOL     OW29902   1.561   4.410   5.649 -0.1145 -0.4494  0.3837
 6148SOL    HW129903   1.473   4.398   5.685 -0.5791 -0.5125 -0.8010
 6148SOL    HW229904   1.589   4.321   5.629 -0.0602 -0.3089 -0.1542
 6149SOL     OW29905   3.458   1.627   3.737  0.7547  0.7601  0.1705
 6149SOL    HW129906   3.366   1.602   3.730  0.3037  2.5586 -0.2563
 6149SOL    HW229907   3.472   1.622   3.831  1.2064  0.1580  0.0696
 6150SOL     OW29908   1.236   4.443  11.268  0.4536  0.0927 -0.0934
 6150SOL    HW129909   1.144   4.461  11.288  0.3635 -0.9323  0.4153
 6150SOL    HW229910   1.235   4.495  11.187 -2.1391 -0.0945 -0.1682
 6151SOL     OW29911   4.694   3.486   8.402  0.2093 -0.1016  0.0100
 6151SOL    HW129912   4.671   3.396   8.382  1.0103 -0.3766  0.3208
 6151SOL    HW229913   4.655   3.493   8.489 -0.8904 -2.4401 -0.3092
 6152SOL     OW29914   3.929   3.175   0.412 -0.7287 -0.3600 -0.3592
 6152SOL    HW129915   4.003   3.233   0.430 -0.6655 -0.5404 -0.0419
 6152SOL    HW229916   3.953   3.145   0.324  0.0972 -3.3214  0.8695
 6153SOL     OW29917   1.521   2.693   8.288 -0.3613  0.2803  0.3358
 6153SOL    HW129918   1.566   2.640   8.223 -2.2117 -1.2370  0.3130
 6153SOL    HW229919   1.526   2.642   8.369 -0.8901 -0.2738  0.0147
 6154SOL     OW29920   0.079   2.810   8.974  0.6423  0.0136 -0.0612
 6154SOL    HW129921   0.097   2.879   9.037  1.3101  1.1614 -1.5178
 6154SOL    HW229922   0.066   2.739   9.037  1.0218 -0.5176 -0.5818
 6155SOL     OW29923   1.978   2.799   2.195 -0.5141  0.5817  0.1572
 6155SOL    HW129924   2.049   2.861   2.183 -0.7054  0.5137 -1.4050
 6155SOL    HW229925   1.904   2.858   2.178 -1.5471 -0.2065  1.8589
 6156SOL     OW29926   4.586   4.458   2.572 -0.0757 -0.3414  0.0550
 6156SOL    HW129927   4.566   4.526   2.636  0.8366 -0.1914  0.1852
 6156SOL    HW229928   4.575   4.516   2.496 -0.5715 -0.9312 -0.3263
 6157SOL     OW29929   0.231   3.770  16.419  0.2088 -0.1350 -0.3748
 6157SOL    HW129930   0.197   3.739  16.503  1.3273  2.0304  0.8968
 6157SOL    HW229931   0.185   3.854  16.409  1.0770  0.2815 -0.8932
 6158SOL     OW29932   4.600   2.394  12.657 -0.0523  0.0035 -0.4722
 6158SOL    HW129933   4.647   2.335  12.598 -1.2539 -2.4277  1.0086
 6158SOL    HW229934   4.673   2.429  12.707 -0.3720  1.9714 -1.4059
 6159SOL     OW29935   1.659   1.050   9.003 -0.1353 -0.7952 -0.0273
 6159SOL    HW129936   1.648   1.104   8.925 -0.4392  0.0534  0.6014
 6159SOL    HW229937   1.574   1.006   9.008  1.1626 -3.3254 -0.4101
 6160SOL     OW29938   2.958   4.079   8.645  0.2918 -0.2977  0.3204
 6160SOL    HW129939   2.908   4.150   8.687 -0.7908 -0.4151 -0.7869
 6160SOL    HW229940   2.906   4.092   8.566  1.2175  0.5314 -0.1612
 6161SOL     OW29941   1.943   3.990   6.523  0.5702  0.3620 -0.0262
 6161SOL    HW129942   2.026   3.997   6.476  1.1340  1.4348  1.1099
 6161SOL    HW229943   1.881   4.015   6.455 -0.2795  0.6390  0.8496
 6162SOL     OW29944   2.082   1.288   7.647  0.0645 -0.1990  0.4230
 6162SOL    HW129945   2.139   1.218   7.616  0.4889 -0.1701  1.1497
 6162SOL    HW229946   2.087   1.278   7.742  0.4084 -2.5000  0.1544
 6163SOL     OW29947   2.314   0.736  14.126 -0.2021 -0.1424 -0.0773
 6163SOL    HW129948   2.282   0.722  14.215  2.7468 -0.9914  0.8583
 6163SOL    HW229949   2.261   0.812  14.102 -3.3221 -1.7962  1.5703
 6164SOL     OW29950   4.051   4.010   7.500 -0.0197 -0.2571  0.0311
 6164SOL    HW129951   4.085   4.100   7.496 -1.4106  0.3829  2.3479
 6164SOL    HW229952   4.073   3.975   7.586  0.6090  3.2500  1.3092
 6165SOL     OW29953   0.032   4.461  13.585  0.0957 -0.5632  0.3945
 6165SOL    HW129954   0.104   4.410  13.622  2.1838  2.3807  0.4342
 6165SOL    HW229955   0.015   4.413  13.504 -1.5290 -1.1564  1.0954
 6166SOL     OW29956   2.551   3.177   2.245 -0.6719  0.7129  0.1748
 6166SOL    HW129957   2.475   3.190   2.188 -0.3576  0.1290 -0.3827
 6166SOL    HW229958   2.524   3.200   2.333 -1.2428 -1.2319  0.5118
 6167SOL     OW29959   1.051   2.612   6.780  0.1319 -0.0565 -0.4948
 6167SOL    HW129960   1.133   2.657   6.800  0.3535  0.0703 -1.6949
 6167SOL    HW229961   0.995   2.653   6.846  0.3785 -1.0069  0.2923
 6168SOL     OW29962   1.590   1.411   9.126  0.1791  0.2349  0.7508
 6168SOL    HW129963   1.501   1.378   9.131  0.0337  0.5671  0.3367
 6168SOL    HW229964   1.628   1.364   9.200 -3.9339 -1.1340  1.9681
 6169SOL     OW29965   0.391   4.344   6.201 -0.4484 -0.5697  0.3887
 6169SOL    HW129966   0.475   4.363   6.161 -0.4536 -2.3272 -0.4477
 6169SOL    HW229967   0.390   4.425   6.252 -0.9469 -0.6035  0.4316
 6170SOL     OW29968   0.642   4.574   0.322  0.3073  0.4456  0.0488
 6170SOL    HW129969   0.629   4.618   0.238 -1.8179 -0.5444 -0.1542
 6170SOL    HW229970   0.558   4.593   0.365  0.8686  1.3387  0.7532
 6171SOL     OW29971   4.346   0.140  16.696 -0.1137  0.1607  0.4791
 6171SOL    HW129972   4.415   0.205  16.705 -2.1841  2.3165  0.7691
 6171SOL    HW229973   4.337   0.107  16.786 -3.1135  0.4300  0.2885
 6172SOL     OW29974   3.135   2.896   9.070 -0.0697 -0.4865 -0.0953
 6172SOL    HW129975   3.134   2.860   8.981 -2.5818  1.3388 -0.8006
 6172SOL    HW229976   3.205   2.962   9.064  0.5168 -1.2613 -1.9379
 6173SOL     OW29977   1.036   4.314   9.039 -0.6209  0.0954  0.2637
 6173SOL    HW129978   1.098   4.330   8.968 -0.5770 -1.8570 -0.1275
 6173SOL    HW229979   1.004   4.403   9.054  1.2774  0.5445  1.7962
 6174SOL     OW29980   2.430   3.933  12.703  0.2264  0.0236 -0.0865
 6174SOL    HW129981   2.430   4.027  12.682  2.1058  0.1831  0.6701
 6174SOL    HW229982   2.372   3.896  12.635  1.4738  0.8055 -1.5744
 6175SOL     OW29983   4.433   3.489   6.292 -0.4005 -0.2345  0.3894
 6175SOL    HW129984   4.440   3.584   6.300 -2.0656  0.0003 -0.7428
 6175SOL    HW229985   4.526   3.478   6.273  0.2747  0.2688  3.3680
 6176SOL     OW29986   3.213   2.125   4.432  0.4788  0.2194 -0.3739
 6176SOL    HW129987   3.284   2.150   4.372 -0.1122  1.5387 -0.5258
 6176SOL    HW229988   3.217   2.032   4.408 -0.9764  0.3143 -0.9932
 6177SOL     OW29989   3.515   3.859   5.061  0.1375  0.2782  0.5267
 6177SOL    HW129990   3.455   3.933   5.053  0.8438  0.8219  0.1838
 6177SOL    HW229991   3.520   3.834   4.968 -1.8928 -1.4779  0.8997
 6178SOL     OW29992   3.273   0.986   3.211 -0.4601 -0.9841 -0.5108
 6178SOL    HW129993   3.365   1.010   3.224 -0.8197 -0.0287  0.3214
 6178SOL    HW229994   3.266   0.907   3.264  2.2140 -0.3502  0.7872
 6179SOL     OW29995   1.967   0.394   4.620  0.3428 -0.0970  0.3506
 6179SOL    HW129996   1.877   0.364   4.629  0.2564  0.1573  0.3373
 6179SOL    HW229997   2.015   0.312   4.620 -0.4920 -0.5977 -2.0703
 6180SOL     OW29998   0.462   3.569  10.081  0.3862 -0.3247 -0.1262
 6180SOL    HW129999   0.531   3.562  10.016  0.0039 -1.5631 -0.4076
 6180SOL    HW230000   0.491   3.647  10.128 -2.3212  0.3761  0.4192
 6181SOL     OW30001   4.333   4.312   2.531 -0.3102  0.2903  0.3512
 6181SOL    HW130002   4.424   4.340   2.544 -1.0756  1.0686  3.9385
 6181SOL    HW230003   4.289   4.396   2.519 -1.0553 -0.2734 -0.8415
 6182SOL     OW30004   1.352   1.600   0.598 -1.0375  0.1427 -0.6682
 6182SOL    HW130005   1.338   1.529   0.536 -2.5886 -1.1632  1.1481
 6182SOL    HW230006   1.370   1.675   0.541  1.9630 -0.5863 -0.6616
 6183SOL     OW30007   0.483   0.164  13.821 -0.5048  0.1544 -0.1883
 6183SOL    HW130008   0.395   0.164  13.861 -0.2901  0.6176  0.2891
 6183SOL    HW230009   0.470   0.159  13.727  0.7624 -1.5120 -0.2832
 6184SOL     OW30010   0.771   2.783   2.093  0.3773 -1.1470 -0.0331
 6184SOL    HW130011   0.851   2.806   2.045  0.9068 -0.1388  1.3301
 6184SOL    HW230012   0.788   2.812   2.182  3.3374 -0.4733 -0.8085
 6185SOL     OW30013   2.506   3.574   8.688 -0.1091  0.1467 -0.0370
 6185SOL    HW130014   2.470   3.513   8.752 -0.5814 -0.3843 -0.8106
 6185SOL    HW230015   2.573   3.619   8.740 -0.8526  1.1883  0.0085
 6186SOL     OW30016   2.734   1.869   9.018  0.0386 -0.4007 -0.0860
 6186SOL    HW130017   2.703   1.951   9.057  1.7380 -0.5092  1.5457
 6186SOL    HW230018   2.660   1.809   9.023  1.3181 -2.0729 -1.2498
 6187SOL     OW30019   0.064   2.503   5.964 -0.0201 -0.3610  0.0251
 6187SOL    HW130020   0.106   2.563   5.902 -1.4917 -0.3502 -0.9780
 6187SOL    HW230021   0.144   2.455   5.982 -1.3461 -2.5008  0.2030
 6188SOL     OW30022   0.192   2.390   2.984  0.0882 -0.1545 -0.3940
 6188SOL    HW130023   0.142   2.311   2.967  1.3488 -1.3564  1.5013
 6188SOL    HW230024   0.122   2.455   2.975  0.2220  0.0923  0.3984
 6189SOL     OW30025   2.286   3.240  15.826 -0.3517 -0.2660 -0.0944
 6189SOL    HW130026   2.236   3.159  15.820  0.7072 -1.1122  2.3540
 6189SOL    HW230027   2.333   3.250  15.743 -0.2043 -0.5901 -0.0496
 6190SOL     OW30028   3.836   3.459   3.709 -0.0989 -0.0154 -0.1710
 6190SOL    HW130029   3.906   3.410   3.665  0.1218  0.5819 -0.4814
 6190SOL    HW230030   3.865   3.462   3.800  0.9869  2.8863 -0.6357
 6191SOL     OW30031   2.817   2.730   0.597 -0.1850  0.5445  0.5073
 6191SOL    HW130032   2.910   2.735   0.575 -0.5505 -0.2814 -1.2221
 6191SOL    HW230033   2.808   2.705   0.689 -1.6088 -1.1460 -0.0903
 6192SOL     OW30034   1.318   0.661  16.027  0.0578  0.4481  0.2827
 6192SOL    HW130035   1.379   0.588  16.026 -2.5865 -1.6974 -1.7413
 6192SOL    HW230036   1.339   0.697  16.113  1.9418 -0.4710  0.2080
 6193SOL     OW30037   4.185   2.884   8.422  0.5465  0.3854 -0.4966
 6193SOL    HW130038   4.224   2.921   8.343 -1.9351 -1.1300 -2.4177
 6193SOL    HW230039   4.149   2.801   8.390 -0.9184  0.2290  1.5571
 6194SOL     OW30040   1.015   2.683   6.500 -0.3313  0.7035  0.6491
 6194SOL    HW130041   0.976   2.765   6.470 -1.4436  0.5694  1.7461
 6194SOL    HW230042   0.944   2.655   6.557 -2.0953 -0.0909 -1.9313
 6195SOL     OW30043   4.679   1.421   7.634  0.3697 -0.3090 -0.2022
 6195SOL    HW130044   4.600   1.374   7.663  0.2645  0.4696  0.7675
 6195SOL    HW230045   4.658   1.439   7.543 -1.9575  0.4063  0.4658
 6196SOL     OW30046   4.583   3.824  15.394 -0.2327  0.3658  0.0344
 6196SOL    HW130047   4.629   3.897  15.436  0.7978  1.1407 -2.4623
 6196SOL    HW230048   4.525   3.870  15.333 -0.9143 -0.8483 -0.2323
 6197SOL     OW30049   3.469   1.671   4.346  0.0550 -0.1821  0.2915
 6197SOL    HW130050   3.436   1.588   4.380  1.1416 -0.8117 -0.2251
 6197SOL    HW230051   3.508   1.705   4.426 -2.1936  3.1453 -0.0072
 6198SOL     OW30052   2.865   1.977   2.781  0.4095  0.1799 -0.0078
 6198SOL    HW130053   2.935   2.004   2.722  0.9528  0.0848  0.5849
 6198SOL    HW230054   2.789   2.021   2.743  2.0040  0.9410 -2.2878
 6199SOL     OW30055   0.194   4.084  12.570 -0.4447 -0.1908  0.1349
 6199SOL    HW130056   0.197   4.167  12.617  3.8024 -0.5780  0.5118
 6199SOL    HW230057   0.267   4.099  12.510 -0.9650 -0.1807 -0.4999
 6200SOL     OW30058   0.593   3.055   5.040  0.2708 -0.0938 -0.1628
 6200SOL    HW130059   0.510   3.101   5.027  1.2016  2.0620  1.5952
 6200SOL    HW230060   0.612   3.072   5.133  1.0805 -0.0600 -0.3303
 6201SOL     OW30061   3.255   1.475   9.744  0.6684  0.1099 -0.2083
 6201SOL    HW130062   3.294   1.546   9.694 -1.5113  1.0213 -0.6061
 6201SOL    HW230063   3.161   1.490   9.735  0.7488  0.4839 -0.4328
 6202SOL     OW30064   2.642   0.148  11.227  0.1576  0.4404  0.7053
 6202SOL    HW130065   2.681   0.063  11.205 -1.3870 -0.0952  0.0734
 6202SOL    HW230066   2.647   0.145  11.323  2.4932 -0.7095  0.5711
 6203SOL     OW30067   2.582   0.752  10.127  0.2695 -0.3555  0.4472
 6203SOL    HW130068   2.637   0.769  10.050  1.7769  1.3242  1.8714
 6203SOL    HW230069   2.589   0.839  10.167 -0.5810 -0.2216  0.3010
 6204SOL     OW30070   0.286   0.654   2.044 -0.0302 -0.1206 -0.4419
 6204SOL    HW130071   0.276   0.612   2.129 -0.2318  1.6158  0.3820
 6204SOL    HW230072   0.360   0.711   2.067  1.3966 -1.3348 -2.0308
 6205SOL     OW30073   0.821   4.395   3.629 -0.3259 -0.0261 -0.6274
 6205SOL    HW130074   0.816   4.300   3.617 -1.1295 -0.2657  1.5884
 6205SOL    HW230075   0.807   4.423   3.539 -0.6527 -1.7977 -1.1261
 6206SOL     OW30076   3.582   2.704   2.452  0.3035 -0.0531 -0.0678
 6206SOL    HW130077   3.672   2.675   2.466  0.9639  1.3639 -1.5068
 6206SOL    HW230078   3.539   2.619   2.442  0.2917 -0.1116  0.4689
 6207SOL     OW30079   4.473   0.028   3.612 -0.2108 -0.2437 -0.2712
 6207SOL    HW130080   4.386   0.002   3.643  0.5464 -1.1381  1.0845
 6207SOL    HW230081   4.464   0.123   3.609  0.0364 -0.1955  0.5889
 6208SOL     OW30082   0.389   3.445   4.132  0.8367  0.3528  0.4050
 6208SOL    HW130083   0.314   3.455   4.192  0.6775 -1.2576  0.4883
 6208SOL    HW230084   0.347   3.448   4.046  0.6332 -0.1094  0.4867
 6209SOL     OW30085   2.733   1.497   7.859  0.6984  0.2755  0.0575
 6209SOL    HW130086   2.667   1.566   7.868  0.8772  0.3788  0.6078
 6209SOL    HW230087   2.725   1.468   7.768 -3.0751  1.1717  0.0918
 6210SOL     OW30088   3.433   3.266   7.330  0.2946  0.1481 -0.5554
 6210SOL    HW130089   3.509   3.251   7.275  0.6442  0.2556 -0.1079
 6210SOL    HW230090   3.403   3.181   7.361 -1.5781  0.3483 -1.8041
 6211SOL     OW30091   2.738   0.098   7.873 -0.0496 -0.1459  0.3306
 6211SOL    HW130092   2.678   0.038   7.829  1.1976  0.7991 -2.6253
 6211SOL    HW230093   2.753   0.048   7.954  1.4838  0.0954  0.2036
 6212SOL     OW30094   3.899   2.704   3.515  0.3360  0.0450  0.4177
 6212SOL    HW130095   3.847   2.624   3.516  0.1846  0.1485  1.1140
 6212SOL    HW230096   3.989   2.672   3.529  1.1166  1.7867 -0.5701
 6213SOL     OW30097   2.909   3.705   7.119 -0.4368  0.2965  0.0645
 6213SOL    HW130098   3.002   3.719   7.102 -0.2191  1.6068  2.4595
 6213SOL    HW230099   2.897   3.623   7.070  0.1145 -1.3394  2.6785
 6214SOL     OW30100   1.266   4.538   1.559  0.3544  0.2056 -0.1634
 6214SOL    HW130101   1.213   4.503   1.631 -1.4487  2.9930 -0.1337
 6214SOL    HW230102   1.204   4.568   1.493  0.9108  1.0331 -0.3208
 6215SOL     OW30103   0.741   1.717   4.532  0.3466 -0.1852 -0.1189
 6215SOL    HW130104   0.708   1.792   4.483  0.2095 -0.0695  0.1484
 6215SOL    HW230105   0.813   1.756   4.581  1.1447 -1.1522 -0.5291
 6216SOL     OW30106   0.528   3.142  11.773 -0.2553  0.4783 -0.2318
 6216SOL    HW130107   0.569   3.167  11.855 -0.2855 -0.6972  0.1401
 6216SOL    HW230108   0.593   3.163  11.706  0.1443  2.0842  0.6643
 6217SOL     OW30109   3.457   1.805   7.641  0.9854 -0.7771  0.4848
 6217SOL    HW130110   3.425   1.872   7.581  4.4453 -1.2599 -1.9125
 6217SOL    HW230111   3.433   1.837   7.728 -0.1456  3.0115 -1.2432
 6218SOL     OW30112   2.706   0.746  11.209 -0.0862  0.5253  0.2830
 6218SOL    HW130113   2.713   0.777  11.118 -0.2079  1.3137  0.5405
 6218SOL    HW230114   2.784   0.779  11.253  0.5688  1.6019 -1.6865
 6219SOL     OW30115   1.268   1.239   1.933 -0.5306 -0.0827  0.3937
 6219SOL    HW130116   1.172   1.233   1.932 -0.4518 -1.2592 -0.1607
 6219SOL    HW230117   1.293   1.328   1.910  0.1274 -0.2688  0.3856
 6220SOL     OW30118   1.068   2.511   5.848 -0.2240  0.1023  0.3797
 6220SOL    HW130119   1.144   2.514   5.790  0.0173  1.6200  0.7902
 6220SOL    HW230120   1.031   2.427   5.818  0.2824 -0.2337  0.6959
 6221SOL     OW30121   0.578   3.904   3.899 -0.0725  0.0079 -0.2762
 6221SOL    HW130122   0.555   3.836   3.962 -0.8574  0.0209 -0.5507
 6221SOL    HW230123   0.539   3.983   3.936 -1.2978 -0.8509  0.2672
 6222SOL     OW30124   2.538   3.265   7.967 -0.2553  0.3481  0.2548
 6222SOL    HW130125   2.587   3.209   8.027  1.0048 -0.0690 -1.1617
 6222SOL    HW230126   2.490   3.322   8.027  0.9214  1.2557  0.3411
 6223SOL     OW30127   4.377   4.478   0.195 -1.0500  0.2965 -1.1404
 6223SOL    HW130128   4.462   4.439   0.177 -1.8446 -0.9317 -2.1415
 6223SOL    HW230129   4.323   4.400   0.204 -0.6307  0.3864  2.2125
 6224SOL     OW30130   2.088   0.081  14.824 -0.1304 -0.3134  0.0736
 6224SOL    HW130131   2.106   0.043  14.910 -1.5043  0.2717  0.6155
 6224SOL    HW230132   2.030   0.149  14.858  0.1942 -0.5798  1.1825
 6225SOL     OW30133   4.279   1.381   3.720  0.3872 -0.8476 -0.2787
 6225SOL    HW130134   4.351   1.428   3.677 -0.4288  0.7534  0.1022
 6225SOL    HW230135   4.329   1.299   3.726  0.2256 -0.9757 -0.6448
 6226SOL     OW30136   4.334   1.658   7.650  0.4076 -0.2726  0.8359
 6226SOL    HW130137   4.411   1.647   7.594 -0.4001  0.3547 -0.3902
 6226SOL    HW230138   4.277   1.587   7.619  1.7154 -0.8644 -0.1847
 6227SOL     OW30139   1.488   4.581  17.211  0.1474 -0.3696 -0.4635
 6227SOL    HW130140   1.547   4.655  17.201  1.8846 -2.0933 -2.7552
 6227SOL    HW230141   1.493   4.534  17.128 -0.4841 -0.9925 -0.1516
 6228SOL     OW30142   3.528   0.328   5.380 -0.0272  0.0235  0.2737
 6228SOL    HW130143   3.600   0.301   5.322 -0.8400  0.1254 -0.7743
 6228SOL    HW230144   3.512   0.253   5.438  0.1719  0.3303  0.7196
 6229SOL     OW30145   2.742   0.576   5.534 -0.6527 -0.0007 -0.0913
 6229SOL    HW130146   2.681   0.625   5.478 -0.8220  2.7814  2.5382
 6229SOL    HW230147   2.687   0.580   5.612 -0.0114  0.0671  0.3548
 6230SOL     OW30148   0.779   2.028  12.377 -0.9174 -0.0454  0.1057
 6230SOL    HW130149   0.756   2.121  12.377 -0.5826  0.0398 -0.9299
 6230SOL    HW230150   0.869   2.038  12.408 -0.2633 -0.7368 -1.5717
 6231SOL     OW30151   0.171   1.723   7.371 -0.5524 -0.4259  0.0212
 6231SOL    HW130152   0.116   1.755   7.442 -1.1870 -2.3657  0.4055
 6231SOL    HW230153   0.132   1.636   7.362  0.0899 -0.6937 -0.1808
 6232SOL     OW30154   3.303   0.198  16.072  0.1795 -0.8819  0.5243
 6232SOL    HW130155   3.386   0.165  16.038  1.4610  2.0775  0.7353
 6232SOL    HW230156   3.241   0.142  16.025  0.3164 -1.6110  1.2030
 6233SOL     OW30157   3.742   4.420   2.410 -0.1271 -0.0330 -0.1701
 6233SOL    HW130158   3.727   4.487   2.344 -0.3777 -0.7560 -0.8511
 6233SOL    HW230159   3.718   4.343   2.359  1.9376 -0.0187 -1.1774
 6234SOL     OW30160   2.433   3.591   7.113 -0.5487  0.1377 -0.5032
 6234SOL    HW130161   2.478   3.639   7.043  2.3714 -3.0905 -0.7951
 6234SOL    HW230162   2.356   3.567   7.062 -1.2541  2.3376 -0.5080
 6235SOL     OW30163   0.756   1.071   8.617 -0.0237 -0.2638 -0.3255
 6235SOL    HW130164   0.730   1.152   8.661 -1.1426 -0.0304 -1.4220
 6235SOL    HW230165   0.846   1.066   8.651 -0.8335 -0.6209  1.7980
 6236SOL     OW30166   3.179   3.341   1.596  0.1785 -0.5191  1.1732
 6236SOL    HW130167   3.197   3.248   1.585 -1.6788 -0.6407 -0.9384
 6236SOL    HW230168   3.247   3.359   1.660  2.2820 -1.4027 -0.7955
 6237SOL     OW30169   0.191   0.185   0.051  0.5041 -0.2050 -0.1158
 6237SOL    HW130170   0.156   0.263   0.008  4.5523  1.4248 -0.4548
 6237SOL    HW230171   0.126   0.165   0.119 -1.3273  1.9678 -1.2013
 6238SOL     OW30172   1.084   1.167   7.421  0.6108 -0.1971 -0.2297
 6238SOL    HW130173   1.008   1.190   7.475  0.0223 -1.1069 -0.6786
 6238SOL    HW230174   1.126   1.112   7.487  1.9323 -1.3877 -2.0740
 6239SOL     OW30175   4.078   1.556   5.202 -0.5680 -0.2098 -0.3917
 6239SOL    HW130176   4.028   1.500   5.262 -1.0485  0.7618  0.1036
 6239SOL    HW230177   4.089   1.638   5.250  2.3312 -0.3048 -0.9207
 6240SOL     OW30178   2.601   2.843   7.371 -0.7599  0.4537  0.3525
 6240SOL    HW130179   2.517   2.818   7.411  0.5578 -1.6191  1.8233
 6240SOL    HW230180   2.654   2.775   7.411 -0.4858  0.1250 -0.5683
 6241SOL     OW30181   4.346   2.611   7.142  0.6020 -0.3876  0.0549
 6241SOL    HW130182   4.329   2.625   7.049  0.2114  1.4572  0.3867
 6241SOL    HW230183   4.393   2.528   7.144  0.0743 -0.6668  1.8265
 6242SOL     OW30184   4.402   2.947   6.908 -0.3415 -0.9799  0.3106
 6242SOL    HW130185   4.440   3.034   6.898 -0.5291 -0.7874  1.2796
 6242SOL    HW230186   4.450   2.905   6.837 -0.6853 -0.5874 -0.1443
 6243SOL     OW30187   3.281   4.655   7.800 -0.2672  0.1522 -0.0504
 6243SOL    HW130188   3.306   4.572   7.761  3.5021  1.2516  0.0184
 6243SOL    HW230189   3.197   4.670   7.756  0.3374 -1.4013 -1.7127
 6244SOL     OW30190   0.931   4.629  17.469 -0.2575  0.2243 -0.1351
 6244SOL    HW130191   0.920   4.607  17.377  0.8902 -0.1862 -0.1788
 6244SOL    HW230192   0.841   4.652  17.489 -0.8413 -2.8289  0.7223
 6245SOL     OW30193   4.617   1.892   2.751  0.2579 -0.2758  0.2470
 6245SOL    HW130194   4.689   1.878   2.690 -1.0847 -0.0958 -1.3703
 6245SOL    HW230195   4.660   1.887   2.837 -0.1456 -0.9831  0.4058
 6246SOL     OW30196   4.486   3.309   7.480 -1.1700 -0.3004 -0.7444
 6246SOL    HW130197   4.468   3.249   7.408 -0.2322  0.6536 -1.7667
 6246SOL    HW230198   4.481   3.399   7.448  1.6447  0.1911  0.1714
 6247SOL     OW30199   3.100   1.012  13.301 -0.4708  0.3947 -0.3140
 6247SOL    HW130200   3.137   0.991  13.215  0.0170  0.9485 -0.2417
 6247SOL    HW230201   3.174   1.035  13.357  0.4504 -2.9079 -0.2126
 6248SOL     OW30202   3.225   2.321   6.547 -0.0670 -0.4482 -0.2876
 6248SOL    HW130203   3.313   2.315   6.508 -0.6808 -0.0543 -1.7174
 6248SOL    HW230204   3.204   2.240   6.594 -0.5708  1.1931  2.3489
 6249SOL     OW30205   3.876   3.350   2.607 -0.3015  0.5684  0.3695
 6249SOL    HW130206   3.809   3.321   2.545 -1.2978 -0.7211  2.0552
 6249SOL    HW230207   3.944   3.383   2.549 -0.2504 -0.0335  0.0837
 6250SOL     OW30208   2.504   1.232   7.664 -0.4063 -0.3977 -0.6331
 6250SOL    HW130209   2.600   1.234   7.660 -0.1850 -0.4336  3.8436
 6250SOL    HW230210   2.484   1.325   7.664  0.1296 -0.2902 -1.7577
 6251SOL     OW30211   3.165   0.507   2.569  0.1728  0.4988 -0.2013
 6251SOL    HW130212   3.236   0.494   2.632 -1.3306  1.3964  1.7177
 6251SOL    HW230213   3.205   0.569   2.509  0.9790  2.0065  1.8796
 6252SOL     OW30214   0.449   3.579   5.630 -0.6887  0.6485  0.5017
 6252SOL    HW130215   0.541   3.601   5.612  0.1817 -3.5681 -0.0912
 6252SOL    HW230216   0.460   3.488   5.658 -0.6758 -0.2340 -2.4122
 6253SOL     OW30217   2.789   0.476   6.833 -0.3910 -0.3357 -0.7278
 6253SOL    HW130218   2.793   0.566   6.868 -0.4552 -1.5916  2.5344
 6253SOL    HW230219   2.717   0.445   6.889  0.4104 -3.0713 -1.2437
 6254SOL     OW30220   1.337   0.109   4.152 -0.4853 -0.3084 -0.0214
 6254SOL    HW130221   1.258   0.069   4.188 -0.6804  0.9575  0.9531
 6254SOL    HW230222   1.302   0.192   4.119 -0.1454 -0.0167  0.3394
 6255SOL     OW30223   1.822   0.260   1.436  0.1691  0.0787  1.0495
 6255SOL    HW130224   1.826   0.342   1.485 -0.3291  0.1226  1.0252
 6255SOL    HW230225   1.809   0.288   1.345 -0.9090 -4.2140 -0.1127
 6256SOL     OW30226   3.157   1.646   6.202 -0.1452  0.4571 -0.0947
 6256SOL    HW130227   3.238   1.645   6.151 -1.0022 -2.5454 -1.3845
 6256SOL    HW230228   3.098   1.710   6.162  0.1554  1.5832  1.2471
 6257SOL     OW30229   3.966   3.712   3.237  0.1395 -0.0581  0.0022
 6257SOL    HW130230   3.911   3.699   3.314 -0.1245  1.0652 -0.0023
 6257SOL    HW230231   3.998   3.800   3.257 -0.8830  0.0431  1.1870
 6258SOL     OW30232   2.530   3.110  15.048 -0.3598  0.4228 -0.4843
 6258SOL    HW130233   2.551   3.055  14.973 -1.9566 -3.1536  1.7217
 6258SOL    HW230234   2.589   3.184  15.033 -1.1938  1.0691 -0.5698
 6259SOL     OW30235   0.520   4.543   0.625  0.2276 -0.1882  0.4148
 6259SOL    HW130236   0.478   4.596   0.557  0.9755 -1.1581 -0.8057
 6259SOL    HW230237   0.519   4.604   0.699 -1.2674  0.1267  0.1420
 6260SOL     OW30238   3.932   2.345   4.890  0.3344  0.3980  0.1128
 6260SOL    HW130239   3.938   2.431   4.931 -1.2141  1.2486 -1.4549
 6260SOL    HW230240   3.958   2.287   4.962  0.8472 -0.8385 -1.0504
 6261SOL     OW30241   0.777   0.690   2.042 -0.0416  0.1763 -0.0352
 6261SOL    HW130242   0.732   0.610   2.015 -1.0219  0.6999  0.0286
 6261SOL    HW230243   0.801   0.658   2.129  0.9553  1.4587  0.1656
 6262SOL     OW30244   1.850   3.852  14.122  0.5207  0.2110 -0.2292
 6262SOL    HW130245   1.783   3.785  14.112  3.6321 -2.6759 -1.7178
 6262SOL    HW230246   1.908   3.802  14.180 -1.9542 -2.3688  0.0366
 6263SOL     OW30247   3.025   2.081   1.315 -0.1123  0.1215 -0.2157
 6263SOL    HW130248   3.044   2.124   1.232  1.8491  1.7116  1.0555
 6263SOL    HW230249   3.068   1.996   1.305  0.9202  0.4808  1.1751
 6264SOL     OW30250   3.342   2.905   1.767  0.3982 -0.5010 -0.0206
 6264SOL    HW130251   3.369   2.847   1.696 -0.1323  1.9353 -2.2213
 6264SOL    HW230252   3.323   2.858   1.848 -0.1295 -3.2806 -1.7863
 6265SOL     OW30253   3.183   0.335   5.681 -0.2404 -1.0083  0.3494
 6265SOL    HW130254   3.127   0.399   5.638  1.7985  0.3525 -0.3242
 6265SOL    HW230255   3.116   0.280   5.722  0.5286 -0.8631  1.7940
 6266SOL     OW30256   0.784   2.212   3.541 -0.3514  0.2325  0.1149
 6266SOL    HW130257   0.866   2.198   3.494 -0.1911  0.5269  0.3070
 6266SOL    HW230258   0.722   2.151   3.500 -1.2570  0.3339  1.3370
 6267SOL     OW30259   3.150   3.651   3.888 -0.1293 -0.0407 -0.0856
 6267SOL    HW130260   3.157   3.568   3.935 -3.1200 -0.5463 -0.5511
 6267SOL    HW230261   3.244   3.663   3.876 -0.3664  1.0207 -0.9217
 6268SOL     OW30262   2.886   1.545   1.770 -0.3766 -0.2436 -0.4859
 6268SOL    HW130263   2.968   1.572   1.730 -0.1086  0.5936  0.6335
 6268SOL    HW230264   2.833   1.623   1.756  1.7236  1.4887  1.2977
 6269SOL     OW30265   4.455   3.324  11.421 -0.0391 -0.2126 -0.4854
 6269SOL    HW130266   4.385   3.387  11.402 -0.6662 -0.4266  1.0687
 6269SOL    HW230267   4.414   3.242  11.392  0.4219 -0.1863 -1.2045
 6270SOL     OW30268   3.811   2.812  11.647 -0.3572 -0.2757 -0.7644
 6270SOL    HW130269   3.786   2.904  11.655  0.4289 -0.1641  0.3916
 6270SOL    HW230270   3.850   2.796  11.733 -0.8176  2.6185 -0.0119
 6271SOL     OW30271   2.486   0.280   3.260 -0.3239  0.3304 -0.3711
 6271SOL    HW130272   2.451   0.357   3.305  3.8900  1.5265  0.8515
 6271SOL    HW230273   2.568   0.321   3.232  0.8681 -1.6123  0.3018
 6272SOL     OW30274   0.257   2.856  10.154  0.3975  0.4228 -0.4318
 6272SOL    HW130275   0.168   2.841  10.120  1.1726  0.7632 -2.5883
 6272SOL    HW230276   0.291   2.921  10.092  1.4445 -2.5718 -2.9669
 6273SOL     OW30277   4.527   0.795  11.658  0.1838  0.0050  0.4525
 6273SOL    HW130278   4.606   0.812  11.709  1.5784 -1.9744 -1.0864
 6273SOL    HW230279   4.562   0.709  11.638 -3.6288 -1.9448  2.0079
 6274SOL     OW30280   3.744   1.582  13.428 -0.2559  0.4697  1.1239
 6274SOL    HW130281   3.824   1.601  13.380  0.3396 -0.6280  1.6835
 6274SOL    HW230282   3.761   1.533  13.508 -0.1939  1.3281  1.6283
 6275SOL     OW30283   1.064   2.711   1.710  0.2381 -0.1483 -0.4941
 6275SOL    HW130284   1.062   2.784   1.648 -0.0104 -0.9297 -1.4072
 6275SOL    HW230285   1.087   2.648   1.642  4.3974  0.2287  0.5859
 6276SOL     OW30286   1.480   3.052   0.133 -0.1483  0.1727 -0.1372
 6276SOL    HW130287   1.410   2.987   0.130  0.4260 -0.3997 -1.0158
 6276SOL    HW230288   1.459   3.111   0.205 -1.8202  2.1047 -2.2159
 6277SOL     OW30289   0.963   0.095   6.029  0.4772 -0.2337 -0.3269
 6277SOL    HW130290   0.892   0.128   6.084  2.1343  0.1749  1.5818
 6277SOL    HW230291   0.951   4.724   6.031  1.9596 -0.4462 -1.4924
 6278SOL     OW30292   4.677   4.180   2.910  0.7525 -0.3444  0.3090
 6278SOL    HW130293   4.664   4.143   2.823  1.4249 -2.1697  0.9926
 6278SOL    HW230294   4.620   4.257   2.912  2.1151  0.7089 -1.0119
 6279SOL     OW30295   1.981   1.375  12.319  0.0140 -0.4728 -0.0877
 6279SOL    HW130296   1.966   1.469  12.310  1.0587 -0.3910 -0.9063
 6279SOL    HW230297   2.024   1.350  12.238  1.0422  0.1806  0.2568
 6280SOL     OW30298   3.052   3.156  14.311 -0.0633 -0.4285 -0.0644
 6280SOL    HW130299   3.133   3.191  14.274  0.1194 -1.1036 -0.3045
 6280SOL    HW230300   2.986   3.214  14.273 -1.0290 -0.8528  0.9533
 6281SOL     OW30301   0.051   1.290   1.977 -0.0051  0.0346 -0.6350
 6281SOL    HW130302   0.055   1.330   1.890 -1.0543 -0.3579 -0.8656
 6281SOL    HW230303   0.057   1.198   1.954  0.5854 -0.3635  1.1174
 6282SOL     OW30304   0.266   3.914   6.827  0.0286  0.2104 -0.1865
 6282SOL    HW130305   0.230   3.870   6.750  0.3289  0.4056 -0.4407
 6282SOL    HW230306   0.199   3.975   6.857  1.4308  1.4151  0.4752
 6283SOL     OW30307   3.247   0.765   2.424  0.6162 -0.0666  0.2117
 6283SOL    HW130308   3.186   0.838   2.429  1.0677  0.2351  1.3870
 6283SOL    HW230309   3.327   0.802   2.462  0.8719  0.0363 -0.4312
 6284SOL     OW30310   0.612   3.498   9.033  0.5989  0.2079 -0.0861
 6284SOL    HW130311   0.701   3.527   9.012  0.4811  1.5599  1.2924
 6284SOL    HW230312   0.589   3.574   9.087  0.0505 -2.5244  3.5935
 6285SOL     OW30313   0.499   1.297   5.558  0.2901  0.4681  0.2014
 6285SOL    HW130314   0.547   1.238   5.615 -0.1998 -0.7734 -0.6680
 6285SOL    HW230315   0.546   1.380   5.572 -0.0396  0.7952 -0.6217
 6286SOL     OW30316   2.150   1.928   8.012 -0.6192 -0.2946  0.1075
 6286SOL    HW130317   2.077   1.951   7.955 -1.5048  0.8977  1.7271
 6286SOL    HW230318   2.194   2.010   7.994 -1.1248 -0.0732 -0.1352
 6287SOL     OW30319   1.485   4.266   6.845  0.0102 -0.2123  0.0960
 6287SOL    HW130320   1.463   4.177   6.817 -1.1684  0.3209 -0.7130
 6287SOL    HW230321   1.570   4.280   6.803  0.8647 -2.1889  1.1959
 6288SOL     OW30322   0.830   4.308  17.332 -0.3688  0.3687 -0.4107
 6288SOL    HW130323   0.832   4.400  17.305 -0.2550  0.6691  0.6223
 6288SOL    HW230324   0.847   4.268  17.247  0.1354  0.2271 -0.2400
 6289SOL     OW30325   3.885   1.664   4.950 -0.0342  0.7304  0.2298
 6289SOL    HW130326   3.946   1.598   4.918  0.4120  0.4119  1.7293
 6289SOL    HW230327   3.907   1.734   4.888 -1.5635  0.4419 -0.6378
 6290SOL     OW30328   3.929   2.769  11.888  0.2533 -0.4538 -0.7302
 6290SOL    HW130329   3.915   2.683  11.849 -1.2358 -1.0641  1.1892
 6290SOL    HW230330   3.925   2.738  11.979 -1.6180 -0.4038 -0.7889
 6291SOL     OW30331   3.571   4.148  14.199 -0.3162  0.1911  0.3314
 6291SOL    HW130332   3.591   4.214  14.265  6.5593 -2.1758  0.6873
 6291SOL    HW230333   3.487   4.119  14.234 -0.6620  1.1448  0.3054
 6292SOL     OW30334   1.616   3.316   8.033  0.0687  0.5136 -0.2905
 6292SOL    HW130335   1.616   3.352   8.122 -3.6556 -0.6937  0.2000
 6292SOL    HW230336   1.604   3.398   7.985 -0.9434 -1.6611 -3.7292
 6293SOL     OW30337   2.820   0.241  10.684 -0.5079 -0.1208  0.5502
 6293SOL    HW130338   2.763   0.300  10.636 -0.1738 -1.2030 -1.1706
 6293SOL    HW230339   2.901   0.259  10.637  0.6793  1.5678  3.2280
 6294SOL     OW30340   1.296   0.534   3.169  0.8137 -0.5319 -0.2731
 6294SOL    HW130341   1.382   0.561   3.138  1.2376  0.5263  1.8102
 6294SOL    HW230342   1.278   0.465   3.105  0.1029  0.0849 -0.7388
 6295SOL     OW30343   3.582   3.281   3.752 -0.2412  0.5075 -0.4436
 6295SOL    HW130344   3.628   3.365   3.751  1.5272 -0.3925  3.7383
 6295SOL    HW230345   3.551   3.280   3.661  1.1058 -2.2866 -0.8861
 6296SOL     OW30346   0.750   3.105   4.660 -0.2283 -0.1599 -0.0847
 6296SOL    HW130347   0.838   3.097   4.696 -0.0529  0.5154 -0.3737
 6296SOL    HW230348   0.706   3.036   4.709 -1.6248  2.9689  3.0462
 6297SOL     OW30349   2.868   4.047   6.361  0.0082  0.6879 -0.2689
 6297SOL    HW130350   2.950   4.022   6.404  0.7661  1.4816 -1.2477
 6297SOL    HW230351   2.819   4.092   6.429  2.8220  2.2598  0.7309
 6298SOL     OW30352   2.557   3.446   5.628 -0.1071 -0.0986 -0.1451
 6298SOL    HW130353   2.526   3.456   5.538 -0.1682 -0.6632 -0.1871
 6298SOL    HW230354   2.640   3.403   5.610 -0.3220 -1.3649  1.9105
 6299SOL     OW30355   3.822   1.738   6.188 -0.2931  0.6973 -0.4013
 6299SOL    HW130356   3.852   1.704   6.104  1.2187 -0.5660  0.6520
 6299SOL    HW230357   3.731   1.760   6.167 -0.3561  0.6552 -0.1743
 6300SOL     OW30358   4.632   0.096   9.201  0.4415  0.1054  0.6357
 6300SOL    HW130359   4.711   0.119   9.152  0.1987 -1.0556 -0.2965
 6300SOL    HW230360   4.654   0.004   9.220 -3.5675 -1.3845 -1.8467
 6301SOL     OW30361   4.437   0.510   2.386  0.4481  0.4387 -0.0251
 6301SOL    HW130362   4.459   0.432   2.437  0.0502  1.2189  1.3786
 6301SOL    HW230363   4.496   0.497   2.313 -0.4565 -0.4659 -0.5967
 6302SOL     OW30364   2.185   0.675  14.377  0.0313  0.1777 -0.0988
 6302SOL    HW130365   2.201   0.583  14.355 -1.0611  0.1492 -0.7601
 6302SOL    HW230366   2.163   0.672  14.470 -1.4469  1.1173 -0.4135
 6303SOL     OW30367   1.520   1.046   3.951  0.3593 -0.1982 -0.4621
 6303SOL    HW130368   1.603   1.062   3.996 -0.1929  0.3605  0.3507
 6303SOL    HW230369   1.540   1.015   3.862 -0.4343 -2.7633  0.2362
 6304SOL     OW30370   2.190   1.838  12.137  0.1212  0.2905 -0.1504
 6304SOL    HW130371   2.270   1.791  12.112  0.8965  0.9391  1.1280
 6304SOL    HW230372   2.176   1.804  12.226 -1.1727 -1.9595 -1.2021
 6305SOL     OW30373   4.463   0.129   0.915  0.2789 -0.1982 -0.1928
 6305SOL    HW130374   4.532   0.128   0.848  0.6658 -0.5510  0.2123
 6305SOL    HW230375   4.502   0.186   0.981 -2.9300  0.5450  1.0457
 6306SOL     OW30376   0.594   2.613   3.718  0.2352  0.1148  0.2188
 6306SOL    HW130377   0.667   2.561   3.750  0.1213  1.0632  2.0331
 6306SOL    HW230378   0.580   2.557   3.642  0.6717  0.3982 -0.0675
 6307SOL     OW30379   4.084   1.393   1.639 -0.1084 -0.2253  0.3922
 6307SOL    HW130380   4.019   1.347   1.692 -1.1286 -0.9915 -1.5050
 6307SOL    HW230381   4.161   1.340   1.661  0.4824  1.1877  1.6791
 6308SOL     OW30382   0.428   1.490   7.982 -0.9140  0.2045  0.1712
 6308SOL    HW130383   0.379   1.415   7.950  1.7500 -0.9317 -1.2906
 6308SOL    HW230384   0.453   1.463   8.070 -1.2571 -0.6211  0.0151
 6309SOL     OW30385   1.579   4.323   4.556  0.4831 -0.1486 -0.0099
 6309SOL    HW130386   1.535   4.408   4.560  0.8073  0.1362 -2.1617
 6309SOL    HW230387   1.587   4.316   4.461  1.4067 -1.3135  0.1562
 6310SOL     OW30388   4.197   3.565   5.454 -1.1248 -0.2280  0.5511
 6310SOL    HW130389   4.258   3.568   5.528 -1.4542  0.1452  0.8028
 6310SOL    HW230390   4.246   3.606   5.383  0.6734  0.7483  2.3632
 6311SOL     OW30391   0.770   1.618  12.425 -0.3365  0.5613 -0.4541
 6311SOL    HW130392   0.748   1.588  12.513  1.4464  1.7809  0.4170
 6311SOL    HW230393   0.852   1.569  12.413 -1.7833 -2.0826  0.5590
 6312SOL     OW30394   4.501   1.553   2.972  0.6126 -0.4217  0.2728
 6312SOL    HW130395   4.454   1.635   2.985  0.0297 -0.9561  1.5401
 6312SOL    HW230396   4.522   1.563   2.879  1.4721  0.5764  0.5745
 6313SOL     OW30397   3.198   2.681   4.688 -0.4136  0.1047  0.3306
 6313SOL    HW130398   3.254   2.623   4.637 -1.7746 -0.1060 -0.9161
 6313SOL    HW230399   3.215   2.766   4.649  3.5242  0.0185  1.8426
 6314SOL     OW30400   2.373   0.028   6.735  0.2792  0.1783 -0.0129
 6314SOL    HW130401   2.388   0.054   6.826  3.1625  0.3315 -0.5274
 6314SOL    HW230402   2.408   0.095   6.677 -0.2931  0.9027  0.4750
 6315SOL     OW30403   3.214   2.803  14.252 -0.5219  0.4254 -0.1200
 6315SOL    HW130404   3.254   2.721  14.282 -0.2525  0.1928 -1.1240
 6315SOL    HW230405   3.144   2.766  14.199 -0.8116 -0.4473  0.8482
 6316SOL     OW30406   2.230   4.095  17.342  0.3867 -0.1660  0.0884
 6316SOL    HW130407   2.260   4.021  17.395  2.8150  0.6685 -0.0921
 6316SOL    HW230408   2.159   4.124  17.398 -0.9049  1.0050 -2.1615
 6317SOL     OW30409   0.484   1.951  17.485  0.0423  0.0708 -0.2237
 6317SOL    HW130410   0.396   1.928  17.455  0.1248 -1.0163  0.3768
 6317SOL    HW230411   0.475   1.940  17.580  0.5124 -1.6066 -0.3833
 6318SOL     OW30412   1.318   1.239   8.726  0.1557  0.2184 -0.2552
 6318SOL    HW130413   1.271   1.248   8.808  2.2567  0.8668  0.8859
 6318SOL    HW230414   1.332   1.145   8.735  0.0022  0.2567  0.3386
 6319SOL     OW30415   0.168   0.602  10.652 -0.5475 -0.3570  0.0273
 6319SOL    HW130416   0.220   0.609  10.571 -0.5010  1.8315  0.2463
 6319SOL    HW230417   0.217   0.663  10.708 -1.2297  1.1454 -1.0011
 6320SOL     OW30418   0.948   2.993   9.632  0.9775 -0.0288  0.3818
 6320SOL    HW130419   1.023   3.020   9.580 -0.2609 -0.1290 -1.4882
 6320SOL    HW230420   0.877   3.020   9.573  0.6654  1.2207  1.3333
 6321SOL     OW30421   0.922   1.455  13.917 -0.5040  0.4714 -0.6494
 6321SOL    HW130422   0.960   1.542  13.904  1.6536 -0.1696  1.3924
 6321SOL    HW230423   0.952   1.444  14.007  1.6555  0.7906 -1.3396
 6322SOL     OW30424   3.108   0.104   3.939  0.1251 -0.0899  0.0482
 6322SOL    HW130425   3.076   0.192   3.962  0.9040  0.6316 -1.6879
 6322SOL    HW230426   3.130   0.113   3.847  1.5963  0.3656  0.4423
 6323SOL     OW30427   4.613   1.690   7.119  0.2893 -0.3139 -0.4813
 6323SOL    HW130428   4.569   1.709   7.037 -0.4755 -0.0611 -0.0135
 6323SOL    HW230429   4.647   1.608   7.084  1.6945  0.4901 -0.9857
 6324SOL     OW30430   3.404   1.017   8.732 -0.0818  0.2864 -0.5632
 6324SOL    HW130431   3.420   1.077   8.804  0.0658  0.5851 -0.8463
 6324SOL    HW230432   3.446   0.938   8.766  0.4246  0.4615 -0.7789
 6325SOL     OW30433   2.347   2.066   5.794 -0.0090  0.3231  0.2057
 6325SOL    HW130434   2.294   2.081   5.872 -0.9781  0.9702 -0.5704
 6325SOL    HW230435   2.289   2.010   5.743  1.0233 -0.2719 -0.3190
 6326SOL     OW30436   1.897   4.183  14.828  0.5135 -0.4685 -0.0225
 6326SOL    HW130437   1.929   4.131  14.901  0.2144 -0.2139  0.2950
 6326SOL    HW230438   1.967   4.248  14.821  1.3755 -1.3858  0.2307
 6327SOL     OW30439   3.576   1.881   3.935  0.4318  0.2326 -0.7188
 6327SOL    HW130440   3.613   1.961   3.970  1.4123 -1.6305  2.5427
 6327SOL    HW230441   3.504   1.925   3.890  1.2465  0.7731 -1.4831
 6328SOL     OW30442   4.411   4.367   9.918 -0.3011  0.2871 -0.4286
 6328SOL    HW130443   4.421   4.279   9.881  3.9553  0.1576  1.0724
 6328SOL    HW230444   4.414   4.427   9.843  0.3464  1.5242  0.5909
 6329SOL     OW30445   2.318   3.883   9.670  0.0589 -0.4239  0.0894
 6329SOL    HW130446   2.371   3.906   9.594 -1.1010  2.1100  0.0462
 6329SOL    HW230447   2.363   3.805   9.702  0.8328 -0.3347 -0.7948
 6330SOL     OW30448   3.784   1.353   0.953 -0.0402 -0.0599 -0.5011
 6330SOL    HW130449   3.720   1.307   1.006 -0.4284 -1.0727 -1.8608
 6330SOL    HW230450   3.736   1.364   0.871 -2.3167  1.6816  1.0581
 6331SOL     OW30451   3.982   1.423  10.204 -0.1231  0.5200 -0.5200
 6331SOL    HW130452   4.056   1.363  10.202 -0.9436 -0.4945 -0.5863
 6331SOL    HW230453   3.986   1.471  10.121 -2.3869  0.8039 -0.4608
 6332SOL     OW30454   0.052   3.877   2.691  0.5397  1.0155 -0.2313
 6332SOL    HW130455   0.014   3.845   2.773 -0.4947 -1.6486 -1.7287
 6332SOL    HW230456   4.700   3.893   2.635  0.8509 -0.7354 -1.1356
 6333SOL     OW30457   1.495   2.765   4.567 -0.3986 -0.1018  0.2232
 6333SOL    HW130458   1.516   2.847   4.613 -1.1541  0.8891 -1.1766
 6333SOL    HW230459   1.452   2.800   4.488 -0.7096  1.1378  0.9367
 6334SOL     OW30460   4.125   0.840   4.462  0.0200  0.9659  0.5331
 6334SOL    HW130461   4.041   0.836   4.417  0.3081 -0.3567  0.1133
 6334SOL    HW230462   4.153   0.931   4.452  2.7674 -0.0235 -0.8673
 6335SOL     OW30463   3.489   3.911   3.404  0.1317 -0.2974 -0.2355
 6335SOL    HW130464   3.532   3.868   3.330 -0.9288 -2.4780  0.4019
 6335SOL    HW230465   3.477   3.828   3.450 -0.4700 -1.0785 -1.7993
 6336SOL     OW30466   3.416   0.890   7.439 -0.2152  0.7353 -0.1234
 6336SOL    HW130467   3.324   0.868   7.450 -0.4329  1.0425 -1.3647
 6336SOL    HW230468   3.406   0.986   7.442  0.0706  0.7499  0.3307
 6337SOL     OW30469   0.272   0.424   8.277 -0.0018 -0.2136 -0.2058
 6337SOL    HW130470   0.203   0.467   8.327 -0.3193 -0.9255 -0.0375
 6337SOL    HW230471   0.294   0.362   8.346 -0.6302 -0.0950  0.0986
 6338SOL     OW30472   2.023   2.504   2.971 -0.1654 -0.3892  0.5453
 6338SOL    HW130473   1.963   2.557   2.917 -0.0744  0.1079  0.9308
 6338SOL    HW230474   2.047   2.432   2.914  2.0117  0.3759  0.4833
 6339SOL     OW30475   1.144   3.566   3.641  0.5750 -0.3979  0.6977
 6339SOL    HW130476   1.125   3.641   3.698  2.1495  1.3795 -1.1034
 6339SOL    HW230477   1.229   3.534   3.673  0.2069 -0.7428  1.3097
 6340SOL     OW30478   0.120   3.464   7.957  0.0051  0.2668 -0.1242
 6340SOL    HW130479   0.196   3.521   7.965 -0.1078  0.4454 -0.3225
 6340SOL    HW230480   0.068   3.493   7.882  0.8607  0.5771 -0.6079
 6341SOL     OW30481   0.634   2.650  13.479  0.0123 -0.0193  0.2795
 6341SOL    HW130482   0.565   2.715  13.462 -1.2815 -1.5604 -0.3455
 6341SOL    HW230483   0.642   2.590  13.405  1.5056  1.8915 -1.1203
 6342SOL     OW30484   2.499   3.505   5.372 -0.1486  0.1299 -0.0889
 6342SOL    HW130485   2.500   3.446   5.296  0.5884  0.5165 -0.3797
 6342SOL    HW230486   2.456   3.580   5.331  0.8394 -0.2210 -1.7749
 6343SOL     OW30487   3.708   3.110   2.853 -0.0374 -0.0807  0.2882
 6343SOL    HW130488   3.665   3.157   2.782  2.4169  0.1019 -1.0814
 6343SOL    HW230489   3.795   3.141   2.826  0.0673 -0.4030  0.2534
 6344SOL     OW30490   3.966   3.693  10.017  0.0587  0.5259 -0.0386
 6344SOL    HW130491   4.060   3.705  10.027  0.1242 -0.4255  0.4174
 6344SOL    HW230492   3.939   3.734  10.099  1.0244 -0.1728  0.6256
 6345SOL     OW30493   3.262   1.844   5.103 -0.3648  0.6975  0.5450
 6345SOL    HW130494   3.300   1.757   5.119 -0.9377 -0.0817 -2.4241
 6345SOL    HW230495   3.297   1.861   5.016  0.4639  0.4829  0.8383
 6346SOL     OW30496   4.476   0.191   9.411  0.6130 -0.4012 -0.6743
 6346SOL    HW130497   4.544   0.157   9.352  1.9715 -1.4319  1.5084
 6346SOL    HW230498   4.510   0.278   9.430  0.4822 -0.7600  1.1246
 6347SOL     OW30499   3.520   3.816   8.287 -0.2846 -0.0260 -0.0109
 6347SOL    HW130500   3.575   3.805   8.209  0.7251  1.1837  0.5201
 6347SOL    HW230501   3.533   3.737   8.338 -1.1713 -0.4090 -0.3796
 6348SOL     OW30502   1.415   3.916   1.610  0.5862 -1.0193 -0.3604
 6348SOL    HW130503   1.499   3.951   1.582  0.1866 -0.8923 -1.4038
 6348SOL    HW230504   1.432   3.916   1.705  1.0775 -2.5843 -0.4531
 6349SOL     OW30505   4.327   3.405   1.866  0.1388 -0.0097 -0.0477
 6349SOL    HW130506   4.318   3.320   1.823 -0.9476 -0.3803  0.9075
 6349SOL    HW230507   4.354   3.387   1.956  1.1368 -0.6397 -0.4752
 6350SOL     OW30508   2.293   0.924  10.746 -0.4562  0.9512 -0.3330
 6350SOL    HW130509   2.374   0.974  10.757 -0.9303  1.7681 -0.5610
 6350SOL    HW230510   2.330   0.843  10.711  1.3453  1.4642  0.3836
 6351SOL     OW30511   3.770   0.987   2.137  0.5986 -0.2467 -0.3587
 6351SOL    HW130512   3.682   0.950   2.132  0.9116 -1.2715  1.7336
 6351SOL    HW230513   3.798   0.986   2.045  1.3370 -1.3313 -0.1231
 6352SOL     OW30514   4.556   4.020   3.143 -0.2422  0.6132 -0.1464
 6352SOL    HW130515   4.507   4.088   3.189 -0.9837  0.7625 -1.1517
 6352SOL    HW230516   4.598   4.062   3.068  1.2799 -1.9615 -0.7287
 6353SOL     OW30517   2.303   4.197   8.487  0.3116  0.0222  0.4293
 6353SOL    HW130518   2.373   4.132   8.496  0.7950  0.0448 -2.9383
 6353SOL    HW230519   2.324   4.222   8.397  1.8880 -2.4270  0.1240
 6354SOL     OW30520   2.769   0.990   3.597  0.0636 -0.2221 -0.2750
 6354SOL    HW130521   2.777   1.083   3.576  2.9637 -0.6965 -1.2955
 6354SOL    HW230522   2.707   0.996   3.669  0.8091  0.5081  0.3154
 6355SOL     OW30523   2.167   3.113   8.213  0.3068  0.2447 -0.4099
 6355SOL    HW130524   2.102   3.150   8.273 -0.5421 -0.1533 -1.0865
 6355SOL    HW230525   2.118   3.133   8.133  1.8723 -0.2181 -1.4943
 6356SOL     OW30526   0.870   1.457   0.098  0.5226  0.6600 -0.5331
 6356SOL    HW130527   0.858   1.547   0.128  0.5118  0.6823 -0.6040
 6356SOL    HW230528   0.785   1.440   0.056  1.7578 -1.0864 -2.3015
 6357SOL     OW30529   4.443   2.430   7.794  0.4555  0.2250  0.2255
 6357SOL    HW130530   4.407   2.384   7.718  0.2178  0.1896  0.3610
 6357SOL    HW230531   4.393   2.386   7.863  0.0318 -0.5282 -0.5660
 6358SOL     OW30532   2.405   0.001   0.564 -0.0920 -0.5198 -0.6900
 6358SOL    HW130533   2.434   0.014   0.474  1.1362  1.1048 -0.0415
 6358SOL    HW230534   2.439   0.083   0.598  1.2989 -2.4882  2.6328
 6359SOL     OW30535   1.193   1.256   2.488  0.1843 -0.2109  0.4202
 6359SOL    HW130536   1.126   1.307   2.533 -1.0690  0.5668 -2.3951
 6359SOL    HW230537   1.268   1.273   2.545 -0.6708  2.6589  0.6656
 6360SOL     OW30538   1.566   4.332  10.108  0.0860  0.2925 -0.2372
 6360SOL    HW130539   1.583   4.267  10.041 -0.0302  0.2680 -0.2420
 6360SOL    HW230540   1.486   4.292  10.141 -0.0132  0.2708 -0.5047
 6361SOL     OW30541   2.614   1.428   6.561 -0.2023  0.2356 -0.4079
 6361SOL    HW130542   2.614   1.513   6.605 -0.0140  0.6589 -1.2311
 6361SOL    HW230543   2.576   1.444   6.474 -3.1243 -3.8443  0.0826
 6362SOL     OW30544   4.213   0.199   4.830 -0.5570 -0.1134 -0.6021
 6362SOL    HW130545   4.230   0.286   4.865  0.0287 -0.9952  1.3551
 6362SOL    HW230546   4.221   0.146   4.910 -0.6783  0.8301  0.0225
 6363SOL     OW30547   4.419   1.626   8.683 -0.2468 -0.2122  0.1362
 6363SOL    HW130548   4.471   1.598   8.758 -2.1436 -2.5591  0.5723
 6363SOL    HW230549   4.354   1.557   8.670 -2.8824  2.5301 -1.2497
 6364SOL     OW30550   0.043   1.727   5.633 -0.3732 -0.1759  0.2291
 6364SOL    HW130551   0.084   1.712   5.719  0.0116 -1.1192 -0.1218
 6364SOL    HW230552   0.116   1.692   5.581  0.9904 -0.6464  2.4137
 6365SOL     OW30553   2.529   4.006   7.681 -0.3823  0.4209  0.5004
 6365SOL    HW130554   2.534   3.940   7.612  2.0573  0.1586  0.8986
 6365SOL    HW230555   2.555   4.079   7.625 -0.8434 -0.0725 -0.3661
 6366SOL     OW30556   2.722   3.112  15.472 -0.0433  0.0433 -0.2487
 6366SOL    HW130557   2.761   3.065  15.399 -0.7223  0.2075 -0.7183
 6366SOL    HW230558   2.755   3.061  15.546  0.4249  0.4805 -0.1570
 6367SOL     OW30559   4.028   1.215   0.005 -0.5961 -0.6283 -0.3930
 6367SOL    HW130560   4.028   1.124   0.035 -1.4053 -0.9474 -1.3786
 6367SOL    HW230561   3.974   1.203  17.625  0.7930  2.6143 -1.8601
 6368SOL     OW30562   2.826   3.867  14.952  0.1421 -0.0116 -0.3282
 6368SOL    HW130563   2.881   3.882  14.875  0.4615  1.3851  0.1656
 6368SOL    HW230564   2.756   3.930  14.934 -0.1699 -0.2070  0.2151
 6369SOL     OW30565   3.872   1.395   7.010 -0.3191  1.3080  0.1865
 6369SOL    HW130566   3.944   1.358   7.060 -2.1080  0.3661  2.0839
 6369SOL    HW230567   3.803   1.360   7.067  0.8745  0.7883  1.3216
 6370SOL     OW30568   0.174   2.688  14.997  0.7729 -0.7705 -0.0250
 6370SOL    HW130569   0.262   2.662  15.023  0.2594 -1.1766  1.2667
 6370SOL    HW230570   0.138   2.615  14.947 -0.4205 -1.1016  1.3435
 6371SOL     OW30571   3.407   2.298   4.125  0.0522  0.5623  0.6008
 6371SOL    HW130572   3.390   2.382   4.167 -2.2349  0.2573  0.2702
 6371SOL    HW230573   3.448   2.245   4.193 -2.2026 -2.6167 -0.5267
 6372SOL     OW30574   2.883   2.786  11.931 -0.3259  0.1661 -0.0304
 6372SOL    HW130575   2.805   2.740  11.962  0.2559 -0.2551  0.8445
 6372SOL    HW230576   2.867   2.877  11.954 -0.7812 -0.7524  3.3140
 6373SOL     OW30577   2.616   1.638   4.067 -0.3931  0.4070  0.2067
 6373SOL    HW130578   2.704   1.652   4.102 -0.8539  0.1006  1.4800
 6373SOL    HW230579   2.568   1.617   4.146 -1.0761  1.7588  0.1441
 6374SOL     OW30580   1.299   0.941   2.284  0.0509  0.4167  0.1012
 6374SOL    HW130581   1.344   0.966   2.204  0.1948 -1.6729 -0.4856
 6374SOL    HW230582   1.286   1.025   2.328  2.2384  1.4015 -1.1496
 6375SOL     OW30583   3.413   3.928   3.107  0.6271  0.2391  1.0005
 6375SOL    HW130584   3.454   3.983   3.041 -1.5623  1.1804  0.4108
 6375SOL    HW230585   3.367   3.999   3.153 -0.9535  0.7018 -1.3277
 6376SOL     OW30586   3.796   2.153   5.980  0.1490 -0.8307 -0.1848
 6376SOL    HW130587   3.827   2.134   6.069 -1.8638 -0.8688  0.5097
 6376SOL    HW230588   3.877   2.151   5.928  0.5512  1.6948  0.3596
 6377SOL     OW30589   1.155   1.581  12.156 -0.6511  0.4016 -0.0347
 6377SOL    HW130590   1.206   1.614  12.230 -0.0078 -0.8161  0.0498
 6377SOL    HW230591   1.107   1.663  12.143 -2.3646 -0.6060 -0.1542
 6378SOL     OW30592   3.873   2.596  15.128 -0.6208 -0.4339  0.1363
 6378SOL    HW130593   3.892   2.683  15.163  2.6461 -1.4294  0.8269
 6378SOL    HW230594   3.822   2.626  15.053  0.4482 -1.0329 -0.8266
 6379SOL     OW30595   2.767   4.532   4.120  0.4937 -0.1709 -0.4990
 6379SOL    HW130596   2.715   4.613   4.119  2.0642  0.8869  2.4546
 6379SOL    HW230597   2.757   4.500   4.031  1.0922  0.8977 -0.9512
 6380SOL     OW30598   1.493   0.615   7.274  0.1155  0.2315 -0.9084
 6380SOL    HW130599   1.401   0.633   7.255 -0.3073  1.4984  2.3264
 6380SOL    HW230600   1.486   0.577   7.362 -3.2624  1.8772 -0.4718
 6381SOL     OW30601   0.376   2.542  16.918  0.0124 -0.4607 -0.3860
 6381SOL    HW130602   0.449   2.524  16.858  1.5321  1.2703  0.9299
 6381SOL    HW230603   0.317   2.477  16.880  2.2601 -1.5571 -2.0264
 6382SOL     OW30604   4.286   1.481   9.136 -0.2807  0.4197 -0.1573
 6382SOL    HW130605   4.313   1.560   9.089 -1.0245  0.1879 -0.9666
 6382SOL    HW230606   4.365   1.460   9.186 -1.0925  0.3632  1.0945
 6383SOL     OW30607   0.127   0.817  12.941 -0.2005 -0.3018  0.2938
 6383SOL    HW130608   0.064   0.746  12.950  0.0809 -0.9027 -2.2827
 6383SOL    HW230609   0.198   0.775  12.892 -1.5449  0.2075 -2.0949
 6384SOL     OW30610   4.056   2.220   3.113  0.4659 -0.6627  0.0993
 6384SOL    HW130611   4.141   2.224   3.070  1.7953  1.4150  2.9499
 6384SOL    HW230612   3.997   2.256   3.047  2.1869  1.4517 -0.2689
 6385SOL     OW30613   2.193   3.072   7.446 -0.1428 -0.0029 -0.0075
 6385SOL    HW130614   2.174   3.005   7.511  0.9405  1.1198  1.4836
 6385SOL    HW230615   2.249   3.133   7.494 -1.2305 -0.1721  1.4722
 6386SOL     OW30616   1.554   0.306   6.235 -0.4261  0.0901 -0.6022
 6386SOL    HW130617   1.649   0.295   6.236 -0.4190  0.2057 -0.1146
 6386SOL    HW230618   1.541   0.367   6.308  0.9077  0.5416 -0.7423
 6387SOL     OW30619   1.709   4.176   4.737 -0.7227  1.1207  0.2276
 6387SOL    HW130620   1.622   4.154   4.769 -0.2467  1.6400  1.8628
 6387SOL    HW230621   1.690   4.245   4.673  0.4085  2.1307  0.9809
 6388SOL     OW30622   3.866   3.058   9.202 -0.0237 -0.5613 -0.0862
 6388SOL    HW130623   3.847   3.011   9.284  1.3349  1.5002  1.3982
 6388SOL    HW230624   3.929   3.127   9.224 -0.8559  1.1585 -3.2241
 6389SOL     OW30625   3.888   2.096   0.267 -0.4338  0.0666  0.1440
 6389SOL    HW130626   3.982   2.110   0.275 -0.7703  2.7288 -0.5342
 6389SOL    HW230627   3.890   2.002   0.284  0.4088  0.1989  0.7396
 6390SOL     OW30628   4.719   4.460   5.605  0.7571 -0.9367 -0.0322
 6390SOL    HW130629   4.700   4.539   5.553  1.6933 -0.5725  0.1786
 6390SOL    HW230630   4.655   4.400   5.567  0.7059 -0.5233 -0.6010
 6391SOL     OW30631   2.831   4.021  15.590  0.2057  0.0709 -0.7659
 6391SOL    HW130632   2.796   3.958  15.526  1.5084 -0.4520 -0.9703
 6391SOL    HW230633   2.899   3.967  15.629 -0.5775 -1.4537 -1.5014
 6392SOL     OW30634   2.555   2.995   6.302 -0.2044  0.7837  0.2492
 6392SOL    HW130635   2.464   3.022   6.316 -0.5762 -0.6578  0.5520
 6392SOL    HW230636   2.594   3.083   6.303  0.7703  0.3444  0.9407
 6393SOL     OW30637   2.253   2.514   9.158  0.0787  0.1528 -0.6423
 6393SOL    HW130638   2.295   2.550   9.236 -1.4673  0.6250 -0.0241
 6393SOL    HW230639   2.327   2.504   9.099  1.6819  2.3603  0.9887
 6394SOL     OW30640   2.962   1.575  13.558 -0.2406 -0.0629  0.2777
 6394SOL    HW130641   2.948   1.607  13.647 -2.9578 -1.3920  0.3128
 6394SOL    HW230642   3.043   1.626  13.543 -0.3848  0.6380  1.9260
 6395SOL     OW30643   3.925   3.600   7.967 -0.0806 -0.0074 -0.4225
 6395SOL    HW130644   3.935   3.617   7.874  0.1930  0.9573 -0.2177
 6395SOL    HW230645   4.015   3.618   7.995 -0.4341  1.1369 -0.0564
 6396SOL     OW30646   1.260   0.849   4.985 -0.3758  0.5707  0.1600
 6396SOL    HW130647   1.350   0.872   4.963 -0.7167  1.0262 -0.7929
 6396SOL    HW230648   1.220   0.906   4.919 -1.0357  0.5781  0.5687
 6397SOL     OW30649   0.065   1.024   1.923  0.0123  0.2527  0.3472
 6397SOL    HW130650   0.161   1.023   1.922  0.0237  0.7524  1.9310
 6397SOL    HW230651   0.043   1.022   1.829  0.6274  1.3398  0.1743
 6398SOL     OW30652   1.201   3.298   4.693 -0.3453 -0.1819  0.0991
 6398SOL    HW130653   1.113   3.332   4.677  0.1643  1.1423  0.1158
 6398SOL    HW230654   1.186   3.207   4.668 -2.8079  0.1205  0.4034
 6399SOL     OW30655   2.924   3.843   0.034 -0.5807  0.9106 -0.3153
 6399SOL    HW130656   2.946   3.923  17.683  1.3191  0.9044  0.5305
 6399SOL    HW230657   2.919   3.774  17.666  0.3959 -1.6249  2.2849
 6400SOL     OW30658   4.657   0.657   5.101 -0.3152 -0.2436  0.0568
 6400SOL    HW130659   4.600   0.672   5.026 -1.2963  0.4337  0.9248
 6400SOL    HW230660   4.593   0.675   5.171  2.8499 -0.8234  3.1279
 6401SOL     OW30661   4.019   0.990  12.714  0.3885 -0.3339  0.2420
 6401SOL    HW130662   4.021   1.059  12.780  0.3220  0.6826 -0.8180
 6401SOL    HW230663   4.106   0.951  12.711  0.2811 -0.4282 -1.7899
 6402SOL     OW30664   4.250   3.871   3.488  0.1425  0.5230 -0.1168
 6402SOL    HW130665   4.284   3.900   3.573  4.7534 -0.5466 -1.6141
 6402SOL    HW230666   4.190   3.811   3.533  0.7422 -0.9036 -1.2533
 6403SOL     OW30667   1.960   3.230   6.604 -0.0084 -0.2905  0.1558
 6403SOL    HW130668   1.964   3.164   6.535 -1.6444 -0.5472  0.3256
 6403SOL    HW230669   1.958   3.173   6.681 -1.5984  2.7405  2.3689
 6404SOL     OW30670   0.502   4.581   5.319  0.0531  0.1497 -0.4539
 6404SOL    HW130671   0.546   4.534   5.390  1.7559 -0.2611 -1.8008
 6404SOL    HW230672   0.580   4.609   5.271 -0.4216  1.8137 -0.2780
 6405SOL     OW30673   3.295   1.814   2.417 -1.0053 -0.1966 -0.3964
 6405SOL    HW130674   3.363   1.762   2.374 -0.2881 -1.3337  2.1152
 6405SOL    HW230675   3.330   1.900   2.394  1.1949 -0.9157  0.2543
 6406SOL     OW30676   0.889   3.762   8.130 -0.2053 -0.3848  0.0388
 6406SOL    HW130677   0.956   3.831   8.124 -0.7480  0.0502 -1.0079
 6406SOL    HW230678   0.914   3.684   8.081  1.8466 -1.0033  2.0681
 6407SOL     OW30679   0.050   3.363   0.274 -0.0188 -0.2535 -0.4894
 6407SOL    HW130680   0.011   3.275   0.266  0.4430 -0.4911 -0.0907
 6407SOL    HW230681   0.086   3.369   0.185  1.3395 -0.9229  0.0119
 6408SOL     OW30682   1.686   2.943  11.680 -0.0021 -0.2877  0.4218
 6408SOL    HW130683   1.722   3.022  11.639 -0.4891 -0.2789  0.0139
 6408SOL    HW230684   1.605   2.934  11.629 -0.0278  2.1727  0.0230
 6409SOL     OW30685   2.910   3.786   5.256 -0.5128 -0.1088  0.2703
 6409SOL    HW130686   2.984   3.797   5.196 -0.1768 -1.7064  0.3948
 6409SOL    HW230687   2.840   3.826   5.204  1.7118  0.4113 -2.3126
 6410SOL     OW30688   0.012   2.530   6.931  0.3389  0.5178 -0.2242
 6410SOL    HW130689   4.641   2.537   6.921  0.3199 -0.0856 -0.5219
 6410SOL    HW230690   0.040   2.471   6.861  0.1319  0.2109 -0.0471
 6411SOL     OW30691   1.642   1.628  17.169 -0.6660 -0.1294 -0.4555
 6411SOL    HW130692   1.606   1.614  17.257  1.4766 -0.8894  0.3109
 6411SOL    HW230693   1.567   1.682  17.144 -2.6111 -2.6070  0.1019
 6412SOL     OW30694   2.251   3.312   4.321 -0.5690  0.0731 -0.1938
 6412SOL    HW130695   2.318   3.245   4.333  1.0968  1.6005 -0.9665
 6412SOL    HW230696   2.215   3.293   4.234 -1.2704  1.9275 -0.3000
 6413SOL     OW30697   0.421   4.408   3.865 -0.0112  0.1084 -0.0956
 6413SOL    HW130698   0.378   4.350   3.802  1.4666 -2.3972  1.2248
 6413SOL    HW230699   0.340   4.440   3.907  1.2789  2.5526  0.5057
 6414SOL     OW30700   0.554   2.323   6.900 -0.6231 -0.2216 -0.3142
 6414SOL    HW130701   0.556   2.289   6.990  1.7876 -0.2474 -0.3627
 6414SOL    HW230702   0.518   2.247   6.854  0.8449 -1.9337  1.3085
 6415SOL     OW30703   2.044   2.672   4.191  0.1551 -0.0851 -0.2318
 6415SOL    HW130704   2.062   2.753   4.238  0.1235  0.5907 -1.3764
 6415SOL    HW230705   2.033   2.603   4.256 -1.1952  0.5176  0.1823
 6416SOL     OW30706   0.764   3.980  13.570 -0.0797  0.6842 -0.1739
 6416SOL    HW130707   0.732   4.057  13.617  0.6142  1.2909 -0.6989
 6416SOL    HW230708   0.754   3.921  13.645  2.3010 -1.1738 -1.2855
 6417SOL     OW30709   1.438   3.666   6.270  0.2764  0.1081 -0.0341
 6417SOL    HW130710   1.515   3.661   6.214 -0.0772  1.2997 -0.6267
 6417SOL    HW230711   1.401   3.754   6.259  1.2510  0.4787 -0.3442
 6418SOL     OW30712   2.583   2.993   5.438  0.5540  0.0920  0.1616
 6418SOL    HW130713   2.606   3.009   5.347  0.1167 -0.1213  0.0150
 6418SOL    HW230714   2.527   2.916   5.431  0.3395  0.2998 -0.3952
 6419SOL     OW30715   3.140   3.164   4.210  0.0880  0.0751 -0.1432
 6419SOL    HW130716   3.086   3.173   4.131 -0.9071 -2.1629  0.3005
 6419SOL    HW230717   3.109   3.080   4.242 -0.9000  0.1259 -0.9800
 6420SOL     OW30718   2.573   2.191   7.761  0.3150  0.0754  0.3094
 6420SOL    HW130719   2.634   2.145   7.704 -0.3795  2.2977 -2.2270
 6420SOL    HW230720   2.553   2.120   7.821 -0.3554  0.3773  0.4488
 6421SOL     OW30721   3.140   4.105   1.474 -0.1079  0.1276  0.1838
 6421SOL    HW130722   3.212   4.098   1.412  0.9876 -1.4255  1.6692
 6421SOL    HW230723   3.174   4.045   1.540 -0.7700 -0.0564  0.3619
 6422SOL     OW30724   0.676   2.791   8.237  0.2794 -1.0336  0.6194
 6422SOL    HW130725   0.605   2.759   8.181  0.6265  0.3495 -0.6141
 6422SOL    HW230726   0.736   2.719   8.214  2.1000  0.1033  1.8521
 6423SOL     OW30727   1.498   4.386   7.641 -0.3639  0.3505  0.0275
 6423SOL    HW130728   1.461   4.376   7.728  1.2585  1.0183  0.7875
 6423SOL    HW230729   1.553   4.464   7.646 -0.4791  0.1958  3.5941
 6424SOL     OW30730   1.196   4.034   5.125  0.2544  0.6542 -0.6430
 6424SOL    HW130731   1.119   4.013   5.072  0.8414  1.4227 -1.7855
 6424SOL    HW230732   1.182   3.971   5.196 -2.8525 -1.2734 -2.9393
 6425SOL     OW30733   0.206   0.259   8.735  0.8278 -0.8207 -0.3188
 6425SOL    HW130734   0.132   0.320   8.734  1.4579 -0.0799 -2.6953
 6425SOL    HW230735   0.282   0.317   8.725  1.1589 -1.0143  1.1176
 6426SOL     OW30736   1.737   0.487   7.455 -0.4704  0.1000  0.0530
 6426SOL    HW130737   1.767   0.444   7.374 -0.5010  0.4599 -0.1506
 6426SOL    HW230738   1.731   0.417   7.520  1.9540 -2.0988 -2.1107
 6427SOL     OW30739   0.787   3.305   9.225  0.1719  0.5585 -0.0577
 6427SOL    HW130740   0.759   3.320   9.134 -2.4565 -0.4827  0.5914
 6427SOL    HW230741   0.862   3.365   9.224  0.6138  0.0017  0.2762
 6428SOL     OW30742   0.949   0.772   6.595  0.1235  0.6694  0.0360
 6428SOL    HW130743   1.007   0.803   6.663 -0.2226  0.2494  0.5244
 6428SOL    HW230744   0.909   0.699   6.642 -1.5244  1.1136 -0.6326
 6429SOL     OW30745   2.663   3.090   3.936  0.0572 -0.3761 -0.4294
 6429SOL    HW130746   2.705   3.054   4.014 -0.8877 -2.1956 -0.7624
 6429SOL    HW230747   2.680   3.020   3.873  0.9430  0.7338 -1.4240
 6430SOL     OW30748   4.121   2.713  12.140  0.0214 -0.2431 -0.5433
 6430SOL    HW130749   4.196   2.743  12.090 -0.2548 -2.2971 -2.1569
 6430SOL    HW230750   4.156   2.627  12.164  0.9539  1.0402  2.7504
 6431SOL     OW30751   0.986   0.628   7.090  0.0879  0.3651  0.0579
 6431SOL    HW130752   0.938   0.681   7.027 -1.5655 -0.4742  0.6217
 6431SOL    HW230753   1.031   0.566   7.033  2.3546  0.7850  1.3666
 6432SOL     OW30754   3.467   2.459  17.671 -0.1671 -0.3319 -0.1067
 6432SOL    HW130755   3.530   2.389  17.659 -0.2509 -0.3568 -0.3943
 6432SOL    HW230756   3.501   2.508   0.048  0.7389 -0.6193 -0.3366
 6433SOL     OW30757   3.314   4.563  13.424  0.6548 -0.0751 -0.0301
 6433SOL    HW130758   3.270   4.636  13.467 -1.1005 -0.7403 -0.6901
 6433SOL    HW230759   3.383   4.557  13.490  1.3375  0.9667 -0.6504
 6434SOL     OW30760   2.452   2.418   7.976 -0.8201 -0.3485  0.1692
 6434SOL    HW130761   2.474   2.377   8.059 -1.9402 -0.7603  0.2685
 6434SOL    HW230762   2.420   2.341   7.928  1.5374 -1.1667 -0.0702
 6435SOL     OW30763   2.912   1.085  16.037 -0.6198 -0.1926 -0.0935
 6435SOL    HW130764   2.973   1.127  15.976 -0.1000  0.7691  1.0844
 6435SOL    HW230765   2.978   1.051  16.098 -0.8616 -0.0070  0.2735
 6436SOL     OW30766   2.749   4.293   6.467  0.2062  0.7273  0.3515
 6436SOL    HW130767   2.742   4.364   6.404  0.1942  0.8995  0.5438
 6436SOL    HW230768   2.657   4.267   6.469  0.7059 -1.0526 -0.2336
 6437SOL     OW30769   0.791   2.232   2.012 -0.2676  0.0517  0.0010
 6437SOL    HW130770   0.838   2.273   1.939  3.0863 -3.7077  0.0762
 6437SOL    HW230771   0.800   2.293   2.086  0.5030 -3.0280  2.4256
 6438SOL     OW30772   2.715   3.487  13.034 -0.0688  0.6642 -0.5833
 6438SOL    HW130773   2.651   3.559  13.033  0.5452  1.2053 -0.5652
 6438SOL    HW230774   2.795   3.532  13.060 -1.0454  0.5052  2.7380
 6439SOL     OW30775   4.048   0.323   6.689  0.7815 -0.3179 -0.5894
 6439SOL    HW130776   4.051   0.355   6.779  2.3832  2.6342 -1.6846
 6439SOL    HW230777   3.958   0.292   6.685  1.1831 -1.1768 -3.1428
 6440SOL     OW30778   3.231   1.558   6.934  0.3379 -0.3166  0.3287
 6440SOL    HW130779   3.259   1.628   6.875 -2.3390 -0.1510 -0.7077
 6440SOL    HW230780   3.279   1.481   6.905  0.2148  0.1054 -0.9724
 6441SOL     OW30781   0.363   2.254   3.142  0.7864  0.7195  0.2182
 6441SOL    HW130782   0.403   2.247   3.055  1.5747  4.0371  0.3349
 6441SOL    HW230783   0.284   2.306   3.124 -0.8417 -1.0557  2.1677
 6442SOL     OW30784   2.705   2.422  14.253  0.3140 -0.1268  0.1341
 6442SOL    HW130785   2.749   2.372  14.185  2.2954  2.2195 -0.3256
 6442SOL    HW230786   2.658   2.351  14.296  1.8328 -0.9402  0.4263
 6443SOL     OW30787   4.338   2.166   6.301 -0.3431 -0.1463  0.6135
 6443SOL    HW130788   4.412   2.106   6.289 -1.3591 -1.5579  1.4157
 6443SOL    HW230789   4.332   2.206   6.214  0.3952  2.4584  1.7449
 6444SOL     OW30790   2.273   1.346   1.817  0.6079 -0.3287  0.2340
 6444SOL    HW130791   2.295   1.278   1.881 -1.3816 -1.3187 -0.1229
 6444SOL    HW230792   2.180   1.359   1.839  0.7811 -1.1124  1.4664
 6445SOL     OW30793   3.072   1.034   4.169  0.2943  0.1566  0.0257
 6445SOL    HW130794   3.159   1.073   4.174  1.0154 -1.3974 -0.3523
 6445SOL    HW230795   3.083   0.964   4.234 -2.3930  0.1615  0.4975
 6446SOL     OW30796   2.568   0.654  14.101 -0.1909 -0.0146  0.0235
 6446SOL    HW130797   2.474   0.670  14.109 -0.2193 -0.5848  0.8548
 6446SOL    HW230798   2.607   0.735  14.135 -0.7553 -0.2009  1.1048
 6447SOL     OW30799   0.082   1.714   8.896  0.2160  0.1823 -0.4372
 6447SOL    HW130800   0.072   1.772   8.972 -1.1877 -0.8940  0.2026
 6447SOL    HW230801   0.114   1.778   8.832  0.4891 -3.0437 -3.5362
 6448SOL     OW30802   0.226   1.550  11.748 -0.0917 -0.4545 -0.6135
 6448SOL    HW130803   0.219   1.569  11.841  0.7179 -2.4778 -0.1424
 6448SOL    HW230804   0.294   1.612  11.721  1.1008 -1.1843  0.7042
 6449SOL     OW30805   2.554   1.620  10.333  0.2712 -0.3851 -0.2239
 6449SOL    HW130806   2.475   1.673  10.347  1.2232  0.4971  1.7026
 6449SOL    HW230807   2.603   1.619  10.414  1.0251  1.4256 -0.6528
 6450SOL     OW30808   0.136   4.710  17.564 -0.4196  0.0282 -0.0434
 6450SOL    HW130809   0.150   4.615  17.565  2.7842  0.5479  1.2687
 6450SOL    HW230810   0.170   0.011  17.650 -0.2268  1.6885 -0.5980
 6451SOL     OW30811   1.258   1.460  12.456 -0.0058  0.0099 -0.1560
 6451SOL    HW130812   1.352   1.474  12.444 -0.1372  0.4638 -0.6564
 6451SOL    HW230813   1.253   1.524  12.527  0.7529 -1.4315  1.1834
 6452SOL     OW30814   2.309   3.307   1.365 -0.1242 -0.1135 -0.7337
 6452SOL    HW130815   2.377   3.372   1.343 -0.0682  0.7656  1.9930
 6452SOL    HW230816   2.353   3.262   1.437 -1.5989 -0.2402  0.0813
 6453SOL     OW30817   2.544   4.171   6.149 -0.7989  0.2188  0.1283
 6453SOL    HW130818   2.534   4.234   6.221  1.2540  0.3657  0.2846
 6453SOL    HW230819   2.631   4.192   6.116 -0.6786  1.2229  1.0914
 6454SOL     OW30820   3.448   4.186   1.907 -0.0473 -0.2867  0.0259
 6454SOL    HW130821   3.502   4.246   1.857 -1.8257  0.4887 -0.9552
 6454SOL    HW230822   3.516   4.122   1.929 -0.3205 -0.3496  0.7052
 6455SOL     OW30823   2.326   3.117   6.531  1.2461 -0.4272 -0.2915
 6455SOL    HW130824   2.299   3.128   6.622 -1.7330 -2.1638 -0.9766
 6455SOL    HW230825   2.320   3.023   6.512  4.5553 -0.5499 -0.7794
 6456SOL     OW30826   3.020   3.227   3.238 -0.7682  0.2842 -0.0869
 6456SOL    HW130827   3.070   3.269   3.308  0.5531 -2.3466  0.5458
 6456SOL    HW230828   3.001   3.294   3.172 -0.4562 -1.1438 -1.6202
 6457SOL     OW30829   1.280   0.231  13.743  0.3352  0.4745 -0.2522
 6457SOL    HW130830   1.307   0.140  13.751  0.3477  0.4365 -0.6841
 6457SOL    HW230831   1.329   0.271  13.814  0.9801 -0.3176 -0.2506
 6458SOL     OW30832   1.206   2.593   7.184  0.4732 -0.3671  0.2618
 6458SOL    HW130833   1.257   2.669   7.160  1.9974 -0.2070  4.0828
 6458SOL    HW230834   1.242   2.528   7.123  1.3852  0.9247 -0.5829
 6459SOL     OW30835   4.067   1.812   7.356  0.8579  0.0043  0.5789
 6459SOL    HW130836   4.129   1.747   7.321  0.1848  0.5287 -1.5777
 6459SOL    HW230837   3.994   1.816   7.295  0.2169 -2.8155  1.1667
 6460SOL     OW30838   2.152   3.550   7.098  0.6597 -0.0869 -0.2334
 6460SOL    HW130839   2.094   3.574   7.170  0.9581  0.7419 -0.2744
 6460SOL    HW230840   2.089   3.550   7.026  1.2611 -1.2123 -0.7561
 6461SOL     OW30841   0.043   1.698   3.848 -0.4960 -0.1617  0.0394
 6461SOL    HW130842   0.012   1.607   3.842  0.1033 -0.4256  0.8910
 6461SOL    HW230843   0.113   1.686   3.784 -0.2747  0.9291  0.0778
 6462SOL     OW30844   3.942   4.390   5.082  0.3514 -0.0227 -0.6169
 6462SOL    HW130845   3.979   4.364   5.166  0.9316  2.5384 -0.0907
 6462SOL    HW230846   3.918   4.480   5.104 -0.8488 -0.1941 -1.2414
 6463SOL     OW30847   3.285   1.782   3.421  0.2656  0.3694  0.0416
 6463SOL    HW130848   3.251   1.727   3.351 -1.0276 -1.5415  2.1990
 6463SOL    HW230849   3.209   1.785   3.478  0.1400 -0.9229 -0.0635
 6464SOL     OW30850   2.943   1.471   6.221  0.4735  0.1516 -0.2862
 6464SOL    HW130851   2.974   1.383   6.244 -2.9238 -0.5342  1.5885
 6464SOL    HW230852   3.018   1.529   6.235 -0.1753  1.2312 -1.2524
 6465SOL     OW30853   3.645   1.676   2.646  0.3812 -0.7281  0.3339
 6465SOL    HW130854   3.711   1.744   2.658 -0.4567 -0.2163  2.0425
 6465SOL    HW230855   3.585   1.702   2.717  1.0495 -0.1585  0.6901
 6466SOL     OW30856   3.145   4.459   3.095 -0.1053 -0.1368  0.5999
 6466SOL    HW130857   3.093   4.455   3.175 -1.6295 -2.0272 -0.4798
 6466SOL    HW230858   3.080   4.434   3.029  0.8961  0.5882 -0.6756
 6467SOL     OW30859   4.365   2.676   7.837 -0.0453  0.1028 -0.1721
 6467SOL    HW130860   4.336   2.713   7.754 -0.2883  1.2253  0.4240
 6467SOL    HW230861   4.382   2.587   7.805  0.5052 -0.1871  0.9155
 6468SOL     OW30862   1.123   3.194   5.655  0.0452  0.2575  0.2420
 6468SOL    HW130863   1.097   3.102   5.664 -1.5993  0.7480  0.5794
 6468SOL    HW230864   1.167   3.184   5.570 -2.1863  0.5015 -0.9399
 6469SOL     OW30865   3.867   0.197   5.234 -0.2664  0.2541 -0.5734
 6469SOL    HW130866   3.852   0.267   5.297  0.8690  0.9668 -1.0957
 6469SOL    HW230867   3.799   0.216   5.170 -0.1008  1.2128 -0.4608
 6470SOL     OW30868   2.332   4.041  15.632  0.3421  0.4038  0.1968
 6470SOL    HW130869   2.245   4.042  15.670  0.4491  2.5411  0.3786
 6470SOL    HW230870   2.323   3.987  15.554  1.9299  2.6681 -1.5503
 6471SOL     OW30871   3.187   0.201   2.495  0.2271  0.5092 -0.0962
 6471SOL    HW130872   3.151   0.259   2.563  0.4240  1.2185 -0.5976
 6471SOL    HW230873   3.134   0.122   2.504  0.1095  0.8086  2.0208
 6472SOL     OW30874   3.178   2.164   5.063 -0.2385 -0.5031  0.0923
 6472SOL    HW130875   3.098   2.130   5.104  0.9302 -1.6356  1.4365
 6472SOL    HW230876   3.243   2.103   5.098 -0.6326 -0.5080  0.8088
 6473SOL     OW30877   1.937   3.802   0.863 -0.3828 -0.3335 -0.9268
 6473SOL    HW130878   1.921   3.708   0.853  0.9639 -0.9400  2.9715
 6473SOL    HW230879   1.976   3.808   0.950  1.0567 -1.3013 -1.5258
 6474SOL     OW30880   2.646   3.790   3.322 -0.0074  0.3378  0.0237
 6474SOL    HW130881   2.553   3.766   3.329 -0.3073  1.9224  1.3689
 6474SOL    HW230882   2.658   3.836   3.406 -1.3136  1.9129 -0.6456
 6475SOL     OW30883   2.712   3.706  16.391  0.3309  0.3379  0.3078
 6475SOL    HW130884   2.750   3.708  16.478 -0.5433 -0.5872  0.7195
 6475SOL    HW230885   2.660   3.786  16.396  1.0425  0.9906 -2.6748
 6476SOL     OW30886   4.714   3.142   5.801  0.1448  0.0517 -0.0760
 6476SOL    HW130887   4.715   3.236   5.781  1.7341 -0.3951 -2.1098
 6476SOL    HW230888   0.033   3.102   5.726  1.0253 -0.3144  0.6195
 6477SOL     OW30889   0.917   3.940   5.427  0.5749  0.0164 -0.8635
 6477SOL    HW130890   0.933   3.854   5.388 -0.1145 -0.5162  0.0059
 6477SOL    HW230891   0.911   3.925   5.522  2.0319 -0.5774 -0.8688
 6478SOL     OW30892   1.613   4.078   3.756 -0.3302 -0.2626 -0.2337
 6478SOL    HW130893   1.706   4.094   3.741 -0.1918 -0.2133  0.6693
 6478SOL    HW230894   1.588   4.122   3.837 -2.6880 -0.0262 -1.0806
 6479SOL     OW30895   3.839   3.550   9.531  0.3501  0.3611 -0.3626
 6479SOL    HW130896   3.748   3.549   9.561  0.1248 -0.2417 -1.0514
 6479SOL    HW230897   3.880   3.613   9.590  0.9471  0.9677 -1.4360
 6480SOL     OW30898   3.477   0.691   3.289 -0.6553 -0.3002  0.6128
 6480SOL    HW130899   3.549   0.676   3.228  1.8965  1.7651  3.0792
 6480SOL    HW230900   3.482   0.787   3.299  0.1604 -0.3098  0.3052
 6481SOL     OW30901   1.920   2.961   5.972 -0.0693 -0.1796  0.4544
 6481SOL    HW130902   1.908   2.991   6.062 -0.5086  1.3738 -0.1173
 6481SOL    HW230903   1.847   2.900   5.962 -0.3779 -0.0110  1.6822
 6482SOL     OW30904   1.824   0.964   3.283  0.1702  0.3017  0.0296
 6482SOL    HW130905   1.894   0.924   3.334 -0.7519 -2.0655 -0.5845
 6482SOL    HW230906   1.776   0.886   3.257 -0.6138  0.9440 -0.4642
 6483SOL     OW30907   3.982   4.235   2.712  0.0486  0.3720  0.1048
 6483SOL    HW130908   3.938   4.156   2.682 -0.0001  0.5371 -0.2519
 6483SOL    HW230909   3.933   4.309   2.676 -1.1170 -0.3886  0.1300
 6484SOL     OW30910   3.610   1.657   4.959  0.4613 -0.4421 -0.5638
 6484SOL    HW130911   3.702   1.631   4.968  0.4830 -0.3584 -0.5382
 6484SOL    HW230912   3.611   1.707   4.878  1.4297  2.6588  1.3462
 6485SOL     OW30913   4.610   1.723   6.142 -0.1751 -0.3972 -0.0267
 6485SOL    HW130914   4.616   1.708   6.048  1.4649  0.2647 -0.0426
 6485SOL    HW230915   4.585   1.815   6.133  2.6499  0.1331 -2.4501
 6486SOL     OW30916   2.091   2.131   4.553 -0.9500 -0.2109 -0.1711
 6486SOL    HW130917   2.002   2.139   4.587 -0.3613 -0.5497  1.4267
 6486SOL    HW230918   2.111   2.049   4.599 -1.4938 -0.2413  0.0121
 6487SOL     OW30919   1.912   3.135   9.085 -0.0028  0.3233  0.3948
 6487SOL    HW130920   1.874   3.158   9.000  2.6781 -0.5704 -1.0196
 6487SOL    HW230921   2.001   3.163   9.068  0.2389 -0.2749  0.6791
 6488SOL     OW30922   0.800   1.019   0.971 -0.1662  0.2773 -0.2773
 6488SOL    HW130923   0.814   0.925   0.979 -2.5819 -0.1770 -1.4130
 6488SOL    HW230924   0.885   1.062   0.977 -0.5919  0.7059  2.6538
 6489SOL     OW30925   0.377   1.931  15.615  0.5425 -0.1115  0.4107
 6489SOL    HW130926   0.294   1.909  15.573  0.6639 -0.3593  0.3032
 6489SOL    HW230927   0.440   1.877  15.568  0.9424  1.0498 -0.3969
 6490SOL     OW30928   0.055   2.402   4.153 -0.1831 -0.7190  0.4625
 6490SOL    HW130929   0.145   2.427   4.131 -0.3826 -1.7482 -1.5588
 6490SOL    HW230930   0.024   2.435   4.069 -0.0525  0.6645  0.9590
 6491SOL     OW30931   0.241   1.302   4.947  0.0839  0.4302 -0.1246
 6491SOL    HW130932   0.243   1.221   4.999  1.2351  0.8964  0.5575
 6491SOL    HW230933   0.160   1.298   4.895 -0.2619  1.1096  0.3713
 6492SOL     OW30934   2.120   3.511  10.417  0.2747  0.0042  0.3040
 6492SOL    HW130935   2.124   3.583  10.355  1.7281 -2.0245 -1.9982
 6492SOL    HW230936   2.076   3.555  10.489 -0.4558 -1.0970  0.5354
 6493SOL     OW30937   4.320   1.592   4.275 -0.3920  0.2031  0.2379
 6493SOL    HW130938   4.348   1.625   4.190 -2.1703 -0.7600 -0.7224
 6493SOL    HW230939   4.225   1.599   4.273 -0.3765  0.7338  1.3336
 6494SOL     OW30940   2.270   1.563   3.880 -0.0236  0.9879 -0.4500
 6494SOL    HW130941   2.204   1.613   3.928 -0.8742 -1.4886  0.9815
 6494SOL    HW230942   2.268   1.610   3.797  0.2098  0.1101 -0.9529
 6495SOL     OW30943   3.453   1.779  11.865  0.0905  0.1874 -0.0058
 6495SOL    HW130944   3.505   1.828  11.928 -1.0062  0.4214  0.7234
 6495SOL    HW230945   3.507   1.786  11.786 -1.6394  0.2007 -1.1869
 6496SOL     OW30946   1.389   4.215  12.188  0.3759  0.2526  0.3257
 6496SOL    HW130947   1.480   4.209  12.218  0.1907 -0.6330  0.7282
 6496SOL    HW230948   1.378   4.124  12.160  0.3328 -0.6301  3.2028
 6497SOL     OW30949   1.358   2.335   4.417 -0.2651  0.0960  0.6924
 6497SOL    HW130950   1.264   2.344   4.399  0.0583  1.8562 -0.1399
 6497SOL    HW230951   1.380   2.409   4.473  0.6226  0.7909 -0.5581
 6498SOL     OW30952   4.445   0.844  12.877 -0.3001 -0.7531 -0.1081
 6498SOL    HW130953   4.366   0.854  12.824 -0.3741  1.4736  0.4121
 6498SOL    HW230954   4.512   0.823  12.812 -0.1423  1.7881 -0.7551
 6499SOL     OW30955   0.438   1.164   8.798  0.4238 -0.1198 -1.0682
 6499SOL    HW130956   0.448   1.239   8.858  0.2237 -1.0093  0.0782
 6499SOL    HW230957   0.394   1.205   8.723  0.2567 -1.7628 -1.8696
 6500SOL     OW30958   3.768   4.624   5.491 -0.3464 -0.5625 -0.1788
 6500SOL    HW130959   3.702   4.575   5.539 -0.6076 -0.0251  0.0099
 6500SOL    HW230960   3.710   4.685   5.445  0.3308  1.4909  1.6829
 6501SOL     OW30961   2.086   4.387   8.852 -0.0505  1.0754 -0.4900
 6501SOL    HW130962   1.991   4.397   8.846 -0.3950 -1.2640  0.7629
 6501SOL    HW230963   2.099   4.470   8.896  0.1091  0.1083  1.2985
 6502SOL     OW30964   0.269   0.244   7.483 -0.3770 -0.2624 -0.3121
 6502SOL    HW130965   0.293   0.267   7.573  1.6511  1.2488 -1.2460
 6502SOL    HW230966   0.245   0.331   7.450 -1.0909 -0.4670 -0.3326
 6503SOL     OW30967   1.771   1.078   8.280 -0.3005  0.1298  0.2145
 6503SOL    HW130968   1.712   1.110   8.347  0.2942 -0.9770  1.2628
 6503SOL    HW230969   1.816   1.003   8.319 -0.5597  0.6561  1.5145
 6504SOL     OW30970   4.705   2.378  13.572  0.0709 -0.1607 -0.3184
 6504SOL    HW130971   4.620   2.380  13.528 -0.4259  1.3646  0.6831
 6504SOL    HW230972   4.703   2.461  13.619 -0.5131  0.9723 -2.3524
 6505SOL     OW30973   1.476   4.544   2.884  0.4295 -0.0537  0.7270
 6505SOL    HW130974   1.482   4.486   2.959  1.0723  0.7353  1.2901
 6505SOL    HW230975   1.401   4.594   2.916  0.0780 -0.7992  1.0660
 6506SOL     OW30976   3.448   3.439   3.131  0.0335 -0.5213  0.0940
 6506SOL    HW130977   3.400   3.406   3.055  1.6168 -2.8683  0.1035
 6506SOL    HW230978   3.462   3.532   3.113  0.6846 -0.2426  2.0430
 6507SOL     OW30979   0.835   1.724  12.181 -0.3509 -0.0954  0.4853
 6507SOL    HW130980   0.805   1.689  12.265 -2.5986  3.2240  1.0596
 6507SOL    HW230981   0.916   1.765  12.212 -1.0250  0.6104  1.3238
 6508SOL     OW30982   1.087   0.481   4.111 -0.1048  0.0567 -0.2246
 6508SOL    HW130983   1.008   0.479   4.056  0.8246 -2.0082 -1.4758
 6508SOL    HW230984   1.145   0.422   4.063  0.1866 -1.2349  1.7657
 6509SOL     OW30985   0.026   3.800  16.095  0.0278 -0.1904 -0.3829
 6509SOL    HW130986   0.109   3.806  16.143  0.1741 -0.3598 -0.6161
 6509SOL    HW230987   0.005   3.893  16.089  1.9999  0.3662  1.0863
 6510SOL     OW30988   2.203   0.454   6.910  0.2930  0.1467  0.1812
 6510SOL    HW130989   2.192   0.545   6.882  2.9869  0.8503  1.3655
 6510SOL    HW230990   2.196   0.406   6.828 -0.3017  0.2336  0.1858
 6511SOL     OW30991   4.421   2.489   2.906 -0.0364  0.0352  0.5027
 6511SOL    HW130992   4.379   2.411   2.940 -1.6237  0.3188 -0.8312
 6511SOL    HW230993   4.360   2.560   2.925 -1.2521 -0.8459 -0.1022
 6512SOL     OW30994   3.704   3.326  12.938 -0.8360 -0.2343  0.1600
 6512SOL    HW130995   3.715   3.331  12.843 -0.2953  0.6488  0.2670
 6512SOL    HW230996   3.777   3.271  12.967 -1.2689  0.3807  2.4411
 6513SOL     OW30997   0.300   4.667   2.336  0.4848  0.2179  0.7617
 6513SOL    HW130998   0.304   4.628   2.423 -1.6116 -0.8367  0.3912
 6513SOL    HW230999   0.278   4.588   2.285 -0.2033  0.5880  0.4965
 6514SOL     OW31000   0.958   1.794   4.680 -0.1711 -0.1861  0.0290
 6514SOL    HW131001   0.929   1.797   4.772  0.0201 -1.0730  0.1153
 6514SOL    HW231002   1.017   1.869   4.675  0.2177 -0.6099 -1.5117
 6515SOL     OW31003   2.434   2.733  13.345  0.1078  0.4416  0.0771
 6515SOL    HW131004   2.444   2.664  13.411  0.4488  2.8360  2.5515
 6515SOL    HW231005   2.524   2.738  13.316 -0.5085  2.2884 -1.4744
 6516SOL     OW31006   2.516   3.511   3.645  0.1974 -0.4878  0.3916
 6516SOL    HW131007   2.585   3.574   3.667 -1.3094  1.0559  0.7041
 6516SOL    HW231008   2.455   3.579   3.617  0.6286 -0.2637  0.0002
 6517SOL     OW31009   2.777   1.658   2.781  0.2617  0.0072  0.3150
 6517SOL    HW131010   2.799   1.749   2.803  0.2587  0.2762 -0.8203
 6517SOL    HW231011   2.810   1.657   2.691  0.1039  1.6131  0.2423
 6518SOL     OW31012   3.443   2.704   7.057 -0.0959 -0.1260 -0.5062
 6518SOL    HW131013   3.464   2.797   7.066  0.1102 -0.0901 -1.4593
 6518SOL    HW231014   3.366   2.709   7.001 -1.3399 -1.6417  1.0501
 6519SOL     OW31015   3.652   3.521  13.552 -0.1586 -0.3359  0.1719
 6519SOL    HW131016   3.705   3.582  13.604  1.3294 -1.2183 -0.2905
 6519SOL    HW231017   3.626   3.459  13.619  1.4751  0.5727  1.6485
 6520SOL     OW31018   3.880   3.129   4.919 -0.5840 -0.4532  0.6145
 6520SOL    HW131019   3.937   3.083   4.981  0.6642 -0.8609 -0.8393
 6520SOL    HW231020   3.931   3.117   4.840  0.0314 -1.1070  1.1103
 6521SOL     OW31021   2.713   3.642   1.219  0.0792  0.4365  0.1731
 6521SOL    HW131022   2.699   3.723   1.268 -3.9275 -0.4701  0.5146
 6521SOL    HW231023   2.803   3.656   1.188 -1.0809  2.9338 -2.0269
 6522SOL     OW31024   4.229   2.350   8.799 -0.6584 -0.2023  0.4300
 6522SOL    HW131025   4.193   2.372   8.885  0.0422  1.4140  0.3067
 6522SOL    HW231026   4.313   2.396   8.793  0.4387 -1.8198  3.2941
 6523SOL     OW31027   2.682   0.075  11.494 -0.1995  0.0220  0.3517
 6523SOL    HW131028   2.776   0.089  11.499 -0.0060 -0.8023 -0.8914
 6523SOL    HW231029   2.655   0.034  11.576  1.6633  2.4164  2.1282
 6524SOL     OW31030   2.904   1.673   2.520  0.1169  0.2212 -0.3648
 6524SOL    HW131031   2.922   1.752   2.470 -0.7528  0.4608 -0.2902
 6524SOL    HW231032   2.988   1.672   2.566 -0.0524  1.0071 -0.0309
 6525SOL     OW31033   3.715   2.880  14.754 -0.9161  0.0538 -0.4970
 6525SOL    HW131034   3.800   2.837  14.753 -0.4945  0.8167  1.1419
 6525SOL    HW231035   3.726   2.946  14.685  1.7810 -0.9547 -1.0380
 6526SOL     OW31036   1.230   3.865   6.830  0.0752  0.6326 -0.6372
 6526SOL    HW131037   1.290   3.934   6.800  1.5487 -0.0710  0.6447
 6526SOL    HW231038   1.188   3.908   6.905  1.3128  0.4095  0.1918
 6527SOL     OW31039   0.014   0.480   4.810 -0.1855 -0.2950 -0.2696
 6527SOL    HW131040   0.073   0.554   4.793 -1.0028  0.4646  0.2069
 6527SOL    HW231041   4.678   0.512   4.877 -1.4888 -0.7408 -1.2287
 6528SOL     OW31042   3.030   2.713  14.053  0.1881  0.0716 -0.0757
 6528SOL    HW131043   3.072   2.743  13.973 -0.1558 -0.6505 -0.5276
 6528SOL    HW231044   2.938   2.696  14.031 -0.1108  0.2619  0.9969
 6529SOL     OW31045   1.791   1.422  10.292 -0.0140  0.2230  0.1951
 6529SOL    HW131046   1.696   1.409  10.293 -0.0367  0.3413 -1.8518
 6529SOL    HW231047   1.818   1.393  10.380 -1.4914 -2.4238 -0.2278
 6530SOL     OW31048   3.836   0.920   7.711 -0.1187 -0.3963  0.3286
 6530SOL    HW131049   3.830   0.869   7.630  0.4223 -0.2407  0.1914
 6530SOL    HW231050   3.749   0.915   7.751 -0.4429  2.9697 -0.0005
 6531SOL     OW31051   3.726   3.240   3.432  0.1521  0.3369  0.2798
 6531SOL    HW131052   3.642   3.205   3.462  0.5158  0.0474  0.9563
 6531SOL    HW231053   3.768   3.156   3.417  2.6146  1.5864  0.1923
 6532SOL     OW31054   3.452   2.387   8.484  0.1491 -0.0764 -0.0054
 6532SOL    HW131055   3.460   2.482   8.491  2.0875 -0.0669 -2.3216
 6532SOL    HW231056   3.421   2.381   8.394  1.0869 -1.5297 -0.2418
 6533SOL     OW31057   2.407   1.556   1.976  0.1866 -0.2712 -0.2782
 6533SOL    HW131058   2.326   1.522   1.937 -0.0397  1.0585 -0.9932
 6533SOL    HW231059   2.456   1.478   2.000 -1.0009 -1.3825 -1.4068
 6534SOL     OW31060   0.584   3.066   5.726  0.3802 -0.9333 -0.6961
 6534SOL    HW131061   0.586   3.139   5.787  0.3779 -0.4434 -1.2770
 6534SOL    HW231062   0.673   3.032   5.734  1.0051  0.4339 -1.8154
 6535SOL     OW31063   4.501   0.593  17.043  0.2537  0.1497 -0.7995
 6535SOL    HW131064   4.572   0.648  17.010  0.3150 -0.0196 -0.9556
 6535SOL    HW231065   4.539   0.563  17.126  0.5321  0.1695 -0.9180
 6536SOL     OW31066   2.927   3.677   6.714 -0.1007  0.4361 -0.3055
 6536SOL    HW131067   2.916   3.582   6.714  0.7478  0.3402 -0.9704
 6536SOL    HW231068   3.010   3.679   6.763  0.6574 -1.2126 -1.5186
 6537SOL     OW31069   3.333   1.251   5.361  0.0974  0.0479 -0.5006
 6537SOL    HW131070   3.292   1.191   5.424 -0.5274 -1.1906 -2.0859
 6537SOL    HW231071   3.427   1.247   5.378 -0.1422  0.0040  0.8243
 6538SOL     OW31072   1.893   4.220   8.679 -0.2679  0.2220  0.8759
 6538SOL    HW131073   1.890   4.223   8.774  2.2201  1.0075  0.9257
 6538SOL    HW231074   1.800   4.208   8.659 -0.4237  0.9288  1.2091
 6539SOL     OW31075   1.708   2.327   6.737  0.2001  0.0730  0.0592
 6539SOL    HW131076   1.636   2.390   6.730  0.0785 -0.0905 -0.1738
 6539SOL    HW231077   1.669   2.246   6.704 -0.5302 -0.0964  1.3322
 6540SOL     OW31078   0.869   3.394  17.461 -0.7637 -0.2662 -0.4857
 6540SOL    HW131079   0.914   3.345  17.393 -0.2153  0.9117 -0.9538
 6540SOL    HW231080   0.812   3.323  17.492 -0.3990 -0.2352  0.2483
 6541SOL     OW31081   3.562   2.921   0.004 -0.3318  0.9536 -0.1888
 6541SOL    HW131082   3.484   2.972  17.679 -0.5736  0.4886 -0.3978
 6541SOL    HW231083   3.526   2.832   0.001  0.9993  0.4760 -1.8364
 6542SOL     OW31084   0.295   3.935   8.746 -0.2231 -0.1665 -0.3845
 6542SOL    HW131085   0.201   3.921   8.749 -0.0463 -1.4791 -1.0492
 6542SOL    HW231086   0.320   3.859   8.798 -0.0224  0.0827 -0.1130
 6543SOL     OW31087   2.699   3.596   4.417 -0.3955  0.0134  0.0454
 6543SOL    HW131088   2.736   3.662   4.358 -0.4155  0.6167  0.7048
 6543SOL    HW231089   2.619   3.587   4.365 -2.3459  2.5651  2.5735
 6544SOL     OW31090   4.396   2.411   4.114  0.4463 -0.2633  0.8531
 6544SOL    HW131091   4.423   2.322   4.092 -0.7461  0.0856 -2.0925
 6544SOL    HW231092   4.476   2.458   4.090 -1.5632  1.8162 -1.8731
 6545SOL     OW31093   0.996   4.345   3.216 -0.0291 -0.1030  0.4744
 6545SOL    HW131094   1.062   4.282   3.244  0.0623 -1.3548 -2.5263
 6545SOL    HW231095   0.936   4.337   3.290  0.2236  0.9555  0.7869
 6546SOL     OW31096   3.302   1.402   3.455  0.0255 -0.6011  0.1955
 6546SOL    HW131097   3.284   1.467   3.523 -1.1149 -0.6766 -0.0451
 6546SOL    HW231098   3.219   1.360   3.438 -2.0065  3.1540  0.7624
 6547SOL     OW31099   0.510   2.074   4.631  0.2263 -0.0713  0.0075
 6547SOL    HW131100   0.490   2.040   4.718 -1.1641 -0.9024 -0.6309
 6547SOL    HW231101   0.425   2.112   4.606  1.3585  2.3643 -0.1661
 6548SOL     OW31102   3.635   1.783  13.586  0.0705 -0.0796  0.7153
 6548SOL    HW131103   3.667   1.739  13.507 -0.4164 -0.9514  1.0122
 6548SOL    HW231104   3.540   1.771  13.589  0.0475 -0.3119 -1.1299
 6549SOL     OW31105   4.387   3.318   4.354  0.2920 -0.4525 -0.0992
 6549SOL    HW131106   4.305   3.361   4.378 -0.0917 -2.1780  1.6232
 6549SOL    HW231107   4.357   3.231   4.328  0.5378 -0.2123 -1.2312
 6550SOL     OW31108   0.738   0.481  14.983  0.5413 -1.0253  0.0171
 6550SOL    HW131109   0.778   0.560  15.019 -0.1560 -0.1575 -1.1219
 6550SOL    HW231110   0.669   0.513  14.925  0.0042 -1.3974  0.4531
 6551SOL     OW31111   3.628   1.342   8.597  0.5701 -0.1296 -0.4085
 6551SOL    HW131112   3.561   1.315   8.534  1.4757 -0.1857 -1.3378
 6551SOL    HW231113   3.662   1.417   8.549 -0.7971 -0.9256 -2.6283
 6552SOL     OW31114   4.240   3.621   4.919  0.2771  0.1131  0.0616
 6552SOL    HW131115   4.170   3.622   4.854 -1.0798 -0.0332  1.5165
 6552SOL    HW231116   4.243   3.715   4.936 -2.6168  0.4090 -1.1058
 6553SOL     OW31117   0.698   0.566   3.244 -0.0414  0.1513  0.1603
 6553SOL    HW131118   0.610   0.558   3.206  0.2651 -2.3117  0.0101
 6553SOL    HW231119   0.679   0.576   3.338 -1.2824 -3.0372  0.2539
 6554SOL     OW31120   1.311   2.758   2.696  0.5538 -0.1132 -0.3244
 6554SOL    HW131121   1.292   2.843   2.657  2.1172  0.2544 -0.3117
 6554SOL    HW231122   1.228   2.714   2.681  0.5506 -0.2656  0.1473
 6555SOL     OW31123   1.621   1.155   5.152  0.0499 -0.0579 -0.1981
 6555SOL    HW131124   1.630   1.248   5.130 -0.6623 -0.0529 -0.4707
 6555SOL    HW231125   1.703   1.119   5.118  0.5076  0.9728 -0.1683
 6556SOL     OW31126   2.861   0.652  12.559 -0.1834 -0.1219 -0.2064
 6556SOL    HW131127   2.892   0.587  12.496 -0.1456 -0.9677  0.6956
 6556SOL    HW231128   2.944   0.696  12.578 -0.1993  0.4774 -1.4978
 6557SOL     OW31129   1.249   2.781   4.702  0.7237 -0.0112 -0.2598
 6557SOL    HW131130   1.274   2.812   4.788 -0.3779  1.4693 -0.4723
 6557SOL    HW231131   1.335   2.756   4.670  0.0763  0.0102 -2.0387
 6558SOL     OW31132   2.265   4.094   6.160 -0.5039  0.2766 -0.3489
 6558SOL    HW131133   2.265   4.024   6.096  2.1160  2.5711 -2.8718
 6558SOL    HW231134   2.359   4.112   6.167 -0.5976  0.6140  0.0665
 6559SOL     OW31135   4.364   1.906   8.594 -0.2626 -0.0128  0.1865
 6559SOL    HW131136   4.387   1.823   8.636 -3.1426 -1.1122 -0.3628
 6559SOL    HW231137   4.275   1.920   8.628 -0.1750  0.2514  0.2988
 6560SOL     OW31138   4.434   0.521   3.910  0.3163  0.3971 -0.0502
 6560SOL    HW131139   4.469   0.519   3.999 -0.8679  1.4258  0.4393
 6560SOL    HW231140   4.483   0.450   3.869  0.1039  0.6922 -0.8144
 6561SOL     OW31141   4.052   0.361   6.119  0.7206 -0.8658  0.3171
 6561SOL    HW131142   4.108   0.327   6.049  0.1796 -1.1739  0.0305
 6561SOL    HW231143   3.970   0.319   6.093 -0.8308  1.8931  0.8017
 6562SOL     OW31144   0.453   0.220  10.123  0.4363  0.2323  0.2631
 6562SOL    HW131145   0.452   0.156  10.195 -0.1206 -0.7753 -0.6443
 6562SOL    HW231146   0.388   0.182  10.065  1.4703  0.3453 -0.9616
 6563SOL     OW31147   1.083   4.342   6.752 -0.0641  0.4829  0.4263
 6563SOL    HW131148   1.064   4.256   6.790 -1.8264  1.2524  1.2940
 6563SOL    HW231149   1.148   4.319   6.687  1.0141  3.3155  0.4923
 6564SOL     OW31150   3.933   0.585   5.043 -0.0341 -0.1321 -0.2710
 6564SOL    HW131151   3.847   0.593   5.085 -0.6088 -0.6100 -1.3643
 6564SOL    HW231152   3.961   0.495   5.057 -0.7290 -0.1568  1.0194
 6565SOL     OW31153   3.433   2.904   9.399  0.1471  0.1371  0.3884
 6565SOL    HW131154   3.343   2.924   9.424 -0.2937 -0.8412 -0.4031
 6565SOL    HW231155   3.483   2.955   9.463  1.8148 -1.7448  0.6020
 6566SOL     OW31156   0.670   4.289   8.635 -0.1511  0.2351  0.4922
 6566SOL    HW131157   0.734   4.360   8.642  1.0433 -0.5828 -2.0300
 6566SOL    HW231158   0.699   4.224   8.700  1.5186 -1.9637 -2.4887
 6567SOL     OW31159   2.643   0.466   3.552  0.5523 -0.4261 -0.3651
 6567SOL    HW131160   2.687   0.550   3.569 -0.4117  0.0373 -0.1921
 6567SOL    HW231161   2.713   0.431   3.498  0.1611 -1.1472 -0.4022
 6568SOL     OW31162   3.720   2.397  15.057  0.0453  0.0851  1.1777
 6568SOL    HW131163   3.660   2.400  15.132 -1.5726  0.1974 -0.1352
 6568SOL    HW231164   3.782   2.465  15.084  1.1783  0.1695 -1.6468
 6569SOL     OW31165   4.569   4.161   9.521  0.0885 -0.0536 -0.5176
 6569SOL    HW131166   4.611   4.076   9.507 -2.1592 -1.1975 -0.2894
 6569SOL    HW231167   4.633   4.219   9.478  0.2562  0.2020  0.0820
 6570SOL     OW31168   3.787   2.387   7.278  0.0708 -0.4459  0.0080
 6570SOL    HW131169   3.861   2.446   7.288 -0.1424  0.0987 -1.6518
 6570SOL    HW231170   3.838   2.308   7.264  0.9515  0.3824 -1.3883
 6571SOL     OW31171   4.504   0.249   0.448 -0.4505  0.4558 -0.2007
 6571SOL    HW131172   4.456   0.191   0.507 -0.6563  1.7222  0.8769
 6571SOL    HW231173   4.572   0.293   0.500  0.0155 -0.9795  0.3899
 6572SOL     OW31174   0.756   1.321   8.781  0.2652 -0.1388  0.2069
 6572SOL    HW131175   0.845   1.342   8.809  0.0898 -1.0565  1.4795
 6572SOL    HW231176   0.731   1.286   8.867 -1.9454  1.0737  0.0408
 6573SOL     OW31177   0.901   0.184  10.465 -0.0042  0.2731  0.1825
 6573SOL    HW131178   0.923   0.091  10.457 -2.1147 -0.4044  2.2750
 6573SOL    HW231179   0.828   0.177  10.527  0.6771 -2.1312  0.7283
 6574SOL     OW31180   2.674   3.059   4.507  0.1335  0.6565  0.2934
 6574SOL    HW131181   2.709   3.019   4.587  0.3844 -0.6789 -0.4902
 6574SOL    HW231182   2.721   3.142   4.497  1.5846 -0.4334 -1.8541
 6575SOL     OW31183   3.827   3.444   1.547 -0.4879 -0.1604 -0.1711
 6575SOL    HW131184   3.903   3.442   1.605 -1.7797 -2.3898  1.4677
 6575SOL    HW231185   3.808   3.350   1.545 -1.7609  0.0892  0.1645
 6576SOL     OW31186   3.441   1.462   1.530  0.2568  0.0624 -0.7278
 6576SOL    HW131187   3.400   1.545   1.504 -1.0570  0.6191  3.0522
 6576SOL    HW231188   3.389   1.403   1.476 -1.8225  0.2769  1.0652
 6577SOL     OW31189   3.903   4.223  16.437  0.6358 -0.0560  0.2043
 6577SOL    HW131190   3.934   4.293  16.379 -2.0509  0.7775 -0.2151
 6577SOL    HW231191   3.946   4.235  16.521  1.5316  1.4227 -0.4582
 6578SOL     OW31192   3.779   0.979  12.355 -0.2749  0.2211 -0.2497
 6578SOL    HW131193   3.735   0.898  12.381  0.6118  0.8772  3.2245
 6578SOL    HW231194   3.868   0.963  12.384 -1.1040 -1.0894  1.5599
 6579SOL     OW31195   3.548   0.916   5.370 -0.0336  0.3062  0.0291
 6579SOL    HW131196   3.535   0.833   5.415 -1.2887 -0.0466 -1.0013
 6579SOL    HW231197   3.587   0.893   5.285  0.5727  2.0934 -0.1835
 6580SOL     OW31198   3.766   3.073   4.528  0.1024  0.2837  0.1757
 6580SOL    HW131199   3.843   3.018   4.511 -0.5130 -0.9798  1.4665
 6580SOL    HW231200   3.749   3.059   4.621 -1.5576 -2.3078 -0.4875
 6581SOL     OW31201   0.716   4.300   4.234 -0.1846 -0.0775 -0.0687
 6581SOL    HW131202   0.750   4.385   4.261 -0.9267  0.2994 -0.3258
 6581SOL    HW231203   0.621   4.312   4.233 -0.3378 -1.3978 -1.2353
 6582SOL     OW31204   4.585   2.200   0.956 -0.0045  0.4569  0.0742
 6582SOL    HW131205   4.650   2.210   0.887  0.5334 -1.2910  0.3152
 6582SOL    HW231206   4.638   2.220   1.033 -1.2458 -0.3252  1.1461
 6583SOL     OW31207   4.113   3.222   2.314  0.5918 -0.2237 -0.2187
 6583SOL    HW131208   4.070   3.178   2.240  2.0421 -1.4735 -0.3159
 6583SOL    HW231209   4.187   3.167   2.338  1.1788  1.1194  1.0664
 6584SOL     OW31210   3.036   1.656  12.234  0.2740  0.3546  0.5159
 6584SOL    HW131211   3.037   1.560  12.235  1.1054  0.3861  2.9001
 6584SOL    HW231212   2.943   1.674  12.221  0.2153 -0.4132 -0.1120
 6585SOL     OW31213   1.450   3.391   5.117  0.0396  0.0788  0.0647
 6585SOL    HW131214   1.413   3.405   5.030 -1.7439  0.2724  0.8548
 6585SOL    HW231215   1.420   3.300   5.119  0.5673 -0.1441 -1.7592
 6586SOL     OW31216   2.671   3.228  17.522 -0.6885  0.2282 -0.0036
 6586SOL    HW131217   2.727   3.244  17.598  0.8137 -1.1289 -0.8237
 6586SOL    HW231218   2.691   3.309  17.474  1.1635 -0.0612  0.2798
 6587SOL     OW31219   0.039   1.786   3.018 -0.1274  0.0240  0.2647
 6587SOL    HW131220   0.131   1.779   2.990  0.0427  0.7677  0.6347
 6587SOL    HW231221   0.021   1.696   3.045 -1.1258 -0.2494 -1.2945
 6588SOL     OW31222   2.987   2.946   3.552 -0.4137  0.1515 -0.2323
 6588SOL    HW131223   2.988   3.031   3.596  1.5685  0.9749 -1.8440
 6588SOL    HW231224   3.004   2.974   3.462  0.1293  1.1755  0.1894
 6589SOL     OW31225   3.084   2.220   9.577  0.0837  0.1851 -0.3332
 6589SOL    HW131226   3.026   2.288   9.610 -1.5123 -1.1728 -0.3782
 6589SOL    HW231227   3.068   2.222   9.482 -1.5954 -0.2429 -0.0554
 6590SOL     OW31228   3.159   1.674   4.173 -0.2767 -0.5485  0.5577
 6590SOL    HW131229   3.213   1.615   4.122  0.5434 -1.1578  2.1271
 6590SOL    HW231230   3.141   1.742   4.108 -1.0237 -2.1296 -0.8693
 6591SOL     OW31231   1.064   1.980   1.856  0.3334  0.4335 -0.4645
 6591SOL    HW131232   0.976   1.998   1.823 -0.7742 -1.1582  1.6656
 6591SOL    HW231233   1.110   1.926   1.792 -0.0030 -1.2025  0.6819
 6592SOL     OW31234   4.050   4.580   5.704  0.1004  0.5290  0.0425
 6592SOL    HW131235   4.034   4.488   5.726  1.2144  0.0183 -1.3060
 6592SOL    HW231236   4.046   4.582   5.609  0.6096 -1.5524 -0.0259
 6593SOL     OW31237   3.226   3.757   4.712  0.0597  0.0743  0.1887
 6593SOL    HW131238   3.236   3.847   4.742  0.4351  0.1563 -0.1939
 6593SOL    HW231239   3.293   3.711   4.764  0.0119 -1.2183 -0.8807
 6594SOL     OW31240   0.423   2.583   2.660  0.0419  0.1937  0.2651
 6594SOL    HW131241   0.363   2.516   2.624  0.0188 -0.0956  0.8427
 6594SOL    HW231242   0.370   2.662   2.663 -0.8109 -0.3319 -1.1178
 6595SOL     OW31243   1.059   3.746   2.115  0.0859 -0.4680  0.5310
 6595SOL    HW131244   1.086   3.727   2.025  0.0392  2.7221 -0.1720
 6595SOL    HW231245   0.965   3.764   2.110  0.3096  0.5241 -0.1967
 6596SOL     OW31246   0.180   1.666   1.235 -0.1360 -0.6933 -0.8368
 6596SOL    HW131247   0.228   1.730   1.183 -0.0017 -0.6705 -0.6862
 6596SOL    HW231248   0.094   1.707   1.225 -1.4849 -3.7933 -1.8930
 6597SOL     OW31249   0.504   3.248   0.486  0.4158  0.7177 -0.0276
 6597SOL    HW131250   0.488   3.327   0.537  2.4376 -0.6630  2.7949
 6597SOL    HW231251   0.456   3.181   0.534 -0.8899  2.4711  1.0975
 6598SOL     OW31252   4.176   4.232   8.233 -0.4725  0.9234  0.2970
 6598SOL    HW131253   4.156   4.239   8.326  1.5882  0.2414  0.7861
 6598SOL    HW231254   4.225   4.313   8.217 -0.8105  0.6912 -1.9947
 6599SOL     OW31255   4.098   3.528   6.181  0.4440 -0.1128  0.5179
 6599SOL    HW131256   4.103   3.600   6.244  1.5878  2.0802 -2.0608
 6599SOL    HW231257   4.016   3.546   6.135 -0.7170 -0.4287  2.5043
 6600SOL     OW31258   2.887   3.350   9.256 -0.4342 -0.6241 -0.4297
 6600SOL    HW131259   2.814   3.307   9.300  0.8322 -0.9037  1.4240
 6600SOL    HW231260   2.917   3.277   9.202 -2.2231 -1.9859  0.4180
 6601SOL     OW31261   3.819   1.908  17.004  0.1040  0.1815 -0.0181
 6601SOL    HW131262   3.755   1.923  17.074  0.1469 -1.5169  0.3870
 6601SOL    HW231263   3.758   1.922  16.931  1.6008  0.3975 -1.2173
 6602SOL     OW31264   1.426   0.222   3.214  0.2015 -0.4393 -0.1544
 6602SOL    HW131265   1.460   0.145   3.168  1.4509 -0.5219  0.8913
 6602SOL    HW231266   1.331   0.225   3.229  0.6645  1.3560  2.3461
 6603SOL     OW31267   0.792   4.563   4.109  0.8063  0.3050 -0.9026
 6603SOL    HW131268   0.754   4.501   4.048  0.9643 -0.0175 -0.6718
 6603SOL    HW231269   0.751   4.646   4.082 -2.2388 -1.4141 -1.4796
 6604SOL     OW31270   1.388   1.630   2.314 -0.6248 -0.2962  0.5568
 6604SOL    HW131271   1.391   1.714   2.269 -1.0013 -0.2151  0.6849
 6604SOL    HW231272   1.482   1.617   2.328 -0.4786  1.4371  1.1695
 6605SOL     OW31273   0.134   1.468   2.936  0.1834  0.3214 -0.2544
 6605SOL    HW131274   0.050   1.432   2.961  0.1807  0.9569  0.6510
 6605SOL    HW231275   0.196   1.413   2.984  1.5140  1.1574 -1.0087
 6606SOL     OW31276   2.774   2.090  12.857 -0.0601  0.5576 -0.6080
 6606SOL    HW131277   2.801   2.046  12.777  0.5520  0.8544 -0.5644
 6606SOL    HW231278   2.810   2.022  12.914  0.1576  1.0224 -0.1826
 6607SOL     OW31279   2.492   4.199   6.834  0.0851 -0.5019  0.3057
 6607SOL    HW131280   2.438   4.268   6.795  1.0343  0.7614  1.2170
 6607SOL    HW231281   2.578   4.232   6.811 -0.2104 -0.7923 -1.1981
 6608SOL     OW31282   0.597   4.166   9.100 -0.1306  0.0036 -0.2082
 6608SOL    HW131283   0.541   4.161   9.022 -0.7887  0.4639  0.2365
 6608SOL    HW231284   0.524   4.162   9.162  1.2037  0.9898  1.4101
 6609SOL     OW31285   1.484   0.342  13.172  0.1438 -0.1472  0.5090
 6609SOL    HW131286   1.431   0.337  13.092 -0.2127  0.7532  0.6872
 6609SOL    HW231287   1.422   0.347  13.245 -2.2184  3.7952 -1.7516
 6610SOL     OW31288   0.739   4.006  13.046  0.2850  0.1165  0.3351
 6610SOL    HW131289   0.654   4.013  13.089  0.1208  1.9343 -0.3342
 6610SOL    HW231290   0.755   3.914  13.022 -0.7617 -0.5417  2.1054
 6611SOL     OW31291   3.782   2.772   8.372 -0.2957 -0.4427 -0.3601
 6611SOL    HW131292   3.743   2.729   8.448  2.2912  1.0119  1.7973
 6611SOL    HW231293   3.704   2.781   8.317 -0.6274 -2.1798 -0.1983
 6612SOL     OW31294   4.335   1.948   6.058  0.0748  0.5363  0.0196
 6612SOL    HW131295   4.423   1.982   6.073 -0.5042  0.9005  2.5244
 6612SOL    HW231296   4.282   2.028   6.054  0.3797  0.9135  3.3052
 6613SOL     OW31297   4.208   4.633  10.601 -0.2007 -0.5210  0.0588
 6613SOL    HW131298   4.155   4.633  10.521  0.6162 -2.2650 -0.4785
 6613SOL    HW231299   4.266   4.709  10.593 -1.6901  0.7847  1.7253
 6614SOL     OW31300   3.416   4.079   5.984 -0.0037 -0.1352  0.3892
 6614SOL    HW131301   3.502   4.038   5.972 -2.1757 -4.8509  0.9519
 6614SOL    HW231302   3.368   4.058   5.904  1.4054 -0.5937 -0.3280
 6615SOL     OW31303   1.207   1.703   9.693 -0.0846  0.0764 -0.0796
 6615SOL    HW131304   1.127   1.662   9.660  0.2673  0.4369 -1.3610
 6615SOL    HW231305   1.203   1.695   9.788 -1.0150  0.6069 -0.0794
 6616SOL     OW31306   1.710   3.700   6.983  0.5176  0.7482  0.5583
 6616SOL    HW131307   1.666   3.618   7.007  0.7473 -0.0590 -1.6997
 6616SOL    HW231308   1.738   3.726   7.070  1.7313  1.7148 -0.1279
 6617SOL     OW31309   1.265   0.664  16.600  0.1266  0.2980 -0.1601
 6617SOL    HW131310   1.197   0.727  16.576 -0.0675  0.7002  1.4500
 6617SOL    HW231311   1.290   0.709  16.680  0.8971  0.2873 -0.3989
 6618SOL     OW31312   2.915   0.385  15.901  0.2022  0.1706  0.0188
 6618SOL    HW131313   2.826   0.394  15.867 -0.0020  0.8211  0.7197
 6618SOL    HW231314   2.898   0.372  15.995 -1.9877  2.3705 -0.0974
 6619SOL     OW31315   3.512   2.085  17.200  0.2595  0.3386 -0.3959
 6619SOL    HW131316   3.566   2.027  17.254  0.6407  0.6506 -0.4448
 6619SOL    HW231317   3.524   2.167  17.248 -0.5114 -0.1943  0.7045
 6620SOL     OW31318   3.207   2.108   2.366  0.4548 -0.3054  0.0506
 6620SOL    HW131319   3.279   2.074   2.312  0.5220  4.6221 -2.9640
 6620SOL    HW231320   3.136   2.127   2.305 -1.1808 -2.6870  1.2534
 6621SOL     OW31321   3.556   0.345   0.477 -0.2230  0.4502 -0.2280
 6621SOL    HW131322   3.571   0.438   0.463 -1.2967  0.5095 -0.9382
 6621SOL    HW231323   3.461   0.349   0.481 -0.2559 -2.2390  1.7467
 6622SOL     OW31324   0.269   3.986   4.837  0.4043 -0.8354  0.1576
 6622SOL    HW131325   0.190   4.032   4.806 -0.3940 -2.5057 -0.2874
 6622SOL    HW231326   0.241   3.949   4.920  0.9847  3.3503  2.2224
 6623SOL     OW31327   1.677   1.195   8.509 -0.0374  0.2473 -0.5367
 6623SOL    HW131328   1.663   1.210   8.603 -3.2551  0.9820 -1.1402
 6623SOL    HW231329   1.753   1.252   8.494  0.4270 -0.4272 -0.7257
 6624SOL     OW31330   3.709   4.107   5.914  0.1406 -0.2469  0.3046
 6624SOL    HW131331   3.784   4.066   5.956 -0.2739 -0.6225  0.6800
 6624SOL    HW231332   3.684   4.045   5.846  0.3347 -0.9833  0.8961
 6625SOL     OW31333   4.107   0.444   5.278  0.1610  0.9174  0.2758
 6625SOL    HW131334   4.020   0.426   5.315  0.6828  1.4423  1.7694
 6625SOL    HW231335   4.159   0.405   5.348 -0.0321  0.5895  0.2366
 6626SOL     OW31336   3.739   0.095   2.708  0.3213  0.7241  0.1834
 6626SOL    HW131337   3.775   0.072   2.623 -1.3937 -1.3991  0.0120
 6626SOL    HW231338   3.677   0.022   2.717  0.5879  0.4422 -0.2711
 6627SOL     OW31339   3.017   3.592   4.570 -0.0617 -0.3342 -1.0347
 6627SOL    HW131340   3.083   3.560   4.509  0.3753  0.5089 -0.9988
 6627SOL    HW231341   3.069   3.633   4.639 -0.2995 -2.3144  0.3176
 6628SOL     OW31342   1.408   3.371   6.263 -0.5417  0.3400  0.0830
 6628SOL    HW131343   1.372   3.388   6.176 -1.5156  0.3933  0.5022
 6628SOL    HW231344   1.475   3.438   6.278 -1.0415  0.5796  1.1726
 6629SOL     OW31345   3.725   0.382   4.120 -0.3089  0.0336 -0.4704
 6629SOL    HW131346   3.765   0.463   4.151 -0.9035  0.3093 -0.4241
 6629SOL    HW231347   3.745   0.336   4.201 -1.2500  1.6387  0.6944
 6630SOL     OW31348   2.282   1.276   6.319 -0.1798  0.0223  0.6632
 6630SOL    HW131349   2.282   1.291   6.225 -1.4797 -0.1191  0.6450
 6630SOL    HW231350   2.226   1.338   6.365  1.8847  0.7968  2.1458
 6631SOL     OW31351   2.983   3.060  13.013  0.2489 -0.1702 -0.4468
 6631SOL    HW131352   2.919   3.131  13.024  1.1170  0.5263  0.0916
 6631SOL    HW231353   3.062   3.114  13.008  1.4984 -1.8898  0.9216
 6632SOL     OW31354   1.070   1.273   0.047  0.2599  0.0001 -0.2377
 6632SOL    HW131355   1.015   1.350   0.063 -1.4328 -1.1575 -0.5245
 6632SOL    HW231356   1.044   1.207   0.111 -0.5254 -3.2113 -3.8841
 6633SOL     OW31357   1.102   0.747   6.808 -0.2098  0.4756  0.3929
 6633SOL    HW131358   1.147   0.669   6.777 -2.5086 -0.6264 -0.1635
 6633SOL    HW231359   1.151   0.825   6.783  0.0533 -1.0659 -3.8657
 6634SOL     OW31360   3.731   0.266  15.982 -0.6312 -0.1120 -0.1201
 6634SOL    HW131361   3.800   0.311  15.933 -1.8455  1.8324 -0.0302
 6634SOL    HW231362   3.727   0.314  16.064  0.3091  3.3178 -2.0561
 6635SOL     OW31363   4.483   3.686   3.468 -0.5721 -0.9004 -0.3448
 6635SOL    HW131364   4.412   3.748   3.450  1.9302  1.3779 -2.3197
 6635SOL    HW231365   4.537   3.739   3.526 -0.1782 -1.5613 -0.1110
 6636SOL     OW31366   0.371   4.480  12.266  0.3056  0.1696  0.0846
 6636SOL    HW131367   0.466   4.486  12.258  0.3397 -2.0375 -1.1381
 6636SOL    HW231368   0.381   4.448  12.356 -0.1836  1.4313  0.5824
 6637SOL     OW31369   3.710   3.479   8.088  0.1718  0.4545 -0.2108
 6637SOL    HW131370   3.773   3.522   8.030  0.6624 -2.3029 -1.7036
 6637SOL    HW231371   3.734   3.386   8.079 -0.9242  0.0454  1.1250
 6638SOL     OW31372   4.704   0.059  16.467 -0.0957  1.2269  0.3097
 6638SOL    HW131373   4.650   0.132  16.437 -1.1602  0.1918 -0.2943
 6638SOL    HW231374   4.635   0.011  16.513 -0.9793  3.0023  0.8474
 6639SOL     OW31375   3.455   1.251   2.104 -0.1377 -0.1163  1.5492
 6639SOL    HW131376   3.539   1.268   2.061 -0.9176 -2.5599 -0.9416
 6639SOL    HW231377   3.407   1.302   2.039  0.3861 -1.7070 -0.0826
 6640SOL     OW31378   3.059   3.230   4.569 -0.2649  0.0843 -0.2426
 6640SOL    HW131379   3.033   3.146   4.530  0.0865 -0.6249  1.0706
 6640SOL    HW231380   2.988   3.290   4.546 -1.3381  0.0774  3.0384
 6641SOL     OW31381   4.287   3.680   8.639  0.6576 -0.0944  0.0155
 6641SOL    HW131382   4.206   3.721   8.670 -0.3165  0.0503 -2.7174
 6641SOL    HW231383   4.322   3.650   8.722 -0.0094 -1.1443 -0.0769
 6642SOL     OW31384   3.728   3.152   8.044 -0.4556 -0.6733  0.8201
 6642SOL    HW131385   3.713   3.166   7.951  2.6128  0.8212  0.5729
 6642SOL    HW231386   3.805   3.205   8.064 -1.1469  0.6690 -0.1357
 6643SOL     OW31387   4.434   2.012   4.397  0.0990  0.1534 -0.0341
 6643SOL    HW131388   4.400   1.940   4.449 -1.2879  1.3690  0.7569
 6643SOL    HW231389   4.405   1.995   4.307  1.7962  1.5779 -0.8548
 6644SOL     OW31390   2.151   2.833  17.571 -0.1100  0.1089 -0.3092
 6644SOL    HW131391   2.240   2.860  17.549 -0.2815 -0.2189 -1.4336
 6644SOL    HW231392   2.103   2.900  17.523  0.3482  0.9316  0.3997
 6645SOL     OW31393   4.262   2.058   4.731  1.0612 -0.0103 -0.2543
 6645SOL    HW131394   4.196   2.114   4.691 -0.8021 -0.5883  2.0032
 6645SOL    HW231395   4.225   1.976   4.698 -0.4420 -0.0155  1.4501
 6646SOL     OW31396   2.211   3.684   4.963 -0.3061  0.0572  0.3073
 6646SOL    HW131397   2.136   3.639   4.923  0.5465 -0.1799 -1.0297
 6646SOL    HW231398   2.167   3.733   5.032 -2.0337 -0.2972 -0.5547
 6647SOL     OW31399   2.964   0.361   0.557 -0.5234  0.1551  0.5707
 6647SOL    HW131400   2.982   0.294   0.623 -1.3484  1.0670  1.7213
 6647SOL    HW231401   2.962   0.443   0.606 -1.7685  0.9023 -0.7131
 6648SOL     OW31402   2.703   0.468   3.978 -0.3469  0.3726 -0.1997
 6648SOL    HW131403   2.649   0.426   3.911 -0.7989  1.1931 -0.3420
 6648SOL    HW231404   2.660   0.553   3.978  0.2854  0.6986  1.5125
 6649SOL     OW31405   4.296   3.303   7.706  0.4618  0.2434  0.2408
 6649SOL    HW131406   4.333   3.288   7.619  1.6926  1.8982  0.4814
 6649SOL    HW231407   4.333   3.228   7.753  0.2887 -1.3675 -2.1871
 6650SOL     OW31408   3.663   0.149   9.576 -0.4330 -0.2001  0.4650
 6650SOL    HW131409   3.611   0.203   9.516 -0.2388  0.8297  1.2270
 6650SOL    HW231410   3.731   0.212   9.600 -0.7260 -0.5785  2.3008
 6651SOL     OW31411   4.321   2.316   8.028 -0.2927  0.4490  0.2956
 6651SOL    HW131412   4.393   2.293   8.086  0.2820  0.3473 -0.4507
 6651SOL    HW231413   4.297   2.230   7.994 -2.4396  0.5217  1.6405
 6652SOL     OW31414   4.438   3.607   5.981 -0.4912  0.0988  0.3752
 6652SOL    HW131415   4.510   3.552   5.950 -0.8511  1.0171 -2.1058
 6652SOL    HW231416   4.395   3.551   6.046  1.1375  1.8883  2.9558
 6653SOL     OW31417   2.556   1.842   7.134  0.6661  0.4145  0.7365
 6653SOL    HW131418   2.486   1.778   7.144 -0.2390  1.2420 -0.2565
 6653SOL    HW231419   2.604   1.812   7.056 -0.0313  0.3105  0.3468
 6654SOL     OW31420   1.006   2.724   4.445  0.3096 -0.4550  0.0967
 6654SOL    HW131421   1.092   2.682   4.451  1.9204  2.6630 -1.0051
 6654SOL    HW231422   0.946   2.658   4.479  0.5534 -0.2282  0.9552
 6655SOL     OW31423   1.909   3.386   7.862 -0.4885  0.1178  0.7235
 6655SOL    HW131424   1.908   3.310   7.804 -2.8310  1.7926 -1.4091
 6655SOL    HW231425   1.824   3.428   7.854  0.3461  1.9020  1.2332
 6656SOL     OW31426   1.481   3.258   9.142  0.3427  0.0089 -0.1932
 6656SOL    HW131427   1.520   3.191   9.086 -0.4885  0.6520 -1.5433
 6656SOL    HW231428   1.539   3.265   9.218  0.8858 -0.4426 -0.5704
 6657SOL     OW31429   4.442   2.391  16.160 -0.6278 -0.0470 -0.0339
 6657SOL    HW131430   4.438   2.449  16.236  0.3079 -0.5272  0.3861
 6657SOL    HW231431   4.479   2.456  16.101 -1.0755  0.9636  0.7952
 6658SOL     OW31432   2.808   0.046  16.540 -0.3126 -0.3230 -0.0899
 6658SOL    HW131433   2.783   4.715  16.466  0.8194  1.1763 -1.5999
 6658SOL    HW231434   2.839   4.705  16.603  0.8869 -0.2788 -0.6436
 6659SOL     OW31435   3.318   2.481   9.305 -0.0006  0.1253  0.1852
 6659SOL    HW131436   3.315   2.534   9.225 -0.2274 -1.4663 -0.8640
 6659SOL    HW231437   3.309   2.395   9.264 -0.2597 -1.0084  2.6173
 6660SOL     OW31438   0.162   1.838  13.651  0.0251  0.4777  0.6692
 6660SOL    HW131439   0.183   1.881  13.734 -0.0090 -2.8571  2.3643
 6660SOL    HW231440   0.066   1.843  13.649 -0.0148 -0.0554  1.4641
 6661SOL     OW31441   1.692   4.325  11.389 -0.0275  0.2110 -0.3916
 6661SOL    HW131442   1.689   4.229  11.380  1.5041  0.1770 -0.5471
 6661SOL    HW231443   1.725   4.353  11.474 -1.9342  0.6080  0.2281
 6662SOL     OW31444   3.028   2.265  13.646  0.5153  0.2347  0.1297
 6662SOL    HW131445   2.938   2.244  13.671 -0.1633  0.7114 -1.9199
 6662SOL    HW231446   3.020   2.313  13.564  0.8716  1.6167  0.9091
 6663SOL     OW31447   0.022   4.022   2.072 -0.6785  0.1389  0.5605
 6663SOL    HW131448   0.073   4.097   2.042  0.0594 -0.8058 -0.6004
 6663SOL    HW231449   0.045   4.012   2.164  0.0576  2.6891  0.6453
 6664SOL     OW31450   1.557   3.566   7.394  0.3402 -0.3031  0.4175
 6664SOL    HW131451   1.467   3.568   7.364 -0.1127 -0.4503  1.7724
 6664SOL    HW231452   1.551   3.498   7.461 -0.4207  0.6839  1.3449
 6665SOL     OW31453   2.157   3.102  13.344 -0.4042 -0.0341  0.4244
 6665SOL    HW131454   2.214   3.033  13.377  0.9097 -0.2690 -2.3153
 6665SOL    HW231455   2.081   3.092  13.402 -1.4232 -1.2535 -1.1074
 6666SOL     OW31456   0.999   2.834   8.095  0.2961  0.5076 -0.1659
 6666SOL    HW131457   0.955   2.863   8.015 -1.2428  3.4361  1.7346
 6666SOL    HW231458   0.934   2.772   8.127  0.0660  1.6139  1.5226
 6667SOL     OW31459   3.851   3.817   2.350 -0.0975  0.3832  0.3674
 6667SOL    HW131460   3.922   3.800   2.412 -0.7210  1.2108  1.3044
 6667SOL    HW231461   3.886   3.891   2.299  2.8307 -0.4148  1.1934
 6668SOL     OW31462   2.930   3.210   4.827  0.7916 -0.6139 -0.5287
 6668SOL    HW131463   3.024   3.220   4.811  1.0139 -1.7736  0.0442
 6668SOL    HW231464   2.910   3.287   4.881 -0.6808 -0.3738 -1.4058
 6669SOL     OW31465   1.911   3.926   1.489 -0.1449 -1.0717  0.0902
 6669SOL    HW131466   1.976   3.856   1.486  0.2142 -0.7486  0.2995
 6669SOL    HW231467   1.864   3.910   1.407  0.1867  0.2734 -0.3543
 6670SOL     OW31468   3.794   3.771   6.260 -0.3470  0.1588  0.0942
 6670SOL    HW131469   3.711   3.807   6.292 -0.4222  0.7469 -0.7749
 6670SOL    HW231470   3.798   3.687   6.307 -1.8796  0.7115  1.2107
 6671SOL     OW31471   3.569   2.649   0.739  0.4102  0.4839 -0.1760
 6671SOL    HW131472   3.570   2.599   0.821 -1.3081  0.4828 -0.1638
 6671SOL    HW231473   3.660   2.679   0.734  1.2788 -2.2687 -1.2549
 6672SOL     OW31474   3.033   0.262   2.720 -0.0083 -0.4648 -0.2464
 6672SOL    HW131475   2.946   0.288   2.687  0.8549 -0.4932 -2.5690
 6672SOL    HW231476   3.006   0.179   2.758  0.8251 -0.7170 -0.2168
 6673SOL     OW31477   2.004   3.828   8.739 -0.4139 -0.0814  0.1208
 6673SOL    HW131478   1.918   3.833   8.781 -0.1648  0.4831  0.5603
 6673SOL    HW231479   2.056   3.904   8.765  2.3954 -1.4885 -1.3941
 6674SOL     OW31480   0.366   0.023   3.754  0.6463  0.0324 -0.5299
 6674SOL    HW131481   0.320   0.013   3.838  2.6727  0.3202  0.6346
 6674SOL    HW231482   0.356   0.117   3.742 -1.7854 -0.3908 -1.8459
 6675SOL     OW31483   0.186   2.885   6.125 -0.0645  0.3846  0.2479
 6675SOL    HW131484   0.114   2.947   6.118  2.0943  2.7831 -0.5547
 6675SOL    HW231485   0.150   2.842   6.203 -2.0265 -0.1230 -0.9466
 6676SOL     OW31486   0.392   4.511   3.009  0.0919  0.9123 -0.1641
 6676SOL    HW131487   0.404   4.569   2.934 -0.4897 -0.5624 -1.3897
 6676SOL    HW231488   0.418   4.434   2.960 -1.1808 -0.0208  0.6154
 6677SOL     OW31489   0.354   4.695  16.254  0.3981 -0.2321 -0.4245
 6677SOL    HW131490   0.326   4.676  16.165  1.4310  1.8052 -1.1945
 6677SOL    HW231491   0.438   0.015  16.237 -0.0054  1.3332  1.6258
 6678SOL     OW31492   0.695   2.233   9.320 -0.1982 -0.0433  0.3640
 6678SOL    HW131493   0.658   2.306   9.370  2.4505  1.1758  0.5438
 6678SOL    HW231494   0.789   2.247   9.321 -0.1007 -0.7545  1.4142
 6679SOL     OW31495   2.437   3.536   3.902  0.2028  0.2824 -0.6071
 6679SOL    HW131496   2.414   3.508   3.813  0.4085  0.1174 -0.6060
 6679SOL    HW231497   2.456   3.449   3.936 -0.4939  1.2558  2.3265
 6680SOL     OW31498   1.104   2.413   3.510 -0.3307  0.3204 -0.0353
 6680SOL    HW131499   1.087   2.483   3.447 -0.1986 -0.4620 -0.9473
 6680SOL    HW231500   1.196   2.403   3.483  0.1030  1.7705  0.9349
 6681SOL     OW31501   4.550   3.577   1.452  0.4218  0.1878  0.5555
 6681SOL    HW131502   4.539   3.537   1.539 -1.0980  2.7472  1.5389
 6681SOL    HW231503   4.640   3.610   1.460  0.4636 -0.0557  1.1297
 6682SOL     OW31504   1.787   3.231  10.937 -0.3488  0.1576 -0.3443
 6682SOL    HW131505   1.805   3.296  11.004 -1.0371 -0.7266  0.6887
 6682SOL    HW231506   1.703   3.271  10.916  0.4112  0.8975 -2.0039
 6683SOL     OW31507   1.180   1.617  15.535  0.5676  0.0953  0.0392
 6683SOL    HW131508   1.146   1.630  15.623  0.1886 -0.2920 -0.0475
 6683SOL    HW231509   1.275   1.621  15.543  0.7359 -1.0455 -1.3705
 6684SOL     OW31510   0.302   1.702  14.394  0.1395 -0.0691  0.0381
 6684SOL    HW131511   0.392   1.676  14.412  0.4069  0.1367 -1.0433
 6684SOL    HW231512   0.311   1.687  14.300  1.9688  0.4053  0.1528
 6685SOL     OW31513   4.723   3.033   0.947  0.3381  0.0145 -0.0217
 6685SOL    HW131514   0.050   3.062   1.023  1.6884 -1.5004 -0.3282
 6685SOL    HW231515   0.005   3.102   0.882 -0.7363 -0.4336 -0.5957
 6686SOL     OW31516   0.428   3.725   2.924 -0.7189  0.3474  0.3664
 6686SOL    HW131517   0.398   3.639   2.895  1.6043  0.4563 -2.3613
 6686SOL    HW231518   0.347   3.752   2.968 -1.4558 -0.9094 -0.2108
 6687SOL     OW31519   4.207   0.407   7.791  0.2357  0.0888  0.0847
 6687SOL    HW131520   4.297   0.379   7.773 -0.0592 -1.2491  0.7462
 6687SOL    HW231521   4.212   0.501   7.770  0.7948  0.0385 -0.0080
 6688SOL     OW31522   2.353   0.058   4.823  0.4015 -0.6353  0.1150
 6688SOL    HW131523   2.316   4.701   4.859 -0.8400 -0.2756 -0.3264
 6688SOL    HW231524   2.418   0.028   4.760 -0.2879 -0.7191 -0.5655
 6689SOL     OW31525   1.242   3.150   3.998  0.2171  0.5280 -0.0524
 6689SOL    HW131526   1.159   3.135   3.953 -1.4172  2.0522  2.4573
 6689SOL    HW231527   1.275   3.060   3.996  0.5730  0.6545  0.2906
 6690SOL     OW31528   1.971   3.040   6.783  0.5275 -0.2135  0.3457
 6690SOL    HW131529   2.066   3.048   6.773  0.2948  0.4871 -1.2256
 6690SOL    HW231530   1.960   3.072   6.872  0.3071 -0.2669  0.3378
 6691SOL     OW31531   4.108   1.920  17.042 -0.2299 -0.0829  0.0936
 6691SOL    HW131532   4.146   1.948  16.959  2.6886 -0.4113  1.3013
 6691SOL    HW231533   4.015   1.938  17.028  0.2233  0.7284 -1.8378
 6692SOL     OW31534   2.095   1.175   4.591 -0.3122 -0.2245 -0.2039
 6692SOL    HW131535   2.185   1.146   4.575 -0.1976 -0.1815  0.3401
 6692SOL    HW231536   2.057   1.174   4.504 -1.0952  1.3974  0.1328
 6693SOL     OW31537   0.242   3.605   5.257 -0.0388 -0.2844  0.3267
 6693SOL    HW131538   0.172   3.541   5.241 -0.6041 -0.0389  1.7573
 6693SOL    HW231539   0.317   3.558   5.221 -0.3541  0.1034 -0.8326
 6694SOL     OW31540   2.161   1.041   9.107 -0.6644 -0.0459 -0.7445
 6694SOL    HW131541   2.104   1.034   9.183  1.9273 -1.0948  1.0836
 6694SOL    HW231542   2.160   1.135   9.091 -0.1220  0.1506  0.4015
 6695SOL     OW31543   0.243   1.437  17.170  0.6631  0.1577  1.1270
 6695SOL    HW131544   0.222   1.387  17.249  2.7483 -1.2806  0.7665
 6695SOL    HW231545   0.215   1.378  17.100  1.7163 -0.4418  1.2112
 6696SOL     OW31546   2.434   3.445   0.775 -0.0710  0.4727 -0.5383
 6696SOL    HW131547   2.400   3.410   0.692 -5.0272 -1.0830  2.1078
 6696SOL    HW231548   2.419   3.539   0.782  1.1804  0.5080  1.4689
 6697SOL     OW31549   2.542   2.314   3.413 -0.3823 -0.3718  0.5366
 6697SOL    HW131550   2.559   2.392   3.467  1.6679 -2.0130  2.2351
 6697SOL    HW231551   2.454   2.332   3.380  0.7432  0.5797 -1.9725
 6698SOL     OW31552   3.861   4.361   4.073  0.0979  0.5249 -0.4544
 6698SOL    HW131553   3.852   4.322   3.986  0.2096 -2.3317  0.8258
 6698SOL    HW231554   3.802   4.434   4.056 -1.1410 -0.5337 -0.6411
 6699SOL     OW31555   4.718   3.496   8.718  0.2802 -0.6505 -0.1568
 6699SOL    HW131556   0.079   3.475   8.679 -0.1328 -0.5120 -1.1215
 6699SOL    HW231557   0.009   3.586   8.747 -1.3649 -0.2135 -0.6894
 6700SOL     OW31558   0.056   3.612  15.915  0.5133 -0.5652 -0.1237
 6700SOL    HW131559   0.048   3.668  15.992  1.5787 -0.2791 -0.2253
 6700SOL    HW231560   0.061   3.681  15.849  0.5951  0.1849  0.6656
 6701SOL     OW31561   4.200   0.259  13.458  0.3687  0.8137  0.5400
 6701SOL    HW131562   4.105   0.261  13.463  0.2847 -0.1177 -0.7560
 6701SOL    HW231563   4.214   0.314  13.380 -1.4567 -0.4892 -0.6999
 6702SOL     OW31564   0.752   0.228  14.480 -0.1920 -0.2049  0.2611
 6702SOL    HW131565   0.708   0.149  14.451 -1.6748  1.4790 -2.1257
 6702SOL    HW231566   0.825   0.225  14.418 -0.1605 -0.2663  0.3010
 6703SOL     OW31567   4.380   1.008   4.885 -0.2045 -0.1680  0.1551
 6703SOL    HW131568   4.352   1.020   4.976  1.5532 -1.6398  0.8795
 6703SOL    HW231569   4.306   1.045   4.835  0.4189  2.0906  0.9094
 6704SOL     OW31570   1.535   0.141   0.187 -0.0083 -0.6211  0.0937
 6704SOL    HW131571   1.513   0.090   0.109 -0.2400 -0.6501  0.1775
 6704SOL    HW231572   1.551   0.225   0.143  0.6351 -1.1419 -0.6577
 6705SOL     OW31573   4.097   0.961  15.369 -0.4267 -0.1511 -0.2234
 6705SOL    HW131574   4.064   0.875  15.343 -0.6431  0.3240 -1.5257
 6705SOL    HW231575   4.138   0.982  15.284 -1.9950  0.3676 -0.8595
 6706SOL     OW31576   1.134   4.226  11.044  0.4652 -0.3791  0.1925
 6706SOL    HW131577   1.116   4.273  10.962 -1.3556 -1.0534  0.1903
 6706SOL    HW231578   1.055   4.247  11.094  0.1918  1.5412 -1.0500
 6707SOL     OW31579   2.554   3.026   3.482 -0.3135  0.1121 -0.6764
 6707SOL    HW131580   2.513   3.111   3.498  1.4438  0.3455  2.6297
 6707SOL    HW231581   2.612   3.051   3.410 -0.3886 -0.9785 -1.1189
 6708SOL     OW31582   2.500   3.359   3.219 -0.5614  0.0742 -0.0544
 6708SOL    HW131583   2.491   3.272   3.180 -0.6558 -0.1881  0.5614
 6708SOL    HW231584   2.577   3.394   3.172  0.1980 -0.6223  0.6649
 6709SOL     OW31585   3.143   1.831  11.913  0.7593  0.4811 -0.1247
 6709SOL    HW131586   3.169   1.812  12.003 -0.1446 -0.1519  0.0097
 6709SOL    HW231587   3.070   1.892  11.924  0.8211  0.7433 -1.2552
 6710SOL     OW31588   1.445   3.655  11.376 -0.8901  0.6101 -0.2777
 6710SOL    HW131589   1.468   3.562  11.381 -1.0180  0.6149  0.4824
 6710SOL    HW231590   1.389   3.663  11.299 -1.0345  0.1356 -0.2253
 6711SOL     OW31591   3.822   0.546   6.883  0.0018  0.5469  0.3425
 6711SOL    HW131592   3.777   0.623   6.848 -0.7586  0.5827  1.4088
 6711SOL    HW231593   3.773   0.474   6.842  0.2293 -0.6183  2.0931
 6712SOL     OW31594   1.140   3.962  11.006 -0.1080  0.0547 -0.6133
 6712SOL    HW131595   1.132   4.055  11.025 -1.5488  0.3496 -2.6741
 6712SOL    HW231596   1.205   3.937  11.072 -1.6341 -0.3425  0.7119
 6713SOL     OW31597   3.681   4.587   7.835  0.3405 -0.1338  0.7722
 6713SOL    HW131598   3.663   4.679   7.813 -0.1704 -0.7865 -1.5097
 6713SOL    HW231599   3.767   4.578   7.793  0.3128 -0.6034  0.8130
 6714SOL     OW31600   4.430   4.356   4.735 -0.3091  0.5808 -0.1665
 6714SOL    HW131601   4.483   4.348   4.655 -2.0868 -1.2057 -1.1914
 6714SOL    HW231602   4.348   4.314   4.707  1.1417 -0.1085 -3.3833
 6715SOL     OW31603   3.555   3.443   7.491  0.1072 -0.2467  0.0893
 6715SOL    HW131604   3.520   3.395   7.416 -2.0721 -0.4526  1.2679
 6715SOL    HW231605   3.482   3.498   7.518  0.9898  0.5657  0.8272
 6716SOL     OW31606   2.892   1.537   3.232 -0.3853  0.4309 -0.3006
 6716SOL    HW131607   2.921   1.463   3.178 -1.8311 -0.2879 -0.0954
 6716SOL    HW231608   2.821   1.498   3.282  0.0657 -0.2949 -0.2285
 6717SOL     OW31609   1.606   2.861  13.248  0.4729 -0.1646 -0.9388
 6717SOL    HW131610   1.646   2.900  13.171  0.5478  0.3538 -0.6393
 6717SOL    HW231611   1.572   2.778  13.215 -1.5769  0.1912  0.2419
 6718SOL     OW31612   3.702   1.033  17.696 -0.3790 -0.0715 -0.3940
 6718SOL    HW131613   3.664   1.102   0.052  0.1789  0.3474 -0.5340
 6718SOL    HW231614   3.756   1.090  17.641 -2.4982  1.3019 -1.0510
 6719SOL     OW31615   2.269   0.711   4.456  0.3529 -0.4328  0.0106
 6719SOL    HW131616   2.194   0.676   4.504  1.7332 -3.2556  0.0833
 6719SOL    HW231617   2.300   0.770   4.525  0.7353 -0.2714 -0.2946
 6720SOL     OW31618   4.318   1.764   3.081  0.6729 -0.0795  0.1136
 6720SOL    HW131619   4.312   1.699   3.151 -0.3420  0.0875  0.1789
 6720SOL    HW231620   4.258   1.825   3.123  0.1354 -0.9676  0.6437
 6721SOL     OW31621   1.439   0.304   4.662 -0.4676  0.1368  0.1172
 6721SOL    HW131622   1.395   0.283   4.745  0.5780  1.2179  0.9425
 6721SOL    HW231623   1.443   0.399   4.666 -1.0278  0.2042 -0.9122
 6722SOL     OW31624   0.141   0.684   2.676 -0.4713 -0.0256 -0.5016
 6722SOL    HW131625   0.180   0.683   2.588  2.1707 -1.1257  0.6969
 6722SOL    HW231626   0.047   0.695   2.660 -0.7150  0.0834  1.0506
 6723SOL     OW31627   0.970   4.593  11.329 -0.0220  0.2537 -0.2735
 6723SOL    HW131628   0.999   4.684  11.319  0.8281 -0.0460 -0.5182
 6723SOL    HW231629   0.918   4.571  11.251 -1.5936 -2.3010  1.5243
 6724SOL     OW31630   4.346   1.817   0.373  0.1610 -0.0478 -0.1918
 6724SOL    HW131631   4.396   1.757   0.429 -0.7169 -0.7247 -0.1376
 6724SOL    HW231632   4.399   1.891   0.404  0.9329 -0.9755  0.7003
 6725SOL     OW31633   1.960   1.420   6.672  0.0707 -0.2168 -0.0088
 6725SOL    HW131634   2.007   1.418   6.756 -0.1908 -2.1407  0.0884
 6725SOL    HW231635   1.868   1.434   6.697 -0.0039 -1.5312  0.4766
 6726SOL     OW31636   0.256   2.967   1.268  0.0316  0.0113 -0.0921
 6726SOL    HW131637   0.171   2.924   1.262  0.2831 -0.4682 -0.2176
 6726SOL    HW231638   0.249   3.041   1.207  0.0170 -0.4030 -0.6024
 6727SOL     OW31639   4.507   4.067   7.251  0.0396 -0.5184 -0.2827
 6727SOL    HW131640   4.581   4.127   7.266 -0.9226  0.3515  0.9995
 6727SOL    HW231641   4.494   4.062   7.346 -0.8921 -1.5039 -0.4714
 6728SOL     OW31642   1.898   4.257   2.975 -0.3798 -0.4889  0.1666
 6728SOL    HW131643   1.971   4.318   2.990 -1.2188  1.2700 -2.9388
 6728SOL    HW231644   1.837   4.272   3.047 -0.4397 -3.8944  0.8198
 6729SOL     OW31645   0.538   3.827   2.632  0.0421  0.0271  0.3976
 6729SOL    HW131646   0.506   3.786   2.712  0.0020  0.3924  0.5660
 6729SOL    HW231647   0.459   3.880   2.617  2.3149  3.0920 -0.6949
 6730SOL     OW31648   1.355   3.841   5.933  0.0548 -0.7983 -0.3348
 6730SOL    HW131649   1.320   3.927   5.954  1.4606 -0.4349  0.5228
 6730SOL    HW231650   1.440   3.842   5.977 -0.2434  0.1711  0.2057
 6731SOL     OW31651   1.633   4.041   4.418 -0.0252 -0.4027  0.0496
 6731SOL    HW131652   1.711   4.005   4.461 -0.5103 -0.3324  0.9794
 6731SOL    HW231653   1.568   4.044   4.487  0.6261 -2.8721  0.7689
 6732SOL     OW31654   2.177   1.524   5.557  0.2515  0.1928  0.6605
 6732SOL    HW131655   2.262   1.564   5.537  0.9276 -1.0779  0.9812
 6732SOL    HW231656   2.204   1.487   5.642 -5.3037 -1.1789  1.7952
 6733SOL     OW31657   2.104   2.663  14.528  0.6152  0.2354  0.2690
 6733SOL    HW131658   2.082   2.682  14.437 -2.0559  0.0650  0.8869
 6733SOL    HW231659   2.197   2.687  14.532  0.4241  0.9041  0.6774
 6734SOL     OW31660   3.047   1.813   2.319  0.2112 -0.1577 -0.7726
 6734SOL    HW131661   3.118   1.809   2.383 -1.6455  0.0797  1.3085
 6734SOL    HW231662   3.070   1.886   2.261 -2.4157  0.2879 -1.2880
 6735SOL     OW31663   3.231   3.771   0.931  0.2997  0.0661  0.1327
 6735SOL    HW131664   3.305   3.791   0.874 -0.5036 -2.7187 -1.8866
 6735SOL    HW231665   3.181   3.714   0.873  0.9195 -0.3616  0.0325
 6736SOL     OW31666   2.339   2.346  14.928  0.2610 -0.1819 -0.0551
 6736SOL    HW131667   2.365   2.254  14.930 -1.5021 -0.6540  0.5929
 6736SOL    HW231668   2.327   2.362  15.021 -0.3559 -0.0379 -0.1619
 6737SOL     OW31669   3.582   4.386  15.145  0.3623 -0.5078 -0.0324
 6737SOL    HW131670   3.502   4.335  15.132 -1.5573  2.4257  0.2598
 6737SOL    HW231671   3.549   4.451  15.206  0.5656 -1.8472  1.4983
 6738SOL     OW31672   2.584   1.726   2.503 -0.1099  0.1994 -0.4506
 6738SOL    HW131673   2.563   1.811   2.466 -1.1210  1.0753  2.1349
 6738SOL    HW231674   2.656   1.696   2.447  0.2724  1.8107 -0.8233
 6739SOL     OW31675   0.630   2.916   4.807 -0.2512  0.4265 -0.7220
 6739SOL    HW131676   0.631   2.960   4.892  0.1721  1.0629 -1.0534
 6739SOL    HW231677   0.553   2.861   4.825  0.1763  0.3191  0.8045
 6740SOL     OW31678   3.725   2.039   6.993 -0.4719  0.3123 -0.1320
 6740SOL    HW131679   3.818   2.059   6.978 -0.4408  0.4622  0.2696
 6740SOL    HW231680   3.680   2.083   6.921  0.6344  1.7305  0.0226
 6741SOL     OW31681   4.535   3.848   8.789  0.0690 -0.2795  0.1417
 6741SOL    HW131682   4.516   3.846   8.695 -2.8093 -1.4453  0.7440
 6741SOL    HW231683   4.490   3.773   8.826 -0.3396 -1.3266 -2.4491
 6742SOL     OW31684   1.865   0.838   9.050  0.3119  0.2609  0.4567
 6742SOL    HW131685   1.829   0.898   9.114  0.9311  0.1098  0.9503
 6742SOL    HW231686   1.833   0.886   8.974  0.9290 -0.6216 -0.3668
 6743SOL     OW31687   0.602   3.351   3.200 -0.0794  0.4440  0.5448
 6743SOL    HW131688   0.572   3.403   3.275  0.3517  0.9151  0.3899
 6743SOL    HW231689   0.611   3.417   3.131  1.7630 -0.4624 -0.0981
 6744SOL     OW31690   3.620   2.403   6.574  0.6478  0.1338  0.1695
 6744SOL    HW131691   3.667   2.482   6.601 -0.9964  1.1207  0.0847
 6744SOL    HW231692   3.681   2.334   6.602  0.0649 -0.6873 -0.5462
 6745SOL     OW31693   2.428   3.647  15.480 -0.3110 -0.3927  0.1816
 6745SOL    HW131694   2.493   3.630  15.412 -0.8328 -0.1367 -0.3723
 6745SOL    HW231695   2.416   3.559  15.516  0.7154  0.1512  1.8786
 6746SOL     OW31696   2.252   3.409   3.309 -0.3085 -0.3143  0.2157
 6746SOL    HW131697   2.339   3.382   3.279 -0.2480  0.2697 -0.1347
 6746SOL    HW231698   2.196   3.373   3.240 -0.3335 -1.6809  0.9626
 6747SOL     OW31699   0.892   0.987   5.063  0.3393 -0.1327  0.1893
 6747SOL    HW131700   0.910   0.919   5.128  3.5948 -0.0672 -0.6485
 6747SOL    HW231701   0.817   1.028   5.107 -0.3999 -1.1341 -0.1240
 6748SOL     OW31702   0.464   1.300   9.206 -0.3180 -0.1264 -0.1687
 6748SOL    HW131703   0.464   1.346   9.122 -0.3443  0.4273  0.1302
 6748SOL    HW231704   0.462   1.374   9.267  1.4610  1.4851 -2.0364
 6749SOL     OW31705   3.352   1.602   6.027  0.0657 -0.3370  0.5412
 6749SOL    HW131706   3.304   1.591   5.945  0.6520  0.5930  0.0727
 6749SOL    HW231707   3.378   1.512   6.048 -1.5512 -0.6209  1.2965
 6750SOL     OW31708   1.190   3.397   5.851 -0.3566 -0.0125 -0.2952
 6750SOL    HW131709   1.132   3.356   5.915 -0.0808  0.5479  0.3114
 6750SOL    HW231710   1.202   3.323   5.791 -0.9095 -1.5415  1.5052
 6751SOL     OW31711   1.392   1.890   3.227  0.0594 -0.5099  0.3059
 6751SOL    HW131712   1.332   1.869   3.155 -0.3529 -0.5543  0.6600
 6751SOL    HW231713   1.447   1.944   3.171 -3.5991  2.1168 -0.7966
 6752SOL     OW31714   1.607   0.636   5.777 -0.0967  0.6053  0.6752
 6752SOL    HW131715   1.519   0.602   5.791  0.2182  0.4477  2.3041
 6752SOL    HW231716   1.624   0.604   5.689  0.8041 -0.4697  1.2322
 6753SOL     OW31717   0.235   4.575  10.810  0.0174 -0.0111  0.1599
 6753SOL    HW131718   0.181   4.521  10.867 -1.3991  1.0479 -0.1913
 6753SOL    HW231719   0.325   4.554  10.838 -0.5070  0.4604  2.1956
 6754SOL     OW31720   1.531   2.025   7.161  0.1549  0.6923  0.4918
 6754SOL    HW131721   1.626   2.024   7.165  0.1547  1.9637  0.9479
 6754SOL    HW231722   1.498   2.076   7.235 -2.3858  1.1445 -0.9365
 6755SOL     OW31723   1.052   3.044  14.338  0.5525  0.0150 -0.1581
 6755SOL    HW131724   1.031   3.030  14.246 -0.9469 -1.8301  0.4578
 6755SOL    HW231725   0.994   2.982  14.382  0.5734 -1.0695 -1.6633
 6756SOL     OW31726   2.542   0.177   7.581 -0.5109  0.0253  0.1371
 6756SOL    HW131727   2.571   0.150   7.668 -1.9005  0.0603  0.6149
 6756SOL    HW231728   2.606   0.247   7.567 -0.8238 -0.0549 -1.7706
 6757SOL     OW31729   0.238   3.755  16.978 -0.6549 -0.1679  0.1015
 6757SOL    HW131730   0.224   3.713  17.063 -1.1700 -1.0017 -0.4086
 6757SOL    HW231731   0.326   3.793  16.985 -1.5774  2.1478 -0.9328
 6758SOL     OW31732   2.858   3.330   8.404 -0.2520  0.5201  0.4914
 6758SOL    HW131733   2.783   3.375   8.365  0.8694  0.1335 -2.1122
 6758SOL    HW231734   2.871   3.249   8.353  1.8695  0.8623  0.4847
 6759SOL     OW31735   0.869   1.580   5.513 -0.3071 -0.5388  0.2893
 6759SOL    HW131736   0.801   1.520   5.544 -1.7119  0.9993  0.1780
 6759SOL    HW231737   0.874   1.647   5.581  0.3846 -1.7109  1.3759
 6760SOL     OW31738   2.726   2.435  14.559  0.3566  0.7493 -0.8376
 6760SOL    HW131739   2.664   2.416  14.629 -0.1561 -0.9088 -1.7493
 6760SOL    HW231740   2.702   2.522  14.529  0.5441  1.6198  1.5474
 6761SOL     OW31741   0.260   1.654   4.912 -0.1571  0.0828  0.5072
 6761SOL    HW131742   0.344   1.638   4.956 -0.2830  3.5820  2.0424
 6761SOL    HW231743   0.245   1.574   4.863 -2.5448 -0.8582  2.8164
 6762SOL     OW31744   4.152   2.420   4.273  0.1661 -0.2744 -0.1797
 6762SOL    HW131745   4.227   2.444   4.219 -1.0844  1.6261 -1.0624
 6762SOL    HW231746   4.130   2.333   4.240  1.0736 -1.3012  1.9041
 6763SOL     OW31747   1.718   3.708   5.170  0.7733  0.0146 -0.1231
 6763SOL    HW131748   1.737   3.797   5.198 -3.1986  0.1051  2.2470
 6763SOL    HW231749   1.728   3.703   5.075  0.0961 -1.4920 -0.1173
 6764SOL     OW31750   3.978   1.424   5.699  0.1658 -0.5351 -0.5928
 6764SOL    HW131751   3.965   1.337   5.736 -0.0039  0.5424  1.8913
 6764SOL    HW231752   3.892   1.441   5.660 -0.9268 -0.3128  1.9240
 6765SOL     OW31753   0.924   0.183   3.735 -0.0867  0.5662  0.2417
 6765SOL    HW131754   0.951   0.145   3.819 -1.4543  0.0009  0.4228
 6765SOL    HW231755   1.004   0.165   3.686  0.3200  1.4817  0.5772
 6766SOL     OW31756   3.058   2.341   2.204  0.0845  0.0817 -0.2072
 6766SOL    HW131757   3.092   2.410   2.260 -1.7604  0.0141  0.9798
 6766SOL    HW231758   3.074   2.382   2.119 -1.1968  0.6297 -0.1920
 6767SOL     OW31759   2.693   3.856  11.543  0.1699 -0.3280 -0.0025
 6767SOL    HW131760   2.785   3.884  11.549  0.3892 -0.7998 -1.2552
 6767SOL    HW231761   2.653   3.933  11.503  0.4839 -2.1621 -3.8436
 6768SOL     OW31762   2.886   4.398   3.831  0.3040  0.3207 -0.1142
 6768SOL    HW131763   2.947   4.450   3.778  0.8276  1.0909  1.2191
 6768SOL    HW231764   2.941   4.365   3.901 -0.4279  3.7086  2.0810
 6769SOL     OW31765   3.848   2.827  10.057  0.5592  0.0930  0.8290
 6769SOL    HW131766   3.769   2.796  10.102 -0.2771  1.4960  0.3060
 6769SOL    HW231767   3.815   2.847   9.970  0.9669  2.3141  1.1776
 6770SOL     OW31768   1.489   3.400   7.577 -0.4573 -0.5155 -0.2902
 6770SOL    HW131769   1.400   3.365   7.575 -1.1199  1.2545 -1.4538
 6770SOL    HW231770   1.535   3.315   7.577  1.5300  0.5550  1.0603
 6771SOL     OW31771   4.158   3.026   1.139 -0.3652  0.6025 -0.1999
 6771SOL    HW131772   4.220   2.955   1.160 -0.7751  0.4652  0.5592
 6771SOL    HW231773   4.112   3.031   1.223  0.2355 -1.1135  0.2413
 6772SOL     OW31774   2.892   2.116   8.130  0.3101 -0.3261  0.1001
 6772SOL    HW131775   2.901   2.028   8.166 -2.0814 -0.8983 -0.6944
 6772SOL    HW231776   2.842   2.099   8.050  0.0388  0.1073  0.1758
 6773SOL     OW31777   1.847   4.639   6.259  0.1502  0.8682  0.0523
 6773SOL    HW131778   1.941   4.655   6.258  0.2164  0.4686  0.0698
 6773SOL    HW231779   1.826   4.660   6.168  0.0534  0.4084 -0.0297
 6774SOL     OW31780   2.237   3.694   0.716 -0.5715  0.3742 -0.4554
 6774SOL    HW131781   2.278   3.669   0.633  0.0562 -0.8012  0.2107
 6774SOL    HW231782   2.216   3.784   0.691  0.8689  1.4802  2.2714
 6775SOL     OW31783   4.398   1.699   8.258  0.1341  0.3022  0.2647
 6775SOL    HW131784   4.437   1.683   8.172 -0.9463 -0.5886 -0.0471
 6775SOL    HW231785   4.352   1.780   8.236  0.8155  0.6015 -0.0713
 6776SOL     OW31786   1.025   1.687   9.208  0.1405 -0.0938  0.2833
 6776SOL    HW131787   0.975   1.631   9.148  0.7926  0.9903 -1.2984
 6776SOL    HW231788   1.060   1.617   9.263  0.0982  0.6473  1.2579
 6777SOL     OW31789   1.031   3.200  15.392 -0.1631  0.5233 -0.3071
 6777SOL    HW131790   1.028   3.253  15.312 -0.5246  0.5410 -0.2831
 6777SOL    HW231791   1.030   3.107  15.367 -1.8180  1.0570 -2.2550
 6778SOL     OW31792   3.628   0.019  12.179 -0.0554  0.2226 -0.2743
 6778SOL    HW131793   3.611   0.082  12.110 -1.6797 -0.3773 -0.4134
 6778SOL    HW231794   3.577   0.048  12.255  0.5414  0.8631 -0.1155
 6779SOL     OW31795   1.914   2.840  13.321  0.1594 -0.9248 -0.3056
 6779SOL    HW131796   1.984   2.776  13.310  0.2869 -1.0708  1.4310
 6779SOL    HW231797   1.911   2.884  13.236  1.1832 -1.9022 -0.8388
 6780SOL     OW31798   2.837   2.722   3.198 -0.4644  0.6142  0.4789
 6780SOL    HW131799   2.857   2.630   3.215 -1.7232 -0.6570 -4.9782
 6780SOL    HW231800   2.745   2.716   3.172 -0.5144  1.0424  0.5573
 6781SOL     OW31801   1.121   1.513  10.857  0.0476  0.0899 -0.0877
 6781SOL    HW131802   1.025   1.506  10.856 -0.2358  3.7734 -0.8689
 6781SOL    HW231803   1.147   1.572  10.785  0.7513  1.0039  0.9183
 6782SOL     OW31804   4.563   3.531   6.816 -0.6192  0.6087  0.4066
 6782SOL    HW131805   4.600   3.532   6.904  1.5845  1.1100 -0.5222
 6782SOL    HW231806   4.599   3.453   6.772 -0.6324  0.2391  1.0602
 6783SOL     OW31807   4.274   0.468   9.545 -0.3399 -0.1989 -0.2821
 6783SOL    HW131808   4.366   0.471   9.519 -0.0675  1.3017  0.8580
 6783SOL    HW231809   4.231   0.492   9.463  2.0133  2.1708 -0.8219
 6784SOL     OW31810   0.508   0.812  13.951 -0.8015 -0.2490  0.3204
 6784SOL    HW131811   0.457   0.746  13.997  0.3020 -0.8453  0.6724
 6784SOL    HW231812   0.445   0.881  13.928 -0.0756  0.1576 -0.4295
 6785SOL     OW31813   4.397   4.512   3.184 -1.1438  0.3130 -0.1710
 6785SOL    HW131814   4.430   4.561   3.259 -0.7671  1.9974 -1.4538
 6785SOL    HW231815   4.317   4.559   3.161 -1.0684  0.4208 -0.2122
 6786SOL     OW31816   2.911   2.802   5.957  0.0883  0.8970  0.6661
 6786SOL    HW131817   2.835   2.744   5.942  0.6727  0.4990 -0.7707
 6786SOL    HW231818   2.956   2.764   6.032  1.1013 -1.2010 -0.9813
 6787SOL     OW31819   3.079   1.632   4.821 -0.6186 -0.8310 -0.4623
 6787SOL    HW131820   3.002   1.672   4.861 -0.8365 -0.2922 -1.4282
 6787SOL    HW231821   3.044   1.610   4.734  0.7242  0.5362 -1.3443
 6788SOL     OW31822   4.513   2.385  16.720  0.8216  0.0915  0.4574
 6788SOL    HW131823   4.446   2.335  16.767  1.9599 -0.5528  1.3846
 6788SOL    HW231824   4.498   2.348  16.633  0.1032  0.1988  0.5371
 6789SOL     OW31825   2.763   1.807   1.740 -0.3131 -0.0785 -0.6091
 6789SOL    HW131826   2.805   1.890   1.762 -1.4413  0.7913 -1.7495
 6789SOL    HW231827   2.685   1.812   1.796 -0.5678 -0.3034 -0.9462
 6790SOL     OW31828   2.250   2.383   5.502 -0.0934  0.4130  0.0883
 6790SOL    HW131829   2.223   2.473   5.487 -1.2181 -0.1174 -0.9951
 6790SOL    HW231830   2.276   2.370   5.411  0.4776 -0.0035  0.3102
 6791SOL     OW31831   1.829   3.840   4.219  0.0609 -0.6690 -0.0208
 6791SOL    HW131832   1.892   3.843   4.291 -0.5129  0.1028  0.4476
 6791SOL    HW231833   1.758   3.798   4.268 -0.9947  0.1997 -0.8052
 6792SOL     OW31834   2.304   2.086   9.582  0.4681  0.2154  0.4417
 6792SOL    HW131835   2.333   2.119   9.497  2.0722 -1.7269  0.2111
 6792SOL    HW231836   2.269   2.169   9.612  1.4675  0.4540  0.9540
 6793SOL     OW31837   0.162   0.286  16.593 -0.5694  0.3576 -0.6851
 6793SOL    HW131838   0.203   0.327  16.669 -1.3916 -2.6860  1.4331
 6793SOL    HW231839   0.230   0.228  16.560 -1.3454 -0.5817 -0.6245
 6794SOL     OW31840   2.417   3.216   2.510  0.0698  0.0959 -0.3245
 6794SOL    HW131841   2.336   3.257   2.478 -0.6113 -0.9063  0.1550
 6794SOL    HW231842   2.381   3.144   2.561 -1.5447  1.8200  0.9604
 6795SOL     OW31843   4.635   4.275  10.656 -0.2057  0.1418 -0.7347
 6795SOL    HW131844   4.621   4.180  10.658 -1.6534  0.3410 -0.9466
 6795SOL    HW231845   4.694   4.298  10.584  0.6389  0.4595  0.0601
 6796SOL     OW31846   4.128   1.728  15.159  0.0968 -0.3095  0.1000
 6796SOL    HW131847   4.043   1.689  15.179  0.5037 -2.1829 -1.9173
 6796SOL    HW231848   4.136   1.712  15.065  0.5737 -2.1425  0.4598
 6797SOL     OW31849   0.513   0.986  11.056  0.0965 -0.0099  0.0873
 6797SOL    HW131850   0.471   0.922  11.114  0.4532  0.2751  0.6577
 6797SOL    HW231851   0.484   0.965  10.967 -0.9620 -0.8903  0.6484
 6798SOL     OW31852   2.581   4.152  11.480 -0.0830  0.3393 -0.0343
 6798SOL    HW131853   2.641   4.218  11.515 -0.4397 -0.5731  2.2877
 6798SOL    HW231854   2.544   4.200  11.406 -0.1537 -3.0925 -2.1941
 6799SOL     OW31855   1.198   1.761   7.744 -0.1955  0.3842 -0.8256
 6799SOL    HW131856   1.120   1.814   7.759 -0.9137 -0.7373 -0.6036
 6799SOL    HW231857   1.167   1.704   7.674  0.0596 -0.6962 -0.0570
 6800SOL     OW31858   0.739   1.105   2.998  0.4291 -0.2940 -0.4165
 6800SOL    HW131859   0.782   1.072   3.076  0.1197  2.4916  0.9435
 6800SOL    HW231860   0.776   1.052   2.927  0.7737 -0.2085 -0.2962
 6801SOL     OW31861   0.706   1.682   5.308  0.4664  0.5975  0.2715
 6801SOL    HW131862   0.743   1.750   5.252  3.3100 -0.8222  0.4089
 6801SOL    HW231863   0.780   1.670   5.368  0.3231  0.2271  0.3735
 6802SOL     OW31864   4.682   4.145   4.962  0.2131  0.1079  0.1630
 6802SOL    HW131865   0.002   4.229   4.948  1.1504 -0.4246 -0.0459
 6802SOL    HW231866   4.631   4.134   4.882 -2.9869  0.4169  2.1139
 6803SOL     OW31867   0.763   0.653  10.579 -0.1040 -0.3528  0.0858
 6803SOL    HW131868   0.800   0.680  10.495 -0.2889  1.3473  0.5389
 6803SOL    HW231869   0.809   0.570  10.587 -0.0087  0.0487  3.7406
 6804SOL     OW31870   0.120   4.229   6.879 -0.6461 -0.0525 -0.4128
 6804SOL    HW131871   0.116   4.179   6.798  0.1356  2.4399 -2.0163
 6804SOL    HW231872   0.081   4.313   6.855  1.2905  1.2731  1.0890
 6805SOL     OW31873   3.308   4.253   3.366  0.3265 -0.5680 -0.2891
 6805SOL    HW131874   3.399   4.243   3.394  0.0496 -0.8293  0.5031
 6805SOL    HW231875   3.275   4.170   3.400 -1.8832 -0.0262 -1.1546
 6806SOL     OW31876   3.757   0.557   1.976  0.0663 -0.2691  0.2438
 6806SOL    HW131877   3.737   0.478   1.926 -1.5649  1.2937 -1.5536
 6806SOL    HW231878   3.700   0.621   1.935  0.7834  1.1429  1.4310
 6807SOL     OW31879   1.469   2.049   5.741  0.0619  0.0139  0.1592
 6807SOL    HW131880   1.421   2.122   5.701 -1.0153 -0.0829  1.2818
 6807SOL    HW231881   1.561   2.074   5.748 -0.2526  1.3369 -0.3938
 6808SOL     OW31882   4.500   4.238  16.108  0.3717 -0.1210  0.0837
 6808SOL    HW131883   4.406   4.234  16.126  0.0808 -0.7821 -1.5957
 6808SOL    HW231884   4.495   4.209  16.017 -3.8554 -0.4439  0.4174
 6809SOL     OW31885   0.367   4.333  12.497  0.3644  0.3205 -0.1931
 6809SOL    HW131886   0.306   4.351  12.569 -2.0679 -0.6098 -2.0190
 6809SOL    HW231887   0.403   4.245  12.505 -0.6495 -0.2814 -2.1505
 6810SOL     OW31888   4.299   1.347   6.235 -0.6254 -0.4326  0.3961
 6810SOL    HW131889   4.361   1.369   6.166  1.6417 -1.7093  2.0384
 6810SOL    HW231890   4.239   1.286   6.193  1.8915 -2.6429  0.0463
 6811SOL     OW31891   3.078   3.459  15.105 -0.2238  0.0752 -0.2232
 6811SOL    HW131892   3.050   3.392  15.168 -0.1783 -0.9129 -1.2441
 6811SOL    HW231893   3.096   3.532  15.164 -0.6883 -1.3283  1.6888
 6812SOL     OW31894   2.392   1.094   5.662  0.0899 -0.1038  0.2470
 6812SOL    HW131895   2.380   1.189   5.667  1.2564 -0.0152  1.3349
 6812SOL    HW231896   2.388   1.084   5.567  2.3804 -1.0574  0.2655
 6813SOL     OW31897   1.128   2.947   0.793 -0.0954  0.4415  0.2292
 6813SOL    HW131898   1.216   2.984   0.793  0.8681 -1.8348  0.6631
 6813SOL    HW231899   1.077   3.027   0.781 -4.1376 -1.9275  1.5810
 6814SOL     OW31900   0.632   3.085  12.492  0.4440  0.2805  0.4914
 6814SOL    HW131901   0.669   3.158  12.442 -0.2857 -0.6836 -1.4745
 6814SOL    HW231902   0.542   3.118  12.497  0.1613 -0.4616  0.2306
 6815SOL     OW31903   2.774   1.062   6.920 -0.4445  0.5607 -0.1557
 6815SOL    HW131904   2.694   1.102   6.955 -1.4066 -1.1920 -0.3552
 6815SOL    HW231905   2.749   1.050   6.828  0.4931 -0.7193 -0.2312
 6816SOL     OW31906   1.657   2.912   6.259 -0.8033 -0.0457  0.2971
 6816SOL    HW131907   1.743   2.952   6.264  0.5880 -3.1085  1.0649
 6816SOL    HW231908   1.603   2.977   6.304  0.5811  0.8063  0.7203
 6817SOL     OW31909   2.204   2.893   4.296  0.5081 -0.4836  0.0469
 6817SOL    HW131910   2.271   2.946   4.338  1.3814 -2.2525  0.9108
 6817SOL    HW231911   2.217   2.901   4.202 -0.0351  1.7577  0.1656
 6818SOL     OW31912   1.725   0.790   1.187  0.4257  0.4299 -0.2288
 6818SOL    HW131913   1.746   0.702   1.218 -0.4429 -0.3635 -1.9108
 6818SOL    HW231914   1.778   0.812   1.111 -0.5102  2.0395 -0.4065
 6819SOL     OW31915   3.157   0.964   6.609  0.0681 -0.9445 -0.4902
 6819SOL    HW131916   3.203   1.044   6.587 -1.7988  0.2003 -0.2489
 6819SOL    HW231917   3.137   0.932   6.521 -2.4074  0.4100 -0.4228
 6820SOL     OW31918   3.867   1.973   2.238 -0.1495  0.4085  0.2206
 6820SOL    HW131919   3.914   1.922   2.304 -1.0995 -2.6176 -1.4783
 6820SOL    HW231920   3.922   2.051   2.239 -2.7072  2.2261  0.1695
 6821SOL     OW31921   0.435   2.627  14.735 -0.2691 -0.2942 -0.1974
 6821SOL    HW131922   0.343   2.616  14.709 -0.4940  1.5356 -0.1755
 6821SOL    HW231923   0.434   2.723  14.741 -3.4384 -0.5041  2.5671
 6822SOL     OW31924   2.092   3.886   9.035 -0.2285  0.1837  0.4483
 6822SOL    HW131925   2.011   3.896   9.086 -1.0576 -1.2248 -0.6174
 6822SOL    HW231926   2.108   3.980   9.025  0.2056  0.2406  1.6578
 6823SOL     OW31927   0.425   4.234   1.153 -0.1079 -0.1050 -0.4326
 6823SOL    HW131928   0.393   4.306   1.100 -0.2351  0.1090 -0.0646
 6823SOL    HW231929   0.385   4.161   1.105  0.3349 -2.4983  2.8466
 6824SOL     OW31930   2.152   2.468  14.164  0.3585  0.0356 -0.3696
 6824SOL    HW131931   2.086   2.470  14.094  1.2216  0.2425 -1.1846
 6824SOL    HW231932   2.143   2.555  14.204 -0.1573  0.5090 -1.4769
 6825SOL     OW31933   1.475   1.348  13.196 -0.1534  0.0342 -0.5489
 6825SOL    HW131934   1.396   1.293  13.201 -0.9687  1.1963 -0.6043
 6825SOL    HW231935   1.511   1.305  13.118 -1.6705 -2.9394  0.3655
 6826SOL     OW31936   0.578   4.533   2.390  0.2535  0.3459  0.1756
 6826SOL    HW131937   0.515   4.570   2.452  0.4592 -2.0292  1.8003
 6826SOL    HW231938   0.535   4.460   2.346  0.3575  1.0200 -1.0410
 6827SOL     OW31939   2.858   2.309   2.596  0.7676 -0.4220  0.5796
 6827SOL    HW131940   2.765   2.294   2.613  0.7273 -1.2736 -0.4053
 6827SOL    HW231941   2.851   2.363   2.518 -1.8787 -1.4826  0.0773
 6828SOL     OW31942   4.449   3.592   0.578  0.4981  0.3631  0.0394
 6828SOL    HW131943   4.428   3.666   0.636 -1.0659  0.4702 -0.6526
 6828SOL    HW231944   4.365   3.546   0.571  0.3218  0.2353  3.0451
 6829SOL     OW31945   2.062   3.502   7.638 -0.4610 -0.1944 -0.3506
 6829SOL    HW131946   2.029   3.462   7.718  2.1108 -0.4418  0.5866
 6829SOL    HW231947   2.014   3.585   7.631 -0.8579 -0.2985  1.0005
 6830SOL     OW31948   2.793   3.374  12.772 -0.1696 -0.1666  0.1277
 6830SOL    HW131949   2.873   3.413  12.738 -0.6297 -0.3829 -1.1911
 6830SOL    HW231950   2.794   3.399  12.865  0.7345  0.4581 -0.0507
 6831SOL     OW31951   1.010   3.163   0.707 -0.5246  0.0707  0.2420
 6831SOL    HW131952   0.989   3.219   0.633 -0.6785  0.8318  0.8640
 6831SOL    HW231953   0.999   3.220   0.783  1.1405 -0.6271  1.0158
 6832SOL     OW31954   0.322   3.838   2.297 -0.3282 -0.1425  0.4074
 6832SOL    HW131955   0.378   3.910   2.266  0.8513 -1.2870 -0.1436
 6832SOL    HW231956   0.388   3.769   2.291 -1.1536 -0.9370  0.5531
 6833SOL     OW31957   1.182   1.838   3.679  0.2041 -0.2840  0.1082
 6833SOL    HW131958   1.140   1.798   3.602 -1.0269 -0.7542  1.0241
 6833SOL    HW231959   1.123   1.912   3.689 -0.9222 -1.2555  0.6337
 6834SOL     OW31960   0.724   4.668   5.764 -0.1938  0.4646  0.0830
 6834SOL    HW131961   0.695   0.016   5.820 -0.0100  1.0914 -0.6276
 6834SOL    HW231962   0.793   4.628   5.816 -0.4839 -0.2828 -0.1114
 6835SOL     OW31963   3.952   3.565  14.464  0.0093  0.1001  0.2821
 6835SOL    HW131964   3.926   3.482  14.424 -2.4976  1.5167 -1.0483
 6835SOL    HW231965   3.889   3.625  14.423 -2.0187 -3.0206 -1.2156
 6836SOL     OW31966   4.223   2.928   9.053  0.0775  0.2158  0.3049
 6836SOL    HW131967   4.140   2.884   9.037 -0.0199  0.7945 -0.7676
 6836SOL    HW231968   4.199   3.018   9.077  0.1919  0.1708  0.5909
 6837SOL     OW31969   3.592   2.349  15.478  0.1130  0.3490 -0.0305
 6837SOL    HW131970   3.570   2.378  15.390 -0.1117 -0.0113 -0.0941
 6837SOL    HW231971   3.667   2.291  15.465  0.1050  0.4552 -0.5562
 6838SOL     OW31972   3.508   2.057   1.894  0.1341 -0.3119  0.1127
 6838SOL    HW131973   3.536   1.999   1.964 -0.3132 -1.5225 -0.7173
 6838SOL    HW231974   3.461   2.008   1.826  0.1321  0.0396 -0.1425
 6839SOL     OW31975   3.084   3.632   6.473  0.2616  0.1634 -0.4313
 6839SOL    HW131976   3.159   3.622   6.532 -0.1020 -0.4687 -0.0800
 6839SOL    HW231977   3.017   3.652   6.538  0.2330  2.2611 -1.1038
 6840SOL     OW31978   0.896   3.616   7.804  0.0699 -0.5140 -0.1118
 6840SOL    HW131979   0.976   3.620   7.856 -0.0301 -0.4906  0.0380
 6840SOL    HW231980   0.944   3.613   7.721 -0.2808  1.3588 -0.3791
 6841SOL     OW31981   4.312   1.844   9.224  0.2066 -0.2013  0.0701
 6841SOL    HW131982   4.269   1.769   9.266 -0.1315 -1.1232 -1.9006
 6841SOL    HW231983   4.232   1.886   9.192  0.6614  0.7319  0.1956
 6842SOL     OW31984   3.386   0.485   6.246  0.7165 -0.0959 -0.4813
 6842SOL    HW131985   3.290   0.478   6.254  0.9610 -1.4748  1.2182
 6842SOL    HW231986   3.413   0.399   6.280  3.6440  1.2980  0.6574
 6843SOL     OW31987   1.023   1.401   8.363 -0.8313 -0.2452  0.7137
 6843SOL    HW131988   1.066   1.446   8.436 -1.2161  0.2187  0.6517
 6843SOL    HW231989   0.965   1.467   8.325 -0.0783  1.3879  2.4000
 6844SOL     OW31990   4.279   2.622   3.317  0.0096 -0.4558 -0.4728
 6844SOL    HW131991   4.248   2.611   3.407 -0.4229 -1.8583 -0.7883
 6844SOL    HW231992   4.327   2.545   3.287  1.6943  0.5632 -0.3608
 6845SOL     OW31993   0.838   3.768  12.587  0.4119  0.1178  0.0456
 6845SOL    HW131994   0.888   3.833  12.537 -0.4255 -0.6833 -1.8469
 6845SOL    HW231995   0.902   3.722  12.640  0.8413 -0.5628 -1.0648
 6846SOL     OW31996   2.970   1.517  16.199  0.6840 -0.7492  0.0394
 6846SOL    HW131997   3.035   1.528  16.129 -1.4225  2.1130 -1.4801
 6846SOL    HW231998   3.007   1.574  16.267  1.2628  0.8800 -1.6275
 6847SOL     OW31999   1.930   3.172   7.697 -0.2183  0.2915 -0.4158
 6847SOL    HW132000   1.952   3.169   7.603  1.7026 -1.1826  0.0823
 6847SOL    HW232001   1.845   3.129   7.694 -0.1340  0.0365  1.1169
 6848SOL     OW32002   3.191   1.594   3.655 -0.7630 -0.1720  0.2920
 6848SOL    HW132003   3.123   1.658   3.676 -1.6866 -1.3115  0.7608
 6848SOL    HW232004   3.150   1.509   3.668 -0.4950  0.0430  2.4512
 6849SOL     OW32005   0.097   1.730   0.674  0.3162  0.2912 -0.1480
 6849SOL    HW132006   0.149   1.725   0.754 -0.1052  0.0444  0.1121
 6849SOL    HW232007   0.102   1.642   0.635  0.4419  0.2453 -0.0293
 6850SOL     OW32008   2.983   1.725  12.775  0.2855 -0.1477  0.4387
 6850SOL    HW132009   2.990   1.805  12.723 -1.9508 -0.8028 -0.8394
 6850SOL    HW232010   2.946   1.772  12.849 -1.7312  0.1898 -0.8015
 6851SOL     OW32011   0.306   4.570   5.148  0.0183 -0.4344 -0.1530
 6851SOL    HW132012   0.389   4.573   5.196 -1.2820  0.2249  2.0438
 6851SOL    HW232013   0.272   4.484   5.172  0.6765 -0.4063  0.9252
 6852SOL     OW32014   4.109   4.611   8.282 -0.3533 -0.0347  0.2817
 6852SOL    HW132015   4.085   4.568   8.364  0.4125 -1.1645 -0.0791
 6852SOL    HW232016   4.131   4.700   8.309 -0.0979 -0.1618  0.5028
 6853SOL     OW32017   1.820   4.652   1.305 -0.8002 -0.2441 -0.0786
 6853SOL    HW132018   1.888   4.628   1.368  0.6241  1.1952 -1.0835
 6853SOL    HW232019   1.842   4.602   1.226  1.2288 -1.8441  1.5079
 6854SOL     OW32020   4.211   1.179  13.738 -0.7774 -0.0519 -0.2528
 6854SOL    HW132021   4.204   1.237  13.814 -1.0273 -2.1941  1.3627
 6854SOL    HW232022   4.273   1.217  13.677 -0.4013 -0.2936 -0.0198
 6855SOL     OW32023   3.841   4.124  15.106 -0.0323 -0.2799 -0.2126
 6855SOL    HW132024   3.911   4.075  15.064  0.5341  0.2721  0.0702
 6855SOL    HW232025   3.801   4.055  15.158 -3.1752  0.7638 -1.2652
 6856SOL     OW32026   2.839   2.746   7.214 -0.1250  0.0501  0.1450
 6856SOL    HW132027   2.877   2.685   7.151  0.5697 -1.1210  1.6973
 6856SOL    HW232028   2.905   2.742   7.283 -2.1773 -2.4928  1.9624
 6857SOL     OW32029   2.738   2.383   7.921  0.9389  0.2808 -0.0760
 6857SOL    HW132030   2.653   2.418   7.896  2.6353  3.2830 -1.6578
 6857SOL    HW232031   2.719   2.289   7.915  0.7555  0.3339 -0.3085
 6858SOL     OW32032   1.744   1.294   9.317  0.4319  0.0764 -0.3703
 6858SOL    HW132033   1.786   1.290   9.403  0.8449 -1.5634 -0.6551
 6858SOL    HW232034   1.693   1.214   9.328 -0.6472  0.7929 -0.1399
 6859SOL     OW32035   1.938   1.896  13.816  0.7473  0.2293 -0.1306
 6859SOL    HW132036   1.847   1.892  13.844  0.6698 -0.4855 -0.4782
 6859SOL    HW232037   1.930   1.887  13.721  1.4008  0.8976 -0.2467
 6860SOL     OW32038   1.281   2.059  11.494  0.6317  0.2880 -0.7446
 6860SOL    HW132039   1.250   2.131  11.550 -1.1087  0.8975 -2.4663
 6860SOL    HW232040   1.244   1.989  11.548  0.3223 -0.8732 -2.4794
 6861SOL     OW32041   2.883   0.417   8.822 -0.5300 -0.1083 -0.6314
 6861SOL    HW132042   2.886   0.469   8.742 -0.3930  0.5469 -0.2003
 6861SOL    HW232043   2.802   0.366   8.823 -0.4200 -0.2169  2.9952
 6862SOL     OW32044   4.556   0.479   4.449 -0.4386  0.3057  0.0824
 6862SOL    HW132045   4.624   0.516   4.504 -0.1484 -0.1507  0.0264
 6862SOL    HW232046   4.512   0.429   4.518 -2.3352  0.2160 -1.1781
 6863SOL     OW32047   2.998   3.182  13.942  0.0750  0.1829 -0.0216
 6863SOL    HW132048   3.035   3.094  13.950  2.4430  1.0785 -0.9833
 6863SOL    HW232049   2.974   3.168  13.850 -0.3228 -0.4839  0.1855
 6864SOL     OW32050   2.444   4.259   4.795  0.4267  0.2249  0.1278
 6864SOL    HW132051   2.464   4.181   4.847  0.0549  1.0224  1.4778
 6864SOL    HW232052   2.401   4.313   4.861 -0.2755 -1.3557  0.9584
 6865SOL     OW32053   1.121   4.128   6.354 -0.1936  0.0864 -0.1784
 6865SOL    HW132054   1.101   4.049   6.302  0.9351  1.0441 -2.0751
 6865SOL    HW232055   1.138   4.200   6.293 -0.5641  0.5984  0.3280
 6866SOL     OW32056   3.414   1.603  16.257  0.4651 -0.7259 -1.0589
 6866SOL    HW132057   3.505   1.630  16.248 -0.0785  1.4725  0.1414
 6866SOL    HW232058   3.421   1.528  16.316 -1.0533 -1.8655 -2.3219
 6867SOL     OW32059   2.737   0.611   7.253  0.1982  0.0895  0.0028
 6867SOL    HW132060   2.720   0.670   7.179  3.2444  3.2029  1.8240
 6867SOL    HW232061   2.830   0.633   7.263  0.1230  0.7529 -0.7157
 6868SOL     OW32062   2.494   0.450   2.698 -0.1072  0.1226  0.0315
 6868SOL    HW132063   2.432   0.380   2.718  1.0935 -0.8344  0.4040
 6868SOL    HW232064   2.582   0.419   2.720 -0.3347  0.1229  0.9620
 6869SOL     OW32065   2.146   4.213   5.169  0.0964 -0.1627 -0.4854
 6869SOL    HW132066   2.200   4.160   5.227 -0.3911  0.3064  0.3884
 6869SOL    HW232067   2.096   4.148   5.121 -1.2442  1.3072 -1.0983
 6870SOL     OW32068   4.053   0.029  13.652 -0.1658 -0.1197  0.3353
 6870SOL    HW132069   4.046   0.027  13.556 -1.3497 -0.1558  0.4271
 6870SOL    HW232070   4.145   0.050  13.666  0.0561 -1.5062  0.9450
 6871SOL     OW32071   4.076   4.552   3.997 -0.2589  0.1189  0.1092
 6871SOL    HW132072   4.021   4.482   4.032 -0.6157 -1.0258 -2.7675
 6871SOL    HW232073   4.128   4.558   4.077 -3.3590 -0.1294  2.1451
 6872SOL     OW32074   4.310   2.109   9.850  0.0676 -0.3019 -0.1493
 6872SOL    HW132075   4.398   2.137   9.824 -0.0906 -0.6725 -1.0443
 6872SOL    HW232076   4.318   2.017   9.874  2.1992  0.0980  0.7680
 6873SOL     OW32077   2.902   3.573   2.887 -0.0568 -0.0035  0.2069
 6873SOL    HW132078   2.868   3.611   2.806  0.3412 -0.0706  0.0068
 6873SOL    HW232079   2.938   3.651   2.929  2.3524 -0.1530 -1.5491
 6874SOL     OW32080   0.779   4.448  10.225  0.5440  0.7955 -0.0221
 6874SOL    HW132081   0.688   4.439  10.197  1.0878  0.5565 -1.7452
 6874SOL    HW232082   0.831   4.425  10.148  1.9843  1.3460  0.7691
 6875SOL     OW32083   1.641   2.990   8.388  0.2847 -0.4262  0.1148
 6875SOL    HW132084   1.553   2.960   8.364  1.1398 -1.2082 -2.0285
 6875SOL    HW232085   1.690   2.979   8.307  2.3954  1.3212  1.1643
 6876SOL     OW32086   1.834   4.568   8.426 -0.3439  0.0293 -0.0698
 6876SOL    HW132087   1.853   4.590   8.335  4.0793  1.8600  1.3211
 6876SOL    HW232088   1.861   4.647   8.473 -1.8931 -0.1910  1.1923
 6877SOL     OW32089   4.506   0.655   6.609  0.4136 -0.3102 -0.6427
 6877SOL    HW132090   4.461   0.578   6.644  4.3332 -3.5689 -2.8455
 6877SOL    HW232091   4.596   0.652   6.639 -0.7475 -2.1477  2.6734
 6878SOL     OW32092   1.178   2.886  16.346 -0.3848 -0.2372 -0.2108
 6878SOL    HW132093   1.244   2.952  16.329  0.2355 -0.8076  0.0057
 6878SOL    HW232094   1.123   2.930  16.411 -0.3305  0.6826 -0.7862
 6879SOL     OW32095   1.949   0.526   2.032  0.1137 -0.8596  0.5698
 6879SOL    HW132096   2.008   0.599   2.053  1.0246 -1.7059  0.9601
 6879SOL    HW232097   1.976   0.465   2.100  0.7462  0.3776  1.4292
 6880SOL     OW32098   0.022   2.473   8.992  0.2358 -0.1830 -0.1455
 6880SOL    HW132099   0.105   2.474   8.944  0.4166  1.5684  0.2051
 6880SOL    HW232100   0.059   2.414   9.058  0.5676 -0.3762 -0.4995
 6881SOL     OW32101   2.981   3.690  10.454 -0.1554 -0.1710  0.6339
 6881SOL    HW132102   3.058   3.746  10.462  0.4646 -0.7549 -1.1782
 6881SOL    HW232103   2.929   3.727  10.383  1.0182  0.7150  0.2245
 6882SOL     OW32104   2.057   3.463   4.844 -0.8833  0.0041 -0.0484
 6882SOL    HW132105   2.072   3.488   4.752  3.4957 -0.6465  0.4937
 6882SOL    HW232106   2.056   3.368   4.841 -2.3952  0.0457 -1.0829
 6883SOL     OW32107   0.206   4.072   5.331 -0.2840  0.9605 -0.4794
 6883SOL    HW132108   0.200   4.116   5.416  0.3158  0.7809 -0.3446
 6883SOL    HW232109   0.231   3.987   5.365 -1.3373  0.5027 -0.8359
 6884SOL     OW32110   4.054   0.761   4.130  0.0728 -0.1590  0.3897
 6884SOL    HW132111   4.012   0.842   4.101 -0.8238 -0.7959 -0.1059
 6884SOL    HW232112   4.142   0.789   4.154  0.9272 -0.3027 -2.5818
 6885SOL     OW32113   1.684   2.294   7.003  0.2218 -0.0940 -0.4321
 6885SOL    HW132114   1.715   2.326   6.919  0.2080  0.4127 -0.2501
 6885SOL    HW232115   1.606   2.249   6.973 -0.2616  1.7015 -1.8952
 6886SOL     OW32116   0.449   4.612   4.338 -0.5563  0.2087  0.1203
 6886SOL    HW132117   0.464   4.675   4.408 -2.0443 -0.9277  1.4675
 6886SOL    HW232118   0.358   4.622   4.310 -1.3556 -1.7731  2.0114
 6887SOL     OW32119   4.123   1.053   6.366  0.1057 -0.7143 -0.4033
 6887SOL    HW132120   4.137   0.968   6.408 -0.1750 -0.6425 -0.1665
 6887SOL    HW232121   4.157   1.106   6.438  0.2470 -0.1581 -0.8795
 6888SOL     OW32122   3.044   4.064   2.446  0.3354  0.0724  1.0439
 6888SOL    HW132123   3.090   3.983   2.466  0.5791 -0.1427 -0.3916
 6888SOL    HW232124   3.014   4.102   2.529  3.0443 -1.4417  2.7066
 6889SOL     OW32125   3.248   0.639   1.197  0.3124  0.1409 -0.2481
 6889SOL    HW132126   3.181   0.617   1.132 -0.5107 -0.6521  0.8574
 6889SOL    HW232127   3.258   0.733   1.181  0.3284  0.9747  4.6049
 6890SOL     OW32128   3.243   4.140   3.063  0.2249  0.5997  0.1653
 6890SOL    HW132129   3.265   4.200   3.134  0.0442  0.5732  0.2438
 6890SOL    HW232130   3.246   4.207   2.994  1.9346  1.9061  1.5455
 6891SOL     OW32131   3.322   4.684   1.921 -0.1213 -0.0162  0.2178
 6891SOL    HW132132   3.238   0.004   1.930 -0.3551 -0.0806 -1.8032
 6891SOL    HW232133   3.310   4.599   1.964  1.0694  1.5181  3.6304
 6892SOL     OW32134   3.604   3.972   3.896  0.0540  0.5116  0.0999
 6892SOL    HW132135   3.627   3.896   3.950 -1.3646 -0.6789 -0.9483
 6892SOL    HW232136   3.628   4.049   3.946  0.4384  1.8576 -2.1693
 6893SOL     OW32137   0.317   4.433   2.181 -0.0438  0.5153  0.3732
 6893SOL    HW132138   0.385   4.408   2.119  0.3811  1.8598  0.2823
 6893SOL    HW232139   0.273   4.508   2.141  1.2346 -0.6007 -3.1191
 6894SOL     OW32140   1.290   1.149   3.844  0.5768 -0.0270  0.1646
 6894SOL    HW132141   1.329   1.235   3.827  2.9368 -0.9060  1.1144
 6894SOL    HW232142   1.363   1.101   3.883 -0.1354 -0.7204  0.6538
 6895SOL     OW32143   0.659   1.878   4.086  0.2618 -0.6180 -0.1493
 6895SOL    HW132144   0.659   1.936   4.162 -1.0340  0.8178 -1.2359
 6895SOL    HW232145   0.721   1.813   4.118  2.3303  0.5245 -1.8790
 6896SOL     OW32146   0.717   1.249   9.326  0.2389 -0.6036  0.2864
 6896SOL    HW132147   0.749   1.191   9.396  3.1810 -0.2389 -0.7354
 6896SOL    HW232148   0.647   1.290   9.377 -0.6374 -1.6566 -0.0891
 6897SOL     OW32149   0.629   0.903  15.340 -0.2438 -0.1391  0.4054
 6897SOL    HW132150   0.660   0.993  15.333 -1.4081  0.1558 -0.9832
 6897SOL    HW232151   0.537   0.917  15.362 -0.1020  0.7423  0.4393
 6898SOL     OW32152   1.436   2.468   4.087 -0.3777 -0.2405  0.0830
 6898SOL    HW132153   1.365   2.514   4.043 -1.1564 -3.2478 -1.7996
 6898SOL    HW232154   1.508   2.482   4.026  0.8774 -1.4684  1.2623
 6899SOL     OW32155   1.706   2.013   8.609  0.1298 -0.3021 -0.0892
 6899SOL    HW132156   1.730   1.975   8.694 -2.2791 -1.7746 -0.0625
 6899SOL    HW232157   1.766   1.970   8.548 -0.9283  1.0494 -2.0948
 6900SOL     OW32158   1.471   0.901   6.906 -0.1752 -0.2152 -0.4104
 6900SOL    HW132159   1.563   0.925   6.920 -0.8591  1.4348  1.2980
 6900SOL    HW232160   1.423   0.932   6.983  0.6402 -1.0490  0.4437
 6901SOL     OW32161   2.107   3.326   4.580 -0.1545 -0.2725  0.3552
 6901SOL    HW132162   2.195   3.313   4.545 -0.1440  3.0463 -0.8558
 6901SOL    HW232163   2.066   3.385   4.516  0.3400  0.9912  1.2008
 6902SOL     OW32164   3.895   4.222   0.670  0.2888 -0.2047 -0.1031
 6902SOL    HW132165   3.945   4.302   0.653  0.5153  0.1669  2.2847
 6902SOL    HW232166   3.849   4.215   0.587 -0.9706  0.5126  0.5232
 6903SOL     OW32167   1.129   0.180   5.544  0.2867 -0.1493  0.1652
 6903SOL    HW132168   1.139   0.167   5.449  1.5340  1.1702  0.1147
 6903SOL    HW232169   1.085   0.099   5.569 -1.4429  0.6063 -0.4136
 6904SOL     OW32170   3.306   3.664   3.038  0.1043  0.0800 -0.5745
 6904SOL    HW132171   3.292   3.672   2.944 -0.8931  2.1168 -0.2523
 6904SOL    HW232172   3.314   3.757   3.058  1.7744 -0.2370  0.1986
 6905SOL     OW32173   1.612   2.159   6.101  0.2077  0.5581  0.0471
 6905SOL    HW132174   1.649   2.189   6.184 -1.3906  0.5132  0.7707
 6905SOL    HW232175   1.577   2.073   6.127 -0.8777  1.1176  0.4193
 6906SOL     OW32176   3.270   3.175  11.814  0.0753 -0.0980 -0.6672
 6906SOL    HW132177   3.276   3.197  11.907 -0.5559 -1.8111 -0.2299
 6906SOL    HW232178   3.314   3.090  11.810 -1.6798 -1.0058 -0.6411
 6907SOL     OW32179   1.703   4.633   3.976  0.0966  0.2283  0.1532
 6907SOL    HW132180   1.624   4.670   4.014  1.2591  1.3688  1.4651
 6907SOL    HW232181   1.704   4.669   3.888  1.5954 -0.6056 -0.1783
 6908SOL     OW32182   4.389   2.014  10.357  0.1089  0.1013  0.2675
 6908SOL    HW132183   4.473   2.058  10.371  0.4170  0.1419 -1.7971
 6908SOL    HW232184   4.379   1.989  10.449 -1.3653  2.6982  0.8027
 6909SOL     OW32185   2.868   4.404   2.061 -0.1051  0.0661  0.1073
 6909SOL    HW132186   2.843   4.342   2.129  0.6702 -1.0088 -0.5831
 6909SOL    HW232187   2.948   4.365   2.027  0.4412  0.6362  0.7300
 6910SOL     OW32188   3.411   3.641   3.815 -0.2861  0.1778 -0.2847
 6910SOL    HW132189   3.476   3.627   3.883 -0.1994  0.6781 -0.2647
 6910SOL    HW232190   3.419   3.559   3.766 -1.9895  1.7383 -3.1821
 6911SOL     OW32191   0.305   1.233   7.366  0.3814 -0.0949 -0.4275
 6911SOL    HW132192   0.353   1.234   7.450  2.3896 -0.0167 -1.5777
 6911SOL    HW232193   0.288   1.140   7.352  0.9198 -0.7350  3.1275
 6912SOL     OW32194   1.164   0.930   9.553 -0.0445  0.0899 -0.1311
 6912SOL    HW132195   1.128   0.844   9.573  0.5367  0.1277  1.0257
 6912SOL    HW232196   1.103   0.942   9.480 -1.0801  1.0471  0.8825
 6913SOL     OW32197   3.193   3.785   7.078 -0.4055  0.0568 -0.7778
 6913SOL    HW132198   3.282   3.784   7.113 -0.9629  0.9614  0.6571
 6913SOL    HW232199   3.182   3.877   7.054 -1.9556 -0.4383 -1.9450
 6914SOL     OW32200   2.322   3.969   1.513 -0.4398 -0.4042  0.3270
 6914SOL    HW132201   2.268   3.898   1.548  0.6177 -0.9429  0.8678
 6914SOL    HW232202   2.337   3.953   1.420 -0.5082 -1.7632  0.5477
 6915SOL     OW32203   1.221   1.128   8.491 -0.5195 -0.0837  0.4614
 6915SOL    HW132204   1.273   1.197   8.451 -1.1111  0.7816  1.1941
 6915SOL    HW232205   1.241   1.144   8.583 -1.8644 -0.4515  0.8248
 6916SOL     OW32206   0.698   3.978  12.701 -0.0197 -0.1474  0.2894
 6916SOL    HW132207   0.716   4.055  12.648  1.4538 -0.5491  0.1926
 6916SOL    HW232208   0.757   3.911  12.665 -0.7424  0.1705 -1.4717
 6917SOL     OW32209   1.877   0.937   2.040  0.4465  0.2402  0.2213
 6917SOL    HW132210   1.970   0.957   2.024  0.1953 -1.0702 -2.8248
 6917SOL    HW232211   1.841   1.025   2.030 -0.9396 -0.0578  2.5216
 6918SOL     OW32212   0.136   1.729   8.583 -0.3617  0.6156 -0.1247
 6918SOL    HW132213   0.088   1.754   8.505 -1.1098  0.8962  0.4240
 6918SOL    HW232214   0.063   1.733   8.645  0.7580  0.7302  1.1934
 6919SOL     OW32215   4.595   1.487   2.604  0.1392  0.3803  0.0709
 6919SOL    HW132216   4.557   1.565   2.563  1.5777  0.4183 -1.1649
 6919SOL    HW232217   4.514   1.454   2.643  1.1386 -1.1805  0.8197
 6920SOL     OW32218   4.082   2.167   8.272 -0.1663  0.1891 -0.1188
 6920SOL    HW132219   4.134   2.232   8.226  0.3556  0.1005  0.3496
 6920SOL    HW232220   4.087   2.181   8.367 -3.4124  2.3186 -0.2727
 6921SOL     OW32221   4.145   4.227  16.161 -0.5688  0.1368 -0.2514
 6921SOL    HW132222   4.163   4.182  16.079 -2.4578 -2.5332  0.8067
 6921SOL    HW232223   4.053   4.242  16.143 -0.2889 -1.4547 -2.8897
 6922SOL     OW32224   0.312   4.409   9.099  0.5701  0.1173  0.4043
 6922SOL    HW132225   0.276   4.332   9.053  0.6260 -0.2389  0.9559
 6922SOL    HW232226   0.311   4.368   9.185  1.1098 -1.4936 -0.3371
 6923SOL     OW32227   0.531   1.986  14.292 -0.6521  0.5536  0.1357
 6923SOL    HW132228   0.460   1.957  14.236 -0.4847  1.2285 -0.4233
 6923SOL    HW232229   0.478   2.012  14.368  0.9285 -2.2261  2.1918
 6924SOL     OW32230   3.611   3.899  10.919  0.1743  0.5122  0.1858
 6924SOL    HW132231   3.633   3.930  10.831 -1.1552  0.4289 -0.1689
 6924SOL    HW232232   3.526   3.858  10.903  0.1594  0.5985  0.0500
 6925SOL     OW32233   1.484   0.824  17.221  0.2404 -0.2615 -0.0178
 6925SOL    HW132234   1.457   0.905  17.265 -0.4260 -0.1956 -0.5487
 6925SOL    HW232235   1.417   0.762  17.250  0.7032 -1.0215 -0.5821
 6926SOL     OW32236   0.087   0.327   7.724 -0.2909 -0.4420  0.6556
 6926SOL    HW132237   0.098   0.269   7.799  4.3821 -1.0690 -0.5587
 6926SOL    HW232238   0.119   0.405   7.770 -1.2809  0.4774 -0.1973
 6927SOL     OW32239   4.070   0.923  13.727 -0.6976  0.0510 -0.3878
 6927SOL    HW132240   4.131   0.995  13.711  0.3801 -0.5367  1.1383
 6927SOL    HW232241   4.020   0.928  13.645 -1.0906  0.7668 -0.1060
 6928SOL     OW32242   3.633   4.502   8.719 -0.1949  0.1616  0.1491
 6928SOL    HW132243   3.547   4.490   8.679  0.9239 -0.7761 -2.0223
 6928SOL    HW232244   3.614   4.466   8.806 -2.8130  1.4816  0.1160
 6929SOL     OW32245   2.678   1.572   7.318 -0.4900 -0.4839 -0.8205
 6929SOL    HW132246   2.727   1.520   7.254 -0.4702 -0.7392 -0.5983
 6929SOL    HW232247   2.593   1.587   7.275 -1.3550  0.2561  1.1340
 6930SOL     OW32248   4.032   2.495  14.096 -0.2077 -0.2732 -0.0222
 6930SOL    HW132249   3.981   2.460  14.170  1.5019  0.7258  1.6166
 6930SOL    HW232250   3.958   2.512  14.037  0.5089 -0.2127 -0.8878
 6931SOL     OW32251   1.599   2.744   6.860  0.4113 -0.3353 -0.1038
 6931SOL    HW132252   1.640   2.794   6.930  1.4885 -1.1811 -0.1334
 6931SOL    HW232253   1.667   2.751   6.793 -0.3353  0.3755 -0.7847
 6932SOL     OW32254   1.333   3.918   6.290  0.3217 -0.4035 -0.7630
 6932SOL    HW132255   1.241   3.893   6.306 -0.3113  2.5939  0.1964
 6932SOL    HW232256   1.320   3.958   6.204 -2.7196 -3.2085 -1.6322
 6933SOL     OW32257   4.143   1.406   2.832  0.1832  0.3882  0.2270
 6933SOL    HW132258   4.107   1.473   2.891 -2.2603  0.8740 -1.8447
 6933SOL    HW232259   4.089   1.332   2.859  1.4695 -0.3119  0.9034
 6934SOL     OW32260   2.866   3.132   2.489  0.2543 -0.2611  0.4088
 6934SOL    HW132261   2.874   3.118   2.394  1.0705 -1.5909  0.6754
 6934SOL    HW232262   2.801   3.202   2.490 -0.3833 -0.7678 -3.6130
 6935SOL     OW32263   1.433   1.364   5.341  0.0113  0.0814 -0.4030
 6935SOL    HW132264   1.524   1.353   5.371  0.4128  3.3958 -0.4225
 6935SOL    HW232265   1.404   1.424   5.409 -2.1012 -0.3224 -0.9608
 6936SOL     OW32266   0.553   1.455   4.015  0.5174 -0.5765  0.6598
 6936SOL    HW132267   0.589   1.501   4.090 -0.7324  0.9903  0.2874
 6936SOL    HW232268   0.612   1.380   4.006 -1.3186 -2.2178  2.3167
 6937SOL     OW32269   0.782   0.246  12.892 -0.2533  0.2358  0.0129
 6937SOL    HW132270   0.737   0.280  12.815  1.6451 -0.3525 -1.3645
 6937SOL    HW232271   0.872   0.253  12.858 -0.3560 -2.4318 -0.8183
 6938SOL     OW32272   0.861   0.873   3.377 -0.1608 -0.4020 -0.7520
 6938SOL    HW132273   0.894   0.853   3.289 -0.7265 -1.7816 -0.6619
 6938SOL    HW232274   0.934   0.882   3.438 -1.8197  0.7347  1.0584
 6939SOL     OW32275   1.776   2.953   7.318 -0.0206 -0.2771  0.5792
 6939SOL    HW132276   1.696   2.985   7.359 -0.3101 -0.8000  0.4171
 6939SOL    HW232277   1.827   3.025   7.354 -0.6979  1.6716 -2.3187
 6940SOL     OW32278   4.122   0.368   3.758 -0.0620 -0.0300  0.0238
 6940SOL    HW132279   4.156   0.411   3.836 -0.3484  1.6274 -0.7656
 6940SOL    HW232280   4.039   0.415   3.751 -0.1253 -0.0091  0.9253
 6941SOL     OW32281   1.864   4.612  14.729 -0.5486 -0.2555  0.0860
 6941SOL    HW132282   1.916   4.687  14.698 -0.3891 -0.6132 -0.5115
 6941SOL    HW232283   1.832   4.655  14.809 -0.1218 -0.0257  0.1340
 6942SOL     OW32284   4.505   4.622   8.109  0.2070 -0.4047  0.4360
 6942SOL    HW132285   4.572   4.672   8.157 -0.7724  0.1096  1.2857
 6942SOL    HW232286   4.561   4.570   8.052 -1.4261 -0.8315 -0.7704
 6943SOL     OW32287   3.262   1.581  13.395 -0.1439 -0.0720  0.5416
 6943SOL    HW132288   3.300   1.625  13.319 -0.2802 -1.1462 -0.1415
 6943SOL    HW232289   3.284   1.488  13.397  0.7376  0.1804  2.4882
 6944SOL     OW32290   0.955   1.927  16.061  0.0013  0.0938  0.0828
 6944SOL    HW132291   0.998   2.012  16.049  0.9098 -0.2475  0.9554
 6944SOL    HW232292   1.024   1.883  16.110  1.7278 -0.1064 -2.5152
 6945SOL     OW32293   4.173   0.344   5.536 -0.0359 -0.2634 -0.7803
 6945SOL    HW132294   4.106   0.360   5.602  0.0190  2.2179 -1.3190
 6945SOL    HW232295   4.209   0.259   5.561 -1.5219 -0.3491  1.0201
 6946SOL     OW32296   0.581   3.389  10.366  0.1839  0.1784 -0.2825
 6946SOL    HW132297   0.539   3.306  10.342  0.8688  0.1848 -1.4985
 6946SOL    HW232298   0.597   3.424  10.278 -1.0849  0.9371 -0.2168
 6947SOL     OW32299   1.831   4.674   5.984  0.0722 -0.1729  0.0827
 6947SOL    HW132300   1.784   0.010   5.926  1.0748 -1.7068 -2.3537
 6947SOL    HW232301   1.819   4.593   5.934 -1.4615  0.1799 -0.1182
 6948SOL     OW32302   1.642   1.569   7.525  0.1789 -0.3172  0.2957
 6948SOL    HW132303   1.601   1.514   7.458  0.2906  0.7415 -0.6524
 6948SOL    HW232304   1.590   1.542   7.601  0.3644 -1.0076  0.1789
 6949SOL     OW32305   4.367   1.576  13.579 -0.3123 -0.0690  0.0580
 6949SOL    HW132306   4.362   1.539  13.491 -1.6488  0.5176 -0.1079
 6949SOL    HW232307   4.275   1.598  13.586 -0.3750 -0.4166  0.3066
 6950SOL     OW32308   4.341   3.067  11.509  0.0127  0.0600 -0.2481
 6950SOL    HW132309   4.284   3.046  11.583  0.7572 -1.3249 -0.0829
 6950SOL    HW232310   4.356   2.984  11.464 -0.7448  0.8392 -1.9345
 6951SOL     OW32311   0.952   3.841   5.688  0.5547 -0.5871  0.2945
 6951SOL    HW132312   1.038   3.818   5.724  0.5986  0.2885  0.7536
 6951SOL    HW232313   0.895   3.796   5.750 -0.5186 -0.3204 -0.5052
 6952SOL     OW32314   2.274   3.463   7.789 -0.1788 -0.7786  0.1968
 6952SOL    HW132315   2.206   3.481   7.725 -1.2696 -2.2479  0.9692
 6952SOL    HW232316   2.348   3.509   7.748  0.0765 -1.6357 -0.2951
 6953SOL     OW32317   3.765   3.783   3.427  0.0644  0.1869  0.4477
 6953SOL    HW132318   3.725   3.703   3.394  1.3944  0.1411 -1.0712
 6953SOL    HW232319   3.745   3.780   3.521 -0.3031  0.4779  0.3752
 6954SOL     OW32320   2.091   3.950  17.165 -0.0934 -0.0204  0.6659
 6954SOL    HW132321   2.143   3.935  17.086  0.5396  3.4036  0.4420
 6954SOL    HW232322   2.132   4.030  17.197 -0.6006  1.0651 -1.3699
 6955SOL     OW32323   2.626   1.697   4.365 -0.0161  0.3518  1.0136
 6955SOL    HW132324   2.554   1.634   4.369  0.3665 -0.0469  1.6790
 6955SOL    HW232325   2.580   1.779   4.350  0.4591  0.7334  1.5992
 6956SOL     OW32326   2.082   2.250   2.850  0.2353  0.6988  0.1205
 6956SOL    HW132327   2.136   2.211   2.920  2.9222  0.4159 -2.1023
 6956SOL    HW232328   2.032   2.179   2.810  1.5090  0.3992 -0.9578
 6957SOL     OW32329   0.553   2.574   6.126  0.2586 -0.3207  0.1810
 6957SOL    HW132330   0.647   2.580   6.138  0.1065  1.4175  0.5718
 6957SOL    HW232331   0.537   2.641   6.060 -0.1210 -0.9277 -0.3457
 6958SOL     OW32332   0.946   1.267  12.583  0.0910  0.1049  0.6810
 6958SOL    HW132333   0.955   1.328  12.510 -0.3862 -3.5312 -2.4402
 6958SOL    HW232334   1.039   1.246  12.597 -0.5465 -2.6888  0.8218
 6959SOL     OW32335   0.154   3.439   1.959  0.9416  0.0950  0.2809
 6959SOL    HW132336   0.113   3.355   1.939  1.1887 -0.4823  2.2217
 6959SOL    HW232337   0.089   3.494   2.004  0.1272 -1.0636  0.5168
 6960SOL     OW32338   2.298   0.085  14.636  0.2378  0.1516 -0.6873
 6960SOL    HW132339   2.228   0.106  14.698  0.6142 -0.2558 -0.1209
 6960SOL    HW232340   2.307   4.713  14.635 -0.7005  0.0726 -1.2833
 6961SOL     OW32341   2.868   2.258  13.103 -0.1303 -0.2944 -0.1519
 6961SOL    HW132342   2.780   2.290  13.123  0.6234  0.7500  1.4650
 6961SOL    HW232343   2.856   2.242  13.010 -2.3714 -1.4960  0.3547
 6962SOL     OW32344   1.471   0.306   9.416 -0.0091 -0.3837  0.0279
 6962SOL    HW132345   1.555   0.331   9.378  1.0306 -0.9498  1.9877
 6962SOL    HW232346   1.499   0.299   9.507  0.8135  2.1981 -0.0373
 6963SOL     OW32347   0.958   0.939   1.287  0.0889  0.2484 -0.3646
 6963SOL    HW132348   0.951   0.946   1.382 -2.7161  0.9273 -0.6090
 6963SOL    HW232349   1.049   0.964   1.269 -0.2145  1.1726 -0.6546
 6964SOL     OW32350   2.066   2.394   2.398 -0.7315  0.0481  0.2252
 6964SOL    HW132351   2.085   2.481   2.433 -0.1961 -0.4616  1.2124
 6964SOL    HW232352   2.081   2.411   2.305  3.8525 -0.7629  0.7948
 6965SOL     OW32353   2.592   4.199   7.495 -0.1833  0.3923 -0.3599
 6965SOL    HW132354   2.668   4.160   7.452  0.4545  0.8400  0.3514
 6965SOL    HW232355   2.542   4.229   7.420  0.3681  1.5275 -0.2800
 6966SOL     OW32356   3.265   3.870   1.593  0.1488  0.4340 -0.3249
 6966SOL    HW132357   3.350   3.871   1.548  0.4304  0.7653  0.2128
 6966SOL    HW232358   3.268   3.780   1.625 -0.2027 -0.2091 -2.1049
 6967SOL     OW32359   3.683   1.650   8.009 -0.2491  0.3154  0.2903
 6967SOL    HW132360   3.764   1.600   8.018  0.0817  0.9079  0.6752
 6967SOL    HW232361   3.711   1.741   7.998  1.6579 -0.5833 -2.2070
 6968SOL     OW32362   0.586   0.470   6.873  0.7549 -0.4359  0.1634
 6968SOL    HW132363   0.557   0.494   6.961  2.0079  1.1191  0.1572
 6968SOL    HW232364   0.526   0.398   6.854  0.6135  0.2494 -2.1021
 6969SOL     OW32365   0.057   1.656   2.722 -0.4039 -0.2281  0.5293
 6969SOL    HW132366   0.025   1.587   2.664  0.7882  0.0802 -0.5090
 6969SOL    HW232367   0.080   1.600   2.796 -0.1636 -1.4592 -0.4748
 6970SOL     OW32368   1.327   3.106   8.814 -0.0770  0.3908 -0.2811
 6970SOL    HW132369   1.391   3.048   8.856  1.3834  2.1495 -0.0756
 6970SOL    HW232370   1.255   3.096   8.876  1.6891  0.7993  1.8460
 6971SOL     OW32371   3.235   3.203  13.013  0.1474 -0.1616  0.1151
 6971SOL    HW132372   3.211   3.290  13.043  1.6510 -0.6907  2.8198
 6971SOL    HW232373   3.330   3.206  13.028 -0.4993 -0.3177  4.0867
 6972SOL     OW32374   4.497   3.329  15.027 -0.1165 -0.4566  0.0885
 6972SOL    HW132375   4.500   3.253  15.085 -0.0288 -0.6617 -0.1877
 6972SOL    HW232376   4.428   3.308  14.965  0.0697  4.3842 -1.7788
 6973SOL     OW32377   0.182   2.929   3.833  0.0392  0.2030 -0.5124
 6973SOL    HW132378   0.216   2.857   3.886  1.4041  1.9065  0.9199
 6973SOL    HW232379   0.149   2.888   3.753  1.4796 -3.1016  0.5652
 6974SOL     OW32380   0.107   3.220  16.911  0.3653  1.0642  0.1734
 6974SOL    HW132381   0.068   3.298  16.872  1.4308  2.0250  1.0189
 6974SOL    HW232382   0.065   3.155  16.855 -4.1964  3.1606  1.1590
 6975SOL     OW32383   2.148   0.989   8.821 -0.5621  0.1349 -0.0880
 6975SOL    HW132384   2.158   0.963   8.913 -0.6165 -0.3453 -0.2198
 6975SOL    HW232385   2.235   0.962   8.790  0.2124  2.3028  0.1972
 6976SOL     OW32386   3.047   0.815   4.681  0.1097 -0.1827  0.5378
 6976SOL    HW132387   3.113   0.837   4.746  0.7071  1.9248 -0.7679
 6976SOL    HW232388   3.064   0.721   4.685 -0.7484 -0.2583  2.0368
 6977SOL     OW32389   3.155   1.256   2.613 -0.5770 -0.2207  0.1171
 6977SOL    HW132390   3.064   1.277   2.633 -0.3840  2.2611 -1.6267
 6977SOL    HW232391   3.163   1.186   2.678  2.0121 -1.6689 -1.7308
 6978SOL     OW32392   4.018   3.825   5.698 -0.3569  0.0936  0.5107
 6978SOL    HW132393   4.104   3.803   5.734 -1.0198  0.3629  2.2500
 6978SOL    HW232394   3.960   3.781   5.760  1.2344 -0.7798  1.3815
 6979SOL     OW32395   0.292   0.924   9.428 -0.1676 -0.1153 -0.1955
 6979SOL    HW132396   0.340   1.007   9.437 -0.8183  0.5535 -2.7662
 6979SOL    HW232397   0.239   0.934   9.349 -0.1286  1.1303 -0.0618
 6980SOL     OW32398   2.713   1.959   5.978 -0.3671  0.3409  0.0129
 6980SOL    HW132399   2.732   1.900   6.051  1.8759  2.2169  0.9624
 6980SOL    HW232400   2.642   2.008   6.021 -0.2719  1.8061 -1.5101
 6981SOL     OW32401   1.233   2.344   2.303  0.2888  0.4441 -0.6258
 6981SOL    HW132402   1.259   2.307   2.218  2.1399  0.7624 -0.1987
 6981SOL    HW232403   1.202   2.262   2.342 -3.1268  2.0335 -0.0230
 6982SOL     OW32404   3.397   0.266   3.363  0.2721 -0.1931  0.2508
 6982SOL    HW132405   3.466   0.232   3.305  0.2900  0.9951 -0.4141
 6982SOL    HW232406   3.432   0.339   3.415  0.2721  1.1580 -1.6463
 6983SOL     OW32407   3.834   1.155   6.422 -0.1443  0.7027 -0.0747
 6983SOL    HW132408   3.759   1.097   6.437  0.5156 -0.0519  0.3329
 6983SOL    HW232409   3.910   1.099   6.441 -0.6063 -0.0689 -0.5051
 6984SOL     OW32410   0.051   2.667   2.673 -0.6304  0.1220  0.1934
 6984SOL    HW132411   4.713   2.738   2.688 -1.6488 -0.6815 -0.1910
 6984SOL    HW232412   0.124   2.674   2.734  0.1257  1.6151 -0.8717
 6985SOL     OW32413   2.061   3.641   1.886  0.0128 -0.1934  0.0883
 6985SOL    HW132414   2.064   3.621   1.979  1.2244  0.2127  0.1413
 6985SOL    HW232415   2.120   3.575   1.850 -0.4696 -1.5150  1.7384
 6986SOL     OW32416   0.155   2.095  16.610 -0.0716  0.2368  0.2951
 6986SOL    HW132417   0.228   2.090  16.672  1.5107  2.1650 -1.4459
 6986SOL    HW232418   0.082   2.094  16.672  1.2098  1.1161  1.8265
 6987SOL     OW32419   2.987   3.049   7.420  0.0223  0.1015 -0.2974
 6987SOL    HW132420   3.057   3.013   7.475  0.5736  1.3997 -0.1711
 6987SOL    HW232421   2.987   3.139   7.451  0.1835 -0.2691  0.8031
 6988SOL     OW32422   0.567   4.669  10.645  0.3004  0.4139  0.1417
 6988SOL    HW132423   0.629   0.004  10.687  0.1361 -0.6695  1.8798
 6988SOL    HW232424   0.610   4.584  10.655  0.5328  0.3018 -1.7226
 6989SOL     OW32425   3.117   0.562  14.903  0.4710 -0.1153  0.1993
 6989SOL    HW132426   3.062   0.589  14.830  0.1798  0.6616  0.7054
 6989SOL    HW232427   3.039   0.540  14.956  0.8585 -0.1035  0.7766
 6990SOL     OW32428   1.976   4.589   4.257  0.1975  0.2303 -0.3883
 6990SOL    HW132429   2.024   4.525   4.310  0.5075  0.6363 -0.1842
 6990SOL    HW232430   1.916   4.626   4.322  1.1857  0.4307  0.4185
 6991SOL     OW32431   1.917   0.645   0.197 -0.4895  0.0312  0.1280
 6991SOL    HW132432   1.978   0.717   0.214 -1.4546  0.9458 -0.2897
 6991SOL    HW232433   1.970   0.577   0.239  0.6992  0.8241 -0.0796
 6992SOL     OW32434   0.436   0.925   5.904  0.2394 -0.2871  0.0208
 6992SOL    HW132435   0.461   0.854   5.846 -1.1195 -1.0159  0.3018
 6992SOL    HW232436   0.439   0.884   5.991  0.3785  1.2213  0.7175
 6993SOL     OW32437   2.823   0.829   2.191  0.3650  0.0080  0.1326
 6993SOL    HW132438   2.743   0.785   2.219 -0.7754  2.5325  0.8335
 6993SOL    HW232439   2.861   0.786   2.115 -0.5490 -0.7298  0.0914
 6994SOL     OW32440   0.567   0.203   7.102  0.1290 -0.1836  0.0894
 6994SOL    HW132441   0.598   0.178   7.015  1.3672  0.4980  0.3463
 6994SOL    HW232442   0.619   0.280   7.123  0.4565 -0.8618  1.7599
 6995SOL     OW32443   2.778   4.688  11.943  0.4003 -0.3853 -0.2385
 6995SOL    HW132444   2.690   0.003  11.937 -0.1910 -1.5040  1.2069
 6995SOL    HW232445   2.812   4.723  11.861 -1.4123 -0.9365 -1.2201
 6996SOL     OW32446   3.674   2.088   3.517  1.1778  0.1690  0.6503
 6996SOL    HW132447   3.607   2.123   3.575 -1.6394 -2.9709 -0.6972
 6996SOL    HW232448   3.638   1.999   3.517  1.6673 -0.0372  2.4894
 6997SOL     OW32449   1.678   1.444   6.713 -0.1357 -0.6195 -0.3662
 6997SOL    HW132450   1.663   1.362   6.760  2.0976 -0.8301 -0.0162
 6997SOL    HW232451   1.606   1.441   6.650  0.0520  1.4382 -0.6716
 6998SOL     OW32452   4.417   3.626   8.892 -0.2765  0.5618 -0.2158
 6998SOL    HW132453   4.355   3.621   8.965  0.4913  0.6310  0.4392
 6998SOL    HW232454   4.490   3.571   8.919 -0.5454  0.5582  0.5242
 6999SOL     OW32455   1.812   1.576   2.740  0.1731 -0.6158  0.2040
 6999SOL    HW132456   1.850   1.526   2.667 -2.3301  0.5445 -1.8846
 6999SOL    HW232457   1.764   1.512   2.792 -0.9686 -1.3567 -1.7669
 7000SOL     OW32458   0.970   0.364  10.818 -0.1312 -0.1600  0.5437
 7000SOL    HW132459   0.919   0.297  10.864 -1.4026  0.3798 -0.0759
 7000SOL    HW232460   1.061   0.341  10.835  0.4541  2.1037  0.5107
 7001SOL     OW32461   3.064   0.076  16.274  0.6238 -0.4091  0.0799
 7001SOL    HW132462   3.147   0.117  16.250 -0.1673  0.9499 -0.2773
 7001SOL    HW232463   3.026   0.152  16.317  3.4527  0.9207  0.2384
 7002SOL     OW32464   1.023   1.986   4.256 -0.3364  0.0494 -0.2161
 7002SOL    HW132465   0.954   2.040   4.295 -1.6952 -2.1920  0.4694
 7002SOL    HW232466   1.089   1.997   4.325  0.1413 -0.0034 -0.6581
 7003SOL     OW32467   1.716   2.634   7.519 -0.5141  0.3651 -0.2584
 7003SOL    HW132468   1.642   2.679   7.560  1.5460  2.6081  1.0487
 7003SOL    HW232469   1.787   2.690   7.550  2.6308 -3.5402 -0.4195
 7004SOL     OW32470   4.070   0.818   2.097 -0.1944 -0.0388  0.0470
 7004SOL    HW132471   4.006   0.863   2.041  1.1020  1.5669 -0.1496
 7004SOL    HW232472   4.150   0.867   2.078  0.7963 -1.5143  0.3912
 7005SOL     OW32473   1.324   1.736   8.800  0.0629  0.5362 -0.0461
 7005SOL    HW132474   1.359   1.653   8.831 -2.4425 -0.0053  1.3634
 7005SOL    HW232475   1.277   1.761   8.880 -2.6496  0.1632 -1.4999
 7006SOL     OW32476   3.010   3.506   1.449 -0.3423 -0.3787 -0.0361
 7006SOL    HW132477   3.068   3.432   1.467  1.4027  0.7085 -1.1937
 7006SOL    HW232478   2.955   3.462   1.385 -0.1459  0.5844 -0.8597
 7007SOL     OW32479   0.104   1.031   4.055  0.0310 -0.4655 -0.4185
 7007SOL    HW132480   0.047   1.011   4.129 -0.7522  0.6383 -0.7128
 7007SOL    HW232481   0.169   1.080   4.105 -1.4656  0.1020  0.9540
 7008SOL     OW32482   4.622   0.676  16.656  0.2182 -0.8147  0.1975
 7008SOL    HW132483   4.656   0.651  16.741 -0.0607  0.3388  0.6543
 7008SOL    HW232484   4.687   0.642  16.594  0.1073 -1.3408  0.3688
 7009SOL     OW32485   0.853   1.591   1.944 -0.3427  0.5851  0.5918
 7009SOL    HW132486   0.828   1.670   1.993 -3.0655  0.0149  0.1331
 7009SOL    HW232487   0.890   1.543   2.018  0.1665 -0.0104 -0.0561
 7010SOL     OW32488   0.248   0.693   0.083 -0.3291  0.0046  0.1926
 7010SOL    HW132489   0.177   0.750   0.111 -0.6219 -0.2268 -0.0751
 7010SOL    HW232490   0.211   0.658   0.002  0.0083 -0.8338  0.4048
 7011SOL     OW32491   1.431   1.433   3.288  0.0042  0.4537 -0.0557
 7011SOL    HW132492   1.508   1.375   3.286 -0.0752  0.2354  4.5947
 7011SOL    HW232493   1.353   1.378   3.288  1.2408 -1.3070  1.1628
 7012SOL     OW32494   3.666   1.513   5.889  0.2789 -0.2462 -0.1431
 7012SOL    HW132495   3.696   1.601   5.912 -0.2717 -0.2636  0.6458
 7012SOL    HW232496   3.683   1.460   5.967 -1.5521 -0.7905 -0.1152
 7013SOL     OW32497   2.607   3.382  14.591  0.1582  0.1321  0.0493
 7013SOL    HW132498   2.579   3.293  14.613  1.5923 -0.2199  0.4432
 7013SOL    HW232499   2.673   3.376  14.523  1.3415  1.6461  1.0457
 7014SOL     OW32500   3.246   1.507   3.006  0.3280  0.0631 -0.1432
 7014SOL    HW132501   3.296   1.428   2.983  3.0598  1.9268 -0.6567
 7014SOL    HW232502   3.172   1.494   2.947 -2.4490 -1.7144  3.6993
 7015SOL     OW32503   0.714   1.723   1.587  0.2261  0.0041 -0.4245
 7015SOL    HW132504   0.631   1.766   1.609  0.0735  0.4958 -1.9789
 7015SOL    HW232505   0.753   1.790   1.531  0.1472  0.1328 -0.3261
 7016SOL     OW32506   3.549   0.262  11.095 -0.3077 -0.0129  0.2399
 7016SOL    HW132507   3.626   0.261  11.151 -0.7975  2.1004  0.9383
 7016SOL    HW232508   3.511   0.175  11.108 -1.8495  0.8131  1.2031
 7017SOL     OW32509   4.265   3.788   2.665  0.1188 -0.1587  0.1549
 7017SOL    HW132510   4.240   3.873   2.628  2.3819 -0.2480 -1.5826
 7017SOL    HW232511   4.309   3.831   2.739  1.9349  1.8999 -2.1014
 7018SOL     OW32512   1.616   4.577   5.290 -0.0130 -0.0658  0.4497
 7018SOL    HW132513   1.536   4.545   5.333 -1.3637 -0.2561 -2.2205
 7018SOL    HW232514   1.582   4.618   5.210 -1.8474 -0.8394  0.8146
 7019SOL     OW32515   2.767   2.112  13.664  0.9743  0.0525  0.6567
 7019SOL    HW132516   2.686   2.088  13.620  1.9259 -1.5533 -0.2063
 7019SOL    HW232517   2.841   2.066  13.625 -0.7258  0.0819 -2.5176
 7020SOL     OW32518   3.223   0.667   3.375  0.3444  0.3400  0.2059
 7020SOL    HW132519   3.194   0.634   3.290  1.5057 -2.5618  0.9603
 7020SOL    HW232520   3.316   0.680   3.354  0.3640  0.4908  0.3872
 7021SOL     OW32521   4.353   1.811   6.353  0.3176  0.0515  0.7750
 7021SOL    HW132522   4.288   1.751   6.316  0.7080  0.0919  0.0324
 7021SOL    HW232523   4.339   1.874   6.282  1.8585 -1.1481 -0.5733
 7022SOL     OW32524   1.953   2.173  16.825 -0.0268  0.4001  0.0755
 7022SOL    HW132525   2.029   2.121  16.799 -0.8715 -1.1093  0.6288
 7022SOL    HW232526   1.984   2.262  16.806 -1.1008  1.0414  1.3328
 7023SOL     OW32527   0.563   4.300   4.801  0.1924  0.5698  0.3676
 7023SOL    HW132528   0.603   4.250   4.872  1.3995 -1.3234 -1.6469
 7023SOL    HW232529   0.593   4.257   4.721 -1.3103 -0.5201  0.4100
 7024SOL     OW32530   1.969   2.467   5.260  0.4166 -0.0922 -0.5010
 7024SOL    HW132531   1.966   2.518   5.179 -1.1772  0.5727 -0.0304
 7024SOL    HW232532   2.062   2.447   5.252  0.6770  1.2556 -0.9772
 7025SOL     OW32533   2.198   0.662   2.670  0.2703  0.2305 -0.0436
 7025SOL    HW132534   2.192   0.599   2.742  0.8757  1.8185  1.3911
 7025SOL    HW232535   2.106   0.663   2.644  0.5188 -0.2077 -0.9370
 7026SOL     OW32536   1.486   2.443   9.058  0.2409  0.5217  0.5533
 7026SOL    HW132537   1.567   2.466   9.101  0.1449  0.2187  0.8981
 7026SOL    HW232538   1.495   2.350   9.036  0.3366  0.3689  1.2368
 7027SOL     OW32539   1.450   2.240   8.148 -1.4930  0.0763  0.0656
 7027SOL    HW132540   1.421   2.260   8.237 -1.7447  1.1233 -0.2601
 7027SOL    HW232541   1.399   2.295   8.089 -1.1483 -0.2671 -0.5532
 7028SOL     OW32542   1.649   0.593  16.234  0.0423  0.3414  0.0396
 7028SOL    HW132543   1.560   0.594  16.269  0.2787  0.5261  0.6375
 7028SOL    HW232544   1.688   0.671  16.274  1.2623 -0.5467  0.5978
 7029SOL     OW32545   2.568   2.339   0.950  0.3011  0.3112 -0.4627
 7029SOL    HW132546   2.645   2.390   0.976  1.0642 -1.2686  0.3907
 7029SOL    HW232547   2.578   2.353   0.856 -0.9598  1.0407 -0.4777
 7030SOL     OW32548   4.186   4.078   2.572 -0.4305  0.1989  0.8198
 7030SOL    HW132549   4.209   4.168   2.550  0.4982  0.2197  1.8993
 7030SOL    HW232550   4.140   4.101   2.653 -2.0548 -0.4441  0.0829
 7031SOL     OW32551   3.309   0.192  17.547 -0.0384  0.5032  0.7002
 7031SOL    HW132552   3.336   0.134  17.476 -1.0698 -1.4291  1.8871
 7031SOL    HW232553   3.217   0.210  17.531  0.2812  2.7038  1.4216
 7032SOL     OW32554   3.228   1.567   8.574  0.2660  0.1115 -0.6775
 7032SOL    HW132555   3.263   1.638   8.627  0.1721  2.5080 -3.8127
 7032SOL    HW232556   3.305   1.533   8.528  1.4533  0.2664  1.2173
 7033SOL     OW32557   4.536   4.362   2.079  0.1215  0.1371 -0.2589
 7033SOL    HW132558   4.507   4.413   2.003 -2.0312  1.0514  1.2033
 7033SOL    HW232559   4.452   4.318   2.090 -0.0111  0.6912  0.9008
 7034SOL     OW32560   4.253   2.804   4.340  0.3755  0.1293 -0.3265
 7034SOL    HW132561   4.270   2.754   4.261  2.4218 -0.8741  0.7502
 7034SOL    HW232562   4.309   2.757   4.402  0.9450 -0.9791 -1.7068
 7035SOL     OW32563   1.472   2.896   2.919 -0.1442 -0.7614  0.2730
 7035SOL    HW132564   1.437   2.821   2.968  0.1484 -1.3268 -0.3673
 7035SOL    HW232565   1.476   2.958   2.991  1.6637 -1.3203  0.6709
 7036SOL     OW32566   4.203   2.991  16.579  0.0217  0.1414  0.6369
 7036SOL    HW132567   4.204   2.971  16.485 -0.3216  1.0994  0.4323
 7036SOL    HW232568   4.227   3.083  16.585  0.1880  0.2861 -2.0480
 7037SOL     OW32569   4.634   3.012   5.498 -0.0576 -0.2210 -0.1397
 7037SOL    HW132570   4.630   3.072   5.424  0.3741 -0.5099 -0.3913
 7037SOL    HW232571   0.002   3.019   5.526 -0.0971  0.1844 -0.1120
 7038SOL     OW32572   0.870   2.972   3.096 -0.3967 -0.0615 -0.1680
 7038SOL    HW132573   0.879   2.931   3.182 -1.1571  0.4452  0.1502
 7038SOL    HW232574   0.864   3.063   3.124 -0.8568  0.4408 -1.9195
 7039SOL     OW32575   0.537   0.158  15.829  0.6805  0.1729 -0.3497
 7039SOL    HW132576   0.625   0.194  15.823 -0.4723  3.0611 -0.2691
 7039SOL    HW232577   0.489   0.236  15.800  1.7890  0.7781 -0.5683
 7040SOL     OW32578   0.710   0.936  12.448  0.1485 -0.6299 -0.2745
 7040SOL    HW132579   0.684   0.960  12.359 -0.3525  0.8426  0.2722
 7040SOL    HW232580   0.801   0.912  12.436  0.6298 -0.1033  2.2887
 7041SOL     OW32581   1.945   1.877   5.503 -0.1116 -0.0038  0.5294
 7041SOL    HW132582   2.002   1.918   5.568 -0.8714  1.7930  0.0502
 7041SOL    HW232583   1.922   1.794   5.546 -0.3327 -0.4175 -0.3880
 7042SOL     OW32584   0.946   2.108   9.594  0.1851  0.0587 -0.2390
 7042SOL    HW132585   0.998   2.177   9.637 -1.2892  0.3954  1.0016
 7042SOL    HW232586   0.932   2.150   9.509 -0.4954  1.9334  0.7867
 7043SOL     OW32587   2.588   3.164   2.843 -0.3095  0.4741 -0.0792
 7043SOL    HW132588   2.565   3.242   2.793 -3.7575 -0.7054 -0.3567
 7043SOL    HW232589   2.681   3.179   2.862 -0.4962 -0.3977  1.5457
 7044SOL     OW32590   1.185   3.281  14.330  0.1848 -0.3437 -0.0818
 7044SOL    HW132591   1.134   3.200  14.339 -0.4986  0.3545  2.2941
 7044SOL    HW232592   1.227   3.285  14.416  0.2130 -0.0530 -0.1109
 7045SOL     OW32593   0.217   1.085  11.285 -0.6677 -0.6457  0.3567
 7045SOL    HW132594   0.172   1.169  11.293 -0.0860 -0.3035  0.0492
 7045SOL    HW232595   0.188   1.064  11.196  0.7676 -1.1981  0.0259
 7046SOL     OW32596   1.072   3.695  12.113  0.1977 -0.4451 -0.6754
 7046SOL    HW132597   1.076   3.600  12.108 -2.0058 -0.6974  2.2126
 7046SOL    HW232598   1.051   3.715  12.022 -0.4475  2.8429  0.1995
 7047SOL     OW32599   1.130   0.926   0.072 -0.2412  0.6430  0.2780
 7047SOL    HW132600   1.217   0.920   0.111  0.4364 -0.4368 -1.3973
 7047SOL    HW232601   1.139   0.865  17.696  1.2886  0.7125  0.4111
 7048SOL     OW32602   0.338   3.911   3.596  0.2727  0.1079 -0.3986
 7048SOL    HW132603   0.326   3.917   3.691 -2.0194 -0.5505 -0.6450
 7048SOL    HW232604   0.328   4.001   3.567  1.3334  0.1759 -0.5458
 7049SOL     OW32605   2.199   2.319   1.571 -0.5322  0.3946 -0.1201
 7049SOL    HW132606   2.155   2.400   1.594 -0.9783  0.2120 -0.3209
 7049SOL    HW232607   2.250   2.351   1.497 -0.4948  1.8287  0.5280
 7050SOL     OW32608   4.496   2.819   6.703 -0.1953 -0.3653 -0.4634
 7050SOL    HW132609   4.550   2.748   6.668  0.2750  0.7928 -2.1225
 7050SOL    HW232610   4.434   2.832   6.630  0.4659  1.6985 -0.6713
 7051SOL     OW32611   1.696   3.920   8.674  1.1194  0.0760  0.4185
 7051SOL    HW132612   1.615   3.869   8.686  0.9739  0.4221  0.9307
 7051SOL    HW232613   1.744   3.907   8.756  2.8795 -0.5241 -0.7176
 7052SOL     OW32614   0.947   2.540   5.227  0.6340  0.4281 -0.1132
 7052SOL    HW132615   0.969   2.468   5.168 -0.4009  0.5286 -0.6262
 7052SOL    HW232616   0.896   2.485   5.286  0.6803  0.7954  0.2734
 7053SOL     OW32617   1.806   0.661   3.978 -0.0029  0.4544 -0.4137
 7053SOL    HW132618   1.759   0.700   4.051  1.1043 -0.7984  0.9724
 7053SOL    HW232619   1.808   0.731   3.912  1.0607  1.2076  0.4138
 7054SOL     OW32620   2.790   2.887  12.839 -0.4617 -0.5117 -0.0617
 7054SOL    HW132621   2.781   2.943  12.763  2.6730  2.2513  1.6437
 7054SOL    HW232622   2.849   2.938  12.895 -3.0770 -0.2308  2.4860
 7055SOL     OW32623   2.761   1.688   3.545 -0.2474 -0.8486 -0.0050
 7055SOL    HW132624   2.760   1.676   3.640 -1.2512 -0.7205 -0.0008
 7055SOL    HW232625   2.840   1.741   3.535 -0.5365 -0.1851  1.1363
 7056SOL     OW32626   1.192   1.254  10.875  0.1526 -0.3611  0.7456
 7056SOL    HW132627   1.284   1.278  10.888  0.1002 -0.6931  1.6990
 7056SOL    HW232628   1.154   1.342  10.874  0.4217 -0.2628 -1.4248
 7057SOL     OW32629   0.177   1.874   9.131 -0.1981  0.3967  0.3234
 7057SOL    HW132630   0.155   1.955   9.177 -0.3821 -0.1119  1.1457
 7057SOL    HW232631   0.166   1.811   9.202  1.9874 -2.6198 -2.0200
 7058SOL     OW32632   4.238   2.940   2.123  0.1436 -0.1378 -0.3971
 7058SOL    HW132633   4.153   2.983   2.111 -0.2101 -0.9131 -0.6722
 7058SOL    HW232634   4.222   2.852   2.088 -1.2537 -0.1763  0.3112
 7059SOL     OW32635   4.026   0.087   3.586  0.2295  0.1036  0.3609
 7059SOL    HW132636   3.936   0.096   3.553  0.2610 -0.6169  0.0724
 7059SOL    HW232637   4.048   0.172   3.623  1.1342  0.3412 -0.7401
 7060SOL     OW32638   2.140   0.092   4.140 -0.3873 -0.1296 -0.3284
 7060SOL    HW132639   2.197   0.076   4.065 -0.4040  0.1697 -0.4047
 7060SOL    HW232640   2.104   0.006   4.162  0.2456  0.0926  1.5712
 7061SOL     OW32641   4.106   0.937   5.059 -0.2880  0.7523 -0.2828
 7061SOL    HW132642   4.134   1.019   5.018  0.9105  0.2790 -0.3958
 7061SOL    HW232643   4.084   0.966   5.148  2.2870  0.5712  0.4100
 7062SOL     OW32644   2.476   3.934  13.152 -0.1368  0.1147  0.1771
 7062SOL    HW132645   2.470   4.028  13.173  1.8206  0.0434  0.9850
 7062SOL    HW232646   2.423   3.893  13.220  1.6081 -0.6795  1.0393
 7063SOL     OW32647   0.372   2.465   1.931 -0.1417 -0.0989  0.1491
 7063SOL    HW132648   0.351   2.529   1.862 -0.1161  0.6261  0.8141
 7063SOL    HW232649   0.429   2.515   1.990  1.1972 -2.1516  0.5947
 7064SOL     OW32650   3.566   4.008   7.310 -0.4143 -0.0418  0.7947
 7064SOL    HW132651   3.499   4.076   7.305 -1.3497 -1.3208 -3.3721
 7064SOL    HW232652   3.614   4.039   7.388 -0.2962 -1.8847  1.4531
 7065SOL     OW32653   4.049   4.295   4.845  0.5769  0.3126  0.0082
 7065SOL    HW132654   4.045   4.337   4.931  0.5273 -2.1957  1.2304
 7065SOL    HW232655   4.016   4.366   4.789 -1.2912 -0.3676  0.2285
 7066SOL     OW32656   1.810   3.302   2.972  0.0899  0.4987 -0.4050
 7066SOL    HW132657   1.722   3.335   2.990  0.4941 -0.1214  2.7542
 7066SOL    HW232658   1.801   3.216   3.014  3.0913 -0.4447 -1.7211
 7067SOL     OW32659   0.178   0.327   3.527 -0.2153  0.1160  0.0323
 7067SOL    HW132660   0.234   0.397   3.561 -2.0875  1.0973  1.1067
 7067SOL    HW232661   0.242   0.257   3.515 -1.0682 -0.9111  1.5657
 7068SOL     OW32662   4.610   1.848   0.986  0.1242 -0.2613 -0.5015
 7068SOL    HW132663   4.701   1.865   1.009  0.0089 -1.5155  0.8866
 7068SOL    HW232664   4.573   1.793   1.056 -1.1953  1.8855  0.5201
 7069SOL     OW32665   1.244   3.210  17.677  0.1449 -0.4929 -0.4533
 7069SOL    HW132666   1.318   3.205  17.617  2.3257  0.9558  2.0761
 7069SOL    HW232667   1.284   3.216   0.067  0.4760  3.4280 -0.8713
 7070SOL     OW32668   3.116   3.980   9.808 -0.5694  0.1794  0.0013
 7070SOL    HW132669   3.051   4.007   9.872 -0.0948  0.2519  0.4479
 7070SOL    HW232670   3.148   3.898   9.847  0.4564 -0.3840 -2.0157
 7071SOL     OW32671   3.118   2.917  14.490 -0.3391  0.7686 -0.1766
 7071SOL    HW132672   3.125   2.974  14.413  0.2837  0.4217 -0.3755
 7071SOL    HW232673   3.194   2.862  14.474  1.0038  2.4678  0.3502
 7072SOL     OW32674   1.358   3.985   9.854  0.2349  0.0564 -0.4949
 7072SOL    HW132675   1.333   3.906   9.807  0.7926 -1.4512  1.7303
 7072SOL    HW232676   1.346   3.941   9.938 -1.1774 -0.6692 -1.0839
 7073SOL     OW32677   1.374   2.022   3.702 -0.0076 -0.7164  0.0776
 7073SOL    HW132678   1.331   1.938   3.685 -0.0699 -0.4942 -0.8708
 7073SOL    HW232679   1.420   2.008   3.785 -1.2750 -0.6383  0.7971
 7074SOL     OW32680   1.258   3.618   8.854 -0.1461  0.0682  0.3254
 7074SOL    HW132681   1.244   3.528   8.825  0.6017 -0.3755  1.3340
 7074SOL    HW232682   1.317   3.608   8.928 -0.7825  2.0239  1.1072
 7075SOL     OW32683   1.471   4.711   1.361  0.1763 -0.1344 -0.0224
 7075SOL    HW132684   1.420   4.681   1.437 -0.3144  1.5713  0.3127
 7075SOL    HW232685   1.399   0.036   1.321 -0.2094 -0.8533 -0.2146
 7076SOL     OW32686   2.475   2.403   4.122  0.2503 -0.7434 -0.1217
 7076SOL    HW132687   2.384   2.434   4.116 -0.0321 -1.4331  0.5992
 7076SOL    HW232688   2.508   2.447   4.200  1.0819 -2.1542  0.3103
 7077SOL     OW32689   4.477   2.932   9.176 -0.3710 -0.6828  0.2453
 7077SOL    HW132690   4.471   2.927   9.271 -0.2499 -0.3692  0.2664
 7077SOL    HW232691   4.383   2.933   9.154  0.3503  0.0558 -2.8446
 7078SOL     OW32692   2.354   1.412   4.865 -0.3031 -0.9385  0.1499
 7078SOL    HW132693   2.337   1.446   4.777 -2.6158 -0.8393  0.6187
 7078SOL    HW232694   2.278   1.448   4.912 -1.2069 -3.0810  0.3243
 7079SOL     OW32695   0.273   3.511  10.285  0.8698 -0.3203  0.0923
 7079SOL    HW132696   0.285   3.419  10.308  1.3133 -0.0252  1.0569
 7079SOL    HW232697   0.340   3.539  10.222 -0.5227  0.5661 -0.9928
 7080SOL     OW32698   1.799   4.098   8.128  0.2736  0.4388  0.2148
 7080SOL    HW132699   1.799   4.190   8.155 -1.2072  0.6827 -0.5713
 7080SOL    HW232700   1.827   4.049   8.205 -1.8506 -1.6630 -0.3303
 7081SOL     OW32701   1.336   0.033  17.401 -0.0033 -0.5511 -0.3110
 7081SOL    HW132702   1.421   4.714  17.387  0.8970  1.2972 -0.4509
 7081SOL    HW232703   1.297   4.692  17.459  2.3158 -1.7580 -0.0935
 7082SOL     OW32704   2.358   3.942   7.297  0.3832 -0.2306 -0.5446
 7082SOL    HW132705   2.368   3.964   7.204 -1.3524 -0.4496 -0.7799
 7082SOL    HW232706   2.290   4.000   7.331  2.6112  0.7097  2.3008
 7083SOL     OW32707   3.395   0.116   9.741 -0.3463  0.5384  0.0906
 7083SOL    HW132708   3.382   0.134   9.648 -1.5299 -1.1827 -0.0652
 7083SOL    HW232709   3.340   0.184   9.781  1.9648  1.3176  1.9498
 7084SOL     OW32710   0.167   2.628   8.118  0.0538  0.4380 -0.1245
 7084SOL    HW132711   0.097   2.580   8.163  0.4649  0.2736  0.3409
 7084SOL    HW232712   0.159   2.586   8.032 -0.4940 -0.9376  0.5933
 7085SOL     OW32713   2.450   0.667   8.800  0.2217  0.0286 -0.6588
 7085SOL    HW132714   2.511   0.663   8.727  1.1048  1.1117  0.0148
 7085SOL    HW232715   2.456   0.762   8.811  2.0797 -0.1885  0.1782
 7086SOL     OW32716   0.161   4.108   4.217 -0.0135  0.7726  0.2322
 7086SOL    HW132717   0.137   4.195   4.249 -0.9315 -0.1201  1.9697
 7086SOL    HW232718   0.190   4.070   4.300  0.7482  1.4288  0.2702
 7087SOL     OW32719   0.289   3.722   7.919  0.2027 -0.0874 -0.2549
 7087SOL    HW132720   0.379   3.713   7.951  1.0287  0.6869 -2.3373
 7087SOL    HW232721   0.267   3.807   7.955 -0.7670 -0.5108  0.1641
 7088SOL     OW32722   0.094   2.145   2.936 -0.1080  0.0926 -0.7506
 7088SOL    HW132723   0.162   2.087   2.972  0.3317  0.3096 -1.2390
 7088SOL    HW232724   0.106   2.130   2.842 -0.0880 -0.6095 -0.6352
 7089SOL     OW32725   2.197   1.565   9.725 -0.3455 -0.1087  0.0062
 7089SOL    HW132726   2.148   1.636   9.683 -1.6519 -1.3938 -0.6689
 7089SOL    HW232727   2.263   1.615   9.772 -1.2648 -0.8062  2.0164
 7090SOL     OW32728   2.616   0.994   0.754  0.2962 -0.1515 -0.5630
 7090SOL    HW132729   2.554   1.003   0.681  1.6255  0.3257 -1.6327
 7090SOL    HW232730   2.558   0.968   0.826 -1.7856  0.1322 -2.1331
 7091SOL     OW32731   2.260   1.933  15.401  1.1114 -0.0341  0.0699
 7091SOL    HW132732   2.225   1.885  15.327  1.9488  1.7705 -1.5021
 7091SOL    HW232733   2.342   1.971  15.369  0.4589  1.4143  0.0838
 7092SOL     OW32734   0.656   1.258   1.040  0.2210 -0.1909 -0.0964
 7092SOL    HW132735   0.674   1.169   1.010 -0.5178 -0.0112 -1.0966
 7092SOL    HW232736   0.643   1.308   0.959 -0.8940  1.2164  0.9644
 7093SOL     OW32737   3.759   0.224  11.796  0.5357  0.8556  0.5300
 7093SOL    HW132738   3.842   0.200  11.753  0.1466 -0.2580  0.3868
 7093SOL    HW232739   3.785   0.314  11.814  2.9199  0.0931  0.8501
 7094SOL     OW32740   2.028   0.695  14.075 -0.3494 -0.3244 -0.7354
 7094SOL    HW132741   2.025   0.603  14.050 -0.6425  0.0257 -2.0035
 7094SOL    HW232742   2.069   0.732  13.997  1.8626 -2.2280 -0.4719
 7095SOL     OW32743   3.453   3.248  13.969 -0.1884  0.8256  0.1201
 7095SOL    HW132744   3.387   3.295  14.020 -1.0658 -0.8563  0.5200
 7095SOL    HW232745   3.435   3.158  13.996 -0.8256  1.4264  1.7057
 7096SOL     OW32746   1.089   0.482   7.998  0.0191  0.0950 -0.1378
 7096SOL    HW132747   1.031   0.411   7.971  2.1645 -1.1815 -1.3358
 7096SOL    HW232748   1.057   0.529   8.076 -4.0757  0.2060 -1.8843
 7097SOL     OW32749   0.342   2.896   1.907  0.6386  0.2715 -0.9593
 7097SOL    HW132750   0.260   2.872   1.951  0.8886  1.0852 -0.0318
 7097SOL    HW232751   0.347   2.808   1.872 -0.2587  0.1018 -0.6566
 7098SOL     OW32752   2.099   3.702   7.887 -0.0068  0.1658 -0.1658
 7098SOL    HW132753   2.116   3.651   7.966  1.2175  0.3452 -0.3028
 7098SOL    HW232754   2.161   3.670   7.821 -0.9278  0.1869 -1.0347
 7099SOL     OW32755   2.162   2.946  10.153  0.4627 -0.1763 -0.4977
 7099SOL    HW132756   2.140   2.853  10.163  0.7814  0.1842  3.6356
 7099SOL    HW232757   2.199   2.947  10.064  2.4299 -0.4056  0.3019
 7100SOL     OW32758   1.198   4.334   6.178 -0.1402  0.1257 -0.0248
 7100SOL    HW132759   1.286   4.337   6.139 -1.3864  0.7395 -2.7716
 7100SOL    HW232760   1.161   4.399   6.119 -2.2382  0.4087  1.6007
 7101SOL     OW32761   4.547   3.599   7.481 -0.2799 -0.4243  0.4634
 7101SOL    HW132762   4.548   3.677   7.536 -1.3594 -0.4217  0.4833
 7101SOL    HW232763   4.561   3.642   7.396 -0.3457 -1.0870  0.1120
 7102SOL     OW32764   3.672   0.446   8.373  0.1167  0.1981 -0.3326
 7102SOL    HW132765   3.629   0.413   8.294  0.7752  2.5176 -1.6658
 7102SOL    HW232766   3.630   0.399   8.445  0.4317 -1.9209 -1.5132
 7103SOL     OW32767   1.452   1.581   9.626 -0.1371  0.0703 -0.1937
 7103SOL    HW132768   1.530   1.619   9.667 -0.3319 -1.3966  1.5492
 7103SOL    HW232769   1.381   1.641   9.649 -0.0148  0.0745  0.1861
 7104SOL     OW32770   0.692   1.923   8.785  0.1367 -0.2102 -0.3391
 7104SOL    HW132771   0.639   1.891   8.858  1.9033  2.1316  1.9413
 7104SOL    HW232772   0.763   1.965   8.832 -0.2898  1.5185 -1.2695
 7105SOL     OW32773   0.931   2.861   0.965  0.2044 -0.2466 -0.1039
 7105SOL    HW132774   0.970   2.781   1.001 -1.3273 -1.1882 -0.5323
 7105SOL    HW232775   1.006   2.890   0.912 -0.4501  0.5200 -0.6130
 7106SOL     OW32776   3.997   2.987  16.786 -0.1910 -0.8842 -0.2785
 7106SOL    HW132777   4.070   2.975  16.725 -1.6461 -1.4131 -1.8885
 7106SOL    HW232778   3.939   3.047  16.740  2.0732  0.1998 -1.6856
 7107SOL     OW32779   4.236   3.578  11.595  0.3604  0.0057 -0.4300
 7107SOL    HW132780   4.295   3.651  11.612  0.1927  0.2591 -0.9355
 7107SOL    HW232781   4.262   3.512  11.658 -1.6462  1.0664  1.5093
 7108SOL     OW32782   4.463   0.937   0.010  0.1737  0.4045 -0.1845
 7108SOL    HW132783   4.407   0.996   0.060  0.2936  2.3989 -2.4329
 7108SOL    HW232784   4.410   0.938  17.628  0.8310  2.0358 -0.6021
 7109SOL     OW32785   0.429   2.370   8.592 -0.3968 -0.5635 -0.1777
 7109SOL    HW132786   0.381   2.453   8.582  0.0617 -0.4266 -1.2829
 7109SOL    HW232787   0.448   2.373   8.685 -0.5708 -1.7248 -0.0990
 7110SOL     OW32788   1.064   0.354   4.717  0.3957  0.7867  0.0936
 7110SOL    HW132789   1.089   0.374   4.627 -0.8801 -0.1912 -0.4742
 7110SOL    HW232790   1.147   0.318   4.748 -0.8117  0.9136  3.4626
 7111SOL     OW32791   0.804   4.242   6.848  0.1371 -0.3021 -0.0579
 7111SOL    HW132792   0.774   4.204   6.930 -1.5224 -1.4986 -1.2160
 7111SOL    HW232793   0.840   4.329   6.868 -0.8143 -0.0865  0.7091
 7112SOL     OW32794   3.416   2.582   5.033 -0.3123 -0.3094 -0.6915
 7112SOL    HW132795   3.369   2.512   4.987 -0.0528 -0.8627 -0.1229
 7112SOL    HW232796   3.483   2.592   4.966  1.9281  1.5843  1.8448
 7113SOL     OW32797   3.461   0.997   6.348  0.3535 -0.3436  0.3215
 7113SOL    HW132798   3.541   0.947   6.366  0.1586 -1.1423 -1.0189
 7113SOL    HW232799   3.445   0.978   6.256 -1.1661  1.7582  0.1496
 7114SOL     OW32800   0.049   0.018  13.876 -0.1978 -0.2432  0.0007
 7114SOL    HW132801   0.072   4.687  13.951  2.9433 -0.8015 -1.3511
 7114SOL    HW232802   0.123   0.078  13.886  1.5483 -2.0774 -1.7597
 7115SOL     OW32803   2.730   1.069   2.682  0.2522 -0.0964  0.0665
 7115SOL    HW132804   2.710   0.996   2.740 -1.5431 -0.8637 -1.5292
 7115SOL    HW232805   2.740   1.009   2.608 -2.1570  0.4506 -0.7241
 7116SOL     OW32806   2.935   1.267   5.436 -0.0150  0.0862 -0.2399
 7116SOL    HW132807   2.950   1.332   5.504  0.7995  0.4086 -0.7318
 7116SOL    HW232808   3.001   1.199   5.451  1.1942  1.4541  0.6463
 7117SOL     OW32809   1.078   4.258  17.446  0.6901 -0.0697 -0.0115
 7117SOL    HW132810   0.992   4.293  17.422 -0.2676 -1.8382  0.8489
 7117SOL    HW232811   1.051   4.179  17.492  0.6405  0.2456  0.5008
 7118SOL     OW32812   1.436   0.900   2.917  0.6598  0.1701  0.3248
 7118SOL    HW132813   1.414   0.935   2.831 -1.1836 -0.5659  0.4933
 7118SOL    HW232814   1.350   0.901   2.960 -0.9225 -2.0146 -2.7607
 7119SOL     OW32815   4.389   4.295   5.774  0.1138  0.2794  0.2476
 7119SOL    HW132816   4.406   4.332   5.688  1.5730  0.7261  0.7286
 7119SOL    HW232817   4.469   4.244   5.784  0.3351  0.2199 -1.8658
 7120SOL     OW32818   1.986   3.804   2.967 -0.1850 -0.0252  0.0934
 7120SOL    HW132819   1.944   3.828   3.049 -1.2832  1.6341 -0.9481
 7120SOL    HW232820   2.002   3.712   2.987 -0.1178 -0.1709 -0.6373
 7121SOL     OW32821   0.920   4.056  12.200  0.0293 -0.4381  0.4212
 7121SOL    HW132822   0.972   4.045  12.120  2.7613 -1.3163  2.2976
 7121SOL    HW232823   0.995   4.087  12.252  0.4610 -0.0737 -0.4187
 7122SOL     OW32824   0.205   1.207   7.653  0.6383  0.2291 -0.2942
 7122SOL    HW132825   0.185   1.124   7.608  1.8487 -1.2726  1.9301
 7122SOL    HW232826   0.156   1.267   7.596  0.3209  1.4217  1.2438
 7123SOL     OW32827   0.805   1.559   4.940  0.5467 -0.1005 -0.1093
 7123SOL    HW132828   0.822   1.478   4.989 -0.1120 -0.2282 -0.0868
 7123SOL    HW232829   0.801   1.532   4.848  1.9529 -1.0945  0.1171
 7124SOL     OW32830   3.621   2.656   2.149  0.4445  0.1959  0.0336
 7124SOL    HW132831   3.586   2.731   2.197  0.5191 -0.5488  1.2492
 7124SOL    HW232832   3.546   2.600   2.128 -0.3521  1.1014  0.4942
 7125SOL     OW32833   2.729   0.717   9.026 -0.3028  0.0384 -0.1929
 7125SOL    HW132834   2.790   0.747   8.959 -0.1419  0.7239  0.2694
 7125SOL    HW232835   2.767   0.631   9.043 -2.4663 -0.8707  0.0835
 7126SOL     OW32836   0.060   4.212  11.278 -0.1237 -0.0104  0.2974
 7126SOL    HW132837   0.046   4.184  11.368  1.0033  2.1025  1.1257
 7126SOL    HW232838   0.155   4.225  11.273 -0.2724  1.3057  1.0864
 7127SOL     OW32839   2.992   1.552   4.421  0.2658  0.2979 -0.7212
 7127SOL    HW132840   2.909   1.552   4.373  0.2324  1.3546 -0.6734
 7127SOL    HW232841   3.038   1.619   4.371 -3.6386  3.5101 -0.0967
 7128SOL     OW32842   1.373   4.306   3.070  0.5207  0.1626 -0.4468
 7128SOL    HW132843   1.368   4.354   3.153 -1.5242 -1.1645  0.1969
 7128SOL    HW232844   1.423   4.227   3.092  0.0238 -0.0205  0.0278
 7129SOL     OW32845   2.263   2.849   6.500 -0.3339  0.0317 -0.8046
 7129SOL    HW132846   2.298   2.801   6.426  1.7896 -2.0286  1.5346
 7129SOL    HW232847   2.248   2.779   6.564 -2.0711 -0.7119 -2.0249
 7130SOL     OW32848   4.558   2.840  13.317  0.2818  1.0037  0.0913
 7130SOL    HW132849   4.608   2.865  13.239  1.1090  1.3303  0.7177
 7130SOL    HW232850   4.554   2.919  13.371  0.4720 -0.4903  2.3007
 7131SOL     OW32851   0.329   2.237   4.821 -0.5249 -0.4197 -0.7524
 7131SOL    HW132852   0.347   2.224   4.915 -0.1196 -1.3493 -0.9576
 7131SOL    HW232853   0.249   2.184   4.816 -0.2566 -0.7867 -1.1380
 7132SOL     OW32854   1.933   3.500   0.360  0.1684 -0.1033  0.2158
 7132SOL    HW132855   1.911   3.412   0.328 -3.1456  0.2706  1.4486
 7132SOL    HW232856   1.917   3.487   0.453 -2.0798  3.4859  0.3460
 7133SOL     OW32857   1.928   4.686  11.161  0.1150 -0.0972 -0.4965
 7133SOL    HW132858   1.933   0.046  11.116 -0.8752 -1.4505 -3.1213
 7133SOL    HW232859   1.882   4.712  11.241  3.1477  2.4102  0.4345
 7134SOL     OW32860   3.269   1.939   2.790  0.1963  0.4125  0.3737
 7134SOL    HW132861   3.231   1.911   2.873  0.5154 -1.3209 -0.0625
 7134SOL    HW232862   3.197   1.982   2.744 -0.9515 -2.6215 -0.6899
 7135SOL     OW32863   1.152   2.691   2.328  0.1741 -0.0552  0.1468
 7135SOL    HW132864   1.138   2.703   2.234 -1.1604 -1.8827  0.1164
 7135SOL    HW232865   1.242   2.659   2.333  0.8053  2.0158  1.7748
 7136SOL     OW32866   1.089   4.067   3.302 -0.1003 -0.7451  0.0680
 7136SOL    HW132867   1.168   4.013   3.305  0.4716  0.2058  2.3131
 7136SOL    HW232868   1.103   4.133   3.369 -2.0107 -0.4955  0.2200
 7137SOL     OW32869   0.142   2.275   7.881  0.1151 -0.1110 -0.0846
 7137SOL    HW132870   0.151   2.211   7.951 -2.0343 -0.2340  0.0832
 7137SOL    HW232871   0.099   2.346   7.929  1.0083  0.0807  0.4337
 7138SOL     OW32872   0.190   4.428  17.589 -0.2649  0.4540  0.2003
 7138SOL    HW132873   0.126   4.373  17.635  0.6543 -2.8683 -2.4936
 7138SOL    HW232874   0.227   4.368  17.525  0.1733 -0.5907  1.4333
 7139SOL     OW32875   3.749   3.726   3.015 -0.2515  0.2182  0.3843
 7139SOL    HW132876   3.752   3.650   2.956 -2.0443 -0.4999  1.1981
 7139SOL    HW232877   3.813   3.697   3.079 -0.0763 -1.1477 -0.4043
 7140SOL     OW32878   4.180   2.541   3.968  0.4540  0.0923  0.2874
 7140SOL    HW132879   4.178   2.465   3.910 -2.2429  0.2669  0.1648
 7140SOL    HW232880   4.089   2.570   3.962  0.5114  0.2367  0.1089
 7141SOL     OW32881   0.774   1.686   3.813  0.0918  0.1983 -0.3098
 7141SOL    HW132882   0.683   1.689   3.783  0.2214  1.1442 -0.6049
 7141SOL    HW232883   0.766   1.778   3.838 -1.1021  0.2814 -1.0164
 7142SOL     OW32884   4.160   3.854  13.209  0.0076 -0.3788  0.0561
 7142SOL    HW132885   4.097   3.923  13.227 -0.3377 -0.4592 -0.8881
 7142SOL    HW232886   4.112   3.783  13.167 -0.2440 -1.4880  2.1962
 7143SOL     OW32887   1.776   2.024  11.350  0.0419  0.0764 -0.1509
 7143SOL    HW132888   1.706   2.059  11.406 -0.4076 -2.3266  0.7869
 7143SOL    HW232889   1.778   2.103  11.296  0.0267 -0.4677 -0.9329
 7144SOL     OW32890   4.173   0.088   2.692 -0.2668  0.1693  0.1835
 7144SOL    HW132891   4.174   0.075   2.787  0.7868 -0.4315  0.0889
 7144SOL    HW232892   4.143   0.178   2.676  1.2486  0.4370 -1.2321
 7145SOL     OW32893   2.088   3.402   8.336 -0.6646 -0.0356 -0.3335
 7145SOL    HW132894   2.024   3.344   8.296 -2.7273  0.6469  2.0008
 7145SOL    HW232895   2.077   3.395   8.431  2.8568 -2.6520 -0.1167
 7146SOL     OW32896   3.029   3.969   6.046  0.4519  0.3627  0.4426
 7146SOL    HW132897   3.056   3.984   5.956 -0.3739  1.0044  0.3033
 7146SOL    HW232898   2.994   3.880   6.039  1.0935  0.1124  0.4795
 7147SOL     OW32899   3.961   2.589   2.359 -0.2734  0.6994  0.0238
 7147SOL    HW132900   4.053   2.575   2.382 -0.6565  0.9064  1.6338
 7147SOL    HW232901   3.940   2.629   2.443  0.3272  2.5048 -0.6655
 7148SOL     OW32902   0.446   1.427   8.963  0.3528  0.0507  0.0138
 7148SOL    HW132903   0.493   1.510   8.972  0.6392 -0.1502  0.3805
 7148SOL    HW232904   0.363   1.454   8.924  1.2011  1.3206 -0.9153
 7149SOL     OW32905   4.358   2.855   1.168  0.1675  0.4197 -0.4225
 7149SOL    HW132906   4.450   2.833   1.185  0.7783  2.6955 -0.8179
 7149SOL    HW232907   4.336   2.765   1.145 -0.1565  0.8810 -1.9540
 7150SOL     OW32908   2.924   4.027   5.745  0.1055  0.0197  0.3339
 7150SOL    HW132909   2.967   3.963   5.688  2.2159  1.4939  0.2660
 7150SOL    HW232910   2.833   4.032   5.717  0.2189  0.5364  0.0489
 7151SOL     OW32911   3.447   4.296  13.988 -0.1133 -0.0398  0.2449
 7151SOL    HW132912   3.442   4.200  13.980 -0.3825 -0.2323  2.5591
 7151SOL    HW232913   3.522   4.310  14.046 -0.0491 -0.7472  0.3321
 7152SOL     OW32914   0.909   4.428   1.428  0.3007  0.5133 -0.2051
 7152SOL    HW132915   0.854   4.453   1.502  2.0911  0.9571  0.9802
 7152SOL    HW232916   0.994   4.417   1.472 -0.5383  0.1366  1.2992
 7153SOL     OW32917   3.318   1.718   1.964 -1.2794  0.1861 -0.4711
 7153SOL    HW132918   3.408   1.687   1.964 -0.3758  2.7831 -0.4973
 7153SOL    HW232919   3.319   1.785   1.896  0.3182 -1.7395 -2.3570
 7154SOL     OW32920   1.002   4.109  14.192  0.1446  0.2361 -0.5830
 7154SOL    HW132921   1.029   4.091  14.282  3.3272  0.1015 -1.5899
 7154SOL    HW232922   0.978   4.020  14.164 -1.7305  0.0031  1.7646
 7155SOL     OW32923   2.594   2.467   0.685 -0.1098  0.1663 -0.8122
 7155SOL    HW132924   2.683   2.439   0.663  0.6376  2.4296 -0.6947
 7155SOL    HW232925   2.604   2.562   0.688 -3.1642  0.4899 -1.3767
 7156SOL     OW32926   2.513   3.296   5.085 -0.0543 -0.4930  0.1544
 7156SOL    HW132927   2.435   3.350   5.086  0.3317  0.0979 -1.6754
 7156SOL    HW232928   2.582   3.362   5.094 -1.2712  1.1401 -2.5203
 7157SOL     OW32929   0.207   0.683   9.545  0.0549  0.2728  0.1744
 7157SOL    HW132930   0.244   0.680   9.633 -0.0549  1.9773  0.2754
 7157SOL    HW232931   0.258   0.752   9.501  1.7056 -0.7790  0.4270
 7158SOL     OW32932   1.978   3.676   5.238  0.0069 -0.0219 -0.3733
 7158SOL    HW132933   2.006   3.589   5.212 -2.0278 -0.8826  0.3343
 7158SOL    HW232934   1.885   3.676   5.216 -0.2062  1.0682  0.4946
 7159SOL     OW32935   2.359   0.028   7.020 -0.0577  0.4957 -0.3456
 7159SOL    HW132936   2.304   4.678   7.046 -1.6874  1.3189 -1.4164
 7159SOL    HW232937   2.339   0.076   7.101 -0.6017  1.2209 -0.9069
 7160SOL     OW32938   3.513   0.966   2.099 -0.0946 -0.8275  0.4652
 7160SOL    HW132939   3.487   1.058   2.088  3.0531  0.4446  3.6573
 7160SOL    HW232940   3.436   0.915   2.123 -1.5490  0.4310 -1.5528
 7161SOL     OW32941   1.268   1.325   5.950  0.5625 -0.2142  0.3569
 7161SOL    HW132942   1.318   1.342   6.030 -0.0891 -0.8562  0.9037
 7161SOL    HW232943   1.300   1.240   5.921  0.5943 -0.3526  0.7992
 7162SOL     OW32944   3.373   2.074   7.524 -0.2733 -0.1157  0.1275
 7162SOL    HW132945   3.381   2.153   7.470  0.8135 -0.9097 -0.8737
 7162SOL    HW232946   3.295   2.032   7.489 -0.6200  1.8989 -1.5056
 7163SOL     OW32947   0.241   3.995  16.732 -0.2034  0.0139  0.0030
 7163SOL    HW132948   0.231   4.035  16.646 -1.9278  1.1947  0.7436
 7163SOL    HW232949   0.186   3.917  16.727  0.3075 -0.2018 -2.1820
 7164SOL     OW32950   3.513   1.920  10.563  0.2465  0.1355 -0.4239
 7164SOL    HW132951   3.446   1.977  10.526  0.9645  0.7868 -0.7240
 7164SOL    HW232952   3.591   1.974  10.550  0.2162  0.0624 -0.8808
 7165SOL     OW32953   2.568   3.729  13.852  0.0334 -0.5596 -0.7634
 7165SOL    HW132954   2.537   3.769  13.933  2.9241 -2.0353  1.0647
 7165SOL    HW232955   2.654   3.694  13.876 -1.9055 -2.9791  2.6223
 7166SOL     OW32956   4.244   1.595   9.399 -0.1354  0.2661 -0.3505
 7166SOL    HW132957   4.241   1.530   9.469 -0.9197 -1.3168 -1.8867
 7166SOL    HW232958   4.150   1.604   9.388 -0.4145 -0.0028  1.7188
 7167SOL     OW32959   1.808   4.565  17.430  0.1884  0.4960  0.0666
 7167SOL    HW132960   1.808   4.636  17.365  0.7865  0.6161  0.1924
 7167SOL    HW232961   1.875   4.593  17.493  0.5219  0.5644 -0.3159
 7168SOL     OW32962   0.724   2.647   2.392 -0.0063 -0.3824  0.0132
 7168SOL    HW132963   0.648   2.705   2.388  1.2956  1.1659 -2.4332
 7168SOL    HW232964   0.777   2.715   2.434  1.5074 -0.4350 -1.7760
 7169SOL     OW32965   4.434   4.613   4.855 -0.4156 -0.2632 -0.5511
 7169SOL    HW132966   4.340   4.609   4.872 -0.4071  0.0215 -0.4314
 7169SOL    HW232967   4.445   4.533   4.804  1.7733  0.8513 -1.8152
 7170SOL     OW32968   2.381   0.624   5.322 -0.6564 -0.0225  0.5397
 7170SOL    HW132969   2.366   0.534   5.351 -1.7383  0.0434  0.1911
 7170SOL    HW232970   2.301   0.617   5.271 -0.9292  1.4626  0.7497
 7171SOL     OW32971   3.690   2.126   5.609  0.4354  0.2382 -0.0144
 7171SOL    HW132972   3.769   2.177   5.631 -1.1152  2.0989  1.3125
 7171SOL    HW232973   3.636   2.177   5.549  2.2388  2.3083  0.1130
 7172SOL     OW32974   4.026   3.502   9.052 -0.3459 -0.4978  0.5035
 7172SOL    HW132975   3.962   3.573   9.062 -0.1847  0.2531 -3.6564
 7172SOL    HW232976   4.015   3.474   8.961 -0.9225  1.7346 -0.1342
 7173SOL     OW32977   0.987   0.565   5.376 -0.2139 -0.0387  0.0426
 7173SOL    HW132978   1.019   0.484   5.336 -0.4558  0.9678 -2.1915
 7173SOL    HW232979   0.895   0.566   5.349 -0.5776  0.0182  1.2756
 7174SOL     OW32980   1.775   4.617   2.892 -0.5205 -0.0145  0.2345
 7174SOL    HW132981   1.801   4.589   2.980  2.2121  1.4136 -0.1269
 7174SOL    HW232982   1.686   4.641   2.916 -0.2552  1.0642  0.1099
 7175SOL     OW32983   1.826   3.819   3.790  0.1250  0.0722 -0.0042
 7175SOL    HW132984   1.910   3.772   3.791  2.0034  3.3778 -0.8517
 7175SOL    HW232985   1.799   3.822   3.699 -0.1441  2.8604  0.1465
 7176SOL     OW32986   4.543   1.970   7.231 -0.3523  0.5172 -0.5327
 7176SOL    HW132987   4.579   1.970   7.320 -0.8182 -2.3779 -0.3402
 7176SOL    HW232988   4.538   1.874   7.228 -0.3033  0.4318  2.1228
 7177SOL     OW32989   4.695   0.101  12.033  0.6071 -0.3255  0.0083
 7177SOL    HW132990   4.628   0.160  12.065 -1.9742 -1.8038 -2.6589
 7177SOL    HW232991   0.056   0.144  12.041  0.3927  0.5864 -2.5974
 7178SOL     OW32992   1.564   3.008   4.666  0.0702 -0.6448 -0.3014
 7178SOL    HW132993   1.580   3.017   4.760 -2.1813 -1.1245  0.1363
 7178SOL    HW232994   1.562   3.100   4.638 -0.0864  0.0699  2.0985
 7179SOL     OW32995   2.616   3.566   1.568  0.3878 -0.0807 -0.0067
 7179SOL    HW132996   2.707   3.536   1.571  0.8565  1.5338  1.5176
 7179SOL    HW232997   2.615   3.621   1.646 -0.1449  2.1107 -1.5713
 7180SOL     OW32998   4.258   1.241   1.768 -0.1611 -0.0922  0.4140
 7180SOL    HW132999   4.298   1.271   1.850 -1.8900  0.0470  1.2167
 7180SOL    HW233000   4.286   1.150   1.769 -1.2772 -0.4299  2.0765
 7181SOL     OW33001   4.349   3.056   7.848  0.1350 -0.2737  0.1398
 7181SOL    HW133002   4.337   3.103   7.930 -2.2600  0.3280 -0.5655
 7181SOL    HW233003   4.314   2.969   7.867  0.5784 -1.1117 -2.8720
 7182SOL     OW33004   4.651   0.050   4.960  0.0723  0.2443 -0.3236
 7182SOL    HW133005   0.017   0.020   4.949  1.0694  2.9989  0.3817
 7182SOL    HW233006   4.601   4.704   4.918  1.0841 -2.0127  2.2297
 7183SOL     OW33007   1.846   1.220   1.990  0.4067  0.6380  0.2997
 7183SOL    HW133008   1.928   1.215   1.941  1.2101 -0.0290  1.7126
 7183SOL    HW233009   1.802   1.262   1.916 -0.8264 -0.0021  0.6695
 7184SOL     OW33010   2.886   2.405   7.403  0.6136  0.0975 -0.3724
 7184SOL    HW133011   2.947   2.410   7.329  1.4035 -1.8457  0.1540
 7184SOL    HW233012   2.800   2.399   7.363 -0.2074  2.1295  1.0993
 7185SOL     OW33013   2.147   2.116   5.973 -0.2236 -0.0065  0.2931
 7185SOL    HW133014   2.126   2.199   5.931  1.5115  0.4308  0.2782
 7185SOL    HW233015   2.103   2.049   5.921  1.5641 -0.0209 -1.2112
 7186SOL     OW33016   0.487   0.584  10.681 -0.0417  0.4723 -0.1861
 7186SOL    HW133017   0.527   0.507  10.723 -0.6499  0.5462  0.5237
 7186SOL    HW233018   0.553   0.618  10.620 -0.0572 -1.0068 -1.0245
 7187SOL     OW33019   0.460   0.736   4.616  0.1788  0.2919  0.0252
 7187SOL    HW133020   0.545   0.761   4.580  1.0091 -3.3527 -0.4550
 7187SOL    HW233021   0.434   0.828   4.631  1.9046  0.5487  1.4313
 7188SOL     OW33022   2.196   3.552   1.522  0.1475  0.6849  0.0139
 7188SOL    HW133023   2.258   3.526   1.454 -1.6029 -0.2703 -1.2042
 7188SOL    HW233024   2.154   3.637   1.508  0.8638  1.2115  1.0040
 7189SOL     OW33025   1.518   2.731   7.327 -0.7929  0.1863  0.6565
 7189SOL    HW133026   1.593   2.696   7.374  0.0817  0.7469 -0.3211
 7189SOL    HW233027   1.465   2.656   7.301 -1.3071  0.9389 -0.4942
 7190SOL     OW33028   1.472   4.220   4.298 -0.0859 -0.1704  0.2001
 7190SOL    HW133029   1.501   4.213   4.207 -1.7458 -0.8251 -0.2737
 7190SOL    HW233030   1.533   4.161   4.343  0.7119 -0.5396 -1.3490
 7191SOL     OW33031   2.591   1.480   2.705  0.2372 -0.0995  0.3734
 7191SOL    HW133032   2.656   1.550   2.706 -1.2173  1.2577  0.0815
 7191SOL    HW233033   2.523   1.513   2.646 -0.5057 -0.5129  1.0027
 7192SOL     OW33034   3.126   4.719  15.925 -0.5787  0.3027 -0.0207
 7192SOL    HW133035   3.158   4.664  15.997 -1.9255  0.0115  0.3480
 7192SOL    HW233036   3.040   0.022  15.957 -0.9034 -0.6507 -0.0708
 7193SOL     OW33037   4.328   1.286   6.990  0.2316 -0.6756 -0.1793
 7193SOL    HW133038   4.235   1.293   7.012  0.5329 -2.1170  1.6296
 7193SOL    HW233039   4.344   1.220   7.058  2.3147  0.8392  0.8138
 7194SOL     OW33040   3.301   3.414   6.872  0.0406 -0.4126 -0.3002
 7194SOL    HW133041   3.241   3.489   6.871  0.2051 -0.2426  2.7242
 7194SOL    HW233042   3.348   3.450   6.948 -3.0459  0.9443  0.9724
 7195SOL     OW33043   2.384   3.361  15.543  0.1699  0.0487  0.5959
 7195SOL    HW133044   2.408   3.311  15.465  1.4714 -0.0467  1.0587
 7195SOL    HW233045   2.459   3.328  15.593  0.5576 -0.3671 -0.2597
 7196SOL     OW33046   3.948   0.448   5.730  0.1306  0.0243  0.8671
 7196SOL    HW133047   3.868   0.396   5.720 -0.2711  0.3447  2.3881
 7196SOL    HW233048   3.922   0.500   5.806  0.2740  1.1467  0.1408
 7197SOL     OW33049   2.134   4.520  11.487 -0.3904  0.4140  0.2397
 7197SOL    HW133050   2.226   4.542  11.499  0.0579 -2.0754  1.2562
 7197SOL    HW233051   2.103   4.572  11.561 -1.8545 -0.9403  0.5646
 7198SOL     OW33052   3.480   3.687  13.400  0.2598  0.0971 -0.0199
 7198SOL    HW133053   3.532   3.759  13.434 -0.5774  0.4350  0.5423
 7198SOL    HW233054   3.513   3.615  13.454 -0.2046  1.5938  2.2248
 7199SOL     OW33055   2.233   2.140   7.245 -0.2768 -0.0772 -0.0442
 7199SOL    HW133056   2.154   2.193   7.234  0.4867  0.8939 -0.8311
 7199SOL    HW233057   2.190   2.067   7.289 -0.6373  1.5595  2.3106
 7200SOL     OW33058   3.675   4.034   1.992  0.7622 -0.1745 -0.2214
 7200SOL    HW133059   3.666   4.089   2.070  0.3565  0.0125 -0.3990
 7200SOL    HW233060   3.691   3.944   2.020  3.3169  0.5756  0.6868
 7201SOL     OW33061   1.208   0.808   4.445 -0.5463  0.0888 -0.4793
 7201SOL    HW133062   1.286   0.779   4.398 -0.6291 -0.6796 -0.1559
 7201SOL    HW233063   1.146   0.786   4.376 -2.3247 -0.7833  1.4019
 7202SOL     OW33064   0.246   1.114   3.788  0.0994 -0.0807 -0.4442
 7202SOL    HW133065   0.321   1.166   3.815 -1.9489  1.8635  1.4567
 7202SOL    HW233066   0.213   1.087   3.874  0.4169  0.0151 -0.2937
 7203SOL     OW33067   4.178   2.779  17.383 -0.0784  0.1225  0.2712
 7203SOL    HW133068   4.228   2.847  17.338 -3.4391  0.7056 -2.5922
 7203SOL    HW233069   4.182   2.810  17.474 -1.3544  0.6077  0.1649
 7204SOL     OW33070   0.997   1.930   9.289  0.4363 -0.4516 -0.7377
 7204SOL    HW133071   1.055   1.944   9.364 -1.3490 -0.3282  0.6131
 7204SOL    HW233072   1.020   1.839   9.272  0.0084 -0.4459 -1.3412
 7205SOL     OW33073   4.217   1.427   8.648  0.1618  0.3597  0.2313
 7205SOL    HW133074   4.149   1.416   8.714 -1.3390 -0.5279 -1.4473
 7205SOL    HW233075   4.198   1.356   8.587  3.6536 -0.9084  0.6085
 7206SOL     OW33076   2.242   2.157   3.052  0.0389  0.0371 -0.1742
 7206SOL    HW133077   2.239   2.109   3.135 -0.0786 -0.7541 -0.6360
 7206SOL    HW233078   2.325   2.202   3.065 -1.4286  2.9511 -1.1084
 7207SOL     OW33079   3.310   3.015   9.878 -0.1342 -0.2655  0.4968
 7207SOL    HW133080   3.258   3.089   9.848 -1.4107 -1.0849  0.7259
 7207SOL    HW233081   3.283   2.944   9.821 -1.0878 -0.9724  1.8509
 7208SOL     OW33082   3.366   1.212   5.049  0.0638  0.4109  0.0500
 7208SOL    HW133083   3.338   1.295   5.012  1.2938  0.8601  0.1447
 7208SOL    HW233084   3.304   1.210   5.122 -0.6601  2.1482 -0.5362
 7209SOL     OW33085   3.203   2.158   3.576  0.2885  0.1329 -0.4348
 7209SOL    HW133086   3.183   2.149   3.482  1.3547 -1.6257 -0.4854
 7209SOL    HW233087   3.137   2.109   3.625  0.3812 -0.5563 -0.9980
 7210SOL     OW33088   0.570   3.293   2.579 -0.3094  0.4445  0.5239
 7210SOL    HW133089   0.521   3.370   2.606  1.1078  1.3620  0.4861
 7210SOL    HW233090   0.564   3.302   2.484 -0.0197 -0.8792  0.3761
 7211SOL     OW33091   0.290   0.630  10.409  0.1695 -0.3098 -0.1720
 7211SOL    HW133092   0.360   0.694  10.395 -1.1573  0.8868 -1.4110
 7211SOL    HW233093   0.334   0.565  10.354  1.3971  0.3212  0.0641
 7212SOL     OW33094   0.357   0.699   3.334 -0.7084  0.2056 -0.1950
 7212SOL    HW133095   0.288   0.753   3.371  0.0722  0.2068  1.2290
 7212SOL    HW233096   0.428   0.761   3.352 -0.0943 -0.0353 -1.7054
 7213SOL     OW33097   0.895   1.815  10.242 -0.2452 -0.1941 -0.2085
 7213SOL    HW133098   0.961   1.883  10.260  0.1482 -0.8120  0.6643
 7213SOL    HW233099   0.820   1.867  10.211 -0.6899 -1.0948 -0.6324
 7214SOL     OW33100   0.450   0.539   3.137 -0.0880 -0.1284  0.4797
 7214SOL    HW133101   0.411   0.584   3.062  0.2410  0.2912  0.5540
 7214SOL    HW233102   0.413   0.593   3.206  0.9194 -0.2568  1.1192
 7215SOL     OW33103   2.244   1.921   8.563  0.1460  0.2789 -0.3899
 7215SOL    HW133104   2.211   1.907   8.652  1.1315 -0.6225 -0.1623
 7215SOL    HW233105   2.249   1.830   8.533 -1.8029 -0.1043  0.4691
 7216SOL     OW33106   3.857   4.308  10.328 -0.2293  0.3954  0.0781
 7216SOL    HW133107   3.868   4.372  10.257  2.6459 -1.1478 -0.8498
 7216SOL    HW233108   3.799   4.241  10.293 -0.7763  0.5738  0.6348
 7217SOL     OW33109   3.486   1.153   8.930 -0.1327 -0.2458  0.1731
 7217SOL    HW133110   3.477   1.236   8.977 -0.2989  1.1280 -2.2773
 7217SOL    HW233111   3.563   1.121   8.977  1.0774  1.3149 -0.7463
 7218SOL     OW33112   0.623   2.362   8.400  0.1625  0.0497 -0.0203
 7218SOL    HW133113   0.550   2.394   8.453  0.5849  0.1271  0.5178
 7218SOL    HW233114   0.674   2.336   8.477 -1.7577 -2.0956  0.5122
 7219SOL     OW33115   3.977   0.141   4.584 -0.0559  0.0761 -0.4099
 7219SOL    HW133116   3.957   0.226   4.546 -1.5026 -0.3994 -0.7291
 7219SOL    HW233117   4.071   0.154   4.598 -0.2804 -0.3745  1.4545
 7220SOL     OW33118   4.536   4.163   8.641  0.0316  0.0483  0.0780
 7220SOL    HW133119   4.501   4.129   8.559  0.6065 -2.5796  0.9355
 7220SOL    HW233120   4.527   4.255   8.617  0.1515 -0.1244 -0.6305
 7221SOL     OW33121   0.652   0.313   9.848 -0.4304  0.0799  0.0455
 7221SOL    HW133122   0.578   0.335   9.791 -1.4033 -0.0275  1.2584
 7221SOL    HW233123   0.723   0.304   9.785 -1.2669  1.7481 -1.1460
 7222SOL     OW33124   2.074   3.706   2.663  0.3939  0.1536 -0.0756
 7222SOL    HW133125   2.105   3.795   2.677 -0.3351  0.1201  1.7035
 7222SOL    HW233126   1.982   3.699   2.690  0.4014 -1.0468 -0.3526
 7223SOL     OW33127   2.300   3.997   7.815  0.1782  0.1651  0.4168
 7223SOL    HW133128   2.325   3.921   7.868  0.9359  1.3560  1.7490
 7223SOL    HW233129   2.381   3.996   7.763  0.6479 -0.3816  1.1593
 7224SOL     OW33130   3.716   3.827   1.323  0.5461 -0.4198 -0.8856
 7224SOL    HW133131   3.709   3.830   1.228 -3.2843 -2.2287 -0.6542
 7224SOL    HW233132   3.763   3.908   1.345 -0.9280 -0.1988  1.5107
 7225SOL     OW33133   3.297   3.279  17.590 -0.5715  0.4093 -0.3910
 7225SOL    HW133134   3.293   3.186  17.614  0.3628  0.3127 -0.5967
 7225SOL    HW233135   3.214   3.307  17.627 -0.4708  1.0051 -0.6283
 7226SOL     OW33136   1.878   4.392  16.316 -0.1494  0.2037  0.3128
 7226SOL    HW133137   1.860   4.385  16.223  0.2541  1.5164  0.1355
 7226SOL    HW233138   1.789   4.407  16.347  0.0991  1.8654  0.2440
 7227SOL     OW33139   4.228   0.269   5.918 -0.3163 -0.5636 -0.2546
 7227SOL    HW133140   4.282   0.196   5.946 -0.1158  0.3312  1.7084
 7227SOL    HW233141   4.161   0.225   5.866 -0.4434  0.2554 -0.7869
 7228SOL     OW33142   2.428   0.459   8.138  0.2599 -0.2215 -0.2866
 7228SOL    HW133143   2.455   0.415   8.218 -0.0114 -0.0899 -0.1225
 7228SOL    HW233144   2.456   0.394   8.074  1.0673 -0.3353  0.1850
 7229SOL     OW33145   3.353   1.342  11.076 -0.2517  0.1616  0.2908
 7229SOL    HW133146   3.275   1.388  11.108 -0.2562 -2.1088  3.5902
 7229SOL    HW233147   3.411   1.354  11.152  1.2178 -2.4126 -0.4105
 7230SOL     OW33148   1.022   4.722   0.665 -0.3026 -0.1624  0.2696
 7230SOL    HW133149   0.994   0.083   0.697  0.1700  0.5389 -1.1675
 7230SOL    HW233150   0.943   4.683   0.627 -1.3196  1.3576  0.8390
 7231SOL     OW33151   4.238   4.589   7.177 -0.3003  0.2588  0.0835
 7231SOL    HW133152   4.318   4.538   7.182  0.1906  0.9077 -1.1448
 7231SOL    HW233153   4.233   4.592   7.082 -0.6594  3.1367  0.1880
 7232SOL     OW33154   4.571   3.176   8.426  0.1544 -0.1228  0.4477
 7232SOL    HW133155   4.647   3.130   8.463  1.5451  1.4772 -0.4250
 7232SOL    HW233156   4.558   3.252   8.482  1.2874 -0.0053  0.5543
 7233SOL     OW33157   3.734   3.420   7.697  0.3181 -0.2481 -0.1466
 7233SOL    HW133158   3.673   3.422   7.623  1.6363 -1.2043 -1.2560
 7233SOL    HW233159   3.688   3.358   7.753 -0.3281  0.7146  0.3935
 7234SOL     OW33160   1.458   4.003   7.735  0.8703  0.0553  0.7647
 7234SOL    HW133161   1.478   3.915   7.767 -0.9722  0.0814  2.0050
 7234SOL    HW233162   1.366   4.013   7.760  0.3233  1.1575 -1.6840
 7235SOL     OW33163   1.928   2.220   6.590  0.0595 -0.2382  0.1431
 7235SOL    HW133164   1.902   2.128   6.602 -1.0191  0.2301  1.4559
 7235SOL    HW233165   1.952   2.244   6.680  0.1424  0.1090  0.0255
 7236SOL     OW33166   2.871   0.890   0.842  0.7775 -0.1746 -0.0186
 7236SOL    HW133167   2.824   0.807   0.848  0.8897 -0.3044 -0.9193
 7236SOL    HW233168   2.792   0.944   0.840  1.5652  1.0683  2.5474
 7237SOL     OW33169   3.537   4.553  13.583  0.6307 -0.7381 -0.3691
 7237SOL    HW133170   3.606   4.548  13.518 -1.2283  1.3412 -2.5137
 7237SOL    HW233171   3.575   4.611  13.649  0.0850 -0.6382 -0.1385
 7238SOL     OW33172   1.088   0.559   7.526  0.0783  0.2422  0.0464
 7238SOL    HW133173   1.179   0.570   7.501  0.1950  0.7688  0.6972
 7238SOL    HW233174   1.083   0.614   7.604 -1.6126 -0.1417  0.2029
 7239SOL     OW33175   0.783   4.148   0.424  0.2605 -0.3854 -0.6772
 7239SOL    HW133176   0.790   4.241   0.400  2.1172 -0.1202  0.8581
 7239SOL    HW233177   0.708   4.148   0.483  1.5994 -0.2619  1.0313
 7240SOL     OW33178   0.926   0.795   9.743 -0.4777 -0.3467  0.1914
 7240SOL    HW133179   0.913   0.782   9.649 -2.3304  0.3504  0.3543
 7240SOL    HW233180   0.857   0.743   9.785  0.2165 -1.8620 -0.5441
 7241SOL     OW33181   0.084   4.294  13.792 -0.4863  0.2563 -0.3216
 7241SOL    HW133182   0.171   4.298  13.751  0.2034 -2.1227  0.9257
 7241SOL    HW233183   0.101   4.333  13.878 -1.5566  1.8277 -0.8319
 7242SOL     OW33184   3.192   2.077   8.075  0.4517  0.4024  0.0514
 7242SOL    HW133185   3.100   2.070   8.103  0.5715 -0.9589  0.0871
 7242SOL    HW233186   3.200   2.161   8.030 -2.3234  1.3038  1.2218
 7243SOL     OW33187   3.101   2.959  12.552  0.4215  0.6666  0.1779
 7243SOL    HW133188   3.146   3.021  12.609 -0.5375  0.2200  1.4036
 7243SOL    HW233189   3.121   2.887  12.611 -2.9314  1.5039  2.3339
 7244SOL     OW33190   1.044   3.003   9.979  0.1043 -0.2662 -0.2317
 7244SOL    HW133191   0.967   3.042  10.021  0.6355 -0.6938  1.1494
 7244SOL    HW233192   1.057   3.058   9.902 -2.3206 -0.9457 -1.1378
 7245SOL     OW33193   0.169   4.712   7.616  0.6582 -0.3063 -0.2904
 7245SOL    HW133194   0.141   0.040   7.541  1.2766  1.2241  0.5288
 7245SOL    HW233195   0.080   4.719   7.651  1.7649 -3.0503  3.0680
 7246SOL     OW33196   1.615   2.715   4.915 -0.2225  0.0311 -0.1423
 7246SOL    HW133197   1.608   2.656   4.990  2.1756  0.9228  0.7581
 7246SOL    HW233198   1.685   2.675   4.864 -0.5338 -1.4576  0.6200
 7247SOL     OW33199   0.703   4.034   5.985 -0.5065  0.5353  0.8499
 7247SOL    HW133200   0.645   3.973   6.031 -2.0514  1.6439  0.3855
 7247SOL    HW233201   0.649   4.062   5.911  0.9182  0.3863 -0.2289
 7248SOL     OW33202   3.868   1.655   8.918  0.2726  0.5535 -0.0126
 7248SOL    HW133203   3.930   1.637   8.848 -1.3871 -1.5271 -0.9360
 7248SOL    HW233204   3.803   1.705   8.870 -1.9539 -2.1265  0.2302
 7249SOL     OW33205   0.244   3.371   0.526 -0.1034 -0.3906  0.3966
 7249SOL    HW133206   0.328   3.409   0.502 -1.5661  1.5678 -1.6420
 7249SOL    HW233207   0.203   3.445   0.572  1.1546  0.2222  0.5161
 7250SOL     OW33208   1.224   0.502   1.877  0.4601 -0.7896 -0.1710
 7250SOL    HW133209   1.159   0.501   1.947 -2.0055  2.5816 -2.3900
 7250SOL    HW233210   1.269   0.586   1.883 -0.9705 -0.0352  0.0745
 7251SOL     OW33211   3.135   4.240  12.407  0.0165 -0.3049  0.1676
 7251SOL    HW133212   3.176   4.327  12.403 -3.2051  0.9906 -4.3323
 7251SOL    HW233213   3.071   4.248  12.338 -1.4501  1.5419  1.7385
 7252SOL     OW33214   2.755   2.473   2.909  0.6893  0.3680 -0.8822
 7252SOL    HW133215   2.683   2.522   2.869 -0.8016 -0.4402  0.8283
 7252SOL    HW233216   2.703   2.411   2.960 -0.0914  0.9124 -1.0142
 7253SOL     OW33217   0.336   4.096  11.912  0.0228  0.0986 -0.2245
 7253SOL    HW133218   0.321   4.171  11.969  0.4808  0.4963 -0.6346
 7253SOL    HW233219   0.348   4.144  11.830  0.5503 -1.8645 -1.2884
 7254SOL     OW33220   0.638   2.633   8.883  0.0059 -0.1304 -0.5537
 7254SOL    HW133221   0.598   2.708   8.839 -0.2893 -1.2356 -2.1440
 7254SOL    HW233222   0.581   2.559   8.861  1.0066 -0.9361 -0.4528
 7255SOL     OW33223   1.422   1.248   2.699  0.1814 -0.3581 -0.7412
 7255SOL    HW133224   1.418   1.152   2.704 -0.7675 -0.1489  2.7862
 7255SOL    HW233225   1.517   1.256   2.693  0.2419  1.6488  3.3234
 7256SOL     OW33226   1.331   3.902   2.599  0.1413 -0.4123 -0.1981
 7256SOL    HW133227   1.236   3.910   2.604  0.1234 -1.2746  0.8421
 7256SOL    HW233228   1.336   3.954   2.518 -1.5898 -3.0027 -1.9388
 7257SOL     OW33229   1.979   4.584   3.373 -0.7258  0.0947  0.5604
 7257SOL    HW133230   1.943   4.662   3.415 -2.3960 -1.2543  1.6129
 7257SOL    HW233231   2.030   4.635   3.309 -1.5797 -1.4325 -1.3610
 7258SOL     OW33232   1.496   0.287   1.403  0.7311 -0.1621 -0.4098
 7258SOL    HW133233   1.437   0.226   1.446 -1.7023  0.6133 -2.6792
 7258SOL    HW233234   1.441   0.340   1.346 -1.2497 -2.5003 -0.6613
 7259SOL     OW33235   2.808   2.655  12.968 -0.8782 -0.2807  0.0752
 7259SOL    HW133236   2.775   2.727  12.915 -1.6458 -1.9055 -1.6614
 7259SOL    HW233237   2.886   2.631  12.920  2.3053  1.6237  4.2950
 7260SOL     OW33238   2.068   2.125   2.477 -0.5145  0.1435 -0.0640
 7260SOL    HW133239   2.084   2.215   2.449 -0.0560  0.1980  0.3589
 7260SOL    HW233240   2.140   2.109   2.539  0.0265  2.0158 -0.2360
 7261SOL     OW33241   0.604   0.104   3.129 -0.2312 -0.0465  0.2990
 7261SOL    HW133242   0.601   0.193   3.096  0.5758 -0.3132 -0.4628
 7261SOL    HW233243   0.672   0.112   3.196 -0.5007 -1.5948  0.7597
 7262SOL     OW33244   1.457   0.130   3.737  0.2273  0.6871  0.0965
 7262SOL    HW133245   1.430   0.195   3.673 -0.1052  0.2672 -0.1891
 7262SOL    HW233246   1.499   0.183   3.804  0.7449  0.2823  0.0939
 7263SOL     OW33247   4.410   4.389   6.190  0.0419  0.0031  0.4098
 7263SOL    HW133248   4.493   4.342   6.199  2.3104  3.7930 -0.5376
 7263SOL    HW233249   4.369   4.338   6.121  1.1316 -1.1461  0.6072
 7264SOL     OW33250   4.471   0.629   7.189 -0.0422  0.2059 -0.0161
 7264SOL    HW133251   4.390   0.596   7.150 -0.9378  1.6989  0.5640
 7264SOL    HW233252   4.485   0.697   7.123 -1.9570 -1.5038 -2.1921
 7265SOL     OW33253   1.074   3.548  10.895 -0.3715 -0.0541  0.3621
 7265SOL    HW133254   1.059   3.640  10.871 -0.4716  0.0046  0.6505
 7265SOL    HW233255   0.989   3.541  10.938 -2.0425 -0.1590 -2.9326
 7266SOL     OW33256   4.504   1.946   1.983 -0.3414  0.2398  0.3531
 7266SOL    HW133257   4.425   1.906   2.018 -0.0743 -1.2933 -0.7991
 7266SOL    HW233258   4.523   2.015   2.047  1.2017 -1.0450  1.2903
 7267SOL     OW33259   0.814   4.514   8.517 -0.3749 -0.5230 -0.4381
 7267SOL    HW133260   0.810   4.589   8.576  0.4318 -0.2446 -0.7397
 7267SOL    HW233261   0.892   4.460   8.532 -3.2206 -4.5343 -0.0426
 7268SOL     OW33262   2.557   2.274   1.874 -0.6692 -1.3213  0.1991
 7268SOL    HW133263   2.645   2.237   1.880 -0.4976 -0.7814  0.9214
 7268SOL    HW233264   2.563   2.352   1.819  1.0742 -1.1307  0.6558
 7269SOL     OW33265   0.184   4.169   8.271 -0.4204  0.5963 -0.5978
 7269SOL    HW133266   0.241   4.223   8.325 -0.5592  0.1475 -0.0000
 7269SOL    HW233267   0.164   4.102   8.336 -0.8821 -0.3525 -1.6995
 7270SOL     OW33268   4.153   4.373  15.104  0.1613 -0.2431 -0.3947
 7270SOL    HW133269   4.087   4.412  15.048 -0.0730  1.1420  0.8580
 7270SOL    HW233270   4.230   4.429  15.095 -0.5080  0.8493  0.8444
 7271SOL     OW33271   0.113   0.496   5.687 -0.0808 -0.1157 -0.0463
 7271SOL    HW133272   0.142   0.570   5.742  0.8899 -0.7034  0.2382
 7271SOL    HW233273   0.031   0.524   5.647 -0.5631 -0.6046  0.5957
 7272SOL     OW33274   3.986   0.929  17.157  0.4855 -0.0680 -0.0131
 7272SOL    HW133275   3.923   0.914  17.086 -0.3443 -1.5179  1.0005
 7272SOL    HW233276   4.038   0.851  17.140  1.4173  0.6355 -0.3569
 7273SOL     OW33277   3.921   3.260   7.591 -0.1672 -0.3086  0.6587
 7273SOL    HW133278   3.969   3.341   7.573  0.1906 -0.3005  1.7000
 7273SOL    HW233279   3.860   3.297   7.655  1.2242  0.7091  1.3722
 7274SOL     OW33280   2.325   4.083   5.397 -0.1528 -0.4926  0.2681
 7274SOL    HW133281   2.342   3.990   5.384  1.5465 -0.4011  1.8097
 7274SOL    HW233282   2.253   4.072   5.459 -0.5504 -1.8772 -0.4295
 7275SOL     OW33283   0.510   4.575   7.379 -0.0587 -0.3539 -0.0652
 7275SOL    HW133284   0.520   4.510   7.449  2.6168  1.7184  1.4887
 7275SOL    HW233285   0.597   4.615   7.373  0.3871 -1.2108  0.7056
 7276SOL     OW33286   1.348   3.114   0.567  0.8775 -0.1267 -0.0547
 7276SOL    HW133287   1.443   3.112   0.559  0.8237  0.0612 -0.7355
 7276SOL    HW233288   1.318   3.136   0.479  1.2510  1.5925  0.2512
 7277SOL     OW33289   1.013   3.974   4.939 -0.9299  0.3634  0.0044
 7277SOL    HW133290   0.918   3.984   4.943 -1.1530 -1.6909 -0.2138
 7277SOL    HW233291   1.018   3.939   4.851 -4.0312  1.6019 -0.6492
 7278SOL     OW33292   1.224   1.864  14.378  0.2119  0.3380 -0.1058
 7278SOL    HW133293   1.156   1.928  14.357  0.3388  0.8689  1.1087
 7278SOL    HW233294   1.250   1.883  14.468  0.6547  0.2300 -0.2086
 7279SOL     OW33295   0.611   2.605  15.180 -0.2000 -0.5400  0.2571
 7279SOL    HW133296   0.631   2.513  15.166  1.1455 -0.1726 -0.2186
 7279SOL    HW233297   0.540   2.598  15.116 -1.9173  3.2274  1.6989
 7280SOL     OW33298   0.031   4.353   7.491  0.5771 -0.3768  0.3548
 7280SOL    HW133299   0.038   4.372   7.584  0.4857 -1.8105  0.6478
 7280SOL    HW233300   0.123   4.368   7.466 -0.3204  2.3503 -1.3642
 7281SOL     OW33301   2.744   3.649   8.067  0.4580  0.0969  0.6655
 7281SOL    HW133302   2.807   3.700   8.016  2.1189  1.6941  4.3175
 7281SOL    HW233303   2.706   3.590   8.002 -0.4924 -1.6993  2.8516
 7282SOL     OW33304   2.262   1.385   9.461  0.7689  0.8648  0.0170
 7282SOL    HW133305   2.187   1.436   9.430 -1.0974 -1.4206  0.8178
 7282SOL    HW233306   2.256   1.398   9.556  0.4221 -0.7667  0.2123
 7283SOL     OW33307   2.279   1.265  17.497  0.6712  0.1888 -0.2955
 7283SOL    HW133308   2.213   1.218  17.549 -0.0425 -0.1947 -1.5434
 7283SOL    HW233309   2.279   1.219  17.413  3.7373  1.9255 -1.2378
 7284SOL     OW33310   3.578   2.617  15.947  0.6509 -0.1145  0.3488
 7284SOL    HW133311   3.605   2.598  15.857 -1.2451 -0.0359 -0.2365
 7284SOL    HW233312   3.640   2.684  15.977  1.7564 -0.6513 -0.7154
 7285SOL     OW33313   0.768   0.969   4.147  0.2046  0.3643  0.0120
 7285SOL    HW133314   0.742   0.898   4.088 -2.1457 -0.4233  1.9547
 7285SOL    HW233315   0.854   0.997   4.118  0.9120 -1.5647  0.2113
 7286SOL     OW33316   3.601   0.560  12.994 -0.3193 -0.0692  0.0317
 7286SOL    HW133317   3.521   0.591  13.036 -0.0466 -0.2760  0.7092
 7286SOL    HW233318   3.621   0.640  12.947  0.7677  1.2896  2.8053
 7287SOL     OW33319   3.402   3.928   1.097 -0.0335 -0.0252  0.2712
 7287SOL    HW133320   3.362   3.849   1.059  0.3468  0.8102 -1.8429
 7287SOL    HW233321   3.490   3.893   1.111 -0.7538 -1.1519  2.0566
 7288SOL     OW33322   3.815   1.739   2.946  0.3254 -0.3689  0.0948
 7288SOL    HW133323   3.853   1.757   2.860  1.2739  2.1455  1.0560
 7288SOL    HW233324   3.722   1.723   2.930  0.5276 -0.7004 -0.7679
 7289SOL     OW33325   1.712   0.131   6.870  0.0465  0.0801  0.3163
 7289SOL    HW133326   1.706   0.043   6.907 -1.4146 -0.3363 -0.8997
 7289SOL    HW233327   1.623   0.164   6.864  0.7591  1.8171 -0.7575
 7290SOL     OW33328   0.589   3.327  14.060 -0.1180 -0.2950  0.0514
 7290SOL    HW133329   0.552   3.277  14.133  0.1802 -0.4148  0.1189
 7290SOL    HW233330   0.675   3.336  14.100  0.4228 -0.9341 -0.9627
 7291SOL     OW33331   3.470   3.490   1.467 -0.4438  0.0965 -0.4509
 7291SOL    HW133332   3.489   3.482   1.373  2.0885  0.3247  0.0463
 7291SOL    HW233333   3.413   3.567   1.463  0.2179  0.5822 -0.3290
 7292SOL     OW33334   2.088   1.238   7.899 -0.2804  0.3287 -0.0539
 7292SOL    HW133335   2.023   1.194   7.953 -1.6885  1.4973 -0.7820
 7292SOL    HW233336   2.112   1.307   7.961 -1.7741  1.7829 -1.0811
 7293SOL     OW33337   4.367   0.904   5.485  0.4237 -0.4880  0.0589
 7293SOL    HW133338   4.344   0.834   5.546 -0.8371 -0.6878 -0.6422
 7293SOL    HW233339   4.308   0.966   5.528  0.8239 -1.0114  1.3632
 7294SOL     OW33340   2.506   2.592   9.310 -0.5282 -0.1776  0.1502
 7294SOL    HW133341   2.521   2.577   9.403  0.2365 -0.1563  0.0345
 7294SOL    HW233342   2.564   2.666   9.289 -0.6559  0.3238  1.5582
 7295SOL     OW33343   0.599   3.435   1.975 -0.8327 -0.1338 -0.0464
 7295SOL    HW133344   0.559   3.354   1.943  1.1019 -1.5087  1.0480
 7295SOL    HW233345   0.524   3.495   1.976  0.9734  2.1367 -1.7125
 7296SOL     OW33346   2.482   1.480   9.319 -0.3133  0.7906  0.4537
 7296SOL    HW133347   2.417   1.441   9.378  0.9527  0.6388  1.7619
 7296SOL    HW233348   2.428   1.549   9.282  0.7489  0.8831 -0.9159
 7297SOL     OW33349   4.541   0.007   0.100 -0.3023  0.2177 -0.0377
 7297SOL    HW133350   4.615   0.031   0.156 -0.1305  0.4068 -0.3498
 7297SOL    HW233351   4.495   4.660   0.147  0.7995  0.4026  1.3419
 7298SOL     OW33352   0.351   4.580  17.280  0.6374  0.2497 -0.1019
 7298SOL    HW133353   0.369   4.604  17.189  2.1016  0.5444  0.2678
 7298SOL    HW233354   0.269   4.627  17.296  1.3193  0.7643  1.8070
 7299SOL     OW33355   0.400   3.632   3.636  0.1297 -0.2320 -0.6374
 7299SOL    HW133356   0.376   3.698   3.701  0.5050  0.9456 -1.6992
 7299SOL    HW233357   0.423   3.678   3.556  0.0754  1.5044  0.3517
 7300SOL     OW33358   3.792   3.451   9.283 -0.2608 -0.7823  0.6437
 7300SOL    HW133359   3.835   3.370   9.311  2.0159 -0.0423 -0.6791
 7300SOL    HW233360   3.809   3.507   9.358 -3.5867 -0.2183  0.9745
 7301SOL     OW33361   3.423   0.019  14.422 -0.3513 -0.3976  0.0901
 7301SOL    HW133362   3.373   0.101  14.420 -0.6601 -0.5496  1.9414
 7301SOL    HW233363   3.361   4.684  14.379  0.0888  1.0656 -2.5806
 7302SOL     OW33364   0.635   0.029  13.058 -0.8201 -0.4866 -0.2848
 7302SOL    HW133365   0.573   0.062  12.993 -0.3566 -2.9056 -1.9531
 7302SOL    HW233366   0.583   4.685  13.102 -1.2866 -0.2545 -0.4685
 7303SOL     OW33367   0.344   3.492  17.447  0.0115  0.1811  0.0646
 7303SOL    HW133368   0.373   3.420  17.391 -1.0989 -0.2151 -0.0008
 7303SOL    HW233369   0.356   3.455  17.535  1.6113 -1.6828 -0.9473
 7304SOL     OW33370   4.579   2.994   7.505  0.3165  0.1512 -0.3282
 7304SOL    HW133371   4.511   3.054   7.475 -0.1430 -0.6343 -0.8802
 7304SOL    HW233372   4.551   2.915   7.459 -1.2604  0.7761 -0.4298
 7305SOL     OW33373   0.902   3.718   4.146 -0.5609  0.2073 -0.0646
 7305SOL    HW133374   0.943   3.804   4.157 -0.7454  0.3007 -0.0985
 7305SOL    HW233375   0.845   3.731   4.222 -0.5454 -0.8604  0.1227
 7306SOL     OW33376   0.182   3.400   4.282  0.0706  0.2264  0.2988
 7306SOL    HW133377   0.095   3.389   4.321 -0.7079  1.6419 -0.9954
 7306SOL    HW233378   0.235   3.335   4.328 -2.9040 -1.3145  1.5404
 7307SOL     OW33379   4.342   1.847   4.988  0.4672  0.1025 -0.0515
 7307SOL    HW133380   4.353   1.753   5.000  2.0350  0.2664 -0.1725
 7307SOL    HW233381   4.366   1.857   4.896  1.4920 -1.8479  0.0100
 7308SOL     OW33382   2.782   0.270   6.222  0.4445 -0.3155  1.0547
 7308SOL    HW133383   2.794   0.352   6.270 -1.3784 -0.1968  1.3218
 7308SOL    HW233384   2.868   0.233   6.244  0.8590 -0.7612 -1.3233
 7309SOL     OW33385   3.992   0.098   7.920 -0.1485  0.3090 -0.1174
 7309SOL    HW133386   4.086   0.100   7.939  0.0416 -0.6965 -0.9157
 7309SOL    HW233387   3.970   0.183   7.958  0.0871  0.3913 -0.1657
 7310SOL     OW33388   2.061   0.178   1.627  0.2706 -0.5012 -0.9224
 7310SOL    HW133389   1.987   0.175   1.567 -0.1539 -1.1487 -0.3660
 7310SOL    HW233390   2.095   0.267   1.616 -0.8718  0.3059  2.2178
 7311SOL     OW33391   3.197   3.240   2.046  0.0665 -0.6424  0.2170
 7311SOL    HW133392   3.148   3.282   2.117 -0.7303 -1.5646  0.2118
 7311SOL    HW233393   3.228   3.157   2.081  1.0759 -0.7757 -1.0139
 7312SOL     OW33394   1.137   2.421   6.388 -0.2982  0.3287 -0.0018
 7312SOL    HW133395   1.077   2.474   6.336  2.1890  1.0786 -2.1397
 7312SOL    HW233396   1.146   2.482   6.461 -0.3633  0.7251 -0.3249
 7313SOL     OW33397   3.292   2.318   6.196 -0.2511  0.1943  0.3632
 7313SOL    HW133398   3.360   2.299   6.261 -0.3374  0.9231  0.6667
 7313SOL    HW233399   3.321   2.250   6.135  2.5818 -1.9649  4.1395
 7314SOL     OW33400   4.710   0.693  10.227 -0.2069  0.6239 -0.5822
 7314SOL    HW133401   0.074   0.716  10.258 -0.3739  1.5499 -0.7867
 7314SOL    HW233402   4.661   0.776  10.235  0.3114  0.7558  1.1938
 7315SOL     OW33403   3.586   3.471   9.742 -0.5413 -0.9886  0.5760
 7315SOL    HW133404   3.638   3.528   9.799 -0.1108 -1.5762  0.7734
 7315SOL    HW233405   3.571   3.537   9.675  1.6896 -0.9323  0.1342
 7316SOL     OW33406   2.351   0.925   8.239  0.0722 -0.1874  0.1503
 7316SOL    HW133407   2.386   1.011   8.217  1.8087 -0.2663  2.6182
 7316SOL    HW233408   2.396   0.866   8.179  1.6256 -2.4168  3.5223
 7317SOL     OW33409   1.784   3.401   6.877  0.0111 -0.0986  0.1517
 7317SOL    HW133410   1.831   3.328   6.916 -1.2387 -1.2816 -0.5518
 7317SOL    HW233411   1.698   3.391   6.918 -0.4764  1.6929 -0.4080
 7318SOL     OW33412   2.387   4.121  10.878 -0.1969 -0.4817  0.4348
 7318SOL    HW133413   2.309   4.082  10.916 -1.9899  2.2041 -0.5177
 7318SOL    HW233414   2.413   4.060  10.810 -2.2013  0.3216 -1.0224
 7319SOL     OW33415   2.891   3.740   2.267 -0.4194 -0.2265  0.3335
 7319SOL    HW133416   2.806   3.721   2.306  0.7059 -1.3226  2.3031
 7319SOL    HW233417   2.878   3.815   2.210  2.1689 -0.0441 -0.0325
 7320SOL     OW33418   2.500   1.865   5.046  0.6531  0.1893  0.5640
 7320SOL    HW133419   2.429   1.823   5.096  1.1842 -1.0652  0.2708
 7320SOL    HW233420   2.528   1.927   5.113  1.5805 -0.4629  0.7905
 7321SOL     OW33421   3.749   2.181   9.621  0.1576 -0.3518  0.4768
 7321SOL    HW133422   3.689   2.134   9.679  0.9425 -0.9849  0.7676
 7321SOL    HW233423   3.729   2.271   9.647 -1.7696 -0.4885 -0.5079
 7322SOL     OW33424   2.706   0.855   2.526  0.2320  0.2506 -0.1553
 7322SOL    HW133425   2.764   0.784   2.553 -0.3670  0.5257  1.7933
 7322SOL    HW233426   2.643   0.811   2.468  1.1912 -0.7728 -0.4326
 7323SOL     OW33427   3.891   3.744  13.322  0.2842 -0.4701  0.6191
 7323SOL    HW133428   3.901   3.720  13.230  0.4935 -0.5766  0.6682
 7323SOL    HW233429   3.815   3.696  13.353  0.3931 -1.4650 -0.6594
 7324SOL     OW33430   2.048   3.398   7.375 -0.1017  0.9485  0.5595
 7324SOL    HW133431   2.059   3.484   7.335  0.7876  0.4010 -0.3947
 7324SOL    HW233432   2.063   3.410   7.469  1.4409  0.6576  0.3470
 7325SOL     OW33433   3.344   3.323   7.832 -0.0612 -0.3879 -0.1118
 7325SOL    HW133434   3.411   3.391   7.844  0.8403 -0.7783 -2.9559
 7325SOL    HW233435   3.263   3.371   7.850  0.0669  1.0177 -3.1648
 7326SOL     OW33436   3.028   0.236   6.284  0.3392  0.1213 -0.2601
 7326SOL    HW133437   3.040   0.187   6.366 -0.3640 -0.8100 -0.7116
 7326SOL    HW233438   3.070   0.317   6.311  2.1396 -0.3293 -1.6874
 7327SOL     OW33439   3.132   3.633   5.038  0.6150 -0.1300  0.1001
 7327SOL    HW133440   3.098   3.722   5.035  1.5073  0.0946 -2.5853
 7327SOL    HW233441   3.055   3.586   5.007  2.1162 -2.7809  0.3861
 7328SOL     OW33442   0.449   2.230  10.951  0.2045  0.2114  0.2692
 7328SOL    HW133443   0.474   2.227  11.044 -0.8630 -1.0726  0.5093
 7328SOL    HW233444   0.538   2.227  10.915  0.8571  0.9511  1.7825
 7329SOL     OW33445   0.217   3.905  11.326  0.1801  0.2037 -0.2864
 7329SOL    HW133446   0.185   3.950  11.404 -1.0084 -0.5695 -0.3295
 7329SOL    HW233447   0.165   3.825  11.326  1.0570 -0.3637 -1.9629
 7330SOL     OW33448   2.641   3.305   7.083 -0.2901 -0.2716 -0.1134
 7330SOL    HW133449   2.598   3.227   7.117  2.4183 -1.0409  1.5644
 7330SOL    HW233450   2.698   3.326   7.158  0.1568 -2.4639  0.1442
 7331SOL     OW33451   3.465   2.111   3.025 -0.2759 -0.0765  0.3467
 7331SOL    HW133452   3.430   2.047   3.088  0.4688  0.0881  0.9234
 7331SOL    HW233453   3.546   2.064   3.003 -0.6034 -0.5193  0.0800
 7332SOL     OW33454   2.716   1.371   6.121  0.0731 -0.7592  0.4002
 7332SOL    HW133455   2.794   1.422   6.147 -1.2360  0.8795  1.1260
 7332SOL    HW233456   2.700   1.314   6.196 -0.4881 -0.7041  0.3194
 7333SOL     OW33457   3.666   1.313   2.779  0.2425 -0.2869 -0.2545
 7333SOL    HW133458   3.662   1.366   2.858 -1.6464 -1.3940  0.4009
 7333SOL    HW233459   3.601   1.351   2.719 -1.3455 -1.1294  0.9573
 7334SOL     OW33460   3.872   3.924   5.318 -0.0158 -0.5157  0.3651
 7334SOL    HW133461   3.783   3.891   5.331 -0.6484  0.8123 -0.5335
 7334SOL    HW233462   3.848   3.974   5.239  0.4006  0.8039  1.0817
 7335SOL     OW33463   2.457   2.118   9.806  0.2767 -0.1841  0.1343
 7335SOL    HW133464   2.530   2.168   9.842 -0.2576  1.4774 -1.0855
 7335SOL    HW233465   2.422   2.189   9.752 -1.0860 -1.6454 -0.8799
 7336SOL     OW33466   3.068   4.643   7.646 -0.8155 -0.5182 -0.1829
 7336SOL    HW133467   3.000   4.581   7.674 -0.6902 -0.0754  1.1317
 7336SOL    HW233468   3.041   4.683   7.564  0.0472 -1.3231 -0.8604
 7337SOL     OW33469   0.859   3.316  14.222  0.2630 -0.0020 -0.3053
 7337SOL    HW133470   0.883   3.244  14.164 -1.0334 -1.6429  1.2023
 7337SOL    HW233471   0.855   3.267  14.304  0.5494  2.7541  1.3728
 7338SOL     OW33472   1.503   3.779   0.402  0.0640  0.1274  0.3441
 7338SOL    HW133473   1.568   3.785   0.472  0.5455 -1.3206  0.0110
 7338SOL    HW233474   1.559   3.792   0.326 -0.5588  1.3187  0.0812
 7339SOL     OW33475   2.238   3.503   6.798 -0.0712 -0.5483  0.2358
 7339SOL    HW133476   2.157   3.459   6.823 -0.8086 -1.5517 -3.9072
 7339SOL    HW233477   2.225   3.597   6.786  1.8070 -0.1653  1.2814
 7340SOL     OW33478   3.459   2.202   3.626  0.1127  0.3663 -0.1098
 7340SOL    HW133479   3.445   2.292   3.655  0.9181  0.7307 -0.8461
 7340SOL    HW233480   3.370   2.181   3.597  0.1809 -0.4756  0.2862
 7341SOL     OW33481   4.395   0.934   5.199  0.0367 -0.0990  0.2095
 7341SOL    HW133482   4.326   0.970   5.255 -1.4637 -0.2342 -1.5616
 7341SOL    HW233483   4.400   0.847   5.239 -2.5927 -0.3752 -0.0930
 7342SOL     OW33484   4.051   3.354   2.922 -0.5114  0.0614  0.0859
 7342SOL    HW133485   3.968   3.356   2.970  0.5845 -0.2487  2.0221
 7342SOL    HW233486   4.069   3.439   2.882 -1.7705  1.4121  2.3185
 7343SOL     OW33487   1.093   1.710   3.902  0.1691  0.2661 -0.1317
 7343SOL    HW133488   1.136   1.770   3.841  0.0093 -2.3450 -2.8134
 7343SOL    HW233489   1.045   1.650   3.845 -0.0511  1.0950 -0.8168
 7344SOL     OW33490   0.179   2.622  14.677 -0.0839  0.3042  0.3255
 7344SOL    HW133491   0.191   2.716  14.665 -1.8467  0.4862  0.0270
 7344SOL    HW233492   0.096   2.619  14.724  0.2715 -2.9177  0.7023
 7345SOL     OW33493   2.885   3.090   5.495  0.0105 -0.1412 -0.4053
 7345SOL    HW133494   2.935   3.094   5.414  1.0414  0.5460  0.2697
 7345SOL    HW233495   2.838   3.007   5.503 -1.9410  1.1685  1.8374
 7346SOL     OW33496   0.444   3.008  17.442  0.2478 -0.0289  0.5873
 7346SOL    HW133497   0.511   2.968  17.497  0.7295 -1.7077 -1.2244
 7346SOL    HW233498   0.402   2.926  17.417 -0.1243  0.0172  1.0499
 7347SOL     OW33499   0.264   2.837   0.431  0.3066  0.3170  0.0974
 7347SOL    HW133500   0.325   2.841   0.505  1.5958 -3.1014 -0.7843
 7347SOL    HW233501   0.196   2.781   0.467 -0.8590  1.3514 -0.4870
 7348SOL     OW33502   1.571   4.613   4.790  0.2146 -0.7136 -0.8420
 7348SOL    HW133503   1.665   4.604   4.775  0.5237 -0.2941  0.8132
 7348SOL    HW233504   1.536   4.609   4.701 -0.2472 -0.7203 -0.6566
 7349SOL     OW33505   1.573   3.051   7.940 -0.2607  0.7202 -0.1614
 7349SOL    HW133506   1.559   3.142   7.964 -0.0954  0.1693  2.0129
 7349SOL    HW233507   1.545   3.002   8.017  0.6162  2.2182  1.0964
 7350SOL     OW33508   1.576   2.382   5.599 -0.2981  0.0678 -0.1073
 7350SOL    HW133509   1.584   2.332   5.518  1.4750 -0.5099  0.4262
 7350SOL    HW233510   1.656   2.355   5.645 -0.8865  0.5468  1.1957
 7351SOL     OW33511   3.541   4.722   1.741  0.0599  0.3463 -0.5363
 7351SOL    HW133512   3.494   0.033   1.665 -0.5408  1.0531  0.1714
 7351SOL    HW233513   3.469   4.704   1.801 -0.3021  1.0637 -0.7573
 7352SOL     OW33514   0.510   2.833   7.276  0.1434  0.0513 -0.0056
 7352SOL    HW133515   0.475   2.747   7.250 -1.3810  1.2110 -1.7624
 7352SOL    HW233516   0.470   2.848   7.362  1.2570  1.0652  0.3367
 7353SOL     OW33517   4.005   0.043  13.394  0.4925 -0.2924  0.0900
 7353SOL    HW133518   3.981   0.133  13.417 -2.4652 -0.6890 -1.5069
 7353SOL    HW233519   4.049   0.058  13.310 -2.2280 -0.8642 -1.4310
 7354SOL     OW33520   3.392   4.592   7.122 -0.0885  0.8949  0.5150
 7354SOL    HW133521   3.465   4.530   7.124 -2.4212 -1.8546 -0.1472
 7354SOL    HW233522   3.427   4.650   7.055 -0.6451 -1.0784 -1.4845
 7355SOL     OW33523   1.309   1.925   0.724  0.9404 -0.2179  0.3202
 7355SOL    HW133524   1.341   1.866   0.655  1.6028 -0.3218  0.7116
 7355SOL    HW233525   1.309   2.007   0.676 -0.7850  0.6156  1.7549
 7356SOL     OW33526   3.688   2.524  16.551  0.3737  0.0279  0.5765
 7356SOL    HW133527   3.762   2.469  16.526 -0.8043 -1.5648  0.5887
 7356SOL    HW233528   3.727   2.568  16.627  0.1267 -1.0805  1.3470
 7357SOL     OW33529   3.326   1.999   8.289  0.3900 -0.0141 -0.6089
 7357SOL    HW133530   3.273   2.004   8.209 -2.5213 -2.3319  1.1691
 7357SOL    HW233531   3.404   1.970   8.242 -0.7577 -0.7982 -2.0482
 7358SOL     OW33532   1.615   3.774   6.024  0.2016  0.3593 -0.2146
 7358SOL    HW133533   1.642   3.708   5.960 -0.0513  0.1158 -0.0649
 7358SOL    HW233534   1.684   3.754   6.087  0.7212 -0.5052 -1.0549
 7359SOL     OW33535   1.955   4.047   0.754 -0.5344  0.3381 -0.0366
 7359SOL    HW133536   1.983   4.094   0.833 -1.2122  0.5271  0.0867
 7359SOL    HW233537   1.922   3.967   0.793  0.8828 -0.3534 -0.2530
 7360SOL     OW33538   2.755   0.094   5.550 -0.0063 -0.4953 -0.3169
 7360SOL    HW133539   2.663   0.071   5.563 -0.3674 -0.1259 -2.2508
 7360SOL    HW233540   2.736   0.176   5.504  0.2039 -0.7998 -0.9517
 7361SOL     OW33541   3.377   2.907  11.771 -0.3450 -0.0047  0.5048
 7361SOL    HW133542   3.352   2.867  11.688 -0.3738  0.0508  0.4865
 7361SOL    HW233543   3.414   2.834  11.821  1.5888  0.6236  0.0136
 7362SOL     OW33544   3.777   4.332  13.624 -0.1395  0.5800 -0.5234
 7362SOL    HW133545   3.792   4.397  13.693 -0.5309  1.7568 -1.5443
 7362SOL    HW233546   3.807   4.247  13.655 -0.2061  1.6442  2.4568
 7363SOL     OW33547   4.419   2.500   6.259 -0.1805 -0.6635  0.5611
 7363SOL    HW133548   4.384   2.583   6.228 -2.0590 -2.3606 -1.8377
 7363SOL    HW233549   4.354   2.465   6.320 -1.0920 -0.1908 -0.1516
 7364SOL     OW33550   2.901   0.120   0.375  0.4062 -0.2327 -0.0229
 7364SOL    HW133551   2.856   0.117   0.459 -1.0155 -0.5572 -0.7875
 7364SOL    HW233552   2.994   0.136   0.389  0.5627 -1.4330  0.2726
 7365SOL     OW33553   0.678   2.998   6.010  0.2045  0.3933  0.5038
 7365SOL    HW133554   0.652   3.022   6.099  0.9733 -2.4537  1.4920
 7365SOL    HW233555   0.590   2.996   5.972 -0.5657 -1.5364  2.3743
 7366SOL     OW33556   1.886   3.928   9.888  0.1846  0.3625  0.1931
 7366SOL    HW133557   1.838   3.869   9.831  1.6396  0.1525 -0.8319
 7366SOL    HW233558   1.952   3.959   9.825  1.3327  1.7511  2.0649
 7367SOL     OW33559   2.197   1.624  13.424  0.3291  0.2895 -0.4249
 7367SOL    HW133560   2.171   1.532  13.428 -2.0616  1.1036  2.5771
 7367SOL    HW233561   2.125   1.660  13.373  0.7636 -0.1574 -1.3405
 7368SOL     OW33562   4.535   1.987   9.139 -0.4367  0.3414 -0.2787
 7368SOL    HW133563   4.475   2.050   9.097 -1.0470 -1.6563 -2.4012
 7368SOL    HW233564   4.469   1.922   9.163  0.2094  0.0323  0.6362
 7369SOL     OW33565   1.742   1.380   8.050 -0.0703 -0.8115 -1.0100
 7369SOL    HW133566   1.649   1.368   8.070 -0.3837 -1.9956 -3.2399
 7369SOL    HW233567   1.754   1.471   8.079  2.3633 -2.4632  3.2132
 7370SOL     OW33568   1.721   2.658   0.981  0.3061  0.0101  0.7540
 7370SOL    HW133569   1.770   2.597   0.926 -2.0414  0.1527 -1.4744
 7370SOL    HW233570   1.784   2.724   1.008 -2.1171  1.8601  1.8343
 7371SOL     OW33571   3.964   1.349  12.036 -0.6426  0.2250  0.6179
 7371SOL    HW133572   4.034   1.311  12.089 -0.3240 -1.4256 -0.9756
 7371SOL    HW233573   3.977   1.443  12.041  0.6663 -0.0087  1.3854
 7372SOL     OW33574   4.655   1.924  16.186 -0.4430  0.0744  0.1411
 7372SOL    HW133575   4.661   2.020  16.190  2.1289  0.0230 -2.7143
 7372SOL    HW233576   0.020   1.896  16.203 -0.8008 -0.1030  1.7179
 7373SOL     OW33577   0.095   4.632  11.926 -0.1249  0.1654 -0.8091
 7373SOL    HW133578   0.047   4.557  11.960 -1.5952  2.2603  1.7886
 7373SOL    HW233579   0.032   4.701  11.945  0.2978 -0.0804  1.4994
 7374SOL     OW33580   1.224   1.997   4.436  0.1217 -0.5824  0.4165
 7374SOL    HW133581   1.239   1.917   4.486  1.4367 -0.6810 -0.1273
 7374SOL    HW233582   1.309   2.020   4.398 -0.1806 -0.5998 -0.2675
 7375SOL     OW33583   2.348   4.538   4.568 -0.0648 -0.7904  0.2594
 7375SOL    HW133584   2.334   4.560   4.660 -0.3004 -0.0949  0.0568
 7375SOL    HW233585   2.422   4.477   4.570  0.4159 -0.2168 -0.0849
 7376SOL     OW33586   3.227   3.624   1.154 -0.2859 -0.2673  0.1927
 7376SOL    HW133587   3.295   3.562   1.129 -0.2782 -0.3462  0.4103
 7376SOL    HW233588   3.220   3.677   1.074  1.6651  0.3045  0.4178
 7377SOL     OW33589   0.951   0.465   4.971  0.4748  0.2176  0.8657
 7377SOL    HW133590   1.018   0.524   5.006  0.5161 -0.7638  2.4354
 7377SOL    HW233591   1.000   0.418   4.904  1.5223 -1.4876  2.8184
 7378SOL     OW33592   1.355   2.728   1.569  0.2607  0.1092 -0.0659
 7378SOL    HW133593   1.360   2.710   1.663 -0.0822  1.0564  0.1395
 7378SOL    HW233594   1.312   2.814   1.568  0.1220  0.0413  0.2515
 7379SOL     OW33595   0.952   0.711  16.513 -0.0780  0.7281 -0.0458
 7379SOL    HW133596   0.872   0.706  16.564  0.8844 -1.6081  1.2422
 7379SOL    HW233597   0.918   0.712  16.423 -0.7012 -2.2443  0.1504
 7380SOL     OW33598   3.636   4.673   0.168  0.4638 -0.1362  0.3576
 7380SOL    HW133599   3.688   4.598   0.197 -2.1710 -1.5014  1.5144
 7380SOL    HW233600   3.668   0.020   0.224 -0.5546 -0.9959  2.0152
 7381SOL     OW33601   1.991   2.550  11.382 -0.5981 -0.4913 -0.1068
 7381SOL    HW133602   2.063   2.610  11.361 -1.5028  0.5601 -0.2155
 7381SOL    HW233603   1.927   2.564  11.312  0.9082 -0.0526 -1.3919
 7382SOL     OW33604   2.440   2.947   9.304 -0.1235  0.0120  0.1260
 7382SOL    HW133605   2.484   3.028   9.328  3.6035 -2.1043  0.4919
 7382SOL    HW233606   2.518   2.891   9.309 -0.4700 -0.5106 -0.3625
 7383SOL     OW33607   0.961   1.623  14.683 -0.5187  0.3370 -0.0510
 7383SOL    HW133608   1.005   1.574  14.614 -1.9369 -1.7406  0.5196
 7383SOL    HW233609   1.001   1.709  14.671 -0.9495  0.1324 -3.0097
 7384SOL     OW33610   3.174   2.287   7.911  0.0039 -0.3029 -0.3383
 7384SOL    HW133611   3.104   2.352   7.908  0.4596  0.2660  1.2564
 7384SOL    HW233612   3.239   2.311   7.846 -0.5543  0.1347 -0.7336
 7385SOL     OW33613   0.335   0.182   6.293 -0.3485 -0.4885  0.0983
 7385SOL    HW133614   0.390   0.137   6.229 -1.6097 -1.6891 -0.1360
 7385SOL    HW233615   0.297   0.259   6.251  1.2172  0.4139  0.3368
 7386SOL     OW33616   4.199   1.077   9.561  0.2922  0.5919 -0.7258
 7386SOL    HW133617   4.185   1.050   9.652  0.0542 -1.1521 -1.2812
 7386SOL    HW233618   4.141   1.016   9.516  0.4741 -0.6679  0.7502
 7387SOL     OW33619   1.416   3.278   0.307 -0.0998 -0.0813 -0.1493
 7387SOL    HW133620   1.397   3.369   0.284  2.0212  0.5372  0.5648
 7387SOL    HW233621   1.504   3.284   0.345 -0.1044 -3.0061  0.2954
 7388SOL     OW33622   3.293   3.313  11.561  0.4011  0.0222  0.0038
 7388SOL    HW133623   3.294   3.268  11.646 -3.7409  1.3255  0.7630
 7388SOL    HW233624   3.338   3.393  11.588 -1.1955  0.4170  1.4723
 7389SOL     OW33625   3.390   3.030   7.481  0.6290  0.2618  0.3237
 7389SOL    HW133626   3.314   2.979   7.508  1.6327 -1.9606 -1.0863
 7389SOL    HW233627   3.462   2.982   7.523  0.2909 -1.5972 -1.2403
 7390SOL     OW33628   3.021   1.960   4.248 -0.5480  0.4003 -0.2623
 7390SOL    HW133629   2.989   1.985   4.335 -1.4111  2.7355 -1.2257
 7390SOL    HW233630   3.098   1.907   4.267  0.8334  1.7595 -2.0811
 7391SOL     OW33631   3.769   3.524  15.307  0.6397  0.2768  0.4315
 7391SOL    HW133632   3.849   3.478  15.282  0.0949 -0.1877 -0.4801
 7391SOL    HW233633   3.801   3.612  15.286  0.1653 -0.0288 -1.6256
 7392SOL     OW33634   2.387   2.958   3.719 -0.2765  0.0481 -0.2150
 7392SOL    HW133635   2.445   2.995   3.652 -0.8792 -2.2553 -1.9875
 7392SOL    HW233636   2.304   3.007   3.714 -0.8217 -0.8671 -0.0477
 7393SOL     OW33637   2.828   4.178  12.564  0.3871 -0.1443 -0.3734
 7393SOL    HW133638   2.789   4.239  12.627 -0.8722 -0.8850 -0.4435
 7393SOL    HW233639   2.912   4.224  12.563  0.2148  0.1435 -1.4065
 7394SOL     OW33640   2.038   1.069  10.751 -1.1351  0.1733 -0.2087
 7394SOL    HW133641   2.122   1.027  10.732  0.5575  2.5989  1.8776
 7394SOL    HW233642   2.067   1.120  10.826  0.4499 -1.5834  0.3758
 7395SOL     OW33643   3.228   0.243   5.436  0.6729  0.1442  0.1579
 7395SOL    HW133644   3.262   0.323   5.395 -0.6481  1.0064  0.7633
 7395SOL    HW233645   3.247   0.261   5.528 -0.1196  0.9829  0.1562
 7396SOL     OW33646   0.163   4.456   3.530 -0.3780  0.5436  0.1751
 7396SOL    HW133647   0.255   4.480   3.537 -0.3087  0.0351  1.1122
 7396SOL    HW233648   0.122   4.536   3.562  0.1279  0.4142  1.1503
 7397SOL     OW33649   1.641   2.535   6.410  0.4340  0.9234 -0.4786
 7397SOL    HW133650   1.548   2.521   6.392  0.7899 -2.7847  0.5633
 7397SOL    HW233651   1.636   2.601   6.479  0.9392 -2.0924  2.4477
 7398SOL     OW33652   3.006   2.666  11.095  0.0242  0.3619 -0.4157
 7398SOL    HW133653   3.010   2.689  11.188 -2.0467  2.0753 -0.7486
 7398SOL    HW233654   3.060   2.587  11.085  0.9354  0.9886 -0.4099
 7399SOL     OW33655   4.332   3.062   4.279  0.1522 -0.5592  0.2294
 7399SOL    HW133656   4.417   3.034   4.313  0.7971  0.1001 -0.8491
 7399SOL    HW233657   4.278   2.993   4.319  0.4223  0.0737  1.7044
 7400SOL     OW33658   0.540   2.492   6.601  0.4329 -0.4699  0.3022
 7400SOL    HW133659   0.539   2.494   6.506 -1.4181 -2.1951  0.2697
 7400SOL    HW233660   0.455   2.450   6.613 -0.4381  0.3573 -3.2307
 7401SOL     OW33661   3.542   2.649   7.443 -0.2943 -0.5825  0.3064
 7401SOL    HW133662   3.499   2.685   7.521 -1.9615 -2.1350  0.1151
 7401SOL    HW233663   3.628   2.688   7.458  0.6767 -1.7369 -2.1948
 7402SOL     OW33664   1.635   3.168   2.238 -0.3993  0.3385  1.2416
 7402SOL    HW133665   1.617   3.254   2.200  2.2562 -0.2977 -1.5411
 7402SOL    HW233666   1.552   3.162   2.284 -0.6671 -0.3967  0.6457
 7403SOL     OW33667   2.657   1.584   2.258 -0.0391 -0.3174 -0.8546
 7403SOL    HW133668   2.632   1.501   2.218  0.7836 -0.4682 -1.0443
 7403SOL    HW233669   2.748   1.595   2.231  1.0651 -1.7819  2.3175
 7404SOL     OW33670   1.357   4.186  14.721 -0.3224  0.5368  0.2734
 7404SOL    HW133671   1.326   4.136  14.646 -0.6542 -0.7143  1.2528
 7404SOL    HW233672   1.452   4.181  14.724 -0.3288 -1.0125 -2.5172
 7405SOL     OW33673   1.682   0.287  16.286  0.2464  0.3143  0.4151
 7405SOL    HW133674   1.628   0.307  16.362  1.2403  0.2096  1.1480
 7405SOL    HW233675   1.721   0.368  16.253 -1.6474  0.8046 -0.6117
 7406SOL     OW33676   3.065   1.341   8.658  0.1331 -0.4807  0.3131
 7406SOL    HW133677   3.103   1.314   8.741 -1.7591 -1.0181  1.0012
 7406SOL    HW233678   3.128   1.404   8.623 -0.2975  0.5314  1.3625
 7407SOL     OW33679   1.979   0.168  10.224  0.0339  0.4062  0.4844
 7407SOL    HW133680   1.965   0.247  10.275  0.6836  0.4379  0.6137
 7407SOL    HW233681   1.964   0.199  10.135  2.7939 -0.1779 -0.1946
 7408SOL     OW33682   1.903   3.076   6.210 -0.1705  0.3544 -0.1980
 7408SOL    HW133683   1.941   3.048   6.293 -1.3478  1.2499  0.6498
 7408SOL    HW233684   1.874   3.167   6.217 -3.7393 -1.0204  3.0461
 7409SOL     OW33685   1.949   0.288  11.178  0.3151 -0.2698 -0.1822
 7409SOL    HW133686   1.957   0.250  11.266 -0.7805  1.0986  0.5119
 7409SOL    HW233687   1.873   0.345  11.187 -0.6751 -2.4471  5.3855
 7410SOL     OW33688   0.933   4.065   9.045  0.2636  0.1807  0.3602
 7410SOL    HW133689   0.929   4.040   8.953 -0.9993 -2.6123  1.1929
 7410SOL    HW233690   0.973   4.153   9.047 -0.5107  0.5399 -0.1522
 7411SOL     OW33691   3.194   1.267   5.794 -0.5306 -0.1752  0.1775
 7411SOL    HW133692   3.131   1.277   5.865  2.2414  4.4881  2.0166
 7411SOL    HW233693   3.277   1.290   5.836  0.6388 -2.9442 -0.6387
 7412SOL     OW33694   3.427   0.855  16.995  0.1071  0.2431 -0.3298
 7412SOL    HW133695   3.423   0.785  16.930 -1.8941  0.9208 -0.9609
 7412SOL    HW233696   3.332   0.866  16.997 -0.0243 -0.8661 -0.3750
 7413SOL     OW33697   2.675   1.911   5.320  0.4407  0.2906 -0.0481
 7413SOL    HW133698   2.742   1.899   5.386 -1.1205  2.3762  1.9166
 7413SOL    HW233699   2.691   1.837   5.262 -2.0899 -0.5010  0.2607
 7414SOL     OW33700   0.825   0.303   4.534  0.0191  0.8380 -0.0965
 7414SOL    HW133701   0.875   0.365   4.480 -0.6723  2.4700  1.1354
 7414SOL    HW233702   0.871   0.325   4.615 -1.1067  1.0596  0.4745
 7415SOL     OW33703   1.620   1.429   2.426 -0.2252  0.5908 -0.3376
 7415SOL    HW133704   1.586   1.370   2.359 -0.1358 -0.4428  0.5301
 7415SOL    HW233705   1.550   1.438   2.491  1.8511 -0.9114  2.1254
 7416SOL     OW33706   3.585   3.509   5.427  0.7532 -0.6881 -0.1246
 7416SOL    HW133707   3.647   3.463   5.371  1.5043 -0.6789  0.7110
 7416SOL    HW233708   3.514   3.445   5.436  0.7377 -0.6841 -0.2238
 7417SOL     OW33709   0.945   4.697   6.349 -0.4002  0.3265  0.4280
 7417SOL    HW133710   0.953   0.068   6.337 -1.3336  0.1347 -1.5960
 7417SOL    HW233711   1.027   4.669   6.389 -0.4353 -0.6211 -0.1668
 7418SOL     OW33712   0.586   2.805   7.875  0.2872  0.0918 -0.1876
 7418SOL    HW133713   0.531   2.768   7.944 -1.0443  3.9358  0.8479
 7418SOL    HW233714   0.586   2.749   7.797 -0.7430  0.7106 -0.6220
 7419SOL     OW33715   0.230   3.409   3.583  0.4046 -0.3000  0.2414
 7419SOL    HW133716   0.235   3.488   3.638  0.2662 -2.3997  3.2661
 7419SOL    HW233717   0.247   3.440   3.494  0.2829 -1.5034 -0.1966
 7420SOL     OW33718   0.181   4.160   9.104  0.2630  0.5701  0.5378
 7420SOL    HW133719   0.127   4.086   9.078 -0.9016  1.1049  1.4385
 7420SOL    HW233720   0.252   4.155   9.040 -0.0853 -1.3248  0.2890
 7421SOL     OW33721   2.214   1.370  13.733 -0.9916 -0.0945  0.3082
 7421SOL    HW133722   2.295   1.376  13.783  0.2882 -0.2026 -1.7514
 7421SOL    HW233723   2.251   1.354  13.646 -0.4978 -0.5617  0.6061
 7422SOL     OW33724   4.279   4.421   7.745  0.3136 -0.0718 -0.7752
 7422SOL    HW133725   4.257   4.443   7.836 -0.1646 -1.7102 -0.4991
 7422SOL    HW233726   4.208   4.454   7.690 -0.5729 -0.5381  0.0937
 7423SOL     OW33727   4.103   2.727   6.693  0.8525 -0.1629 -0.0646
 7423SOL    HW133728   4.054   2.678   6.759 -0.9955  1.0399 -0.5401
 7423SOL    HW233729   4.122   2.814   6.729 -3.9257  0.8981 -0.1079
 7424SOL     OW33730   0.569   1.714   9.877 -0.0839  0.2253 -0.1822
 7424SOL    HW133731   0.506   1.726   9.948 -0.4552  0.6997 -0.5955
 7424SOL    HW233732   0.628   1.787   9.896  0.3339 -0.9212  2.8932
 7425SOL     OW33733   3.609   0.909   6.685  0.0861 -0.0975 -0.5662
 7425SOL    HW133734   3.588   0.925   6.593  2.7639 -0.3816 -1.2486
 7425SOL    HW233735   3.695   0.867   6.672  0.3191  0.4532 -0.8090
 7426SOL     OW33736   0.145   0.518   1.298  0.4634  0.2785  0.5177
 7426SOL    HW133737   0.126   0.604   1.334 -2.0880 -0.3137  0.5343
 7426SOL    HW233738   0.237   0.518   1.271  0.2901 -0.8316 -0.1032
 7427SOL     OW33739   2.175   1.116  15.167 -0.3008 -0.6072 -0.0760
 7427SOL    HW133740   2.193   1.166  15.247 -2.0673 -0.0513 -0.0458
 7427SOL    HW233741   2.155   1.186  15.105 -1.4015 -0.0657  0.8958
 7428SOL     OW33742   3.939   2.989   0.703  0.0787 -0.0400  0.4039
 7428SOL    HW133743   3.876   3.041   0.752  1.0132  2.7198 -1.3201
 7428SOL    HW233744   3.897   2.974   0.618  2.3714 -1.0607 -0.5708
 7429SOL     OW33745   0.040   4.550  11.291  0.7665  0.1946  0.0411
 7429SOL    HW133746   0.078   4.636  11.277  1.0424  0.2084  0.8565
 7429SOL    HW233747   0.073   4.527  11.378  1.6764 -2.0030 -0.8858
 7430SOL     OW33748   3.861   0.473   3.527 -0.3125  0.1743 -0.2274
 7430SOL    HW133749   3.864   0.450   3.619 -1.2996  0.0289 -0.2351
 7430SOL    HW233750   3.784   0.421   3.504  0.0807 -0.9319  0.9543
 7431SOL     OW33751   2.211   2.745  11.296  0.5828 -0.3264 -0.0899
 7431SOL    HW133752   2.278   2.699  11.246 -0.2873  0.1530 -1.6987
 7431SOL    HW233753   2.241   2.836  11.296  1.3595 -0.5798  1.9702
 7432SOL     OW33754   3.302   2.410   5.247  0.0713  0.2074 -0.3873
 7432SOL    HW133755   3.324   2.486   5.194  0.3630 -0.2557 -0.9269
 7432SOL    HW233756   3.279   2.347   5.179  0.8760 -0.9325  0.3967
 7433SOL     OW33757   0.451   4.320   2.832  0.5028  0.2971 -0.0623
 7433SOL    HW133758   0.482   4.251   2.773  1.9060 -1.4660  2.7343
 7433SOL    HW233759   0.368   4.280   2.858 -0.8142  2.5732 -0.7800
 7434SOL     OW33760   4.716   4.044   7.851  0.5545  0.0719 -0.5119
 7434SOL    HW133761   0.026   4.129   7.823  1.2763 -0.4952 -1.3486
 7434SOL    HW233762   4.623   4.064   7.843  0.6652  0.7990 -0.0417
 7435SOL     OW33763   1.985   3.521   6.300  0.4318  0.2206 -0.3128
 7435SOL    HW133764   2.014   3.609   6.277 -1.0799  0.5315 -1.0029
 7435SOL    HW233765   1.976   3.530   6.395  1.1824  0.9955 -0.3132
 7436SOL     OW33766   3.282   3.620   1.694  0.4295  0.3293 -0.1256
 7436SOL    HW133767   3.234   3.569   1.629  1.2707  1.9257 -1.9931
 7436SOL    HW233768   3.235   3.607   1.777 -2.3738 -0.8645 -1.9061
 7437SOL     OW33769   0.679   3.578  17.497 -0.0382  0.1431 -1.0790
 7437SOL    HW133770   0.631   3.520  17.556  0.6743  0.9493  0.2910
 7437SOL    HW233771   0.761   3.530  17.490  0.7632  1.4629 -0.6295
 7438SOL     OW33772   4.657   3.158   2.506  0.1306 -0.2481  1.4058
 7438SOL    HW133773   4.605   3.195   2.578 -0.1323  0.3563  0.9038
 7438SOL    HW233774   4.633   3.216   2.434 -0.1399 -1.8999  0.1706
 7439SOL     OW33775   1.813   4.679  16.862 -0.1623 -0.0471 -0.0237
 7439SOL    HW133776   1.783   4.633  16.784  1.2120 -1.3077  0.1960
 7439SOL    HW233777   1.855   4.610  16.912 -0.1313 -0.8571 -1.1758
 7440SOL     OW33778   3.643   2.010  11.897  0.3827  0.3115  0.3382
 7440SOL    HW133779   3.664   1.983  11.807 -2.6975  1.3372 -0.7135
 7440SOL    HW233780   3.579   2.078  11.877 -1.5726 -1.0881  1.8877
 7441SOL     OW33781   0.527   4.551   0.924  0.0251  0.1822  0.0403
 7441SOL    HW133782   0.462   4.485   0.945  1.2561 -0.9428  0.3035
 7441SOL    HW233783   0.473   4.624   0.893  0.7873  0.0865 -1.5535
 7442SOL     OW33784   3.938   1.250   2.049 -0.0570  0.4285  0.4543
 7442SOL    HW133785   3.855   1.208   2.075  0.9019 -1.6626  0.1698
 7442SOL    HW233786   3.950   1.215   1.960 -0.2914  3.5282 -0.7723
 7443SOL     OW33787   4.262   1.555   0.222 -0.8253  0.6047 -0.3017
 7443SOL    HW133788   4.246   1.461   0.233 -0.7036  0.5598 -0.5051
 7443SOL    HW233789   4.356   1.556   0.204 -0.4628 -3.1365  1.4400
 7444SOL     OW33790   2.725   1.024   7.699  0.3930 -0.5914  0.1281
 7444SOL    HW133791   2.672   0.986   7.769  0.2105  1.4675  1.1125
 7444SOL    HW233792   2.728   0.947   7.642 -0.6479 -0.7928  0.3408
 7445SOL     OW33793   2.316   3.675   3.532  0.2454  0.5582 -0.0581
 7445SOL    HW133794   2.322   3.675   3.436  0.7244  2.1691 -0.0236
 7445SOL    HW233795   2.252   3.742   3.557 -1.4976 -1.3999  0.7694
 7446SOL     OW33796   3.448   1.533   6.457  0.2813 -0.2456 -0.3074
 7446SOL    HW133797   3.539   1.558   6.439  1.3383 -2.3123  2.0381
 7446SOL    HW233798   3.409   1.619   6.470 -1.1933 -0.6280 -2.2139
 7447SOL     OW33799   0.063   0.204   4.122  0.8962 -0.9782  0.0896
 7447SOL    HW133800   4.709   0.198   4.177 -0.2579 -0.2259 -1.4532
 7447SOL    HW233801   0.110   0.263   4.180 -0.0605  0.1946 -0.3254
 7448SOL     OW33802   0.359   4.287   4.514  0.0402 -0.5120 -0.2273
 7448SOL    HW133803   0.443   4.332   4.503  0.8778 -1.7208  1.2635
 7448SOL    HW233804   0.374   4.194   4.494 -2.0129 -1.0365  0.6964
 7449SOL     OW33805   3.319   4.304   4.559  0.1834 -0.0651 -0.0958
 7449SOL    HW133806   3.378   4.336   4.628  2.9612 -0.5594 -2.2496
 7449SOL    HW233807   3.271   4.387   4.554 -0.7312 -0.5600  0.5441
 7450SOL     OW33808   2.747   3.633   6.387  0.5279 -0.4957  0.0561
 7450SOL    HW133809   2.736   3.668   6.475  0.8322  0.6859 -0.3788
 7450SOL    HW233810   2.669   3.676   6.351  1.2003  1.0629  0.4519
 7451SOL     OW33811   3.100   2.238  17.596 -0.1601  0.0944  0.0730
 7451SOL    HW133812   3.060   2.324  17.583 -2.3704 -0.9184  0.1311
 7451SOL    HW233813   3.034   2.200  17.654 -0.1464  2.0003  1.3247
 7452SOL     OW33814   2.205   1.966   9.083 -0.1293 -0.1145  0.3502
 7452SOL    HW133815   2.206   1.979   8.988  1.4376 -0.1799  0.3541
 7452SOL    HW233816   2.214   2.060   9.100  0.8412  0.3482 -2.6820
 7453SOL     OW33817   2.126   2.843  14.779  0.0039 -1.0333  0.2270
 7453SOL    HW133818   2.037   2.823  14.809 -0.2501 -1.8423 -1.0862
 7453SOL    HW233819   2.125   2.801  14.694  1.9030  0.2315 -0.4192
 7454SOL     OW33820   3.222   2.304   1.751  0.3513  0.2103 -0.3582
 7454SOL    HW133821   3.277   2.290   1.675 -0.4414  0.2441 -0.9393
 7454SOL    HW233822   3.146   2.344   1.710  0.2921 -0.7278 -1.1643
 7455SOL     OW33823   4.616   4.206  15.299 -0.4276  0.5856 -0.6505
 7455SOL    HW133824   4.704   4.237  15.275 -0.3590  0.2668 -0.8114
 7455SOL    HW233825   4.602   4.139  15.232 -1.4517  1.2854 -1.1269
 7456SOL     OW33826   1.174   3.973   7.705 -0.4201  0.0707  0.2609
 7456SOL    HW133827   1.107   4.038   7.729 -2.1275 -1.1679 -1.1599
 7456SOL    HW233828   1.135   3.953   7.620  1.7864  0.1498 -0.7559
 7457SOL     OW33829   2.162   1.465   3.457 -0.6098 -0.0071 -0.3315
 7457SOL    HW133830   2.227   1.531   3.479  0.5481 -0.9345 -0.9912
 7457SOL    HW233831   2.121   1.511   3.384  0.8603  0.6582 -0.7322
 7458SOL     OW33832   0.888   0.130   1.480 -0.6176 -0.5760  0.4093
 7458SOL    HW133833   0.840   0.094   1.555 -0.5362  0.8009  1.1280
 7458SOL    HW233834   0.818   0.144   1.417 -0.6926 -0.2305  0.5708
 7459SOL     OW33835   2.650   1.147   4.902 -0.0717  0.2424 -0.9533
 7459SOL    HW133836   2.719   1.211   4.887  0.5885  0.1259  1.4468
 7459SOL    HW233837   2.699   1.064   4.899 -2.0639 -1.0131  1.1542
 7460SOL     OW33838   0.715   1.639   6.421  0.0057 -0.1227  0.0419
 7460SOL    HW133839   0.754   1.564   6.376  1.0343 -0.5054  1.5681
 7460SOL    HW233840   0.702   1.593   6.504 -0.7946  0.6940  0.3660
 7461SOL     OW33841   4.257   3.210   6.470  0.3756  0.7320 -0.4392
 7461SOL    HW133842   4.230   3.138   6.527  0.5073 -0.5614 -1.9844
 7461SOL    HW233843   4.335   3.177   6.424 -0.2708 -1.3317 -0.0858
 7462SOL     OW33844   4.707   3.324   6.689  0.1998  0.9422 -0.2303
 7462SOL    HW133845   0.022   3.259   6.747  0.0131  0.7119 -0.3673
 7462SOL    HW233846   0.059   3.338   6.632  0.7093  1.8651  0.6615
 7463SOL     OW33847   2.894   0.342  17.407  0.1917  0.5088 -0.2377
 7463SOL    HW133848   2.945   0.303  17.478 -2.8794 -0.4943  1.4161
 7463SOL    HW233849   2.812   0.293  17.418  1.1074 -0.7702  0.7904
 7464SOL     OW33850   0.280   2.570   8.943 -0.1594  0.3486  0.4124
 7464SOL    HW133851   0.269   2.602   9.033  2.1299 -0.4933  0.9832
 7464SOL    HW233852   0.257   2.649   8.894  1.3811 -0.2011 -1.1999
 7465SOL     OW33853   0.412   3.959  12.887  0.6333 -0.1819  0.0420
 7465SOL    HW133854   0.457   3.977  12.970  0.3260  1.0988 -0.0685
 7465SOL    HW233855   0.480   3.985  12.824  0.9128  0.7135  0.7084
 7466SOL     OW33856   0.643   1.386  15.323  0.1684 -0.1681  0.3080
 7466SOL    HW133857   0.556   1.393  15.284  0.4241  1.1008 -0.0511
 7466SOL    HW233858   0.681   1.301  15.302 -0.3496 -0.0162 -1.2222
 7467SOL     OW33859   2.839   3.231   2.777  0.3916 -0.9912 -0.0664
 7467SOL    HW133860   2.882   3.174   2.714 -1.7828 -3.1409  0.3822
 7467SOL    HW233861   2.828   3.304   2.717 -1.0282 -0.2666  1.0607
 7468SOL     OW33862   3.032   1.171   4.915 -0.4213  0.4017  0.3650
 7468SOL    HW133863   3.059   1.225   4.990  1.0063  0.8278 -0.4474
 7468SOL    HW233864   3.019   1.089   4.963 -0.5219 -1.4977 -2.9252
 7469SOL     OW33865   1.391   3.352   2.317  0.3766 -0.6362  0.0885
 7469SOL    HW133866   1.304   3.387   2.298  0.6275 -0.3632 -0.5477
 7469SOL    HW233867   1.377   3.258   2.325 -1.3666 -0.4609 -0.7957
 7470SOL     OW33868   2.355   2.738   7.157 -0.0370  0.2167 -1.0772
 7470SOL    HW133869   2.382   2.651   7.184  0.2570  0.7345  0.3452
 7470SOL    HW233870   2.321   2.770   7.241 -1.6194 -0.0081 -1.6421
 7471SOL     OW33871   3.333   1.121  12.691  0.0148 -0.3236 -0.2521
 7471SOL    HW133872   3.353   1.032  12.719  0.9883 -0.1762 -0.4884
 7471SOL    HW233873   3.324   1.177  12.768 -0.4376  1.3423 -1.5121
 7472SOL     OW33874   2.532   0.721   8.092 -0.2239  0.2658 -0.1456
 7472SOL    HW133875   2.597   0.705   8.023 -2.0265 -3.4204 -0.9972
 7472SOL    HW233876   2.509   0.632   8.117 -2.3251  0.5204 -1.1404
 7473SOL     OW33877   3.491   4.676  10.407  0.1048 -0.3668  0.5188
 7473SOL    HW133878   3.432   4.667  10.332 -0.0840  1.0777  0.4864
 7473SOL    HW233879   3.520   0.044  10.402 -0.6325 -0.0508  2.3575
 7474SOL     OW33880   0.049   1.952   6.804 -0.2198 -0.4271 -0.3236
 7474SOL    HW133881   0.079   2.028   6.854 -0.1321  0.0949 -1.1754
 7474SOL    HW233882   0.029   1.987   6.717 -0.9002 -0.4768 -0.1883
 7475SOL     OW33883   3.104   0.217  15.787 -0.1045 -0.0238 -0.1944
 7475SOL    HW133884   3.104   0.140  15.843 -0.7922 -0.3118 -0.5748
 7475SOL    HW233885   3.023   0.259  15.818  0.0646  0.0320  0.1650
 7476SOL     OW33886   1.860   2.587   3.306 -0.7054  0.5234 -0.7307
 7476SOL    HW133887   1.790   2.548   3.357  0.9195  1.7988  2.5009
 7476SOL    HW233888   1.855   2.677   3.339  1.3977  0.2347  0.3926
 7477SOL     OW33889   3.750   1.654   7.263  0.0997 -0.0394  0.1633
 7477SOL    HW133890   3.659   1.626   7.266 -0.0152  0.1702 -1.2626
 7477SOL    HW233891   3.761   1.692   7.175 -0.8181  1.5989  0.7478
 7478SOL     OW33892   1.966   3.584   6.858 -0.3330  0.1602 -0.2782
 7478SOL    HW133893   1.888   3.528   6.865  2.1614 -3.3812 -0.4786
 7478SOL    HW233894   1.927   3.670   6.847 -1.1376 -0.1933 -0.2175
 7479SOL     OW33895   2.207   0.173   2.299 -0.0834  0.4981 -0.0647
 7479SOL    HW133896   2.246   0.225   2.230  1.7374  0.2241  0.7636
 7479SOL    HW233897   2.189   0.091   2.254  0.8433  1.0920 -1.4828
 7480SOL     OW33898   2.238   4.541   4.818 -0.1811  0.3914  0.2429
 7480SOL    HW133899   2.158   4.516   4.773 -0.2207  1.4803 -0.2961
 7480SOL    HW233900   2.259   4.470   4.879  0.8770  0.0306 -0.5292
 7481SOL     OW33901   0.268   2.809  11.789  0.0905 -0.6424  0.1089
 7481SOL    HW133902   0.230   2.891  11.758  0.9023  0.9104  3.1725
 7481SOL    HW233903   0.322   2.785  11.714 -1.3096  0.6224 -1.2952
 7482SOL     OW33904   0.578   1.814  15.485 -0.0065 -0.0658 -0.2799
 7482SOL    HW133905   0.579   1.864  15.404 -1.6107  0.0613 -0.2087
 7482SOL    HW233906   0.671   1.801  15.504 -0.2608 -0.1925  0.9341
 7483SOL     OW33907   3.627   2.106   6.739  0.0256  0.2436  0.0955
 7483SOL    HW133908   3.623   2.016   6.706  2.3222  0.2677 -0.2267
 7483SOL    HW233909   3.711   2.140   6.709  1.2704 -2.1094  0.9170
 7484SOL     OW33910   0.499   3.761  12.297  0.2761 -0.3531 -0.0687
 7484SOL    HW133911   0.589   3.745  12.268 -0.1086 -2.5492 -0.0788
 7484SOL    HW233912   0.494   3.854  12.278 -1.9085 -0.4691 -0.0518
 7485SOL     OW33913   4.487   3.069   6.103 -0.6216 -0.0694 -0.1859
 7485SOL    HW133914   4.460   3.080   6.194 -0.5722  0.7041 -0.2698
 7485SOL    HW233915   4.580   3.080   6.123 -0.2499 -3.1005 -0.2521
 7486SOL     OW33916   1.920   3.952  11.180 -0.1894 -0.4602  0.6225
 7486SOL    HW133917   1.901   3.860  11.162  0.8477 -0.9426  2.0188
 7486SOL    HW233918   2.007   3.945  11.218 -1.3632 -1.9635  3.1052
 7487SOL     OW33919   0.336   1.742   0.868  0.6595  0.5930  0.3000
 7487SOL    HW133920   0.365   1.658   0.833  1.5425  0.6595  0.8472
 7487SOL    HW233921   0.414   1.776   0.913  1.0917  1.4603 -1.1316
 7488SOL     OW33922   0.301   1.524   8.649  0.6879 -0.3476  0.1001
 7488SOL    HW133923   0.388   1.560   8.637 -0.6909  2.8652 -0.2555
 7488SOL    HW233924   0.245   1.602   8.649  0.5726 -0.4366  1.9062
 7489SOL     OW33925   1.280   1.723   1.453 -0.0313  0.4633 -0.0188
 7489SOL    HW133926   1.352   1.771   1.495  2.0322 -0.8141 -2.0939
 7489SOL    HW233927   1.204   1.780   1.458  0.4755  1.1797 -0.4574
 7490SOL     OW33928   1.413   3.919   4.139  0.1405  0.0685 -0.0211
 7490SOL    HW133929   1.444   3.893   4.226 -0.5790 -0.1323  0.1815
 7490SOL    HW233930   1.421   3.841   4.085  1.5889  0.3750 -0.2315
 7491SOL     OW33931   3.496   1.232   4.472  0.5820 -0.1605  0.0900
 7491SOL    HW133932   3.450   1.277   4.543  0.1357 -1.0294  0.3548
 7491SOL    HW233933   3.566   1.293   4.450  0.3995 -0.0216 -0.0967
 7492SOL     OW33934   1.042   0.976   5.655  0.4408  0.4145  0.3263
 7492SOL    HW133935   1.084   0.912   5.713 -1.4950 -1.5983 -0.4739
 7492SOL    HW233936   0.949   0.954   5.663  0.2679  0.3130 -1.8718
 7493SOL     OW33937   1.706   3.398   2.085  0.3368  0.2723  0.0535
 7493SOL    HW133938   1.643   3.467   2.109  1.4831  1.1669  0.4516
 7493SOL    HW233939   1.673   3.382   1.997 -0.9669 -0.7194  0.7147
 7494SOL     OW33940   2.880   2.746   6.811  0.4248 -0.9026 -0.0636
 7494SOL    HW133941   2.933   2.669   6.789  1.1807 -0.2318 -0.5703
 7494SOL    HW233942   2.828   2.756   6.731  0.2855 -2.1795 -0.1444
 7495SOL     OW33943   2.059   1.883   2.075  0.4318  0.1627 -0.3872
 7495SOL    HW133944   2.077   1.972   2.105  1.9993 -0.3020  0.0756
 7495SOL    HW233945   2.107   1.876   1.993  0.4431 -1.4083 -0.2580
 7496SOL     OW33946   3.328   4.012  15.380 -0.1038 -0.4781  0.4062
 7496SOL    HW133947   3.391   3.999  15.309 -0.4983 -1.6436  0.2686
 7496SOL    HW233948   3.255   4.063  15.345 -0.6666 -0.3445  1.7692
 7497SOL     OW33949   3.945   1.209   7.656  0.3555 -0.0035 -0.1561
 7497SOL    HW133950   3.870   1.265   7.677  0.3401  0.3871 -1.2834
 7497SOL    HW233951   3.908   1.121   7.664 -0.3770  0.3272  0.1194
 7498SOL     OW33952   2.658   3.790  16.884 -0.1769  0.2969 -0.3253
 7498SOL    HW133953   2.563   3.776  16.879  0.0873 -1.1723 -1.0902
 7498SOL    HW233954   2.655   3.846  16.962  1.3890 -0.7019  0.4623
 7499SOL     OW33955   3.764   2.351   6.966  0.8518  0.1422  0.0334
 7499SOL    HW133956   3.676   2.378   6.941  1.1902  1.0878 -0.1621
 7499SOL    HW233957   3.789   2.425   7.022  0.3442 -0.2619  0.8015
 7500SOL     OW33958   1.745   1.368   0.883 -0.5768 -0.1146 -0.7371
 7500SOL    HW133959   1.773   1.298   0.943  0.2611  1.1574  0.3551
 7500SOL    HW233960   1.726   1.440   0.944  0.8045  0.5956 -1.1538
 7501SOL     OW33961   1.395   4.010   2.861  0.3480  0.4756  0.1764
 7501SOL    HW133962   1.395   3.946   2.790 -1.7811 -0.3878  0.9374
 7501SOL    HW233963   1.434   4.088   2.821 -1.3136  0.9592 -0.5026
 7502SOL     OW33964   0.435   2.158  13.705  0.6577 -0.2822  0.4961
 7502SOL    HW133965   0.488   2.122  13.634 -0.9179  0.8195 -1.2536
 7502SOL    HW233966   0.502   2.205  13.754 -0.2787  1.5289  0.0491
 7503SOL     OW33967   1.229   0.281   4.376  0.2882 -0.6914  0.3477
 7503SOL    HW133968   1.252   0.358   4.428 -0.4338 -0.0926 -0.2163
 7503SOL    HW233969   1.137   0.293   4.352  0.3168  2.0062  1.6079
 7504SOL     OW33970   3.520   2.407   8.834 -0.0757  0.4413 -0.5414
 7504SOL    HW133971   3.510   2.480   8.774 -1.1200  1.6141  1.0418
 7504SOL    HW233972   3.464   2.343   8.790  2.4480 -0.8009 -1.9357
 7505SOL     OW33973   0.332   1.992   5.995  0.6864  0.2188 -0.2911
 7505SOL    HW133974   0.360   2.009   5.905  0.0289  0.7049 -0.4089
 7505SOL    HW233975   0.238   1.985   5.976  0.3870 -1.0127  1.6856
 7506SOL     OW33976   1.574   3.891   3.381  0.1543 -0.4850 -0.0839
 7506SOL    HW133977   1.478   3.886   3.387 -0.0085 -1.1004 -3.5194
 7506SOL    HW233978   1.598   3.821   3.320  0.1840 -0.4163 -0.1502
 7507SOL     OW33979   1.011   3.211   8.061 -0.3299  0.2671  0.1984
 7507SOL    HW133980   0.960   3.244   7.987 -0.3500  1.9295  0.9499
 7507SOL    HW233981   0.940   3.207   8.125 -2.5854 -2.0194 -2.4741
 7508SOL     OW33982   0.361   1.831   7.576 -0.3153 -0.1243 -0.2492
 7508SOL    HW133983   0.416   1.797   7.646  2.0222  1.0749 -1.5231
 7508SOL    HW233984   0.311   1.758   7.539 -0.2884 -0.0364 -0.4621
 7509SOL     OW33985   2.454   1.169   2.565  0.3016 -0.0147 -0.0352
 7509SOL    HW133986   2.544   1.175   2.598  0.1535  3.8712 -0.3983
 7509SOL    HW233987   2.415   1.116   2.634  3.1154  0.1290  1.6750
 7510SOL     OW33988   2.923   4.545  16.665 -0.3177 -0.1949  1.1596
 7510SOL    HW133989   3.006   4.589  16.648 -0.8817 -0.0181 -1.1135
 7510SOL    HW233990   2.944   4.505  16.749  0.8205 -0.4976  0.7337
 7511SOL     OW33991   3.067   4.712   9.984  0.5124  0.1893  0.4240
 7511SOL    HW133992   3.055   4.718   9.889  1.0193 -0.0613  0.3433
 7511SOL    HW233993   2.999   4.648  10.006  0.7564 -0.3714 -0.4515
 7512SOL     OW33994   2.893   3.417   2.321  0.5272 -0.5317 -0.0655
 7512SOL    HW133995   2.931   3.501   2.295  1.0226 -0.9696 -0.7502
 7512SOL    HW233996   2.806   3.424   2.282  1.0639 -0.2310 -1.2016
 7513SOL     OW33997   2.206   2.216   8.875  0.3067 -0.1942  0.2422
 7513SOL    HW133998   2.223   2.125   8.850  0.2640  0.0761 -0.7888
 7513SOL    HW233999   2.271   2.270   8.831 -1.9209  1.1186 -1.4388
 7514SOL     OW34000   1.480   1.935   9.075  0.4855 -0.2186  0.5068
 7514SOL    HW134001   1.404   1.877   9.070  0.8469 -0.4354 -2.5879
 7514SOL    HW234002   1.542   1.894   9.136 -1.1032 -0.3021  2.0564
 7515SOL     OW34003   0.300   2.003   0.021  0.2508  0.5507 -0.0253
 7515SOL    HW134004   0.216   1.999   0.067  0.2442  0.0220 -0.0764
 7515SOL    HW234005   0.360   2.038   0.087 -0.8952  1.1513  0.7020
 7516SOL     OW34006   0.313   2.141   1.468  0.1479  0.0507 -0.1123
 7516SOL    HW134007   0.263   2.085   1.528 -1.6361  0.8475 -0.8424
 7516SOL    HW234008   0.401   2.142   1.504 -0.3610 -0.5280  1.1222
 7517SOL     OW34009   3.915   0.166  14.816  0.0973  0.6771 -0.3616
 7517SOL    HW134010   3.917   0.082  14.861 -1.1873 -0.8924 -3.2070
 7517SOL    HW234011   3.921   0.134  14.726  1.6041  1.8900 -0.6867
 7518SOL     OW34012   3.358   2.685   2.910  0.3983  0.5321 -0.1713
 7518SOL    HW134013   3.422   2.650   2.848  0.6340  0.6098  0.0233
 7518SOL    HW234014   3.285   2.625   2.901  0.3101  0.7232 -0.7260
 7519SOL     OW34015   2.376   4.434   7.055 -0.5098  0.2072 -0.4359
 7519SOL    HW134016   2.394   4.466   6.967  0.4587  0.1937 -0.2421
 7519SOL    HW234017   2.290   4.472   7.071  0.0205  1.1582  0.1869
 7520SOL     OW34018   1.440   4.361   8.428 -0.0717 -0.1313  0.4685
 7520SOL    HW134019   1.440   4.320   8.515  0.7280  1.2957  1.1565
 7520SOL    HW234020   1.348   4.384   8.414  0.1870  1.1698  0.9080
 7521SOL     OW34021   2.719   2.188   3.232 -0.2123 -0.2043 -0.3935
 7521SOL    HW134022   2.670   2.216   3.309 -0.6221 -0.1757 -0.6658
 7521SOL    HW234023   2.662   2.117   3.201 -0.4543  0.2510 -0.9922
 7522SOL     OW34024   0.864   3.750  13.071  0.1357  0.7852 -0.4852
 7522SOL    HW134025   0.954   3.716  13.065  0.8892  3.6530 -5.9968
 7522SOL    HW234026   0.875   3.798  13.153  0.9246  0.8314 -0.6156
 7523SOL     OW34027   4.138   0.370   2.566 -0.0651  0.5851  0.0213
 7523SOL    HW134028   4.230   0.347   2.576  0.2602  1.7569 -0.2527
 7523SOL    HW234029   4.147   0.465   2.562 -0.1179  0.5432 -0.9351
 7524SOL     OW34030   3.565   1.164   1.015 -0.3770  0.9092 -0.5966
 7524SOL    HW134031   3.531   1.176   0.926 -1.1476  0.1017 -0.4083
 7524SOL    HW234032   3.605   1.078   1.025  1.5121  1.9864  1.1093
 7525SOL     OW34033   3.088   1.248   3.414 -0.7756 -0.3120  0.4472
 7525SOL    HW134034   3.009   1.285   3.454  0.2105  2.5017 -0.1850
 7525SOL    HW234035   3.045   1.188   3.353 -1.8459 -0.1919  1.0771
 7526SOL     OW34036   1.968   1.880  10.811 -0.2913  0.0099 -0.0254
 7526SOL    HW134037   1.882   1.922  10.817  1.1676  3.1807 -1.6807
 7526SOL    HW234038   1.967   1.833  10.727 -1.2697 -0.5808  0.3151
 7527SOL     OW34039   2.642   1.810   8.720  0.2009  0.2450  0.6870
 7527SOL    HW134040   2.730   1.848   8.712  1.1518 -1.5501  2.6464
 7527SOL    HW234041   2.585   1.886   8.732  1.0037  0.8212  0.9368
 7528SOL     OW34042   3.222   0.770   6.808  0.0830  0.4366 -0.2485
 7528SOL    HW134043   3.294   0.727   6.762  0.3336  2.5942 -1.8307
 7528SOL    HW234044   3.177   0.817   6.738  0.5551  0.6061 -0.4316
 7529SOL     OW34045   1.677   3.876   8.399  0.0012  0.0915  0.0531
 7529SOL    HW134046   1.709   3.906   8.484  0.4587  0.9443 -0.4203
 7529SOL    HW234047   1.749   3.876   8.335 -0.3285  0.5686 -0.3213
 7530SOL     OW34048   3.595   3.576  17.450  0.6331 -0.1159  0.4494
 7530SOL    HW134049   3.568   3.528  17.528  1.9318 -2.5866 -0.6147
 7530SOL    HW234050   3.582   3.668  17.472  2.0976  0.1786  0.0781
 7531SOL     OW34051   1.089   2.217   8.711 -0.3376  0.0724  0.2116
 7531SOL    HW134052   1.063   2.141   8.658  2.4129 -1.2325  0.7388
 7531SOL    HW234053   1.118   2.277   8.643  1.3829 -0.4582  0.4621
 7532SOL     OW34054   1.427   3.388   5.976  0.4475  0.0871  0.3458
 7532SOL    HW134055   1.355   3.411   5.918 -0.4115  0.4941  1.5629
 7532SOL    HW234056   1.482   3.456   5.938 -0.2639  0.5217  0.0784
 7533SOL     OW34057   3.565   3.183   6.906 -0.8643 -0.2628  0.2311
 7533SOL    HW134058   3.594   3.233   6.982 -0.0913  0.1226 -0.3211
 7533SOL    HW234059   3.600   3.226   6.828  0.4638  0.6968  1.3553
 7534SOL     OW34060   2.798   4.468  12.116  0.5682 -0.2136 -0.1858
 7534SOL    HW134061   2.818   4.537  12.052  0.3487 -1.4715 -1.6161
 7534SOL    HW234062   2.705   4.478  12.135  0.4920 -1.3480  0.0169
 7535SOL     OW34063   4.346   0.008   8.608  0.0087  0.3580  0.6663
 7535SOL    HW134064   4.272   0.006   8.669 -0.2210 -0.3796  0.3655
 7535SOL    HW234065   4.385   0.087   8.644 -3.8334  1.9677  1.3090
 7536SOL     OW34066   3.893   3.954   8.024  0.6877 -0.0876 -0.4857
 7536SOL    HW134067   3.981   3.991   8.015  0.7808 -0.0746  0.4525
 7536SOL    HW234068   3.855   4.034   7.986 -1.1585 -1.6706 -1.9189
 7537SOL     OW34069   2.149   1.498   6.475  0.2707  0.0205 -0.1953
 7537SOL    HW134070   2.096   1.553   6.417 -1.1503  0.7121  1.7736
 7537SOL    HW234071   2.078   1.462   6.528 -1.1051  0.7040 -1.5730
 7538SOL     OW34072   4.467   2.038   2.587 -0.0252 -0.2361  0.0391
 7538SOL    HW134073   4.535   2.098   2.556 -0.5893  0.1826 -0.3976
 7538SOL    HW234074   4.517   1.989   2.652 -0.6527 -1.0220 -0.0829
 7539SOL     OW34075   2.364   1.149   2.003 -0.0285  0.0708 -0.2258
 7539SOL    HW134076   2.426   1.210   2.043  1.5658 -0.6855 -1.5282
 7539SOL    HW234077   2.424   1.074   2.003  2.3786  1.9859  2.5038
 7540SOL     OW34078   0.145   2.011   2.696  0.2120 -0.0109 -0.2392
 7540SOL    HW134079   0.210   1.942   2.710  0.0143  0.0168  0.8374
 7540SOL    HW234080   0.158   2.046   2.608 -1.4995 -2.2513 -1.3805
 7541SOL     OW34081   1.001   1.493  12.400  0.1505 -0.0839  0.6745
 7541SOL    HW134082   1.096   1.487  12.405  0.1039 -0.8709  0.6138
 7541SOL    HW234083   0.977   1.421  12.342 -1.0344 -0.0407  1.1076
 7542SOL     OW34084   2.058   4.166   4.582  0.2077 -0.1715  0.5568
 7542SOL    HW134085   1.999   4.191   4.511 -0.7706 -1.4402  0.9164
 7542SOL    HW234086   2.145   4.197   4.557 -0.3161  1.4882  0.7812
 7543SOL     OW34087   2.159   3.191   5.295 -0.1618  0.2569  0.2638
 7543SOL    HW134088   2.223   3.228   5.356 -0.6533  0.9424  0.3604
 7543SOL    HW234089   2.173   3.097   5.307 -0.3488  0.2280  0.2514
 7544SOL     OW34090   2.576   4.360   1.456 -1.1086 -0.2734 -0.0031
 7544SOL    HW134091   2.588   4.280   1.406 -0.1290  0.4066 -0.8740
 7544SOL    HW234092   2.482   4.376   1.453 -1.3366 -2.3569 -3.0927
 7545SOL     OW34093   2.626   4.660   2.583  0.0397  0.4297 -0.2631
 7545SOL    HW134094   2.539   4.698   2.578  0.8721  2.0154 -3.0071
 7545SOL    HW234095   2.658   4.675   2.494  1.0698 -2.1469 -0.3450
 7546SOL     OW34096   1.500   1.623   1.978 -0.0067  0.1982 -0.6662
 7546SOL    HW134097   1.473   1.713   1.963  0.7088  0.5864  0.4022
 7546SOL    HW234098   1.537   1.632   2.066 -0.3190  0.5163 -0.5669
 7547SOL     OW34099   4.361   0.748   5.811 -0.1928  0.7524 -0.6092
 7547SOL    HW134100   4.379   0.667   5.858  0.3903  1.6910  0.7791
 7547SOL    HW234101   4.355   0.815   5.879 -2.7698  0.5718 -0.6853
 7548SOL     OW34102   0.493   3.244  12.779  0.1935  0.3735 -0.2459
 7548SOL    HW134103   0.425   3.180  12.800  0.4878 -0.8581 -2.9840
 7548SOL    HW234104   0.470   3.265  12.688 -0.5074 -2.1239 -0.6546
 7549SOL     OW34105   3.535   1.383   4.196  0.3439  0.7675 -0.2915
 7549SOL    HW134106   3.522   1.476   4.216  3.4264  1.2106 -0.2245
 7549SOL    HW234107   3.526   1.401   4.103 -0.0363  2.2481  0.0219
 7550SOL     OW34108   3.336   1.151   4.161 -0.0644 -0.5251 -0.2418
 7550SOL    HW134109   3.341   1.134   4.067 -0.9932  0.2949 -0.4375
 7550SOL    HW234110   3.387   1.230   4.181 -2.0974  0.6654  0.2488
 7551SOL     OW34111   0.612   0.290   8.267  0.2066 -0.4592  0.2911
 7551SOL    HW134112   0.702   0.265   8.287  1.1482  1.7770 -1.1378
 7551SOL    HW234113   0.558   0.248   8.334 -0.4276 -0.4447 -0.2157
 7552SOL     OW34114   0.667   0.084   6.815  0.4006 -0.1083  0.2189
 7552SOL    HW134115   0.661   0.055   6.724  1.7061 -2.2555  0.8128
 7552SOL    HW234116   0.761   0.100   6.822  0.3672  0.0666  0.2637
 7553SOL     OW34117   4.447   1.162   3.706 -0.1341 -0.0165 -0.0032
 7553SOL    HW134118   4.498   1.145   3.626  1.1287  1.1988  0.5427
 7553SOL    HW234119   4.514   1.201   3.762 -0.3385 -1.2481  1.0829
 7554SOL     OW34120   2.964   4.038  10.027  0.2858 -0.7045 -0.2163
 7554SOL    HW134121   2.923   3.953  10.015  0.5232 -0.9897  1.0121
 7554SOL    HW234122   2.891   4.100  10.028 -0.1833 -1.2623  0.8047
 7555SOL     OW34123   1.267   3.244   2.849  0.2800  0.0601  0.0234
 7555SOL    HW134124   1.262   3.286   2.763 -0.3940  1.0650  0.5591
 7555SOL    HW234125   1.176   3.255   2.875  1.0093  1.0822  2.1904
 7556SOL     OW34126   3.638   3.493  16.435  0.0939 -0.1333  0.5405
 7556SOL    HW134127   3.605   3.461  16.518 -0.5116  2.0667  1.1499
 7556SOL    HW234128   3.648   3.413  16.383  0.9990 -0.5735  1.4000
 7557SOL     OW34129   0.743   2.222  10.465  0.5349  0.0877 -0.2033
 7557SOL    HW134130   0.670   2.248  10.522 -1.4606  2.2784 -3.7418
 7557SOL    HW234131   0.697   2.219  10.381 -0.3321  0.6278  0.2502
 7558SOL     OW34132   3.608   4.666   9.734 -0.1920 -0.2548  0.1492
 7558SOL    HW134133   3.521   4.707   9.737  0.5659  1.3859 -0.2669
 7558SOL    HW234134   3.647   0.017   9.690  1.5006 -0.7640  0.8015
 7559SOL     OW34135   0.803   4.094   4.624 -0.8256  0.3369  0.3640
 7559SOL    HW134136   0.845   4.180   4.637  0.6916 -0.3349 -0.0382
 7559SOL    HW234137   0.868   4.058   4.563 -0.4050  0.6677  0.6102
 7560SOL     OW34138   0.858   4.273   5.679  0.0846 -0.3478  0.4150
 7560SOL    HW134139   0.780   4.223   5.704  1.9161 -2.7611  1.2821
 7560SOL    HW234140   0.853   4.363   5.713  0.0258  0.3933 -1.5578
 7561SOL     OW34141   3.145   3.704  15.202 -0.2320 -0.3892 -0.6050
 7561SOL    HW134142   3.210   3.750  15.149 -0.0968  0.0513 -0.0509
 7561SOL    HW234143   3.086   3.776  15.223  0.1196 -1.2663  3.3676
 7562SOL     OW34144   0.547   1.344   6.877 -0.2144 -0.2733  0.2260
 7562SOL    HW134145   0.519   1.334   6.968  2.2255 -0.2971  0.9805
 7562SOL    HW234146   0.601   1.265   6.875 -0.7019 -0.5359 -1.8288
 7563SOL     OW34147   2.691   0.611   6.122  0.6805 -0.4305  0.0312
 7563SOL    HW134148   2.755   0.621   6.051 -0.3331  0.5402 -0.7440
 7563SOL    HW234149   2.748   0.591   6.196 -1.6136  0.5999  2.0525
 7564SOL     OW34150   1.927   0.749  12.420 -0.3919 -0.5252 -0.0795
 7564SOL    HW134151   1.943   0.834  12.379 -1.4104 -0.4848 -0.3876
 7564SOL    HW234152   2.000   0.708  12.374  0.1734  0.6259 -0.2034
 7565SOL     OW34153   1.181   2.660   8.793 -0.7102  0.1159  0.2483
 7565SOL    HW134154   1.119   2.724   8.758 -0.0541  0.8352  0.4036
 7565SOL    HW234155   1.119   2.587   8.788 -1.4192  0.7472 -0.2100
 7566SOL     OW34156   4.120   3.903   7.755  0.1339 -0.0204  0.1453
 7566SOL    HW134157   4.036   3.925   7.796  0.6600  1.6406  0.3137
 7566SOL    HW234158   4.124   3.808   7.765  1.2299 -0.1122 -1.2093
 7567SOL     OW34159   2.039   4.181   8.449 -0.7216  0.1106 -0.2744
 7567SOL    HW134160   2.130   4.206   8.467 -0.6121 -0.8084  0.4387
 7567SOL    HW234161   2.012   4.203   8.538 -1.7384 -0.4139 -0.4550
 7568SOL     OW34162   0.078   1.043  10.052 -0.3371  0.4380 -0.4571
 7568SOL    HW134163   0.148   1.108  10.064 -0.9289  1.3327 -1.8566
 7568SOL    HW234164   0.091   0.998  10.136  0.4786 -0.0361 -0.8458
 7569SOL     OW34165   4.091   2.142   6.452 -0.3580 -0.6231 -0.4338
 7569SOL    HW134166   4.058   2.111   6.368 -1.9600  0.5614 -0.2500
 7569SOL    HW234167   4.171   2.189   6.427 -1.0589 -0.4615 -2.3301
 7570SOL     OW34168   1.849   4.512   7.475 -0.1970 -0.1970 -0.2887
 7570SOL    HW134169   1.773   4.554   7.515 -0.9824 -1.8698  0.0118
 7570SOL    HW234170   1.795   4.437   7.448  1.6933 -1.2384 -1.1238
 7571SOL     OW34171   4.626   3.593   3.017 -0.0225 -0.3556 -0.1224
 7571SOL    HW134172   4.605   3.665   2.957  0.9487 -0.8484 -1.0588
 7571SOL    HW234173   4.695   3.637   3.065  1.0725 -1.6952 -0.4690
 7572SOL     OW34174   4.260   0.158  12.274  0.4357 -0.3286 -0.6717
 7572SOL    HW134175   4.248   0.220  12.203  1.5529 -1.2685 -1.6746
 7572SOL    HW234176   4.169   0.131  12.276 -0.0578  1.3048 -1.5288
 7573SOL     OW34177   2.679   4.603   1.749  0.3272 -0.4258 -0.5781
 7573SOL    HW134178   2.678   4.536   1.817 -0.1337  1.2101  1.0222
 7573SOL    HW234179   2.722   4.675   1.795  0.1404  0.1060 -1.2508
 7574SOL     OW34180   0.977   0.681   1.854 -0.3986  0.1891  0.5427
 7574SOL    HW134181   0.950   0.591   1.840  2.4958 -0.5039 -0.5946
 7574SOL    HW234182   0.945   0.702   1.942  4.7029  0.0754  2.4683
 7575SOL     OW34183   0.456   1.487   1.710 -0.1212  0.5295  0.3046
 7575SOL    HW134184   0.402   1.517   1.637  0.0097 -1.4310 -0.6043
 7575SOL    HW234185   0.533   1.493   1.654  0.2078  1.9165  0.9286
 7576SOL     OW34186   2.869   1.947   8.715  0.4239 -0.0434  0.3193
 7576SOL    HW134187   2.890   2.015   8.652  0.5538 -0.2994  0.0851
 7576SOL    HW234188   2.907   1.997   8.788  0.2039 -2.1260  1.8705
 7577SOL     OW34189   2.666   0.547   2.147  0.0868 -0.2844 -0.0883
 7577SOL    HW134190   2.633   0.459   2.126  1.4833 -1.0412  0.8931
 7577SOL    HW234191   2.759   0.524   2.153  0.0909 -0.0212  0.7544
 7578SOL     OW34192   0.840   4.698  12.783 -0.2532  0.1427 -0.5450
 7578SOL    HW134193   0.893   4.710  12.704 -0.1550  2.1976 -0.1664
 7578SOL    HW234194   0.795   4.613  12.781 -1.7154  0.9056 -0.1062
 7579SOL     OW34195   0.618   4.505   9.957 -0.0369 -0.0644 -0.8176
 7579SOL    HW134196   0.569   4.464  10.028 -0.2676  1.3434 -0.1794
 7579SOL    HW234197   0.542   4.549   9.919 -1.3104  0.3191  2.2135
 7580SOL     OW34198   0.323   3.579  13.986 -0.4434  0.1571  0.4903
 7580SOL    HW134199   0.280   3.650  14.034 -1.9609 -0.3414 -0.1348
 7580SOL    HW234200   0.248   3.520  13.973 -1.3278  1.5913 -0.8726
 7581SOL     OW34201   0.179   2.917   4.412  0.6328 -0.3839 -0.2405
 7581SOL    HW134202   0.233   2.985   4.371  3.3785 -1.2243  1.9674
 7581SOL    HW234203   0.194   2.937   4.505  0.4051 -0.4332 -0.1935
 7582SOL     OW34204   2.145   4.543   5.971  0.3517 -0.3080 -0.8871
 7582SOL    HW134205   2.116   4.452   5.975  0.8636 -0.3729  1.2756
 7582SOL    HW234206   2.122   4.569   6.060  1.6803 -1.0686 -0.3303
 7583SOL     OW34207   1.496   3.675   2.604  0.1790  0.0444 -0.0770
 7583SOL    HW134208   1.445   3.753   2.585 -0.7611 -0.5397  0.0485
 7583SOL    HW234209   1.438   3.612   2.647  0.5804 -0.4320 -0.2326
 7584SOL     OW34210   3.966   4.266   7.086 -0.4584 -0.1922 -0.0766
 7584SOL    HW134211   3.966   4.361   7.074 -0.2674 -0.0788  0.8428
 7584SOL    HW234212   4.058   4.251   7.104 -0.8311 -1.8739  0.4272
 7585SOL     OW34213   0.393   2.903   6.754  0.2952  0.4021 -0.3942
 7585SOL    HW134214   0.336   2.844   6.803 -0.7778  2.4013  0.7617
 7585SOL    HW234215   0.446   2.930   6.829  1.8207 -2.9387 -0.2855
 7586SOL     OW34216   3.079   1.229   5.178 -0.2731  0.1725  0.5132
 7586SOL    HW134217   3.092   1.324   5.183 -1.6777  0.5077 -1.8324
 7586SOL    HW234218   3.026   1.213   5.256  0.7592 -0.2436  1.1251
 7587SOL     OW34219   1.944   1.467  10.993  0.1038  0.0155 -0.2049
 7587SOL    HW134220   1.899   1.504  11.069  1.2822 -0.2174  0.5952
 7587SOL    HW234221   1.904   1.380  10.999  1.8039 -0.8006 -0.7935
 7588SOL     OW34222   0.887   0.431   3.951 -0.3268 -0.7437 -0.1893
 7588SOL    HW134223   0.910   0.348   3.908 -1.7942 -1.0376 -0.4012
 7588SOL    HW234224   0.833   0.471   3.883 -1.2398 -0.5823  0.6217
 7589SOL     OW34225   0.723   1.653   7.321  0.1977 -0.5683  0.2410
 7589SOL    HW134226   0.799   1.634   7.268 -0.9118 -0.7325 -1.2886
 7589SOL    HW234227   0.752   1.723   7.380 -2.5480  0.2316  0.6430
 7590SOL     OW34228   2.068   0.964   0.881 -0.3277  0.0111  1.0161
 7590SOL    HW134229   2.136   1.031   0.873  1.1067 -1.3906  1.4267
 7590SOL    HW234230   2.094   0.897   0.817 -0.1939 -1.0118  2.1463
 7591SOL     OW34231   1.319   2.664   4.312  0.4474  0.3552 -0.1013
 7591SOL    HW134232   1.367   2.705   4.240 -0.4259 -0.1643 -0.9856
 7591SOL    HW234233   1.330   2.570   4.300 -1.2806  0.1837 -0.3783
 7592SOL     OW34234   3.378   1.690  10.630 -0.3344  0.5095  0.4605
 7592SOL    HW134235   3.410   1.778  10.610 -0.5661  0.3664 -0.5374
 7592SOL    HW234236   3.438   1.662  10.699 -0.9676 -2.4919 -0.2294
 7593SOL     OW34237   4.092   3.168   1.872 -0.1414 -0.4838  0.0523
 7593SOL    HW134238   4.056   3.124   1.949  0.6609  2.3525  2.0570
 7593SOL    HW234239   4.020   3.227   1.851 -0.3530 -0.1036  1.8412
 7594SOL     OW34240   1.030   2.351   6.696  0.0791  0.0577  0.0006
 7594SOL    HW134241   1.046   2.443   6.720  3.0239  0.0412 -1.8922
 7594SOL    HW234242   0.936   2.347   6.676 -0.3599  3.8950  1.1677
 7595SOL     OW34243   1.626   1.045   7.277 -0.0147  0.1823 -0.4602
 7595SOL    HW134244   1.648   0.952   7.285 -3.4984 -0.5026  1.2352
 7595SOL    HW234245   1.690   1.098   7.325 -0.2281 -1.5771  1.8095
 7596SOL     OW34246   4.189   0.463   2.842  0.6053  0.0986  0.6572
 7596SOL    HW134247   4.191   0.367   2.845 -2.7347 -0.0348 -0.5266
 7596SOL    HW234248   4.270   0.482   2.794  1.0335 -0.8891  0.9952
 7597SOL     OW34249   1.667   1.142   2.595  0.6038 -0.2398 -0.0239
 7597SOL    HW134250   1.622   1.087   2.531  1.3048 -0.7742 -0.0444
 7597SOL    HW234251   1.756   1.153   2.564  1.0417 -2.9193  0.2872
 7598SOL     OW34252   3.850   4.221  16.108 -0.1968  0.1132  0.5517
 7598SOL    HW134253   3.776   4.184  16.156 -3.4017  2.1623 -2.7610
 7598SOL    HW234254   3.850   4.170  16.027  0.0568 -1.7342  1.7200
 7599SOL     OW34255   2.822   1.946  16.920 -0.0832  0.3467  0.4648
 7599SOL    HW134256   2.884   1.970  16.989  0.8074  1.4886 -0.7482
 7599SOL    HW234257   2.869   1.981  16.845  1.1831 -2.4044 -0.0183
 7600SOL     OW34258   2.226   2.891   7.700 -0.4588  0.4054 -0.2423
 7600SOL    HW134259   2.320   2.911   7.695 -0.6071  0.5254 -2.3975
 7600SOL    HW234260   2.198   2.962   7.758  0.0982  0.0102  0.5066
 7601SOL     OW34261   2.731   1.677   5.136 -0.4004 -0.3112 -0.1538
 7601SOL    HW134262   2.643   1.651   5.111 -0.4988  0.3601 -0.5151
 7601SOL    HW234263   2.771   1.592   5.154  1.2201  1.1264  3.0096
 7602SOL     OW34264   1.138   1.299   9.390  0.2466  0.0024  0.3096
 7602SOL    HW134265   1.093   1.299   9.475 -0.1465 -0.9832  0.0972
 7602SOL    HW234266   1.227   1.318   9.419  0.5462  1.6405 -1.6696
 7603SOL     OW34267   0.526   3.333   2.914  0.5400  0.0450  0.3316
 7603SOL    HW134268   0.543   3.256   2.967 -1.4198 -2.0269 -2.0537
 7603SOL    HW234269   0.584   3.328   2.838 -0.7782  2.0609 -0.8144
 7604SOL     OW34270   3.672   2.884   5.202  0.0574 -0.0408 -0.3153
 7604SOL    HW134271   3.759   2.912   5.231  0.3169  1.7499 -2.8375
 7604SOL    HW234272   3.642   2.816   5.263  0.1017  2.2297  2.2652
 7605SOL     OW34273   3.601   4.648   0.533  0.1038  0.3905  0.0662
 7605SOL    HW134274   3.558   0.007   0.554  1.0114  0.8153  0.2371
 7605SOL    HW234275   3.527   4.588   0.544 -1.4357  2.1024 -0.8689
 7606SOL     OW34276   0.369   0.686   5.478  0.1709  0.4178 -0.7022
 7606SOL    HW134277   0.412   0.611   5.437  3.2242  0.8061  1.8328
 7606SOL    HW234278   0.291   0.688   5.423  0.5500 -0.1310 -1.2633
 7607SOL     OW34279   0.664   0.140   1.997 -0.1786  0.3940 -0.5833
 7607SOL    HW134280   0.622   0.226   2.009 -0.3243  0.3933 -1.0909
 7607SOL    HW234281   0.708   0.147   1.913  0.9819  0.5979  0.0494
 7608SOL     OW34282   3.110   2.502   8.300  0.1909  0.2925  0.6351
 7608SOL    HW134283   3.194   2.460   8.280  0.8616  1.6202  0.6197
 7608SOL    HW234284   3.047   2.474   8.233  0.0504  0.1450  0.8320
 7609SOL     OW34285   3.106   1.966   7.521 -0.4890 -0.0341  0.8190
 7609SOL    HW134286   3.030   1.996   7.471  0.0195 -2.1860 -1.2624
 7609SOL    HW234287   3.095   2.001   7.610 -3.3980 -0.9145  0.7934
 7610SOL     OW34288   2.173   0.761   6.330 -0.4096 -0.0232  0.3657
 7610SOL    HW134289   2.195   0.854   6.337 -1.1310  0.1298  0.5998
 7610SOL    HW234290   2.088   0.774   6.288  1.4094  1.9025 -2.7121
 7611SOL     OW34291   0.419   2.719  15.529 -0.0036  0.0193  0.5885
 7611SOL    HW134292   0.458   2.764  15.604 -0.2158  0.7618  0.2553
 7611SOL    HW234293   0.360   2.785  15.493  1.2064 -0.0512 -1.5796
 7612SOL     OW34294   0.419   2.710   4.861  0.7550 -0.1109  0.3402
 7612SOL    HW134295   0.442   2.652   4.933 -0.7044  0.8112  1.5473
 7612SOL    HW234296   0.330   2.728   4.891  0.2566  0.6273 -1.6088
 7613SOL     OW34297   0.685   4.072   2.441  0.3647  0.5543  0.4919
 7613SOL    HW134298   0.765   4.111   2.406 -1.3711  0.7674 -3.2140
 7613SOL    HW234299   0.700   4.063   2.535  2.0805 -1.2667  0.0449
 7614SOL     OW34300   1.554   0.370  15.012  0.0957  0.2296 -0.4490
 7614SOL    HW134301   1.597   0.285  15.024 -2.9090 -1.0185  1.3744
 7614SOL    HW234302   1.539   0.395  15.103 -0.6020  1.0065 -0.7821
 7615SOL     OW34303   0.083   0.386   2.500  0.0700 -0.3640 -0.3094
 7615SOL    HW134304   0.112   0.313   2.446  0.8647 -1.4687  1.6102
 7615SOL    HW234305   0.020   0.346   2.560 -0.7137  2.4201  0.7139
 7616SOL     OW34306   2.041   0.458   4.899  0.2623 -0.1103  0.7385
 7616SOL    HW134307   2.104   0.388   4.916  1.4174  0.3415 -1.7027
 7616SOL    HW234308   2.031   0.442   4.805  0.7845 -1.3740  0.8949
 7617SOL     OW34309   1.004   4.110   2.367 -0.7796 -0.1243 -0.3053
 7617SOL    HW134310   1.060   4.165   2.421 -0.0467 -0.2421 -0.9475
 7617SOL    HW234311   1.045   4.026   2.388 -0.1712  0.1856 -0.2510
 7618SOL     OW34312   3.371   1.958   3.234  0.2713 -0.3200  0.3754
 7618SOL    HW134313   3.345   1.905   3.309 -2.9489 -0.3245 -0.7739
 7618SOL    HW234314   3.466   1.943   3.236  0.6213  1.9142  0.5993
 7619SOL     OW34315   2.093   3.349   2.866 -0.5018 -0.0877 -0.2155
 7619SOL    HW134316   2.097   3.259   2.832 -2.5174 -0.0591 -0.5565
 7619SOL    HW234317   2.015   3.384   2.824  0.0201 -0.3912 -1.4240
 7620SOL     OW34318   1.005   3.114   3.833  0.1275  0.2319 -0.5884
 7620SOL    HW134319   0.923   3.108   3.882  0.8409 -1.1229  0.4502
 7620SOL    HW234320   0.990   3.185   3.771 -0.5699  0.9920  0.4452
 7621SOL     OW34321   3.049   2.125   1.589 -0.7587  0.2703 -0.0323
 7621SOL    HW134322   3.042   2.102   1.496 -1.0733 -1.3236  0.3979
 7621SOL    HW234323   3.062   2.220   1.584  0.5804  0.0690 -0.3510
 7622SOL     OW34324   1.058   2.544   3.773 -0.0421  0.1528 -0.0607
 7622SOL    HW134325   0.963   2.547   3.774 -0.0669 -0.2941 -1.2581
 7622SOL    HW234326   1.065   2.500   3.688  3.7232  2.5720 -1.0270
 7623SOL     OW34327   2.597   4.672  17.621 -0.6029 -0.0360 -0.1714
 7623SOL    HW134328   2.657   4.602  17.596 -1.4911 -1.0651  0.5628
 7623SOL    HW234329   2.636   0.025  17.579  1.8692 -0.6051  1.0554
 7624SOL     OW34330   1.459   4.012   5.073  0.0933  0.0338  0.0565
 7624SOL    HW134331   1.363   4.010   5.070  0.1285 -0.7475 -0.3666
 7624SOL    HW234332   1.483   3.938   5.017  2.1946  0.6038  0.2073
 7625SOL     OW34333   2.890   3.596   3.333 -0.2059  0.5286 -0.0196
 7625SOL    HW134334   2.924   3.635   3.413  1.1025 -1.4678  0.4164
 7625SOL    HW234335   2.803   3.635   3.329 -1.3926 -2.0983 -0.2563
 7626SOL     OW34336   1.365   0.600   3.854 -0.2198 -0.6968 -0.0356
 7626SOL    HW134337   1.391   0.551   3.932  0.0272  0.1924  0.4477
 7626SOL    HW234338   1.389   0.687   3.888 -0.0484 -1.1259  0.9514
 7627SOL     OW34339   0.191   2.492   3.261  0.6373  0.0262 -0.0394
 7627SOL    HW134340   0.269   2.547   3.276  0.7499 -0.3999  0.9485
 7627SOL    HW234341   0.204   2.490   3.166  0.5658  2.5397 -0.1207
 7628SOL     OW34342   4.017   1.386   9.224  0.5490  0.5129 -0.5786
 7628SOL    HW134343   3.988   1.345   9.143  1.1680 -0.5017 -0.2915
 7628SOL    HW234344   4.112   1.378   9.214 -0.0295 -1.9812 -3.9434
 7629SOL     OW34345   0.714   1.948   5.889 -0.0960  0.1722 -0.2956
 7629SOL    HW134346   0.728   1.894   5.967 -0.9974 -0.8981 -0.8705
 7629SOL    HW234347   0.627   1.986   5.892  0.7491  2.1901 -1.2937
 7630SOL     OW34348   4.276   4.358   1.316  0.2708  0.2994 -0.1779
 7630SOL    HW134349   4.369   4.350   1.296 -0.1465 -0.5318 -1.8324
 7630SOL    HW234350   4.238   4.393   1.235  1.5488  0.9319 -0.4975
 7631SOL     OW34351   1.670   3.663  12.533 -0.4911 -0.6640  0.4089
 7631SOL    HW134352   1.640   3.754  12.537  3.1030  0.5179  0.2867
 7631SOL    HW234353   1.761   3.681  12.555 -0.0594  0.1815 -2.0856
 7632SOL     OW34354   2.525   1.046  10.705 -0.6265  0.4329  0.1142
 7632SOL    HW134355   2.571   0.994  10.772 -0.7372 -0.8364 -0.7891
 7632SOL    HW234356   2.563   1.004  10.627 -1.0628 -0.4724  0.3920
 7633SOL     OW34357   4.617   0.250   1.111  0.1781  0.1981  0.1333
 7633SOL    HW134358   4.602   0.243   1.205  0.0239  0.1084  0.1015
 7633SOL    HW234359   4.707   0.218   1.105  0.1779  0.1709  0.2975
 7634SOL     OW34360   0.653   0.629   7.883 -0.4687 -0.4247  0.2193
 7634SOL    HW134361   0.705   0.709   7.881 -1.2831  0.1610  2.0882
 7634SOL    HW234362   0.666   0.590   7.969 -1.0811  2.4406  1.6181
 7635SOL     OW34363   3.337   4.128   1.290 -0.1690 -0.1900 -0.1046
 7635SOL    HW134364   3.351   4.056   1.229  1.4872 -0.1135  0.1817
 7635SOL    HW234365   3.340   4.204   1.233  0.4982  0.1306  0.3545
 7636SOL     OW34366   1.954   1.668   6.317  0.4793  0.3517  0.3787
 7636SOL    HW134367   1.988   1.635   6.234  0.1907  3.4750 -0.9964
 7636SOL    HW234368   1.952   1.761   6.294 -0.2838 -0.0184 -1.0442
 7637SOL     OW34369   1.156   2.211   5.873 -0.0052  0.3505  0.7656
 7637SOL    HW134370   1.216   2.247   5.939  1.1015 -0.4441  0.1886
 7637SOL    HW234371   1.092   2.176   5.935 -0.8210  1.3777  0.4927
 7638SOL     OW34372   2.982   2.463   7.870  0.1783  0.3791  0.2401
 7638SOL    HW134373   2.896   2.422   7.882  0.6045 -0.5850 -0.0553
 7638SOL    HW234374   2.972   2.513   7.789  0.3313  0.4351  0.2562
 7639SOL     OW34375   3.858   3.671   6.837  0.7927  0.4702 -0.2932
 7639SOL    HW134376   3.840   3.619   6.916  0.3857 -1.3428 -1.5673
 7639SOL    HW234377   3.951   3.653   6.820  0.5902 -1.3296  0.4178
 7640SOL     OW34378   0.171   4.548   8.397  0.6212 -0.0995  0.1032
 7640SOL    HW134379   0.198   4.619   8.456 -0.2560 -0.0145  0.3891
 7640SOL    HW234380   0.250   4.530   8.346  0.4135 -1.6924  0.3451
 7641SOL     OW34381   0.930   3.512   8.247  0.0611  0.1377 -0.4847
 7641SOL    HW134382   0.916   3.594   8.294  0.9068  0.3922 -0.6644
 7641SOL    HW234383   1.024   3.498   8.262  0.3615  0.5093 -1.9695
 7642SOL     OW34384   4.011   0.669   5.591  0.0052  0.0256 -0.5268
 7642SOL    HW134385   3.994   0.592   5.645  3.0200 -0.9557 -0.9940
 7642SOL    HW234386   3.923   0.679   5.554 -0.0593  0.7954 -0.1832
 7643SOL     OW34387   0.396   0.686   5.150  0.0117  0.3210 -0.0540
 7643SOL    HW134388   0.319   0.634   5.171 -1.0504  0.7214 -2.8935
 7643SOL    HW234389   0.358   0.746   5.085 -1.5403 -2.0401 -1.3357
 7644SOL     OW34390   4.304   0.949   1.813 -0.0344  0.5951 -0.8647
 7644SOL    HW134391   4.236   0.891   1.778  0.1061  1.1073 -1.9918
 7644SOL    HW234392   4.368   0.886   1.845 -1.9083 -1.7171 -1.6488
 7645SOL     OW34393   3.355   2.239   2.125 -0.0644 -0.1760  0.1403
 7645SOL    HW134394   3.289   2.247   2.056 -0.3683 -0.0821  0.4470
 7645SOL    HW234395   3.392   2.327   2.121 -1.1546  0.2510 -0.5618
 7646SOL     OW34396   0.387   1.769  13.513  0.2650  0.0565  0.2115
 7646SOL    HW134397   0.318   1.780  13.578  1.3843 -0.0784  1.4170
 7646SOL    HW234398   0.448   1.716  13.564 -2.2896 -1.6949  1.4634
 7647SOL     OW34399   3.691   1.881   4.777 -0.8156  0.1759 -0.1988
 7647SOL    HW134400   3.786   1.878   4.790 -1.0558  0.3140  1.5510
 7647SOL    HW234401   3.670   1.936   4.851  0.8167  0.2883  0.1813
 7648SOL     OW34402   0.657   1.852  10.504 -0.2798  0.2481 -0.2330
 7648SOL    HW134403   0.712   1.902  10.565  0.8844  1.2532 -2.0883
 7648SOL    HW234404   0.587   1.826  10.563  0.0074  0.4380  0.1885
 7649SOL     OW34405   1.798   0.583   7.952  0.2754  0.1996  0.7363
 7649SOL    HW134406   1.834   0.498   7.926  0.4271  0.7626 -0.8355
 7649SOL    HW234407   1.863   0.641   7.915  3.6462 -3.0829  1.5458
 7650SOL     OW34408   2.692   3.953   4.250 -0.3783  0.5788 -0.2354
 7650SOL    HW134409   2.752   3.882   4.228 -0.9948 -0.3083  0.9543
 7650SOL    HW234410   2.689   3.934   4.344 -0.7290 -0.4695 -0.4597
 7651SOL     OW34411   3.504   0.572   8.864  0.3388 -0.4086 -0.4324
 7651SOL    HW134412   3.530   0.568   8.772  3.0736  0.2947  0.3344
 7651SOL    HW234413   3.415   0.607   8.856  0.0921 -1.0540 -0.5780
 7652SOL     OW34414   0.684   2.818  15.359 -0.1102 -0.0903  0.0205
 7652SOL    HW134415   0.770   2.777  15.366  0.0353 -0.5552 -4.2394
 7652SOL    HW234416   0.629   2.739  15.354  0.4033 -0.5292  1.1550
 7653SOL     OW34417   0.593   4.427   4.493 -0.6423 -0.1559  0.1117
 7653SOL    HW134418   0.553   4.513   4.475 -0.3487  0.2760  1.5091
 7653SOL    HW234419   0.686   4.447   4.479 -0.5603 -0.5368  0.1246
 7654SOL     OW34420   0.139   0.551   6.147 -0.1382 -0.1205  0.2593
 7654SOL    HW134421   0.165   0.473   6.098 -1.2155 -0.1015 -0.3364
 7654SOL    HW234422   0.122   0.514   6.233  0.1624  0.6993  0.6701
 7655SOL     OW34423   2.111   2.461   4.823 -0.0739 -0.0467 -0.0202
 7655SOL    HW134424   2.085   2.511   4.746 -2.4051 -2.6853 -0.9458
 7655SOL    HW234425   2.170   2.402   4.776  1.5530  1.1983  0.4250
 7656SOL     OW34426   4.277   2.375  14.339  0.6596 -0.4001 -0.2761
 7656SOL    HW134427   4.253   2.324  14.416  3.3192 -2.2636 -0.6723
 7656SOL    HW234428   4.237   2.458  14.365  1.0384 -0.6337  1.0706
 7657SOL     OW34429   1.541   1.493   7.804  0.1723  0.1844  0.1121
 7657SOL    HW134430   1.476   1.511   7.872 -0.5417 -4.7649  0.7249
 7657SOL    HW234431   1.553   1.399   7.813 -1.4179 -0.0527 -0.1057
 7658SOL     OW34432   3.191   3.656   8.799 -0.0504  0.0516  0.2298
 7658SOL    HW134433   3.230   3.723   8.855 -0.6188 -0.2827  1.0426
 7658SOL    HW234434   3.142   3.706   8.734  1.4376  1.9938  0.5917
 7659SOL     OW34435   4.024   1.130   6.101 -0.4533 -0.5660 -0.1310
 7659SOL    HW134436   4.043   1.113   6.193 -1.1035  1.0908  0.3050
 7659SOL    HW234437   4.110   1.109   6.066 -0.2401  2.2465 -1.2722
 7660SOL     OW34438   4.242   0.208  14.599 -0.0720 -0.3624 -0.3091
 7660SOL    HW134439   4.276   0.282  14.548 -0.0636 -2.1480 -2.8429
 7660SOL    HW234440   4.166   0.249  14.641 -0.5896 -1.6898  0.0220
 7661SOL     OW34441   1.326   0.956   8.696 -0.4792 -0.3678  0.3306
 7661SOL    HW134442   1.242   0.911   8.684 -0.2980 -1.1423  2.0514
 7661SOL    HW234443   1.380   0.892   8.742  3.1542  1.6271 -1.1890
 7662SOL     OW34444   0.481   2.528  10.852  0.5699 -0.1739  0.0393
 7662SOL    HW134445   0.474   2.434  10.842 -1.3586 -0.1557  1.2431
 7662SOL    HW234446   0.447   2.560  10.769 -0.8268  1.6787  1.3009
 7663SOL     OW34447   1.281   1.766   4.590  0.1491 -0.0960 -0.0538
 7663SOL    HW134448   1.228   1.686   4.584  0.3051 -0.4035  2.9684
 7663SOL    HW234449   1.272   1.782   4.684 -1.5788 -0.2304 -0.1795
 7664SOL     OW34450   2.356   3.740   4.724  0.5417 -0.1056 -0.0603
 7664SOL    HW134451   2.317   3.687   4.655 -0.3295  3.1749 -2.1074
 7664SOL    HW234452   2.311   3.712   4.803  1.3408 -0.9708  0.0855
 7665SOL     OW34453   3.084   0.189   6.553 -0.5866 -0.0557 -0.2752
 7665SOL    HW134454   3.086   0.278   6.590  0.0613 -0.3307  0.3564
 7665SOL    HW234455   3.142   0.139   6.610 -0.0869 -1.0546 -1.6748
 7666SOL     OW34456   0.377   1.775   8.132 -0.0287 -0.2088  0.1962
 7666SOL    HW134457   0.401   1.857   8.090 -0.9699 -0.1213 -0.1603
 7666SOL    HW234458   0.429   1.706   8.091  0.0050 -0.0604 -0.0112
 7667SOL     OW34459   1.132   4.194  14.892 -0.1282 -0.2882 -0.1561
 7667SOL    HW134460   1.212   4.198  14.840  0.6338  1.2916  1.1166
 7667SOL    HW234461   1.095   4.111  14.861 -0.6881  0.5914 -1.8565
 7668SOL     OW34462   4.235   3.112   3.004  0.0745 -0.3400 -0.6575
 7668SOL    HW134463   4.214   3.204   2.985  0.4103 -0.1837 -0.2942
 7668SOL    HW234464   4.200   3.100   3.092  0.9180 -0.8415 -0.3871
 7669SOL     OW34465   4.546   3.128   5.250 -0.1732 -0.1656 -0.9519
 7669SOL    HW134466   4.488   3.204   5.257 -0.1890 -0.5612  3.0881
 7669SOL    HW234467   4.511   3.087   5.171  1.5324 -1.5614 -0.9739
 7670SOL     OW34468   1.978   0.366  17.177 -0.6737 -0.4043 -0.1536
 7670SOL    HW134469   1.918   0.321  17.117 -0.7849 -1.6420  0.8693
 7670SOL    HW234470   1.922   0.413  17.238 -2.9209 -1.1732 -1.6075
 7671SOL     OW34471   3.383   3.485   2.534 -0.1820 -0.5591 -0.6122
 7671SOL    HW134472   3.300   3.529   2.513 -1.7975 -2.3613  2.0284
 7671SOL    HW234473   3.444   3.537   2.481  2.0706 -0.3176  2.2524
 7672SOL     OW34474   2.304   0.246  13.872 -0.4827  0.5829  1.0862
 7672SOL    HW134475   2.260   0.290  13.945  1.3071  1.3307  1.7271
 7672SOL    HW234476   2.366   0.317  13.857 -0.1322 -0.1513 -0.9158
 7673SOL     OW34477   3.849   3.918   9.617  0.0679  0.4002  0.6514
 7673SOL    HW134478   3.794   3.864   9.560  0.1295  1.1879 -0.1406
 7673SOL    HW234479   3.855   3.999   9.568 -0.5639 -0.4474 -0.8216
 7674SOL     OW34480   2.228   4.213   7.343  0.0270  0.1197 -0.0792
 7674SOL    HW134481   2.208   4.216   7.436 -0.4696  0.1527 -0.1872
 7674SOL    HW234482   2.165   4.279   7.314 -1.2941 -0.4430  1.5246
 7675SOL     OW34483   1.640   2.096   3.611  0.0473 -0.2910 -0.0690
 7675SOL    HW134484   1.562   2.051   3.641  0.1003 -0.4232 -0.1280
 7675SOL    HW234485   1.669   2.164   3.672  1.0198 -1.1333  0.3967
 7676SOL     OW34486   1.492   0.119   1.883 -0.4706  0.4349  0.5302
 7676SOL    HW134487   1.502   0.208   1.852 -0.6638 -0.2458 -1.4909
 7676SOL    HW234488   1.581   0.083   1.878 -0.5224  0.2455  0.9434
 7677SOL     OW34489   2.833   2.453   8.961  0.5744  0.5983 -0.3508
 7677SOL    HW134490   2.913   2.404   8.977  0.9185  2.1830  2.7970
 7677SOL    HW234491   2.867   2.540   8.981  0.6991  0.5946 -0.5397
 7678SOL     OW34492   0.459   4.012  11.305  0.2992 -0.2210  0.1289
 7678SOL    HW134493   0.384   3.955  11.322 -0.1764  0.0896 -0.9539
 7678SOL    HW234494   0.518   3.949  11.263  0.6905  0.3316 -0.1431
 7679SOL     OW34495   0.331   2.881  12.230 -0.2909 -0.5500 -0.0536
 7679SOL    HW134496   0.301   2.972  12.231  0.8608 -0.1775  1.7025
 7679SOL    HW234497   0.362   2.886  12.139  2.2872 -2.5631  0.6940
 7680SOL     OW34498   3.284   4.115   2.106  0.3651  0.1714 -0.2976
 7680SOL    HW134499   3.351   4.139   2.042  0.2078  0.9389 -0.1650
 7680SOL    HW234500   3.253   4.030   2.075 -0.7226  0.9281 -1.2760
 7681SOL     OW34501   0.728   3.154   0.316  0.2972  0.2391  0.7119
 7681SOL    HW134502   0.759   3.099   0.388  1.4586 -1.0925 -0.8001
 7681SOL    HW234503   0.654   3.188   0.366  0.1077 -1.0851  1.3289
 7682SOL     OW34504   4.389   0.978   1.502  0.1204 -0.7347  0.4641
 7682SOL    HW134505   4.455   1.003   1.567 -1.0500  2.4525  0.4228
 7682SOL    HW234506   4.384   0.884   1.521 -0.7282 -0.3327  2.2474
 7683SOL     OW34507   2.553   1.380   4.382 -0.1795 -0.1314 -0.0039
 7683SOL    HW134508   2.558   1.316   4.452 -0.8222 -1.3177 -1.0337
 7683SOL    HW234509   2.554   1.331   4.299 -0.6124  0.0878 -0.1404
 7684SOL     OW34510   3.448   0.461   2.399  0.0612  0.4872 -0.2875
 7684SOL    HW134511   3.425   0.537   2.452  1.0978 -1.0383  2.3190
 7684SOL    HW234512   3.490   0.404   2.463 -0.9617 -0.9804 -0.9165
 7685SOL     OW34513   0.672   4.504   9.219  0.2028  0.3238  0.0154
 7685SOL    HW134514   0.593   4.465   9.183  0.3876  0.4226 -0.4947
 7685SOL    HW234515   0.732   4.430   9.226  0.9750  0.9963  0.5500
 7686SOL     OW34516   0.599   3.810   5.248  0.1163 -0.0336  0.2391
 7686SOL    HW134517   0.610   3.724   5.206 -2.7449 -0.5919  0.6082
 7686SOL    HW234518   0.602   3.857   5.165  1.5287  1.4862  1.1506
 7687SOL     OW34519   4.630   3.905   7.501  0.0272  0.1675 -0.3798
 7687SOL    HW134520   4.569   3.973   7.530 -0.6809 -0.4326 -0.4790
 7687SOL    HW234521   4.704   3.928   7.558 -0.3308 -1.7792  0.8986
 7688SOL     OW34522   0.765   2.274   8.609  0.4583  0.6102 -0.0390
 7688SOL    HW134523   0.727   2.258   8.695 -0.7773 -0.4468 -0.7881
 7688SOL    HW234524   0.795   2.365   8.606  0.7009  0.5166 -0.5116
 7689SOL     OW34525   0.648   0.201   0.683 -0.1743 -0.4491  0.5197
 7689SOL    HW134526   0.577   0.255   0.648  1.3652 -0.2163 -2.2337
 7689SOL    HW234527   0.719   0.225   0.624  0.0157 -0.8910  0.5687
 7690SOL     OW34528   4.563   1.574   8.921 -0.2196 -0.0276  0.2244
 7690SOL    HW134529   4.646   1.622   8.924 -0.0707 -0.0959 -3.4707
 7690SOL    HW234530   4.567   1.534   9.008  0.0443  0.2740  0.3507
 7691SOL     OW34531   1.161   3.603   8.535 -0.0754 -0.1566 -0.1485
 7691SOL    HW134532   1.235   3.600   8.596 -0.7306  0.3541  0.6808
 7691SOL    HW234533   1.172   3.519   8.490  0.2530 -0.2344  0.0793
 7692SOL     OW34534   1.063   2.052   5.160  0.5043  0.2752  0.3069
 7692SOL    HW134535   1.075   2.127   5.219  0.5230 -0.9443  1.8671
 7692SOL    HW234536   1.091   1.972   5.204 -1.8499  0.0268  1.3840
 7693SOL     OW34537   2.175   4.402  17.458 -0.9497  0.5622 -0.0553
 7693SOL    HW134538   2.247   4.452  17.497 -2.4052  2.2712  0.4063
 7693SOL    HW234539   2.146   4.366  17.541  0.9339  0.9746  0.7804
 7694SOL     OW34540   0.474   3.194  14.865  0.5023 -0.1099 -0.9972
 7694SOL    HW134541   0.534   3.212  14.937  0.4204  1.6490 -1.3609
 7694SOL    HW234542   0.534   3.199  14.790  1.1649 -2.7403 -0.6225
 7695SOL     OW34543   2.478   3.100  15.657  0.0226  0.2406 -0.0423
 7695SOL    HW134544   2.564   3.060  15.672 -0.3395 -0.5886 -0.1946
 7695SOL    HW234545   2.439   3.042  15.592  0.0482 -0.4611  0.5649
 7696SOL     OW34546   1.062   2.578   9.123 -0.0466 -0.4210 -0.2773
 7696SOL    HW134547   1.089   2.514   9.190  1.1645 -0.1655 -0.5105
 7696SOL    HW234548   1.147   2.614   9.098  0.9902 -1.4016  1.8318
 7697SOL     OW34549   0.709   1.157   1.688  0.0372 -0.3091 -0.2573
 7697SOL    HW134550   0.717   1.072   1.730  1.1493  0.2428  0.6599
 7697SOL    HW234551   0.715   1.217   1.763  0.0522 -0.2075 -0.3396
 7698SOL     OW34552   1.615   1.930   7.753 -0.2754 -0.5042  0.0677
 7698SOL    HW134553   1.676   1.870   7.795 -2.3233 -1.6030  1.4907
 7698SOL    HW234554   1.668   1.969   7.684  1.7038 -1.2818  1.1554
 7699SOL     OW34555   2.213   3.612   5.967  0.1331  0.0980 -0.0169
 7699SOL    HW134556   2.261   3.579   5.890  0.3717 -1.4543  0.8065
 7699SOL    HW234557   2.210   3.529   6.015  0.8996 -0.9702 -1.8051
 7700SOL     OW34558   1.333   2.326   3.708 -0.0197 -0.1349 -0.0370
 7700SOL    HW134559   1.384   2.319   3.628  0.1353 -1.1677  0.1556
 7700SOL    HW234560   1.345   2.240   3.747 -2.9497 -0.2780  0.5773
 7701SOL     OW34561   4.685   4.056  15.633  0.0270 -0.2497  0.6131
 7701SOL    HW134562   4.639   4.140  15.626  1.5314  0.6789  2.0806
 7701SOL    HW234563   0.054   4.079  15.640 -0.3862  2.0049 -1.2778
 7702SOL     OW34564   2.384   2.731  14.540 -0.0339  0.2169 -0.1734
 7702SOL    HW134565   2.472   2.730  14.578  0.1264 -1.5127 -0.5762
 7702SOL    HW234566   2.368   2.824  14.523 -1.4388 -0.2119 -1.1241
 7703SOL     OW34567   1.748   0.196   1.192  0.5571 -0.1147 -0.3058
 7703SOL    HW134568   1.813   0.158   1.132  0.6352  0.6280 -0.6871
 7703SOL    HW234569   1.738   0.282   1.152 -0.0292 -0.0074  0.0825
 7704SOL     OW34570   3.412   2.497   2.068  0.0244 -0.0716 -0.2800
 7704SOL    HW134571   3.466   2.464   1.996  0.8245 -1.0908  0.7830
 7704SOL    HW234572   3.345   2.537   2.012  1.4764  1.5570 -0.8212
 7705SOL     OW34573   0.661   0.943   6.328 -0.0183  0.2062  0.2325
 7705SOL    HW134574   0.664   0.924   6.422  0.5727  0.8971  0.3483
 7705SOL    HW234575   0.748   0.982   6.328 -1.2252  2.8652 -0.8690
 7706SOL     OW34576   1.056   2.717   7.730  0.3275  0.4591 -0.0296
 7706SOL    HW134577   0.982   2.768   7.764  0.1642 -0.1618  0.5559
 7706SOL    HW234578   1.066   2.744   7.639 -0.0603  1.8111  0.3344
 7707SOL     OW34579   3.663   0.778   5.767 -0.1980  0.6156  0.2220
 7707SOL    HW134580   3.588   0.814   5.814  0.2932  1.4761  0.3466
 7707SOL    HW234581   3.718   0.855   5.752  2.6516 -1.3628  0.6669
 7708SOL     OW34582   0.175   2.274  17.174 -0.1443 -0.0764  0.0789
 7708SOL    HW134583   0.153   2.218  17.249 -1.4038  1.1598  0.6237
 7708SOL    HW234584   0.148   2.216  17.104  0.1115  0.0072 -0.0898
 7709SOL     OW34585   1.903   2.525   6.739  0.2483 -0.0756 -0.4636
 7709SOL    HW134586   1.846   2.447   6.739 -0.1538  0.2134 -3.3539
 7709SOL    HW234587   1.941   2.518   6.826  1.6859 -0.0725 -1.1006
 7710SOL     OW34588   0.356   1.033  15.671  0.1115  0.0519  0.0316
 7710SOL    HW134589   0.359   0.937  15.677 -1.4344 -0.0395 -0.6066
 7710SOL    HW234590   0.277   1.053  15.621 -0.3260 -3.3119 -0.6119
 7711SOL     OW34591   3.195   1.285  13.150 -0.1928 -0.1491  0.6821
 7711SOL    HW134592   3.208   1.271  13.244  3.2109  1.2167  0.3781
 7711SOL    HW234593   3.103   1.258  13.150  0.3347 -1.9384 -0.3461
 7712SOL     OW34594   0.337   1.620  12.647  0.3872  0.5966 -0.1619
 7712SOL    HW134595   0.417   1.581  12.682 -0.4697 -0.3342  0.7675
 7712SOL    HW234596   0.363   1.644  12.558  1.6595  1.4759  0.4591
 7713SOL     OW34597   3.925   0.013   4.887 -0.2108 -0.4539 -0.1713
 7713SOL    HW134598   3.937   0.106   4.868  0.3979 -0.6804 -0.9069
 7713SOL    HW234599   3.871   4.700   4.818  0.0119 -2.3956  0.7053
 7714SOL     OW34600   0.675   0.999  15.016 -0.0718  0.5783 -0.1962
 7714SOL    HW134601   0.667   1.077  15.070 -1.4977  0.3402 -0.0679
 7714SOL    HW234602   0.765   0.968  15.005  0.0227  1.0455 -0.7543
 7715SOL     OW34603   1.345   2.497  16.083 -0.0426  0.2392  0.4410
 7715SOL    HW134604   1.416   2.528  16.139  0.2847  1.5622 -0.6921
 7715SOL    HW234605   1.305   2.583  16.070 -0.1054  0.1669  0.1597
 7716SOL     OW34606   0.676   0.925   1.833 -0.8873  0.1524  0.7863
 7716SOL    HW134607   0.589   0.912   1.871 -1.1547  1.1173  0.5061
 7716SOL    HW234608   0.700   0.844   1.789 -1.6502  0.2217  0.2584
 7717SOL     OW34609   2.073   3.770   5.498  0.0351 -0.5622 -0.1649
 7717SOL    HW134610   2.016   3.773   5.422 -2.5601  2.7698  1.8902
 7717SOL    HW234611   2.129   3.694   5.483  0.2661 -0.0208 -2.0072
 7718SOL     OW34612   4.512   3.267   2.274  0.0788  0.7833 -0.2714
 7718SOL    HW134613   4.444   3.205   2.300  1.4861  0.4600  2.6105
 7718SOL    HW234614   4.471   3.334   2.220 -0.9099  0.2489 -0.1870
 7719SOL     OW34615   3.684   1.542   3.602  0.0610 -0.4372 -0.1256
 7719SOL    HW134616   3.751   1.551   3.670  1.2944  0.0759 -1.4152
 7719SOL    HW234617   3.604   1.565   3.649 -0.6131  0.1957 -1.5817
 7720SOL     OW34618   4.572   0.974   7.394 -0.1072 -0.1417  0.0498
 7720SOL    HW134619   4.587   0.966   7.300  0.5932  2.7186 -0.0937
 7720SOL    HW234620   4.665   0.978   7.416  0.0865 -0.1730 -0.7374
 7721SOL     OW34621   3.715   3.545  13.128  0.2230 -0.1512 -0.3761
 7721SOL    HW134622   3.764   3.602  13.068 -0.5172  1.5593  0.6335
 7721SOL    HW234623   3.720   3.461  13.082 -0.6741  0.7169 -2.0481
 7722SOL     OW34624   2.950   0.780   8.876  0.0560  0.0781  0.0782
 7722SOL    HW134625   3.031   0.824   8.902  0.1444  0.2823 -0.5689
 7722SOL    HW234626   2.953   0.794   8.782 -1.3477  0.9591  0.1683
 7723SOL     OW34627   0.199   3.689   1.728  0.2639  0.2192 -0.0763
 7723SOL    HW134628   0.207   3.733   1.813  1.4319 -1.6812  0.7856
 7723SOL    HW234629   0.290   3.684   1.698  0.2351  0.9448 -0.2827
 7724SOL     OW34630   1.531   4.094   1.816 -0.4624 -0.2532 -0.3042
 7724SOL    HW134631   1.575   4.079   1.733  0.3705 -1.1493  0.2988
 7724SOL    HW234632   1.607   4.117   1.870  0.6219 -0.3223 -1.8120
 7725SOL     OW34633   3.487   0.145  15.859 -0.1894 -0.3698  0.3287
 7725SOL    HW134634   3.483   0.240  15.846 -0.2757 -0.6016 -1.3227
 7725SOL    HW234635   3.549   0.130  15.930  0.2954 -0.4412 -0.1056
 7726SOL     OW34636   4.318   2.344   3.765 -0.1154  0.2786 -0.0575
 7726SOL    HW134637   4.339   2.302   3.848  0.2746  1.1265  0.2636
 7726SOL    HW234638   4.406   2.358   3.730  0.7478  1.6350  2.6555
 7727SOL     OW34639   1.927   3.108   1.941  0.2144  0.4541 -0.3306
 7727SOL    HW134640   1.957   3.160   2.016  1.3307 -1.1217  0.3164
 7727SOL    HW234641   1.906   3.184   1.886  0.6954  1.2342  0.5490
 7728SOL     OW34642   0.584   0.327   6.352 -0.4442 -0.5966 -0.1936
 7728SOL    HW134643   0.555   0.249   6.400  3.2168 -1.6725  0.2709
 7728SOL    HW234644   0.588   0.385   6.427 -1.6909 -1.2661  0.3915
 7729SOL     OW34645   2.355   4.549  17.618  0.2833 -0.0668 -0.7210
 7729SOL    HW134646   2.366   4.492  17.695 -0.3100 -0.0660 -0.6319
 7729SOL    HW234647   2.433   4.604  17.622 -0.3523  0.8170 -0.4470
 7730SOL     OW34648   0.551   2.207  12.609 -0.2456  0.0478 -0.2927
 7730SOL    HW134649   0.513   2.162  12.534 -0.8300  0.7400 -0.4196
 7730SOL    HW234650   0.615   2.262  12.564 -0.0853 -0.4178 -0.6377
 7731SOL     OW34651   4.017   2.215   2.244  0.2281  0.8596 -0.0103
 7731SOL    HW134652   4.019   2.261   2.160  1.7986  1.2088  0.2309
 7731SOL    HW234653   4.101   2.238   2.283  1.6558  0.0068 -2.5285
 7732SOL     OW34654   1.557   1.022   5.371  0.1023  0.3795  0.0546
 7732SOL    HW134655   1.488   1.084   5.394  0.1598  1.1395 -1.8243
 7732SOL    HW234656   1.585   1.064   5.289  1.0317 -1.4412 -0.5487
 7733SOL     OW34657   3.878   0.017  12.239 -0.2491  0.3826  0.6726
 7733SOL    HW134658   3.892   4.660  12.288  3.2173  0.4825 -0.1898
 7733SOL    HW234659   3.786   0.011  12.210 -0.9332 -1.5677  3.3002
 7734SOL     OW34660   2.573   3.661   6.633  0.0923 -0.4198 -0.4121
 7734SOL    HW134661   2.529   3.576   6.627  0.1892 -0.4908 -0.1196
 7734SOL    HW234662   2.579   3.683   6.726 -1.0040  2.1216 -0.9409
 7735SOL     OW34663   0.633   4.561   4.836  0.5213  0.1150 -0.2557
 7735SOL    HW134664   0.544   4.569   4.870  0.4800 -2.2716  0.1842
 7735SOL    HW234665   0.629   4.476   4.792  0.1627  0.7538 -1.4622
 7736SOL     OW34666   2.723   2.552   8.298 -0.1861 -0.0095 -0.5526
 7736SOL    HW134667   2.793   2.511   8.247  0.3335  0.1729  0.0114
 7736SOL    HW234668   2.737   2.645   8.283  0.9347 -0.2929 -1.2446
 7737SOL     OW34669   4.666   0.970   5.117  0.8131  0.0797 -0.2912
 7737SOL    HW134670   4.572   0.982   5.126  0.4659  0.0057 -3.7895
 7737SOL    HW234671   4.692   0.912   5.188 -2.5199  0.3367  1.1050
 7738SOL     OW34672   2.487   3.824   9.947  0.1927 -0.2761 -0.2217
 7738SOL    HW134673   2.503   3.763  10.019 -0.3101  1.2160  1.1718
 7738SOL    HW234674   2.461   3.763   9.878  1.7576 -0.2099 -0.8729
 7739SOL     OW34675   4.249   0.443  15.597 -0.4240 -0.2038  0.3455
 7739SOL    HW134676   4.257   0.519  15.539  1.6462 -0.0699  0.7750
 7739SOL    HW234677   4.157   0.461  15.616 -0.1596 -1.2003  2.6814
 7740SOL     OW34678   1.172   3.994   7.089  0.0121  0.1024 -0.8170
 7740SOL    HW134679   1.252   4.009   7.140  0.2041 -2.4161 -0.3482
 7740SOL    HW234680   1.112   3.972   7.160  1.8322 -1.3622  0.2926
 7741SOL     OW34681   2.101   1.372   7.334 -0.4502  0.3710  0.3768
 7741SOL    HW134682   2.108   1.441   7.269  2.8403 -0.6535 -0.3546
 7741SOL    HW234683   2.191   1.340   7.338  0.2107  2.0728 -0.6948
 7742SOL     OW34684   3.653   4.230  10.497 -0.2539  0.2837  0.2742
 7742SOL    HW134685   3.579   4.274  10.540  0.9465 -0.5714  3.2227
 7742SOL    HW234686   3.700   4.311  10.478 -0.5146  0.0566 -1.3416
 7743SOL     OW34687   3.123   3.103   5.240  0.2891 -0.2674 -0.1263
 7743SOL    HW134688   3.173   3.023   5.220 -0.3024 -0.5353 -0.5153
 7743SOL    HW234689   3.144   3.157   5.164 -2.1289 -0.4851 -0.9207
 7744SOL     OW34690   0.586   0.844   3.360  0.3313 -0.6054 -0.0793
 7744SOL    HW134691   0.679   0.840   3.382  0.4188 -0.5919 -0.4539
 7744SOL    HW234692   0.556   0.912   3.421  1.8287  0.1582 -0.1779
 7745SOL     OW34693   1.076   3.320   6.342 -0.9188 -0.3946 -0.1966
 7745SOL    HW134694   1.151   3.262   6.336 -0.8867 -0.4166  0.3916
 7745SOL    HW234695   1.024   3.286   6.415  1.1216 -0.2385  1.3096
 7746SOL     OW34696   2.361   3.840   8.770  0.6092  0.0746  0.1468
 7746SOL    HW134697   2.318   3.755   8.785 -2.1404  1.2832 -0.8819
 7746SOL    HW234698   2.394   3.852   8.860 -0.5599 -0.5315  0.6548
 7747SOL     OW34699   4.713   3.841  10.482  0.4715  0.0214  0.1194
 7747SOL    HW134700   4.722   3.936  10.488  0.8477 -0.0836  1.2094
 7747SOL    HW234701   4.628   3.830  10.523 -0.7217  0.8185 -2.1310
 7748SOL     OW34702   4.268   4.550   7.484  0.3970  0.4515 -0.0753
 7748SOL    HW134703   4.344   4.491   7.485  0.2160  0.2356  0.4458
 7748SOL    HW234704   4.256   4.563   7.389 -0.0949  0.3495 -0.0259
 7749SOL     OW34705   0.073   4.389   3.207  0.6202  0.2263 -0.0877
 7749SOL    HW134706   0.112   4.409   3.292  0.6193  1.1579 -0.3090
 7749SOL    HW234707   4.712   4.366   3.244  0.7479  0.3439  0.2814
 7750SOL     OW34708   3.543   4.553   5.639  0.0391  0.2115  0.2403
 7750SOL    HW134709   3.556   4.495   5.714  1.0690 -0.5233 -0.4973
 7750SOL    HW234710   3.452   4.528   5.621 -0.1797 -0.2008  1.9077
 7751SOL     OW34711   3.307   3.942   2.507 -0.8314 -0.0871 -0.3577
 7751SOL    HW134712   3.358   3.862   2.512 -1.0495 -0.0022  3.2731
 7751SOL    HW234713   3.292   3.939   2.413  0.1254 -0.4895 -0.4887
 7752SOL     OW34714   1.159   3.481   2.694 -0.0375 -0.1211  0.0518
 7752SOL    HW134715   1.077   3.441   2.668  0.8922 -2.6838  1.1009
 7752SOL    HW234716   1.133   3.550   2.756 -0.6236  0.9175 -1.3436
 7753SOL     OW34717   1.809   4.261   1.748 -0.1450  0.1696 -0.0686
 7753SOL    HW134718   1.742   4.271   1.680 -0.4151 -1.7341 -0.0865
 7753SOL    HW234719   1.770   4.299   1.827  1.2776  0.9730  0.2299
 7754SOL     OW34720   2.108   4.488  14.799  0.1059  0.5541  0.2993
 7754SOL    HW134721   2.154   4.547  14.858 -0.3997 -0.2495  1.5039
 7754SOL    HW234722   2.021   4.529  14.797 -0.1724 -0.0543 -0.1243
 7755SOL     OW34723   3.244   2.827   4.256 -0.0127 -0.5318  0.0479
 7755SOL    HW134724   3.168   2.776   4.228 -0.9851  0.5537  0.7385
 7755SOL    HW234725   3.268   2.867   4.173 -0.2348 -0.1641  0.1632
 7756SOL     OW34726   3.506   3.108   4.641  0.6191  0.8262 -0.0102
 7756SOL    HW134727   3.499   3.197   4.674 -0.1012  0.7597  0.0169
 7756SOL    HW234728   3.422   3.090   4.599  0.0818 -1.6125  2.1469
 7757SOL     OW34729   1.110   2.947   7.041 -0.5523  0.7065  0.0766
 7757SOL    HW134730   1.172   2.882   7.008 -1.9244  0.2173 -1.5289
 7757SOL    HW234731   1.102   2.939   7.136 -2.5366 -0.1760 -0.1511
 7758SOL     OW34732   2.534   1.153   8.665  0.4069  0.0327  0.1921
 7758SOL    HW134733   2.536   1.230   8.608 -0.0156  0.4033  0.6835
 7758SOL    HW234734   2.580   1.184   8.743  2.1681 -0.5586 -0.5953
 7759SOL     OW34735   2.587   0.790   5.395  0.2048  0.1005  0.2309
 7759SOL    HW134736   2.537   0.871   5.402  0.8578  0.5040  0.2313
 7759SOL    HW234737   2.519   0.742   5.348 -0.5016  0.2463  1.1293
 7760SOL     OW34738   2.129   2.834   4.556  0.2082 -0.2922 -0.1025
 7760SOL    HW134739   2.152   2.895   4.625 -0.0743 -0.1702 -0.1150
 7760SOL    HW234740   2.126   2.879   4.472 -1.8245 -1.6415 -0.7597
 7761SOL     OW34741   4.293   1.582   3.299  0.0863  0.3570 -0.0972
 7761SOL    HW134742   4.248   1.505   3.336  0.9203 -0.5843 -1.0316
 7761SOL    HW234743   4.380   1.571   3.337  1.1116  0.9676 -2.3090
 7762SOL     OW34744   1.495   4.028   6.755  0.4798  0.2094  0.6187
 7762SOL    HW134745   1.516   4.048   6.664 -2.0276  2.1141  0.4704
 7762SOL    HW234746   1.581   4.002   6.788  1.2880 -0.1078 -1.7341
 7763SOL     OW34747   4.225   0.109  13.040  0.4070 -0.1949 -0.5052
 7763SOL    HW134748   4.245   0.113  12.947  0.8608  0.2766 -0.3913
 7763SOL    HW234749   4.163   0.182  13.045  0.4803 -0.2015  0.5973
 7764SOL     OW34750   1.852   2.503  13.166 -0.3669 -0.0059 -0.7094
 7764SOL    HW134751   1.908   2.578  13.189  0.4469 -0.7465 -0.2990
 7764SOL    HW234752   1.911   2.442  13.122 -0.5758 -0.9034  0.2649
 7765SOL     OW34753   3.687   4.553   5.887 -0.1421 -0.2099  0.1648
 7765SOL    HW134754   3.729   4.491   5.946 -0.4726 -1.4586 -0.8883
 7765SOL    HW234755   3.616   4.587   5.942 -0.0320 -0.1021  0.2387
 7766SOL     OW34756   0.271   2.000  13.851 -0.1481  0.3017 -0.5634
 7766SOL    HW134757   0.345   2.003  13.912  0.2617 -0.0113 -1.0366
 7766SOL    HW234758   0.290   2.072  13.790 -0.3579  1.1021  0.3254
 7767SOL     OW34759   0.486   3.560   7.470 -0.0355  0.5499 -0.5769
 7767SOL    HW134760   0.507   3.583   7.560 -0.6034  0.3827 -0.4061
 7767SOL    HW234761   0.567   3.586   7.425  0.6125  4.1960  2.6468
 7768SOL     OW34762   2.303   1.114   3.765  0.3140 -0.2119 -0.0400
 7768SOL    HW134763   2.314   1.192   3.710  1.4398  0.8774  1.7056
 7768SOL    HW234764   2.273   1.045   3.707 -2.3069  1.1074 -0.2327
 7769SOL     OW34765   2.209   2.513   3.177 -0.0411  0.0447  0.5886
 7769SOL    HW134766   2.141   2.497   3.111  1.6216 -0.3044 -1.0386
 7769SOL    HW234767   2.293   2.509   3.130 -0.4146  1.3662 -0.1873
 7770SOL     OW34768   1.444   4.516   0.752 -0.5474 -0.0511  0.3664
 7770SOL    HW134769   1.482   4.509   0.664  1.9925  1.1808  1.3518
 7770SOL    HW234770   1.361   4.550   0.718 -0.4761 -0.1104  0.1283
 7771SOL     OW34771   2.393   0.837   5.785  0.0471 -0.2583 -0.1924
 7771SOL    HW134772   2.393   0.924   5.744 -2.4560 -1.2572 -2.2613
 7771SOL    HW234773   2.353   0.869   5.865 -0.1061 -2.3355  0.5559
 7772SOL     OW34774   1.255   4.400   5.675 -0.5286 -0.4128  0.5136
 7772SOL    HW134775   1.211   4.449   5.605  1.2315  1.1871  0.5379
 7772SOL    HW234776   1.204   4.319   5.678  1.2306 -1.6105 -1.4383
 7773SOL     OW34777   0.974   3.924  15.661 -0.4768 -0.4319 -0.2581
 7773SOL    HW134778   0.927   3.845  15.689  0.4479  0.0530  2.5803
 7773SOL    HW234779   1.064   3.895  15.650  0.1565  2.0285 -1.5333
 7774SOL     OW34780   3.381   0.895   1.375  0.0645  0.2427  0.2563
 7774SOL    HW134781   3.461   0.946   1.367  0.4488 -0.0729  1.9080
 7774SOL    HW234782   3.342   0.909   1.289  0.8588 -2.6224 -0.5707
 7775SOL     OW34783   2.339   3.132   0.024 -0.2853  0.4010  0.1623
 7775SOL    HW134784   2.433   3.114   0.033  0.0460  0.3082 -3.4390
 7775SOL    HW234785   2.311   3.078  17.648  2.6105  0.6371 -1.1400
 7776SOL     OW34786   1.519   1.198   1.213  0.3722 -0.1150 -0.1506
 7776SOL    HW134787   1.541   1.218   1.304 -0.7260 -1.8746  0.4936
 7776SOL    HW234788   1.606   1.192   1.175 -0.3643  0.0012 -1.8433
 7777SOL     OW34789   4.054   1.787   7.740  0.2998 -0.0338  0.6728
 7777SOL    HW134790   3.996   1.836   7.682  0.6518  0.0503  0.3930
 7777SOL    HW234791   4.132   1.789   7.684  0.3057 -0.1399  0.6775
 7778SOL     OW34792   3.284   2.512  11.659 -0.3259 -0.6727  0.4069
 7778SOL    HW134793   3.274   2.607  11.669 -0.1630 -0.4885 -1.1922
 7778SOL    HW234794   3.377   2.503  11.638  0.0738  1.4294  1.2445
 7779SOL     OW34795   1.284   4.673   8.211  0.1883  0.2957  0.5670
 7779SOL    HW134796   1.197   4.709   8.192  0.1435 -0.9698 -1.5775
 7779SOL    HW234797   1.260   4.581   8.206  0.5647  0.1643  1.1966
 7780SOL     OW34798   3.088   0.548   4.690 -0.4668 -0.1573 -0.2271
 7780SOL    HW134799   3.044   0.497   4.622  1.9684 -0.9174 -1.2326
 7780SOL    HW234800   3.148   0.490   4.736  0.7293  0.5749 -0.8688
 7781SOL     OW34801   3.199   2.466   5.914  0.2136  0.1066 -0.2653
 7781SOL    HW134802   3.224   2.376   5.933  0.2836 -0.0202 -0.9513
 7781SOL    HW234803   3.217   2.472   5.820 -0.1981  0.3322 -0.3273
 7782SOL     OW34804   2.263   4.631   1.045 -0.2431  0.0551  0.7832
 7782SOL    HW134805   2.319   4.610   1.120 -1.1777  1.5253  1.8941
 7782SOL    HW234806   2.318   4.614   0.970 -1.0984 -0.0497  0.1773
 7783SOL     OW34807   0.964   3.317   3.654 -0.3643 -0.3347 -0.1130
 7783SOL    HW134808   1.038   3.378   3.650 -1.3830  1.1778  3.6211
 7783SOL    HW234809   0.901   3.378   3.617 -1.5492 -1.8928 -0.6640
 7784SOL     OW34810   2.960   0.871   7.051  0.6042 -0.9261  0.0019
 7784SOL    HW134811   2.997   0.935   6.990 -1.4781 -0.2124 -0.5270
 7784SOL    HW234812   2.892   0.830   6.998  3.2083 -2.8533 -1.8244
 7785SOL     OW34813   0.463   1.342   8.219  0.2710  0.4487 -0.7975
 7785SOL    HW134814   0.511   1.277   8.271 -1.6324  0.9489  1.5747
 7785SOL    HW234815   0.375   1.303   8.224  1.0226 -1.1685 -0.0761
 7786SOL     OW34816   2.055   2.450   7.521 -0.3847  0.6471 -0.2446
 7786SOL    HW134817   2.015   2.404   7.595 -2.5923  0.3088 -1.6396
 7786SOL    HW234818   2.045   2.543   7.543  1.0442  0.7191  0.0662
 7787SOL     OW34819   3.258   4.389  15.315  0.0875  0.1410 -0.3825
 7787SOL    HW134820   3.298   4.475  15.302 -1.7878  0.9906 -0.4617
 7787SOL    HW234821   3.289   4.359  15.401 -0.8339 -0.7567 -0.3599
 7788SOL     OW34822   0.725   1.605  10.360 -0.3046  0.4668 -0.5723
 7788SOL    HW134823   0.715   1.683  10.414 -1.8042 -0.3246  0.3057
 7788SOL    HW234824   0.802   1.634  10.311  0.3058  0.9617  0.6786
 7789SOL     OW34825   4.054   2.922   2.609  0.7263 -0.1715  0.5651
 7789SOL    HW134826   4.054   3.016   2.630  0.2162  0.0366 -0.3759
 7789SOL    HW234827   4.106   2.907   2.530 -0.7058  2.2815 -0.8545
 7790SOL     OW34828   3.886   1.459   5.395 -0.3552  0.1323  0.3629
 7790SOL    HW134829   3.833   1.405   5.336 -0.8275  1.7700 -0.7014
 7790SOL    HW234830   3.827   1.465   5.471  1.3207  2.2690  1.4793
 7791SOL     OW34831   2.969   1.982  13.553 -0.5584  0.0755  0.3288
 7791SOL    HW134832   3.011   1.897  13.565 -1.0354 -0.0981  0.7373
 7791SOL    HW234833   3.040   2.033  13.514  0.4374 -1.9428 -0.4777
 7792SOL     OW34834   1.492   2.523   6.715  0.2837  0.4187  0.1171
 7792SOL    HW134835   1.539   2.595   6.757  1.4989 -0.8017  0.8448
 7792SOL    HW234836   1.455   2.584   6.651 -1.3025 -0.4028  0.2526
 7793SOL     OW34837   2.450   4.453   6.326 -0.1570  0.1743 -0.6987
 7793SOL    HW134838   2.512   4.470   6.397 -0.4528  2.4997 -1.0203
 7793SOL    HW234839   2.370   4.435   6.375  0.2605 -0.4345 -0.2421
 7794SOL     OW34840   1.537   0.489   1.583 -0.4788  0.1553  0.3792
 7794SOL    HW134841   1.544   0.417   1.519  1.4766  0.7187 -0.0528
 7794SOL    HW234842   1.623   0.530   1.575  0.2568 -1.6223 -0.7489
 7795SOL     OW34843   2.396   3.652   1.785 -0.6509 -0.4393 -0.2310
 7795SOL    HW134844   2.378   3.561   1.763  1.1082 -0.6256 -0.9565
 7795SOL    HW234845   2.342   3.698   1.720 -1.2734  0.2223  0.7560
 7796SOL     OW34846   4.364   3.628   2.439 -0.2466  0.0613 -0.8629
 7796SOL    HW134847   4.385   3.687   2.512  2.0994 -1.1184 -0.5844
 7796SOL    HW234848   4.300   3.681   2.392  0.5435 -0.0232 -2.0418
 7797SOL     OW34849   4.060   3.096   0.055 -0.2547 -0.4348  0.3178
 7797SOL    HW134850   4.109   3.090   0.137  0.2224 -0.6803  0.0116
 7797SOL    HW234851   3.991   3.031   0.069  1.9074 -2.8008 -0.1521
 7798SOL     OW34852   2.104   0.899   4.348  0.0091  0.6936  0.0467
 7798SOL    HW134853   2.178   0.852   4.387  1.8302  2.1134 -1.7155
 7798SOL    HW234854   2.092   0.853   4.265 -0.1070 -1.1657  1.0709
 7799SOL     OW34855   2.579   3.829  14.567  0.3329 -0.2229 -0.7203
 7799SOL    HW134856   2.563   3.894  14.498 -3.1697  2.2723  2.5224
 7799SOL    HW234857   2.529   3.757  14.529  0.0160 -0.3585 -0.0349
 7800SOL     OW34858   2.732   3.276   6.031 -0.0722 -0.0568 -0.3689
 7800SOL    HW134859   2.658   3.300   6.086  0.5138  0.7297  0.0658
 7800SOL    HW234860   2.747   3.360   5.989 -1.8645  0.1632 -0.5314
 7801SOL     OW34861   2.301   2.997   2.234 -0.6139  0.7044  0.7941
 7801SOL    HW134862   2.228   3.054   2.259 -1.8037 -0.7849  0.6962
 7801SOL    HW234863   2.284   2.965   2.146  0.6584  0.0763  0.7727
 7802SOL     OW34864   2.513   3.139   8.614  0.3300 -0.2480  0.2241
 7802SOL    HW134865   2.453   3.205   8.579 -0.5640 -0.7387  0.8113
 7802SOL    HW234866   2.464   3.113   8.693  0.7134  1.6662  1.0955
 7803SOL     OW34867   3.444   0.347  14.067  0.0384  0.4105 -0.3547
 7803SOL    HW134868   3.360   0.302  14.078 -0.2205  1.2473  0.9492
 7803SOL    HW234869   3.496   0.284  14.016 -0.0454  0.2590 -0.2552
 7804SOL     OW34870   1.650   3.284   6.053 -1.2689  0.4682 -1.2218
 7804SOL    HW134871   1.616   3.275   6.142 -0.0145  4.7079 -0.3168
 7804SOL    HW234872   1.565   3.305   6.014 -0.2094  0.6934 -3.4030
 7805SOL     OW34873   1.626   0.479   4.317  0.0581 -0.1132  0.0681
 7805SOL    HW134874   1.705   0.521   4.284 -0.9690  2.3634  0.7664
 7805SOL    HW234875   1.658   0.396   4.353 -0.0530 -0.2856 -0.2258
 7806SOL     OW34876   4.529   4.149   4.109 -0.3608  0.5395 -0.4608
 7806SOL    HW134877   4.557   4.226   4.158 -0.9478  1.4601 -1.5927
 7806SOL    HW234878   4.554   4.087   4.178 -2.1357 -2.8891 -2.8504
 7807SOL     OW34879   3.712   0.841   5.178 -0.6049 -0.3113 -0.3140
 7807SOL    HW134880   3.707   0.750   5.151  2.5435 -0.8731  1.0406
 7807SOL    HW234881   3.732   0.881   5.093 -0.9112 -0.3917 -0.4237
 7808SOL     OW34882   2.698   1.612   5.835 -0.2785 -0.3677  0.0437
 7808SOL    HW134883   2.704   1.701   5.800  1.2672 -0.9096 -1.0892
 7808SOL    HW234884   2.784   1.602   5.876  0.4801  0.6968 -1.2889
 7809SOL     OW34885   1.632   1.570   6.093  0.3245  0.1234  0.5445
 7809SOL    HW134886   1.645   1.656   6.052  0.2846  0.6989  1.7450
 7809SOL    HW234887   1.563   1.584   6.158 -0.1689  1.0480 -0.1748
 7810SOL     OW34888   3.983   1.557   0.995  0.3285  0.6002 -0.5626
 7810SOL    HW134889   3.918   1.491   0.971  0.8818 -0.9895  2.2573
 7810SOL    HW234890   4.058   1.498   0.999 -1.5960 -1.7831  0.7230
 7811SOL     OW34891   3.159   2.708  11.807  0.4639 -0.2932 -0.1337
 7811SOL    HW134892   3.232   2.692  11.866 -0.0932  0.1204  0.6758
 7811SOL    HW234893   3.091   2.723  11.873 -1.1551 -1.9352 -1.4386
 7812SOL     OW34894   0.110   1.556   1.741 -0.3460 -0.7033 -0.1981
 7812SOL    HW134895   0.066   1.614   1.804  1.6959  1.1876 -0.4841
 7812SOL    HW234896   0.155   1.611   1.676  1.7957 -2.7396 -0.4516
 7813SOL     OW34897   3.893   2.835  15.282 -0.2455  0.3484  0.0834
 7813SOL    HW134898   3.884   2.864  15.192  2.1723 -1.1326 -0.6478
 7813SOL    HW234899   3.939   2.909  15.322  0.9737 -0.8050  0.8315
 7814SOL     OW34900   0.547   1.309   6.429  0.0607 -0.1722  0.0746
 7814SOL    HW134901   0.485   1.363   6.478  1.1455  0.4135  0.8067
 7814SOL    HW234902   0.502   1.225   6.431 -0.3955  0.0580 -0.7260
 7815SOL     OW34903   3.559   2.538   4.554 -0.5797 -0.0013  0.2981
 7815SOL    HW134904   3.616   2.487   4.496  0.1378 -0.4975  1.4424
 7815SOL    HW234905   3.539   2.613   4.498  1.0418  0.7911  0.7804
 7816SOL     OW34906   1.233   0.521   4.515  0.3976  0.4744 -0.1073
 7816SOL    HW134907   1.166   0.588   4.527 -0.0779  0.0226 -0.2475
 7816SOL    HW234908   1.314   0.568   4.535  1.2298 -0.9564 -0.1078
 7817SOL     OW34909   4.163   4.053   8.770  0.0838 -0.0972 -0.4846
 7817SOL    HW134910   4.239   4.075   8.824 -1.8210 -1.8039  2.8656
 7817SOL    HW234911   4.139   3.966   8.802  0.4545  0.7012  2.0119
 7818SOL     OW34912   3.312   4.676   8.934 -0.2737  0.1314  0.1159
 7818SOL    HW134913   3.344   4.701   8.848 -1.0356  0.5758 -0.0369
 7818SOL    HW234914   3.293   4.583   8.922 -1.5924  0.5999 -1.3497
 7819SOL     OW34915   2.268   1.835   6.915  0.3245  0.0063 -0.1944
 7819SOL    HW134916   2.238   1.875   6.833 -2.7853  0.7282  1.2874
 7819SOL    HW234917   2.288   1.916   6.962  0.8655  0.4113 -1.1232
 7820SOL     OW34918   3.118   2.119   5.482  0.0288  0.4853  0.5450
 7820SOL    HW134919   3.050   2.139   5.418  0.6799 -1.6739 -0.8347
 7820SOL    HW234920   3.180   2.071   5.427  2.8653  1.7078  2.6397
 7821SOL     OW34921   4.562   1.387   4.720  0.0306  0.1536 -0.2901
 7821SOL    HW134922   4.527   1.391   4.632 -0.3431  0.4595 -0.1256
 7821SOL    HW234923   4.564   1.293   4.738  0.1200  0.2950  0.4510
 7822SOL     OW34924   2.854   1.983  12.336  0.6280 -0.1061  0.3294
 7822SOL    HW134925   2.881   1.967  12.246  1.8173  0.7826  0.5311
 7822SOL    HW234926   2.834   2.077  12.335  0.1262 -0.2046  0.9008
 7823SOL     OW34927   0.514   1.971  12.455  0.0128  0.0048  0.3986
 7823SOL    HW134928   0.595   1.982  12.406  0.5579 -1.7550  0.9327
 7823SOL    HW234929   0.530   1.891  12.504  0.3505  0.2010  0.6040
 7824SOL     OW34930   2.182   3.899   5.975 -0.0498  0.0435 -0.4828
 7824SOL    HW134931   2.135   3.964   5.923  0.0580  1.4926  1.2406
 7824SOL    HW234932   2.148   3.815   5.944 -0.4029 -0.2658  0.7662
 7825SOL     OW34933   2.278   1.973   2.616 -0.0148 -0.4803 -0.0498
 7825SOL    HW134934   2.286   1.926   2.533  1.6533 -2.7474  1.3929
 7825SOL    HW234935   2.226   1.911   2.667 -2.7182  1.6062 -0.2424
 7826SOL     OW34936   1.334   2.165   0.509 -0.2813  0.1623  0.6858
 7826SOL    HW134937   1.306   2.256   0.522 -0.7466 -0.1246  1.6737
 7826SOL    HW234938   1.317   2.155   0.416 -0.3719  1.2249  0.5897
 7827SOL     OW34939   3.328   1.894   7.890 -0.3968 -0.1273 -0.0990
 7827SOL    HW134940   3.310   1.818   7.946 -3.3338  0.7760  0.1860
 7827SOL    HW234941   3.279   1.961   7.937 -1.2071  0.6571 -2.0832
 7828SOL     OW34942   1.160   3.017   8.239 -0.6155 -0.7305 -0.6984
 7828SOL    HW134943   1.145   3.098   8.189  0.2031  0.2615  0.6454
 7828SOL    HW234944   1.118   2.948   8.187 -1.2635 -2.0244  1.5816
 7829SOL     OW34945   3.636   3.609   1.646 -0.5153  0.0436 -0.2089
 7829SOL    HW134946   3.566   3.573   1.592 -0.4634 -0.5621  0.1353
 7829SOL    HW234947   3.704   3.548   1.619 -0.6681  0.2381 -1.0101
 7830SOL     OW34948   0.504   2.999   6.209 -0.3004 -0.0193  0.4680
 7830SOL    HW134949   0.431   3.056   6.234  0.4457  0.6018  1.2092
 7830SOL    HW234950   0.477   2.918   6.252 -0.4341  0.0725  0.5578
 7831SOL     OW34951   2.488   3.485  10.134 -0.0799  0.3869  0.1108
 7831SOL    HW134952   2.578   3.509  10.114 -0.7997  1.6142 -1.6707
 7831SOL    HW234953   2.451   3.568  10.164  1.8214  1.4439 -0.4667
 7832SOL     OW34954   2.670   0.923  14.107 -0.8093 -0.7642  0.1812
 7832SOL    HW134955   2.758   0.922  14.070 -0.8839  0.1009 -0.0393
 7832SOL    HW234956   2.652   1.017  14.095 -0.8439 -0.8566 -0.4897
 7833SOL     OW34957   2.511   3.781   5.946 -0.0842  0.0880 -0.4424
 7833SOL    HW134958   2.432   3.778   6.000  0.8277 -1.5011  0.8179
 7833SOL    HW234959   2.573   3.805   6.016 -0.8949 -1.7323  0.8942
 7834SOL     OW34960   3.997   0.575   7.416  0.1794  0.0465 -0.4508
 7834SOL    HW134961   4.086   0.610   7.413  0.7148 -1.3960 -1.6463
 7834SOL    HW234962   3.966   0.585   7.326 -0.2995  1.0418 -0.1763
 7835SOL     OW34963   2.740   1.111   5.888 -0.3456  0.2801  0.2115
 7835SOL    HW134964   2.676   1.182   5.894 -1.2118 -0.6358  1.8658
 7835SOL    HW234965   2.808   1.138   5.951  2.4273 -1.3268 -2.1122
 7836SOL     OW34966   1.811   2.523  11.174 -0.0165 -0.3344  0.2336
 7836SOL    HW134967   1.831   2.534  11.081 -1.0595 -2.5643 -0.2722
 7836SOL    HW234968   1.719   2.551  11.178  0.1314  0.0228  1.0288
 7837SOL     OW34969   3.901   3.675   5.431  0.0276 -0.0503 -0.1035
 7837SOL    HW134970   3.911   3.764   5.399  0.1747 -1.4281 -3.9044
 7837SOL    HW234971   3.994   3.653   5.427 -0.1973 -1.1089  0.3364
 7838SOL     OW34972   1.255   3.832   7.385 -0.5471  0.2408 -0.1232
 7838SOL    HW134973   1.320   3.896   7.357 -0.9595 -0.0012 -1.6121
 7838SOL    HW234974   1.184   3.886   7.423 -0.7560 -0.2923  0.2478
 7839SOL     OW34975   1.960   4.052   2.289  0.2838 -0.1778  0.1441
 7839SOL    HW134976   2.052   4.057   2.263 -0.0116 -0.1635 -0.9290
 7839SOL    HW234977   1.932   4.129   2.239 -2.3390 -0.6115  0.9563
 7840SOL     OW34978   1.252   0.810   6.004  0.1904  0.6464 -0.9841
 7840SOL    HW134979   1.287   0.756   6.075 -2.9875  2.5395  1.9797
 7840SOL    HW234980   1.311   0.796   5.929  0.6501 -0.5864 -0.3908
 7841SOL     OW34981   4.577   3.067  12.268 -0.3203  0.1168  0.0573
 7841SOL    HW134982   4.668   3.056  12.240  0.2716 -1.1466  2.5186
 7841SOL    HW234983   4.545   3.140  12.214  0.4516  0.4263  0.0213
 7842SOL     OW34984   4.304   4.577   5.812 -0.1026 -0.1636  0.1606
 7842SOL    HW134985   4.317   4.483   5.805 -0.5484  0.0156 -3.2927
 7842SOL    HW234986   4.223   4.587   5.762 -0.9286 -3.0256  0.9235
 7843SOL     OW34987   0.290   3.133   6.282  0.7790  0.6838 -0.2451
 7843SOL    HW134988   0.216   3.116   6.339  0.1828  0.0608 -1.2059
 7843SOL    HW234989   0.249   3.205   6.233  1.6094 -0.3375 -2.4578
 7844SOL     OW34990   4.442   3.553   7.874  0.2282 -0.4817 -0.3462
 7844SOL    HW134991   4.507   3.596   7.929  1.2788 -1.1948 -1.0221
 7844SOL    HW234992   4.497   3.502   7.814  0.8782 -0.2648  0.0577
 7845SOL     OW34993   2.714   2.397   5.392  0.3580 -0.0836 -0.0403
 7845SOL    HW134994   2.768   2.415   5.470  0.2775  3.2986 -0.7752
 7845SOL    HW234995   2.630   2.414   5.434  0.6218 -0.7095  0.7399
 7846SOL     OW34996   3.485   3.576   8.460 -0.3241  0.1374  0.1530
 7846SOL    HW134997   3.410   3.554   8.515 -0.9733  2.5810  0.2324
 7846SOL    HW234998   3.555   3.518   8.489  0.5930  1.2284  0.0823
 7847SOL     OW34999   3.901   2.900   4.204 -0.3965  0.5045 -0.2000
 7847SOL    HW135000   3.910   2.912   4.109 -0.6308 -0.4659 -0.3416
 7847SOL    HW235001   3.898   2.805   4.212  2.0858  0.3998 -0.4912
 7848SOL     OW35002   1.096   0.481   2.131  0.2422 -0.2809  0.1773
 7848SOL    HW135003   1.018   0.531   2.155 -0.4463 -2.3714  2.3510
 7848SOL    HW235004   1.153   0.552   2.159  0.9727 -0.6607 -0.3377
 7849SOL     OW35005   4.432   3.496   8.505 -0.0656  0.3444 -0.1045
 7849SOL    HW135006   4.381   3.566   8.547 -1.4253  0.8372 -2.5770
 7849SOL    HW235007   4.405   3.420   8.556  0.2940  0.4815  0.2887
 7850SOL     OW35008   3.295   3.862   4.298 -0.2508  0.8122 -1.0072
 7850SOL    HW135009   3.331   3.941   4.339  1.6135 -1.0936  1.0434
 7850SOL    HW235010   3.345   3.798   4.348 -0.1492  0.9709 -0.9035
 7851SOL     OW35011   2.954   1.844   8.166 -0.3719 -0.2593 -0.2028
 7851SOL    HW135012   2.930   1.764   8.118 -1.7804  0.0472  0.0011
 7851SOL    HW235013   2.951   1.819   8.258 -2.4530  1.1537  0.1091
 7852SOL     OW35014   2.385   2.947  17.513 -0.5154 -0.4773  0.1578
 7852SOL    HW135015   2.470   2.920  17.547 -0.5040 -0.0392  0.4733
 7852SOL    HW235016   2.402   2.989  17.428 -0.4318  1.3962  1.1157
 7853SOL     OW35017   0.220   1.833   2.179  0.0742  0.2794  0.4242
 7853SOL    HW135018   0.170   1.770   2.231 -1.0120 -0.1330 -1.0812
 7853SOL    HW235019   0.265   1.769   2.124 -0.9025 -1.2396  1.3842
 7854SOL     OW35020   0.489   0.352   7.752  0.1335 -0.0911  0.0043
 7854SOL    HW135021   0.466   0.263   7.724 -0.6064  0.6252 -1.6774
 7854SOL    HW235022   0.420   0.381   7.811  0.3003  1.1361 -0.3980
 7855SOL     OW35023   0.612   2.082   8.216 -0.5915 -0.0621  0.0131
 7855SOL    HW135024   0.698   2.123   8.228 -0.0434 -0.8360 -1.2268
 7855SOL    HW235025   0.634   1.991   8.239  1.8241  0.9162  1.5677
 7856SOL     OW35026   4.112   1.633  16.982  0.3593  0.1160  0.1794
 7856SOL    HW135027   4.123   1.728  16.988 -1.6025  0.3103  0.6135
 7856SOL    HW235028   4.167   1.605  17.055  1.0053  1.5422  0.2519
 7857SOL     OW35029   2.398   4.630   0.796 -0.4460 -0.0942 -0.1479
 7857SOL    HW135030   2.394   4.667   0.708 -0.0669 -0.0397 -0.1437
 7857SOL    HW235031   2.487   4.595   0.794 -0.2769  0.3127  0.1818
 7858SOL     OW35032   4.271   4.269   4.536  0.3205 -0.0701 -0.0552
 7858SOL    HW135033   4.282   4.204   4.467  1.7551 -0.0664  0.1784
 7858SOL    HW235034   4.179   4.249   4.555  0.1662 -1.1630 -2.0408
 7859SOL     OW35035   3.749   3.681  14.778  0.3610 -0.4554 -0.4683
 7859SOL    HW135036   3.681   3.637  14.829  1.1544 -1.1568 -0.0206
 7859SOL    HW235037   3.693   3.720  14.710  0.7323 -2.4375 -1.9026
 7860SOL     OW35038   4.100   4.051   5.544  0.0957 -0.1150  0.2036
 7860SOL    HW135039   4.082   3.961   5.573 -1.7168  0.3039  0.4120
 7860SOL    HW235040   4.193   4.036   5.526  0.0522 -0.3900  0.2086
 7861SOL     OW35041   0.720   4.428  10.548  0.6252  0.3279 -0.1278
 7861SOL    HW135042   0.732   4.425  10.643 -0.5950  0.8185  0.0433
 7861SOL    HW235043   0.788   4.489  10.518 -0.7487  1.3379 -1.1793
 7862SOL     OW35044   3.143   0.214   3.255  0.1132 -0.4771 -0.0901
 7862SOL    HW135045   3.238   0.223   3.266 -0.2572  1.4081  1.4626
 7862SOL    HW235046   3.113   0.283   3.314 -2.0333 -1.1254 -0.4159
 7863SOL     OW35047   1.623   0.001   5.065 -0.2807  0.4903  0.1156
 7863SOL    HW135048   1.684   0.066   5.029 -0.9405  1.4927  0.8305
 7863SOL    HW235049   1.568   4.702   4.990  0.7737 -1.9083  0.0619
 7864SOL     OW35050   2.011   1.562   4.749  0.2101 -0.5108  0.9187
 7864SOL    HW135051   1.942   1.526   4.693 -0.7600  1.3714  0.8956
 7864SOL    HW235052   1.962   1.628   4.798 -0.5652  0.6233 -1.4245
 7865SOL     OW35053   1.013   0.161  12.024 -0.1749 -0.5792  0.1718
 7865SOL    HW135054   1.082   0.218  11.990 -2.2655  1.2907 -0.9254
 7865SOL    HW235055   1.002   0.093  11.957 -2.2087  1.5411 -1.6705
 7866SOL     OW35056   2.207   2.836  13.434 -0.1867  0.8825  0.9390
 7866SOL    HW135057   2.151   2.779  13.381  1.5793  1.8041 -1.9524
 7866SOL    HW235058   2.285   2.789  13.406 -0.0816  1.2712  0.5795
 7867SOL     OW35059   0.298   0.130  15.193 -0.4130  0.3472 -0.1120
 7867SOL    HW135060   0.327   0.111  15.282  0.3009  0.3205 -0.3541
 7867SOL    HW235061   0.350   0.209  15.175  0.9017 -0.2599  1.0544
 7868SOL     OW35062   2.684   1.459   3.411 -0.2046  0.2044  0.3655
 7868SOL    HW135063   2.590   1.473   3.421  0.3104  1.4898  3.2722
 7868SOL    HW235064   2.715   1.534   3.461  1.2170 -0.0122 -0.1898
 7869SOL     OW35065   4.577   1.030   5.661 -0.3458 -0.2842 -0.2800
 7869SOL    HW135066   4.513   1.002   5.595  0.3857  2.5079 -2.1355
 7869SOL    HW235067   4.604   0.940   5.681 -0.7799 -0.6781 -1.4597
 7870SOL     OW35068   3.062   4.198   6.196 -0.1482  0.7401 -0.3374
 7870SOL    HW135069   3.032   4.120   6.149  0.1637  0.2988  0.2131
 7870SOL    HW235070   3.066   4.167   6.286 -1.5350 -1.3751 -0.9954
 7871SOL     OW35071   0.536   0.766  15.086 -0.4237  0.1488  0.4633
 7871SOL    HW135072   0.448   0.795  15.064 -1.0442 -0.5930  2.0149
 7871SOL    HW235073   0.593   0.840  15.064  0.6996 -0.7274  0.3816
 7872SOL     OW35074   1.533   4.557   1.724 -0.1855  0.4385  0.2201
 7872SOL    HW135075   1.559   4.465   1.713  1.3451  0.7292  1.5146
 7872SOL    HW235076   1.520   4.558   1.819  0.5091 -0.7271  0.3287
 7873SOL     OW35077   3.590   2.070   4.934 -0.0061  0.4052  0.5475
 7873SOL    HW135078   3.629   2.151   4.901  2.5843 -0.6927  0.8686
 7873SOL    HW235079   3.584   2.083   5.028  0.1252  0.1844  0.5876
 7874SOL     OW35080   4.608   0.700   2.551  0.2793 -0.2540 -0.1307
 7874SOL    HW135081   4.606   0.781   2.500  1.4021  0.1660  0.4767
 7874SOL    HW235082   4.553   0.644   2.496  1.6503 -0.3689 -1.3847
 7875SOL     OW35083   3.049   0.429   3.396  0.4041  0.3717  0.4906
 7875SOL    HW135084   3.123   0.486   3.378 -0.3909  1.3195  0.2136
 7875SOL    HW235085   2.980   0.496   3.388 -0.7830 -1.2080 -2.5284
 7876SOL     OW35086   1.366   0.107   4.517 -0.2208  0.4310 -0.7483
 7876SOL    HW135087   1.415   0.163   4.578 -0.2274 -0.8243  0.3922
 7876SOL    HW235088   1.312   0.170   4.469  0.6511  1.5531 -0.2686
 7877SOL     OW35089   2.278   0.477   8.529  1.0130 -0.4801 -0.2268
 7877SOL    HW135090   2.360   0.464   8.577 -0.1969 -1.0703  1.6612
 7877SOL    HW235091   2.292   0.563   8.490 -3.7044 -0.2487 -1.3824
 7878SOL     OW35092   1.802   0.960   9.273 -0.4183  0.0806 -0.3871
 7878SOL    HW135093   1.880   0.946   9.326  0.0292  0.4922 -0.9358
 7878SOL    HW235094   1.740   1.011   9.326  0.8572  1.4076 -0.1732
 7879SOL     OW35095   3.576   1.265   1.291  0.1379 -0.1530 -0.5315
 7879SOL    HW135096   3.563   1.272   1.197 -0.6308 -0.6143 -0.4594
 7879SOL    HW235097   3.497   1.307   1.325  0.2430 -2.4868  2.6631
 7880SOL     OW35098   1.368   4.483  14.697  0.1667  0.6954  1.0501
 7880SOL    HW135099   1.319   4.468  14.616  2.0695 -1.7265  0.3088
 7880SOL    HW235100   1.388   4.393  14.722 -1.8449 -0.3883 -1.1995
 7881SOL     OW35101   3.655   0.805   8.441 -1.0375 -0.0353  0.0789
 7881SOL    HW135102   3.651   0.891   8.400 -0.6692  1.1295  2.4960
 7881SOL    HW235103   3.726   0.755   8.402 -1.8834 -0.9039 -0.3398
 7882SOL     OW35104   2.348   1.110  17.240 -0.2330 -0.2588 -0.0100
 7882SOL    HW135105   2.277   1.090  17.179 -0.2129  0.8623 -0.4012
 7882SOL    HW235106   2.379   1.195  17.208 -0.2599 -0.5244 -0.7479
 7883SOL     OW35107   0.416   2.732   1.262  0.2232 -0.1615 -0.6408
 7883SOL    HW135108   0.353   2.803   1.251  1.0804  1.4668  4.8275
 7883SOL    HW235109   0.435   2.720   1.169  0.7316 -1.6015 -0.3476
 7884SOL     OW35110   3.700   3.787   8.097 -0.0623 -0.3706  0.6190
 7884SOL    HW135111   3.761   3.718   8.070 -1.1550 -0.3737 -1.8316
 7884SOL    HW235112   3.762   3.858   8.085  0.7684 -0.9799  1.2425
 7885SOL     OW35113   0.503   4.136   7.418  0.1022 -0.5134  0.1087
 7885SOL    HW135114   0.479   4.125   7.326  1.0264 -0.4959 -0.1318
 7885SOL    HW235115   0.474   4.053   7.458 -1.0617 -0.1114  0.1088
 7886SOL     OW35116   1.774   1.628   8.178 -0.0231 -0.2827  0.1492
 7886SOL    HW135117   1.691   1.659   8.214 -0.0161  1.1859 -1.0568
 7886SOL    HW235118   1.815   1.711   8.152  1.8454 -1.0394  0.6791
 7887SOL     OW35119   3.491   3.476  17.673  0.5568 -0.5283  0.1903
 7887SOL    HW135120   3.440   3.401  17.642  0.5694 -0.9623  1.2185
 7887SOL    HW235121   3.415   3.514   0.018  2.2800  2.0577  0.9311
 7888SOL     OW35122   2.241   3.123   6.800 -0.2044  0.4653  0.0091
 7888SOL    HW135123   2.237   3.186   6.871 -0.9460  0.9158 -0.4349
 7888SOL    HW235124   2.334   3.102   6.790 -0.8377 -2.4078 -0.0569
 7889SOL     OW35125   1.248   0.510  17.583  0.2294  0.1257  0.7799
 7889SOL    HW135126   1.284   0.432  17.542  1.9101  1.2796  0.0257
 7889SOL    HW235127   1.228   0.481  17.672 -2.4394  1.2745  0.5589
 7890SOL     OW35128   3.577   4.119  14.991 -0.0862 -0.1599 -0.1277
 7890SOL    HW135129   3.584   4.032  15.032 -0.8753  0.8793  2.2050
 7890SOL    HW235130   3.497   4.152  15.030 -0.7866  0.0256 -1.7415
 7891SOL     OW35131   4.488   2.764   5.548  0.1187  0.4822 -0.4086
 7891SOL    HW135132   4.522   2.851   5.527 -0.6406  0.2291 -2.7100
 7891SOL    HW235133   4.523   2.767   5.637 -2.2941 -1.6547  0.6139
 7892SOL     OW35134   4.189   0.323  12.075  0.9420  0.4175 -1.2361
 7892SOL    HW135135   4.233   0.396  12.119  1.4789 -0.4751 -0.3004
 7892SOL    HW235136   4.098   0.331  12.106  1.9830  1.7988  1.4514
 7893SOL     OW35137   4.380   1.478   2.375  0.0851  0.3456  0.3716
 7893SOL    HW135138   4.312   1.423   2.335 -0.4081 -0.3516  2.1244
 7893SOL    HW235139   4.451   1.413   2.383  0.7775  0.9832 -0.5957
 7894SOL     OW35140   1.657   1.342   1.816 -0.1510 -0.2779  0.0139
 7894SOL    HW135141   1.581   1.359   1.760 -0.2460 -0.2341  0.1563
 7894SOL    HW235142   1.685   1.430   1.840  2.3940 -1.1131  0.1357
 7895SOL     OW35143   1.917   0.564   9.252 -0.0932  0.3905  0.2313
 7895SOL    HW135144   1.829   0.528   9.265  0.3715 -1.5198 -2.0010
 7895SOL    HW235145   1.938   0.577   9.160  0.5969 -0.2862  0.2967
 7896SOL     OW35146   1.740   0.812   4.215  0.0451 -0.4645 -0.3635
 7896SOL    HW135147   1.761   0.885   4.157 -0.1266 -0.3163 -0.2349
 7896SOL    HW235148   1.766   0.858   4.294 -0.1782 -0.6340 -0.1919
 7897SOL     OW35149   2.105   2.685  13.218 -0.0257  0.2056  0.0328
 7897SOL    HW135150   2.142   2.747  13.155  1.6219  0.8512  1.6452
 7897SOL    HW235151   2.146   2.602  13.192 -0.4447 -0.1374  0.4568
 7898SOL     OW35152   1.632   2.016  11.606  0.5187 -0.0960  0.2241
 7898SOL    HW135153   1.691   1.957  11.653  0.2845 -1.1323 -0.7749
 7898SOL    HW235154   1.581   1.947  11.564 -0.5373  0.0689  1.2270
 7899SOL     OW35155   0.994   4.247   7.391  0.1515  0.2137 -0.0216
 7899SOL    HW135156   0.993   4.324   7.448 -0.8039 -1.8950  2.8127
 7899SOL    HW235157   1.033   4.292   7.316  0.2770 -2.5068 -1.5929
 7900SOL     OW35158   3.621   1.016   1.355  0.4936  0.5985 -0.0095
 7900SOL    HW135159   3.713   1.032   1.378  1.2000 -4.3451  0.5963
 7900SOL    HW235160   3.582   1.098   1.326  0.5351  0.4253 -0.5692
 7901SOL     OW35161   1.058   3.156   4.994  0.0965  0.8597 -0.2824
 7901SOL    HW135162   1.023   3.129   4.909 -2.2597 -0.7161  1.1746
 7901SOL    HW235163   1.144   3.115   5.000 -0.7535 -0.7790  0.9764
 7902SOL     OW35164   4.239   4.587   7.976 -0.0085 -0.5715  0.2208
 7902SOL    HW135165   4.314   4.641   7.952 -1.0822 -0.5041 -3.0487
 7902SOL    HW235166   4.206   4.633   8.053 -1.4082 -0.8071 -0.2263
 7903SOL     OW35167   3.608   2.586   4.833  0.4285 -0.1143 -0.0491
 7903SOL    HW135168   3.592   2.576   4.740 -0.0730  1.7208 -0.1697
 7903SOL    HW235169   3.686   2.640   4.846 -0.0217  0.5585 -0.1405
 7904SOL     OW35170   1.332   2.677   7.612 -0.1262 -0.2044 -0.0345
 7904SOL    HW135171   1.302   2.607   7.555  1.1292 -0.1102 -0.7986
 7904SOL    HW235172   1.260   2.694   7.673  0.6547 -0.6134  0.9984
 7905SOL     OW35173   4.415   4.551  15.892 -0.0786 -0.0999  0.6986
 7905SOL    HW135174   4.339   4.536  15.949 -0.3480 -1.2084  0.0407
 7905SOL    HW235175   4.387   4.619  15.832  0.0801  0.0448  0.7892
 7906SOL     OW35176   3.873   1.419   6.519  0.2761 -0.0203 -0.5159
 7906SOL    HW135177   3.833   1.398   6.604 -0.7095  0.0429 -0.9775
 7906SOL    HW235178   3.861   1.333   6.480  0.7435 -1.7276  3.0719
 7907SOL     OW35179   4.597   1.311   2.193  0.1762  0.1565 -0.6015
 7907SOL    HW135180   4.643   1.362   2.259 -0.9201  0.4752 -0.0883
 7907SOL    HW235181   4.650   1.342   2.119 -1.2717  4.3938  0.1223
 7908SOL     OW35182   2.515   1.883   9.688  0.1755  0.1016 -0.4655
 7908SOL    HW135183   2.523   1.849   9.777  0.8990 -0.9881 -0.9414
 7908SOL    HW235184   2.496   1.976   9.697  1.0985  0.1469  0.9564
 7909SOL     OW35185   3.994   3.479   1.773 -0.2107 -0.1116  0.3914
 7909SOL    HW135186   4.053   3.490   1.848  0.7239  2.2053 -0.6807
 7909SOL    HW235187   4.046   3.524   1.707 -0.4864  1.0215  0.9529
 7910SOL     OW35188   1.351   3.576   0.568  0.4838 -0.5649 -0.3306
 7910SOL    HW135189   1.339   3.602   0.659 -0.4240  1.9203 -1.1751
 7910SOL    HW235190   1.399   3.494   0.578  0.5585 -0.4535  0.2086
 7911SOL     OW35191   0.882   4.641   7.795 -0.1810 -0.1724 -0.4564
 7911SOL    HW135192   0.883   4.649   7.699 -3.5076  0.2620 -0.4716
 7911SOL    HW235193   0.827   4.715   7.821 -2.6453 -0.8755 -3.6188
 7912SOL     OW35194   0.165   3.007   4.967  0.5099  0.3548  0.0321
 7912SOL    HW135195   0.085   3.060   4.970 -0.0806 -0.5007 -0.5056
 7912SOL    HW235196   0.234   3.073   4.953  1.5968 -0.4332  1.6876
 7913SOL     OW35197   1.496   0.966   6.370 -0.6858 -0.1168 -0.2261
 7913SOL    HW135198   1.509   0.961   6.464 -2.5056 -1.7370 -0.0711
 7913SOL    HW235199   1.508   0.873   6.354 -0.9699 -0.6683  2.9455
 7914SOL     OW35200   1.397   3.408   5.540 -0.0892  0.5231 -0.2804
 7914SOL    HW135201   1.396   3.352   5.462 -0.5357  0.2304 -0.0612
 7914SOL    HW235202   1.307   3.438   5.548 -0.8896 -1.8028 -0.5366
 7915SOL     OW35203   4.088   2.454   7.271 -0.2255  0.2671  0.2160
 7915SOL    HW135204   4.082   2.435   7.178 -2.2269  1.7931  0.0422
 7915SOL    HW235205   4.113   2.546   7.275  3.3293 -0.5165 -3.7814
 7916SOL     OW35206   4.146   1.102   1.556 -0.8524 -0.3393  0.4655
 7916SOL    HW135207   4.214   1.043   1.524 -0.4201 -0.4408  1.5909
 7916SOL    HW235208   4.189   1.131   1.636  0.8365  1.5471 -1.1193
 7917SOL     OW35209   3.053   3.306  15.340  0.4013  0.0759  0.2523
 7917SOL    HW135210   3.119   3.238  15.345  0.9598  0.6328  0.4819
 7917SOL    HW235211   2.981   3.253  15.307 -1.5725  3.7511 -1.3889
 7918SOL     OW35212   4.010   3.696  14.697 -0.4497  0.3043 -0.6354
 7918SOL    HW135213   3.926   3.672  14.737  0.9199 -0.1083  2.0071
 7918SOL    HW235214   4.006   3.663  14.607 -0.5162  0.7228 -0.7838
 7919SOL     OW35215   0.987   0.353   5.698 -0.1148  0.0292 -0.0749
 7919SOL    HW135216   0.977   0.324   5.607 -0.9512  1.6027 -0.4887
 7919SOL    HW235217   1.021   0.271   5.733  0.1532  0.2195  0.1146
 7920SOL     OW35218   2.229   0.480   1.389  0.0981  0.2142 -0.7796
 7920SOL    HW135219   2.169   0.535   1.338  0.5783  1.2248 -0.2706
 7920SOL    HW235220   2.255   0.418   1.322 -2.7763 -2.1849  0.2957
 7921SOL     OW35221   1.987   3.752   1.292 -0.0418  0.6314 -0.0852
 7921SOL    HW135222   2.025   3.667   1.272 -1.9239 -0.0325 -0.8483
 7921SOL    HW235223   2.063   3.799   1.258  1.8724 -0.7707  2.2715
 7922SOL     OW35224   4.506   3.252  12.801 -0.0008 -0.2365 -0.2677
 7922SOL    HW135225   4.590   3.211  12.825 -1.1743 -2.3224  0.3119
 7922SOL    HW235226   4.483   3.202  12.723  1.7695 -1.6375  0.0953
 7923SOL     OW35227   2.999   4.326   8.433  0.4068 -0.0735 -0.0458
 7923SOL    HW135228   2.955   4.327   8.518 -0.5944 -1.0970 -0.5611
 7923SOL    HW235229   3.032   4.238   8.415 -0.9808 -0.3416 -1.2931
 7924SOL     OW35230   0.874   0.939   2.037 -0.6253  0.4654 -0.5357
 7924SOL    HW135231   0.821   0.956   1.959 -0.0189  1.3180 -0.7548
 7924SOL    HW235232   0.840   0.853   2.059  1.4159  0.6015  3.2031
 7925SOL     OW35233   0.462   2.562   5.800 -0.1916  0.1099  0.4062
 7925SOL    HW135234   0.381   2.532   5.760 -0.2984  1.9779 -0.7684
 7925SOL    HW235235   0.431   2.639   5.848 -0.6540 -0.5792  1.2150
 7926SOL     OW35236   1.254   3.457  16.589  0.1321 -0.2028  0.4640
 7926SOL    HW135237   1.174   3.458  16.641 -0.3409  1.4017 -0.2773
 7926SOL    HW235238   1.310   3.526  16.626  1.3963 -1.0859  0.1901
 7927SOL     OW35239   0.727   0.524  16.986  0.2729 -0.1693 -0.6779
 7927SOL    HW135240   0.784   0.543  16.911  1.1099 -2.6998 -0.6665
 7927SOL    HW235241   0.771   0.583  17.047  0.3950 -0.4314 -0.5152
 7928SOL     OW35242   0.473   0.956   7.452 -0.1214  0.0422  0.0835
 7928SOL    HW135243   0.486   1.035   7.503  0.8392 -0.4962  0.6705
 7928SOL    HW235244   0.499   0.894   7.520  0.0801  0.4312  0.3582
 7929SOL     OW35245   4.277   4.341  16.356  0.1163  0.2585  0.0038
 7929SOL    HW135246   4.225   4.286  16.297 -0.7645  0.1018  0.9324
 7929SOL    HW235247   4.229   4.422  16.373 -0.7462 -0.6993  2.0986
 7930SOL     OW35248   1.756   2.335  16.292  0.4439  0.1136 -0.0083
 7930SOL    HW135249   1.823   2.402  16.303 -0.8635  1.4429 -0.0136
 7930SOL    HW235250   1.795   2.280  16.224 -0.0948  2.0315 -1.8629
 7931SOL     OW35251   1.533   1.267   2.246 -0.1377  0.6217 -0.2948
 7931SOL    HW135252   1.452   1.307   2.213 -0.8613 -0.4260  0.2053
 7931SOL    HW235253   1.517   1.176   2.220 -1.3901  0.3134  1.5083
 7932SOL     OW35254   3.425   0.502   6.719 -0.0564  0.3021  0.1887
 7932SOL    HW135255   3.372   0.439   6.768 -0.6911 -0.1117 -1.0504
 7932SOL    HW235256   3.361   0.540   6.659 -0.0431  3.1543  1.9838
 7933SOL     OW35257   1.386   2.833   4.946  0.3104  0.2150 -0.6724
 7933SOL    HW135258   1.454   2.766   4.947  0.1762  0.0708 -1.5554
 7933SOL    HW235259   1.338   2.810   5.026 -0.3737  2.1390 -0.5260
 7934SOL     OW35260   0.507   2.484   4.462  0.7101 -1.0345 -0.0956
 7934SOL    HW135261   0.459   2.566   4.457  3.4671  0.5005 -0.9941
 7934SOL    HW235262   0.495   2.471   4.556 -1.8974  0.7837 -0.1972
 7935SOL     OW35263   0.968   2.282   3.931 -0.4796 -0.4289 -0.6926
 7935SOL    HW135264   1.041   2.269   3.992 -1.0688 -1.7899 -0.2754
 7935SOL    HW235265   0.998   2.256   3.844 -2.3446 -2.0339 -0.8527
 7936SOL     OW35266   0.461   2.718   8.087  0.6006  0.1115  0.4554
 7936SOL    HW135267   0.395   2.776   8.125 -1.1118 -1.9712  0.6116
 7936SOL    HW235268   0.410   2.639   8.072  1.1244  0.0927 -1.1796
 7937SOL     OW35269   2.408   2.986   4.437  0.5895  0.6945 -0.2244
 7937SOL    HW135270   2.500   2.982   4.463  0.4657 -0.2984  0.0412
 7937SOL    HW235271   2.394   3.075   4.470  1.8593  0.8972 -0.2398
 7938SOL     OW35272   3.502   4.108  12.721 -0.2322  0.0454  0.1108
 7938SOL    HW135273   3.467   4.079  12.806 -1.4111  0.0703 -0.3675
 7938SOL    HW235274   3.433   4.173  12.709 -2.8924 -2.4934  1.5995
 7939SOL     OW35275   3.088   1.386   9.274  0.1732  0.4670  0.3046
 7939SOL    HW135276   3.168   1.337   9.252 -0.6266 -0.8812  0.3681
 7939SOL    HW235277   3.043   1.320   9.327  1.7966 -0.6213  0.3553
 7940SOL     OW35278   2.567   1.724   7.932  0.6281  0.7139 -0.2976
 7940SOL    HW135279   2.477   1.691   7.943  1.7501 -2.7268 -1.5019
 7940SOL    HW235280   2.596   1.741   8.021  0.1943  0.3740 -0.0875
 7941SOL     OW35281   3.574   2.920   7.644 -0.1561 -0.9713  0.0229
 7941SOL    HW135282   3.595   2.946   7.734 -1.6282 -0.6843  0.2770
 7941SOL    HW235283   3.656   2.876   7.619 -1.3605 -1.7069 -2.6379
 7942SOL     OW35284   3.030   1.894   0.489  1.0736  0.2290  0.5096
 7942SOL    HW135285   3.094   1.914   0.420  0.4119 -0.5748 -0.3507
 7942SOL    HW235286   3.076   1.818   0.524 -0.9280 -1.4761 -0.5324
 7943SOL     OW35287   1.835   0.469   1.609 -0.3121 -0.4944  0.6312
 7943SOL    HW135288   1.923   0.499   1.586 -0.2948 -1.9734 -1.2057
 7943SOL    HW235289   1.824   0.509   1.695 -0.5190  0.1526  0.3036
 7944SOL     OW35290   3.471   0.301   8.868 -0.3616  0.1315 -0.2222
 7944SOL    HW135291   3.378   0.292   8.889 -0.8377  0.2152 -2.3338
 7944SOL    HW235292   3.501   0.377   8.919  2.2276 -2.0378  1.4688
 7945SOL     OW35293   1.594   0.298   8.126  0.1098 -0.6653  0.5323
 7945SOL    HW135294   1.582   0.389   8.153  4.5066 -0.1501  0.6820
 7945SOL    HW235295   1.630   0.318   8.039 -1.3071  0.8383  0.2937
 7946SOL     OW35296   2.023   2.120   9.390  0.0202 -0.2778 -0.4073
 7946SOL    HW135297   1.958   2.089   9.327  1.3802  1.8180 -2.7926
 7946SOL    HW235298   1.989   2.098   9.477  0.9105  0.4238  0.1108
 7947SOL     OW35299   2.439   2.693   8.079  0.2815  0.4185  0.0614
 7947SOL    HW135300   2.506   2.755   8.047  1.7007 -0.8343  0.6128
 7947SOL    HW235301   2.468   2.605   8.054 -0.2695  0.0396  0.7945
 7948SOL     OW35302   1.192   2.199  11.132 -0.5729  0.3892 -0.2150
 7948SOL    HW135303   1.129   2.248  11.079  1.3689 -0.3938 -3.2606
 7948SOL    HW235304   1.218   2.269  11.191  0.2955 -0.4118  0.3419
 7949SOL     OW35305   3.860   4.054  11.961  1.0812  0.0203  0.6646
 7949SOL    HW135306   3.821   4.140  11.974 -2.8931 -1.6439  0.0944
 7949SOL    HW235307   3.902   4.023  12.041  2.1507 -1.0927 -0.3217
 7950SOL     OW35308   3.234   1.783   9.811 -0.4749  0.4111  0.2036
 7950SOL    HW135309   3.218   1.871   9.776  2.8054  1.4493  1.3082
 7950SOL    HW235310   3.293   1.744   9.748  0.2874 -0.9624  1.7772
 7951SOL     OW35311   4.160   1.073   5.568  0.2801  0.3308 -0.1434
 7951SOL    HW135312   4.194   1.097   5.654 -0.9581 -1.1147  0.7517
 7951SOL    HW235313   4.074   1.033   5.585  0.0829  0.1059 -1.7048
 7952SOL     OW35314   0.476   4.455  10.889  0.1610 -0.2665  0.0189
 7952SOL    HW135315   0.532   4.387  10.852  0.5512  0.3118 -0.4643
 7952SOL    HW235316   0.537   4.508  10.940  0.8332 -0.8037 -0.2265
 7953SOL     OW35317   1.749   2.032  10.851  0.2750  0.1236  0.0068
 7953SOL    HW135318   1.699   2.036  10.932 -1.8514  0.7798 -1.3485
 7953SOL    HW235319   1.776   2.124  10.855 -0.4249  0.3966 -1.9254
 7954SOL     OW35320   2.837   0.124   4.278 -0.3256  1.3476 -0.0304
 7954SOL    HW135321   2.743   0.140   4.274 -0.6722 -0.7363 -0.3960
 7954SOL    HW235322   2.864   0.215   4.268  1.5845  0.9256  1.2979
 7955SOL     OW35323   4.231   4.204   6.739 -0.1221  0.0073  0.0531
 7955SOL    HW135324   4.260   4.120   6.775  0.1590  0.7760  1.5881
 7955SOL    HW235325   4.154   4.179   6.688 -0.8834  1.3729  0.5450
 7956SOL     OW35326   0.788   2.660  11.353 -0.8418 -0.5177  0.9006
 7956SOL    HW135327   0.738   2.692  11.278  1.0485  0.5189  0.0672
 7956SOL    HW235328   0.811   2.571  11.330 -1.4649 -0.2198 -0.8265
 7957SOL     OW35329   1.902   1.459   2.506  0.1746 -0.5264 -0.1197
 7957SOL    HW135330   1.944   1.464   2.420 -1.7886 -2.1801 -1.1837
 7957SOL    HW235331   1.812   1.463   2.473  1.2744 -0.8169 -3.1387
 7958SOL     OW35332   2.894   4.600   4.792 -0.4931  0.3515 -0.1758
 7958SOL    HW135333   2.809   4.558   4.778 -1.5358  1.8793  1.6763
 7958SOL    HW235334   2.872   4.692   4.804  0.0712  0.4411  0.1700
 7959SOL     OW35335   3.481   4.327   6.133  0.1176 -0.2833 -0.1209
 7959SOL    HW135336   3.392   4.337   6.101 -0.1298 -0.1101  0.6171
 7959SOL    HW235337   3.491   4.237   6.104 -0.0813 -0.2582 -0.2677
 7960SOL     OW35338   3.488   0.660   6.423 -0.2033 -0.0508  0.3316
 7960SOL    HW135339   3.408   0.620   6.458 -0.2553 -0.8989 -0.7319
 7960SOL    HW235340   3.510   0.604   6.348  1.0889  0.8875  0.0187
 7961SOL     OW35341   2.228   1.980  14.273 -0.1909 -0.1196  0.3101
 7961SOL    HW135342   2.191   2.067  14.285 -0.7366 -0.3008 -0.0689
 7961SOL    HW235343   2.322   2.001  14.269 -0.4728  1.1386  0.3252
 7962SOL     OW35344   4.064   3.454   2.442 -0.0212  0.7481 -0.5268
 7962SOL    HW135345   4.158   3.470   2.456 -0.0200  0.6066 -0.3809
 7962SOL    HW235346   4.066   3.392   2.370  0.5479  1.4836 -1.1498
 7963SOL     OW35347   0.384   0.547   6.325 -0.0157 -0.3061  0.1334
 7963SOL    HW135348   0.344   0.558   6.239 -1.3677 -1.5316  0.6033
 7963SOL    HW235349   0.450   0.479   6.308 -0.5013 -0.4472 -1.1426
 7964SOL     OW35350   3.965   2.948   3.935 -0.5639 -0.3363 -0.4551
 7964SOL    HW135351   4.036   3.000   3.971 -0.5917  0.3580 -1.3960
 7964SOL    HW235352   3.952   2.984   3.847 -2.5890 -1.1824 -0.5198
 7965SOL     OW35353   4.346   3.058   2.322  0.8032  0.1141  0.7660
 7965SOL    HW135354   4.327   2.982   2.378 -1.1832 -0.0417 -0.1146
 7965SOL    HW235355   4.337   3.021   2.235  2.7961  0.9056  0.2368
 7966SOL     OW35356   4.101   4.612   0.837  0.6971 -0.2873  0.2250
 7966SOL    HW135357   4.129   4.702   0.819  0.3880 -0.0873  0.7678
 7966SOL    HW235358   4.009   4.608   0.811  0.5344 -0.5384  0.8412
 7967SOL     OW35359   1.616   1.155   6.209 -0.2410 -0.0744  0.3961
 7967SOL    HW135360   1.576   1.091   6.268  2.5013  0.2905  2.6537
 7967SOL    HW235361   1.535   1.185   6.168  1.2310 -0.1153 -2.5368
 7968SOL     OW35362   0.751   0.200   9.147  0.1670  0.1316 -0.1776
 7968SOL    HW135363   0.724   0.263   9.214 -0.8458 -0.7236  0.2104
 7968SOL    HW235364   0.835   0.172   9.184 -0.3314 -0.6873  0.3264
 7969SOL     OW35365   3.502   0.931   1.620  0.3054 -0.2119  0.4305
 7969SOL    HW135366   3.497   1.025   1.642 -0.0294 -0.3327  0.8890
 7969SOL    HW235367   3.462   0.931   1.533  1.0497 -0.0050  0.0907
 7970SOL     OW35368   0.571   3.067  10.566  1.0001  0.5088  0.1570
 7970SOL    HW135369   0.651   3.111  10.536  0.3363  0.5207 -1.6364
 7970SOL    HW235370   0.522   3.062  10.484 -0.7209 -0.3246  1.2489
 7971SOL     OW35371   2.023   0.528   4.120  0.6704 -0.8779 -0.2729
 7971SOL    HW135372   1.961   0.562   4.055  0.6814 -0.5272 -0.1002
 7971SOL    HW235373   2.077   0.608   4.124 -1.8808  0.8133  0.2348
 7972SOL     OW35374   1.567   0.679   2.813  0.2028  0.0425 -0.4101
 7972SOL    HW135375   1.559   0.686   2.718  0.7192  1.8154 -0.3259
 7972SOL    HW235376   1.502   0.742   2.843  0.8432 -0.6345  2.4317
 7973SOL     OW35377   0.908   0.799   4.575  0.1595  0.0384 -0.5300
 7973SOL    HW135378   0.865   0.723   4.613 -0.0442 -0.4134 -1.6729
 7973SOL    HW235379   0.940   0.781   4.486 -1.6073 -2.9665 -0.5299
 7974SOL     OW35380   1.521   0.703   6.304  0.2438  0.5130 -0.2432
 7974SOL    HW135381   1.451   0.681   6.242  0.0232  1.7973 -0.4542
 7974SOL    HW235382   1.598   0.673   6.255 -0.7550 -1.8660 -0.3550
 7975SOL     OW35383   2.460   4.595   3.829 -0.5340  0.1305 -0.0731
 7975SOL    HW135384   2.533   4.538   3.855 -2.0612 -0.7398  2.2810
 7975SOL    HW235385   2.393   4.534   3.800 -1.8356  1.1583  0.7983
 7976SOL     OW35386   4.582   0.056   6.416  0.1109 -0.5857  0.7112
 7976SOL    HW135387   4.544   0.007   6.344 -1.6920  0.9974  0.5965
 7976SOL    HW235388   4.527   0.134   6.417  1.2449  0.2333 -0.1429
 7977SOL     OW35389   3.101   2.921   0.794  0.1595 -0.1948  0.2099
 7977SOL    HW135390   3.085   2.937   0.701  4.6400  0.8032 -0.3641
 7977SOL    HW235391   3.175   2.861   0.785 -0.8866 -1.2881 -1.2367
 7978SOL     OW35392   0.776   2.441   5.428  0.9715  0.7725  0.1189
 7978SOL    HW135393   0.709   2.419   5.493  2.0504 -3.7695 -0.3099
 7978SOL    HW235394   0.844   2.377   5.449  2.6834  1.9123 -1.8741
 7979SOL     OW35395   4.659   2.746  14.820 -0.5697  0.1414 -0.2810
 7979SOL    HW135396   4.668   2.652  14.835  1.9470  0.7696  2.0770
 7979SOL    HW235397   4.637   2.743  14.727 -0.7450  0.7523 -0.2574
 7980SOL     OW35398   1.492   4.089  16.554 -0.1163 -0.5219  1.2087
 7980SOL    HW135399   1.481   4.128  16.467 -0.3642  0.9104  1.8815
 7980SOL    HW235400   1.557   4.022  16.532  0.0269 -0.5835  1.8075
 7981SOL     OW35401   3.369   3.438   3.577  0.2610 -0.3933  0.5550
 7981SOL    HW135402   3.350   3.382   3.502 -0.7650 -0.9191  1.1965
 7981SOL    HW235403   3.319   3.393   3.645  1.9514 -2.3271  0.5119
 7982SOL     OW35404   3.842   0.429   3.803  0.2864  0.6961  0.7317
 7982SOL    HW135405   3.895   0.440   3.882 -0.7066  1.7271  1.2602
 7982SOL    HW235406   3.755   0.464   3.824 -0.2419 -1.2124  1.7037
 7983SOL     OW35407   1.666   0.277   7.625  0.6486 -0.3882  0.6180
 7983SOL    HW135408   1.584   0.321   7.648  0.2336  0.3292 -2.2352
 7983SOL    HW235409   1.660   0.205   7.688 -2.7355 -0.2552  0.4369
 7984SOL     OW35410   0.231   1.232   3.038  0.2230 -0.2504 -0.0476
 7984SOL    HW135411   0.268   1.192   2.959  0.0298  0.7031 -0.6152
 7984SOL    HW235412   0.306   1.252   3.095 -0.5674 -1.5649  1.4503
 7985SOL     OW35413   2.496   2.403  17.259 -0.0452 -0.1988 -0.2249
 7985SOL    HW135414   2.501   2.359  17.344 -1.4372 -2.9869 -1.5981
 7985SOL    HW235415   2.491   2.495  17.285  0.6678 -0.1015 -0.4341
 7986SOL     OW35416   1.982   2.061   0.849  0.2802  0.1857  0.0646
 7986SOL    HW135417   1.985   1.975   0.808  0.3241  1.4760 -2.6071
 7986SOL    HW235418   2.073   2.091   0.846 -0.4833  2.3616 -1.0933
 7987SOL     OW35419   0.430   4.258   2.410  0.1530  0.4333 -0.1785
 7987SOL    HW135420   0.422   4.227   2.320 -0.8848 -1.6396  0.6325
 7987SOL    HW235421   0.446   4.180   2.464 -0.0106  1.2911  1.0985
 7988SOL     OW35422   1.762   3.313   5.283 -0.2043  0.2572 -0.4582
 7988SOL    HW135423   1.671   3.317   5.253 -0.5940 -2.5067  0.3510
 7988SOL    HW235424   1.760   3.362   5.365  1.1349  2.2785 -1.6376
 7989SOL     OW35425   3.714   1.804   8.297  0.1291 -0.0989  0.0546
 7989SOL    HW135426   3.632   1.791   8.250 -0.4651 -1.7131  1.5552
 7989SOL    HW235427   3.727   1.898   8.286  1.2122 -0.2117  0.3527
 7990SOL     OW35428   2.810   3.852   9.915  0.1017 -0.0723  0.1062
 7990SOL    HW135429   2.856   3.818   9.838 -0.7915 -0.3551 -0.3063
 7990SOL    HW235430   2.735   3.885   9.866  0.1392  1.9575  1.3967
 7991SOL     OW35431   0.425   1.643   5.314 -0.3057 -0.6142  0.1701
 7991SOL    HW135432   0.520   1.632   5.327 -0.6866 -4.6002 -0.4412
 7991SOL    HW235433   0.429   1.684   5.228  2.3404 -0.1254  0.5065
 7992SOL     OW35434   0.211   0.654   7.754  0.1350  0.0729 -0.0677
 7992SOL    HW135435   0.168   0.728   7.796  1.5060  1.0616 -0.4287
 7992SOL    HW235436   0.185   0.583   7.814  2.2227  1.0717  1.9977
 7993SOL     OW35437   0.303   3.044   1.667 -0.3861 -0.1688  0.4708
 7993SOL    HW135438   0.211   3.066   1.656  0.1471  1.6627 -0.4170
 7993SOL    HW235439   0.307   2.995   1.748  0.4388 -0.7725  0.0708
 7994SOL     OW35440   4.482   0.681   5.316  0.7265  0.1522 -0.4208
 7994SOL    HW135441   4.409   0.630   5.352  0.2884  0.5350 -0.7716
 7994SOL    HW235442   4.490   0.736   5.394  1.4428  1.8062 -1.6584
 7995SOL     OW35443   0.925   4.009  11.256 -0.3413  0.5563  1.0870
 7995SOL    HW135444   0.968   3.923  11.257 -0.1087  0.6342 -2.6283
 7995SOL    HW235445   0.996   4.062  11.291  1.5057 -1.0639 -0.1569
 7996SOL     OW35446   4.380   3.432   4.729 -0.0771  0.0831 -0.1186
 7996SOL    HW135447   4.348   3.347   4.760 -0.1444  0.2789  0.3611
 7996SOL    HW235448   4.303   3.486   4.748 -0.6883 -0.7736 -0.1375
 7997SOL     OW35449   3.878   0.034   2.469  0.3928  0.6055  0.1868
 7997SOL    HW135450   3.823   0.022   2.391 -3.0961 -1.8125  3.0255
 7997SOL    HW235451   3.936   0.094   2.421  0.8009 -1.0278 -1.3649
 7998SOL     OW35452   1.533   3.709   2.927 -0.1345  0.8339 -0.6392
 7998SOL    HW135453   1.472   3.636   2.923 -0.6391  1.2069  0.2487
 7998SOL    HW235454   1.602   3.667   2.875  0.4267 -1.0572  1.6664
 7999SOL     OW35455   3.054   0.640   5.759  0.1334  0.2649 -0.1049
 7999SOL    HW135456   3.098   0.580   5.699  0.2087  2.8030 -2.5895
 7999SOL    HW235457   3.108   0.631   5.837 -0.1445  1.3820  0.2162
 8000SOL     OW35458   4.698   1.982   5.305 -0.0619  0.1376 -0.1185
 8000SOL    HW135459   4.664   2.058   5.257 -0.6323 -0.9199 -1.3769
 8000SOL    HW235460   0.022   1.934   5.238  1.8353  1.0236  0.5977
 8001SOL     OW35461   0.923   1.455   3.899 -0.2480  0.9693  0.0475
 8001SOL    HW135462   0.859   1.526   3.905  0.5952  1.5435  2.1559
 8001SOL    HW235463   0.877   1.392   3.844 -0.3786  1.0823  0.0281
 8002SOL     OW35464   3.490   4.032   5.547  0.0328  0.5280  0.3633
 8002SOL    HW135465   3.559   3.995   5.602  1.8693  0.5864 -1.9108
 8002SOL    HW235466   3.503   3.982   5.467  1.6535 -0.3110  1.1548
 8003SOL     OW35467   4.096   4.599   3.118  0.8308 -0.0911 -0.2319
 8003SOL    HW135468   4.098   4.551   3.035 -2.6620  0.7098 -0.7445
 8003SOL    HW235469   4.046   4.546   3.179  0.5490 -1.0176 -1.2628
 8004SOL     OW35470   4.589   2.159   2.175  0.6258  0.4085 -0.2426
 8004SOL    HW135471   4.652   2.224   2.146 -0.2834  2.0448  1.3833
 8004SOL    HW235472   4.599   2.159   2.271  1.1560 -0.3874 -0.2978
 8005SOL     OW35473   1.373   1.510   8.899  0.2791  0.5047 -0.1489
 8005SOL    HW135474   1.458   1.482   8.866 -0.7067 -1.6888 -0.8083
 8005SOL    HW235475   1.356   1.432   8.951  0.0306 -0.6656 -1.9668
 8006SOL     OW35476   3.706   1.157   3.897  0.5133 -0.1703 -0.1232
 8006SOL    HW135477   3.739   1.090   3.957  1.5012 -1.0841 -1.6707
 8006SOL    HW235478   3.762   1.229   3.925 -0.1653  0.1212  0.4719
 8007SOL     OW35479   3.861   3.835  10.284 -0.0053  0.5837 -0.1028
 8007SOL    HW135480   3.895   3.862  10.370 -2.6406 -0.8643  1.4165
 8007SOL    HW235481   3.878   3.915  10.234 -0.1922 -0.0987 -1.2423
 8008SOL     OW35482   2.858   1.756   6.633 -0.1982 -0.1021  0.1353
 8008SOL    HW135483   2.846   1.784   6.542 -0.3035  2.0783  0.8176
 8008SOL    HW235484   2.885   1.671   6.599 -0.2347 -0.9747  2.2725
 8009SOL     OW35485   3.058   2.631   5.571 -0.2507 -0.3401 -0.4466
 8009SOL    HW135486   3.106   2.548   5.576 -0.6775 -0.5147  0.7734
 8009SOL    HW235487   2.965   2.611   5.577 -0.2497 -0.7785 -1.9917
 8010SOL     OW35488   3.183   1.287   8.107  0.3507  0.2778 -0.1768
 8010SOL    HW135489   3.152   1.312   8.194 -2.2154  1.8262 -1.5474
 8010SOL    HW235490   3.235   1.208   8.125  0.0141  0.4801  1.7136
 8011SOL     OW35491   1.314   3.496   4.518 -0.7692 -0.0446 -0.2715
 8011SOL    HW135492   1.264   3.430   4.565 -0.5002  0.1261  0.2549
 8011SOL    HW235493   1.360   3.542   4.589  0.8581 -0.9701 -0.7102
 8012SOL     OW35494   3.645   3.658   8.787  0.0857 -0.4212  0.4059
 8012SOL    HW135495   3.718   3.660   8.726 -0.5584  3.0729 -0.2737
 8012SOL    HW235496   3.600   3.585   8.746 -0.9298  1.1981 -1.3705
 8013SOL     OW35497   4.489   3.769   6.376  0.0877  0.2086  0.0422
 8013SOL    HW135498   4.528   3.839   6.324  0.4403 -0.7300 -0.9682
 8013SOL    HW235499   4.542   3.778   6.455 -2.0412 -0.9064  1.5995
 8014SOL     OW35500   3.169   0.749   8.465  0.1350 -0.3111  0.2326
 8014SOL    HW135501   3.195   0.840   8.480 -0.6785 -0.2363  1.2109
 8014SOL    HW235502   3.255   0.713   8.443 -0.4976 -0.0310 -2.6754
 8015SOL     OW35503   4.632   4.626   5.252  0.4258  0.0375 -0.1440
 8015SOL    HW135504   4.635   4.540   5.208 -0.8657 -0.4374  0.7195
 8015SOL    HW235505   4.631   4.687   5.178  0.1488 -3.0172 -2.6947
 8016SOL     OW35506   0.281   0.906   8.487 -0.2446 -0.2044  0.1248
 8016SOL    HW135507   0.279   0.931   8.579  1.4976  0.3829 -0.0152
 8016SOL    HW235508   0.286   0.810   8.491  1.7251 -0.1009  0.1513
 8017SOL     OW35509   3.222   4.252   0.978 -0.3340 -0.2341 -0.7734
 8017SOL    HW135510   3.267   4.184   0.927 -0.1614 -0.8562  0.1959
 8017SOL    HW235511   3.295   4.313   0.970 -1.2441  0.8528 -0.8035
 8018SOL     OW35512   1.335   4.287  17.293  0.0588  0.2601  0.3837
 8018SOL    HW135513   1.362   4.379  17.289 -0.0504  0.3183  1.0821
 8018SOL    HW235514   1.252   4.291  17.341  1.4841 -0.7169  2.9395
 8019SOL     OW35515   0.316   2.521  17.200 -0.1773 -0.7500 -0.3167
 8019SOL    HW135516   0.269   2.438  17.199 -0.1204 -0.8140  1.5509
 8019SOL    HW235517   0.322   2.536  17.106 -0.3809  0.0133 -0.2098
 8020SOL     OW35518   0.592   3.350   4.298  0.0218  0.4029 -0.4154
 8020SOL    HW135519   0.518   3.387   4.250  0.7788 -0.1129 -1.9774
 8020SOL    HW235520   0.656   3.357   4.228  1.0101  1.3914  0.5984
 8021SOL     OW35521   2.903   4.276   1.329 -0.1047  0.6904 -0.0759
 8021SOL    HW135522   2.970   4.248   1.392 -1.0223  0.4219  0.7842
 8021SOL    HW235523   2.878   4.354   1.378 -4.5091 -1.1412  0.6326
 8022SOL     OW35524   3.383   4.578   3.699 -0.1124  0.3364  0.2280
 8022SOL    HW135525   3.448   4.648   3.699  1.9378 -1.5370 -0.9371
 8022SOL    HW235526   3.362   4.578   3.606 -0.7749  0.8979  0.3826
 8023SOL     OW35527   4.580   0.087   4.553  0.3475 -0.3664  0.3727
 8023SOL    HW135528   4.602   0.126   4.637  0.8390  1.8915 -0.7883
 8023SOL    HW235529   4.651   0.026   4.531 -1.8291 -3.2587  1.3339
 8024SOL     OW35530   1.330   0.067   7.355 -0.4499  0.7029  0.5734
 8024SOL    HW135531   1.250   0.109   7.323 -1.0811  0.5265  1.8922
 8024SOL    HW235532   1.285   0.003   7.411  2.3628 -0.8553  1.0485
 8025SOL     OW35533   1.788   3.863   8.941  0.3118 -0.3567 -0.5844
 8025SOL    HW135534   1.768   3.934   9.002 -2.1716 -1.4795 -0.0994
 8025SOL    HW235535   1.775   3.785   8.995 -0.2431 -0.3804 -0.7545
 8026SOL     OW35536   2.860   4.061   1.867 -0.1866 -0.0125  0.1132
 8026SOL    HW135537   2.876   4.028   1.779 -3.0502  0.3590 -0.5448
 8026SOL    HW235538   2.798   4.128   1.837  1.4348  1.0149 -0.9251
 8027SOL     OW35539   4.469   2.557   7.478  0.5145  0.3006  0.1559
 8027SOL    HW135540   4.447   2.475   7.434  0.5431  0.4446 -0.1264
 8027SOL    HW235541   4.563   2.551   7.458  0.0185  0.3563 -2.1795
 8028SOL     OW35542   3.322   2.079   9.077 -0.6083  0.6347  0.3731
 8028SOL    HW135543   3.305   2.065   8.984 -0.5085 -0.5806  0.5385
 8028SOL    HW235544   3.417   2.073   9.085 -0.7855 -1.6634  0.7886
 8029SOL     OW35545   0.478   1.317   1.270  0.1110  0.1542 -0.3842
 8029SOL    HW135546   0.535   1.304   1.194  1.8924  1.3234  0.7839
 8029SOL    HW235547   0.396   1.318   1.220  0.0501  0.7582 -0.2650
 8030SOL     OW35548   2.870   3.425  16.679 -0.5722  0.4172  0.2928
 8030SOL    HW135549   2.922   3.437  16.599 -1.6408  1.3068 -0.2750
 8030SOL    HW235550   2.919   3.351  16.715  1.5090  0.3054 -2.7595
 8031SOL     OW35551   4.625   0.233   4.774  0.5564 -0.2912  0.3623
 8031SOL    HW135552   4.695   0.291   4.805  1.7544 -1.9826  0.8204
 8031SOL    HW235553   4.621   0.162   4.838 -0.5888 -0.6758 -0.1339
 8032SOL     OW35554   0.685   0.146  14.964 -0.0398  0.0612  0.1585
 8032SOL    HW135555   0.751   0.125  15.030 -0.1922 -0.3136  0.1862
 8032SOL    HW235556   0.740   0.171  14.890 -1.4256  1.4276 -0.4153
 8033SOL     OW35557   3.040   0.581   2.799 -0.2195 -0.2179 -0.1160
 8033SOL    HW135558   3.083   0.509   2.846  1.6624  0.7706 -0.3618
 8033SOL    HW235559   3.079   0.566   2.713  0.3883 -1.5524  0.3913
 8034SOL     OW35560   2.534   4.500   5.392 -0.1594 -0.1484  0.2335
 8034SOL    HW135561   2.623   4.473   5.417 -0.9195 -1.0314  1.9480
 8034SOL    HW235562   2.528   4.580   5.444  1.1934 -0.4587  0.8873
 8035SOL     OW35563   2.177   3.023   3.246  0.2075  0.2706 -0.2368
 8035SOL    HW135564   2.135   3.101   3.211  0.0874  0.4720  0.3674
 8035SOL    HW235565   2.261   3.014   3.200 -0.0303  0.3715 -0.6891
 8036SOL     OW35566   2.676   1.120   1.787 -0.5850 -0.2982  0.3606
 8036SOL    HW135567   2.583   1.097   1.777 -0.9862  0.7665  1.5212
 8036SOL    HW235568   2.693   1.052   1.852  1.8685  0.1233  0.1575
 8037SOL     OW35569   0.908   1.681   5.756  0.1372  0.5407 -0.3169
 8037SOL    HW135570   0.969   1.749   5.783 -2.1597  2.8350 -0.9569
 8037SOL    HW235571   0.844   1.701   5.825 -1.4138 -1.9042 -1.0371
 8038SOL     OW35572   2.107   2.282  16.531  0.2792 -0.1401  0.3782
 8038SOL    HW135573   2.040   2.326  16.583  1.6262  1.2902  0.9009
 8038SOL    HW235574   2.122   2.207  16.588 -0.9253 -2.1014 -1.8954
 8039SOL     OW35575   3.676   1.796   2.319  0.0095  0.0239  0.0760
 8039SOL    HW135576   3.761   1.838   2.335  1.0927 -1.3487 -1.9859
 8039SOL    HW235577   3.606   1.861   2.315 -1.0373 -1.1695 -0.9550
 8040SOL     OW35578   0.356   2.950  12.542 -0.5039  0.1902  0.3867
 8040SOL    HW135579   0.396   2.933  12.457  0.5697 -1.7841  1.2982
 8040SOL    HW235580   0.273   2.914  12.511 -0.0332 -0.3709 -0.2157
 8041SOL     OW35581   4.159   4.030  15.922  0.3163  0.5498  0.3029
 8041SOL    HW135582   4.168   4.119  15.887  0.5935 -0.6556 -2.6804
 8041SOL    HW235583   4.065   4.015  15.914  0.7804 -0.4668 -3.2972
 8042SOL     OW35584   2.242   4.043   4.004  0.1140 -0.0840 -0.0417
 8042SOL    HW135585   2.327   4.001   3.992 -1.1232 -2.6108  0.0514
 8042SOL    HW235586   2.218   4.014   4.092  1.7072  0.3969  0.5405
 8043SOL     OW35587   0.551   2.315  11.215 -0.1555 -0.4512  0.2522
 8043SOL    HW135588   0.630   2.365  11.195 -0.1063 -0.2636  0.8918
 8043SOL    HW235589   0.517   2.390  11.265  2.3093 -0.4197  1.8886
 8044SOL     OW35590   2.903   0.088  16.059  0.2232 -0.1230  0.6003
 8044SOL    HW135591   2.950   0.084  16.142 -0.7048 -0.2934  1.1275
 8044SOL    HW235592   2.816   0.122  16.080 -0.6989 -1.0107 -1.7819
 8045SOL     OW35593   3.179   3.679   6.839 -0.0549 -0.4801 -0.5636
 8045SOL    HW135594   3.184   3.702   6.931  1.4049  1.7631 -1.2103
 8045SOL    HW235595   3.266   3.702   6.805  0.0964 -0.9163 -0.4788
 8046SOL     OW35596   0.934   0.108   2.795  0.3031  0.0349  0.2256
 8046SOL    HW135597   0.976   0.032   2.835 -2.1061 -1.5401 -0.2321
 8046SOL    HW235598   0.988   0.136   2.722 -1.0526  0.2193 -0.7170
 8047SOL     OW35599   0.083   3.970   2.341 -0.1622  0.1979  0.2506
 8047SOL    HW135600   0.163   3.918   2.344 -1.0574 -1.2896 -1.8445
 8047SOL    HW235601   0.111   4.054   2.377 -1.9750  0.8204  0.1882
 8048SOL     OW35602   2.916   3.454   7.003  0.2413  0.4079 -0.1188
 8048SOL    HW135603   2.845   3.413   7.052 -0.8181  0.8137 -1.3206
 8048SOL    HW235604   2.994   3.418   7.046 -0.1728 -0.7736 -0.3821
 8049SOL     OW35605   3.808   2.255   8.090  0.4627  0.7375 -0.4782
 8049SOL    HW135606   3.853   2.336   8.114  0.6936 -0.4408  3.1171
 8049SOL    HW235607   3.832   2.245   7.998 -1.6984  1.5029 -1.1117
 8050SOL     OW35608   0.270   0.334   9.545 -0.6629  0.2700 -0.1910
 8050SOL    HW135609   0.330   0.315   9.616 -3.1565 -0.3961  1.7114
 8050SOL    HW235610   0.288   0.256   9.493 -0.5850 -0.3250  0.7320
 8051SOL     OW35611   1.111   2.016   3.977 -0.8778 -0.3700 -0.2307
 8051SOL    HW135612   1.094   1.991   4.068 -1.4214  1.2721  0.1213
 8051SOL    HW235613   1.206   2.004   3.973 -0.7808  0.0858  0.6214
 8052SOL     OW35614   2.856   4.649   6.631  0.2285 -0.2145  0.3801
 8052SOL    HW135615   2.885   4.667   6.720  1.1711 -0.1728  0.0697
 8052SOL    HW235616   2.937   4.662   6.580  0.4907 -2.7507  0.1861
 8053SOL     OW35617   1.169   4.315  11.986 -0.8142 -0.5652 -0.1233
 8053SOL    HW135618   1.124   4.233  12.007 -0.9508 -0.5910 -0.5013
 8053SOL    HW235619   1.170   4.374  12.061  2.8199  0.2226 -0.7618
 8054SOL     OW35620   4.554   0.310  16.737  0.1788 -0.1950 -0.1296
 8054SOL    HW135621   4.625   0.357  16.782 -0.8072  0.3727  0.8395
 8054SOL    HW235622   4.548   0.362  16.657 -1.8611 -0.7703 -0.3401
 8055SOL     OW35623   4.420   2.288   5.490  0.0064 -0.0237  0.0152
 8055SOL    HW135624   4.481   2.337   5.546  1.9111  0.4823 -2.5193
 8055SOL    HW235625   4.474   2.279   5.412  0.5063 -0.0222  0.3587
 8056SOL     OW35626   3.146   3.242   6.495 -0.7428  0.5722 -0.0531
 8056SOL    HW135627   3.063   3.232   6.540  0.7771 -1.7199  2.2310
 8056SOL    HW235628   3.206   3.215   6.565  1.8495 -0.9977 -2.8308
 8057SOL     OW35629   1.057   1.074   4.889  0.1812  0.3714  0.6364
 8057SOL    HW135630   0.979   1.038   4.929 -1.4958  1.1132 -2.0087
 8057SOL    HW235631   1.069   1.006   4.823 -1.3055  2.5434 -1.8366
 8058SOL     OW35632   3.348   4.212  15.087  0.4870 -0.3402  0.6030
 8058SOL    HW135633   3.312   4.257  15.163 -3.0511 -1.6897 -0.3006
 8058SOL    HW235634   3.276   4.215  15.024 -0.4023  2.2935  1.7784
 8059SOL     OW35635   1.404   1.060   3.261  0.3138  0.9042 -0.5230
 8059SOL    HW135636   1.457   1.083   3.338 -0.5387 -2.2757  1.0436
 8059SOL    HW235637   1.333   1.010   3.301 -0.0324  2.6148  1.0195
 8060SOL     OW35638   2.754   0.216   6.724  0.1942 -0.2016  0.5601
 8060SOL    HW135639   2.783   0.295   6.771  0.1412  0.5161 -0.5992
 8060SOL    HW235640   2.797   0.143   6.768  0.9310  0.8261  1.5372
 8061SOL     OW35641   2.515   2.122   5.478  0.3022  0.2274 -0.1686
 8061SOL    HW135642   2.545   2.077   5.399  0.2915  1.5229 -0.9155
 8061SOL    HW235643   2.456   2.184   5.436 -1.2071  1.1247  3.2977
 8062SOL     OW35644   1.035   1.351   1.591  0.4230 -0.0994  0.4694
 8062SOL    HW135645   1.005   1.437   1.619 -1.6702 -0.6681  0.0164
 8062SOL    HW235646   1.118   1.366   1.546  1.0092 -1.6835  1.0076
 8063SOL     OW35647   1.825   2.427  12.827 -0.0917  0.0299  0.0185
 8063SOL    HW135648   1.853   2.418  12.736 -0.0599 -1.7801  0.2108
 8063SOL    HW235649   1.908   2.458  12.862 -0.1320 -2.4174  2.3072
 8064SOL     OW35650   3.845   0.909  15.529 -0.1029 -0.0063 -0.6302
 8064SOL    HW135651   3.884   0.936  15.445 -1.0399  1.8447 -0.4821
 8064SOL    HW235652   3.785   0.983  15.535 -0.2058  0.0784 -2.5750
 8065SOL     OW35653   1.840   1.920   3.792 -0.3689  0.3087 -0.7768
 8065SOL    HW135654   1.822   1.931   3.699 -3.5313  0.1899 -0.1757
 8065SOL    HW235655   1.872   2.005   3.822 -0.4800  0.2188 -0.4006
 8066SOL     OW35656   1.130   4.030  11.988  0.2481  0.3662 -0.0514
 8066SOL    HW135657   1.131   3.964  11.919 -2.6460  0.2924 -0.0108
 8066SOL    HW235658   1.220   4.044  12.018  0.7914  1.1096 -2.0439
 8067SOL     OW35659   2.833   2.488   5.158  0.4518 -0.3533  0.0890
 8067SOL    HW135660   2.781   2.469   5.236  1.0383 -1.3165  0.2535
 8067SOL    HW235661   2.889   2.412   5.141  1.2888  0.3166 -0.1396
 8068SOL     OW35662   1.548   2.761   7.699  0.6705  0.6138 -0.0420
 8068SOL    HW135663   1.463   2.732   7.667  1.0371  0.2266 -0.6544
 8068SOL    HW235664   1.558   2.715   7.782  2.3161  0.3206 -0.4087
 8069SOL     OW35665   0.750   3.293  13.417  0.2705 -0.0694  1.0069
 8069SOL    HW135666   0.675   3.260  13.466 -0.0241 -0.8954 -0.0109
 8069SOL    HW235667   0.736   3.244  13.336 -1.2960  1.8703  0.1084
 8070SOL     OW35668   2.174   0.124  16.719 -0.0408 -0.6448 -0.8131
 8070SOL    HW135669   2.108   0.063  16.687 -0.0361 -0.8059 -0.5184
 8070SOL    HW235670   2.203   0.158  16.634  0.2073  1.3586  0.0730
 8071SOL     OW35671   4.231   2.819   0.115 -0.2763 -0.3377 -0.0430
 8071SOL    HW135672   4.294   2.754   0.085  0.0933  1.0004 -2.2153
 8071SOL    HW235673   4.268   2.816   0.203  0.0852 -1.4272 -0.2309
 8072SOL     OW35674   3.142   4.046   6.962  0.1128 -0.0564  0.6779
 8072SOL    HW135675   3.076   4.031   6.894 -0.6680  0.2398  1.3643
 8072SOL    HW235676   3.183   4.118   6.915  3.1123 -0.5834  2.4997
 8073SOL     OW35677   3.202   1.145   7.153 -0.2334  0.5298  0.7475
 8073SOL    HW135678   3.238   1.056   7.154 -0.6198  0.3888  1.8016
 8073SOL    HW235679   3.159   1.142   7.067  1.9522 -0.1415 -0.3356
 8074SOL     OW35680   2.955   0.303  13.971  0.0923  0.1226  0.2670
 8074SOL    HW135681   2.921   0.392  13.961 -0.3883  0.2398  2.9400
 8074SOL    HW235682   2.872   0.254  13.966  1.7470 -2.7489  0.8487
 8075SOL     OW35683   2.548   0.448   8.609 -0.0294  0.0579 -0.1505
 8075SOL    HW135684   2.570   0.373   8.663  0.1789  0.7987  0.7849
 8075SOL    HW235685   2.634   0.469   8.573  0.7927 -1.2351  1.0852
 8076SOL     OW35686   3.230   1.576  11.957  0.2939  0.2108  0.1775
 8076SOL    HW135687   3.225   1.560  12.052  0.7794 -0.5355  0.0793
 8076SOL    HW235688   3.197   1.665  11.951 -1.2074 -0.4139 -0.6784
 8077SOL     OW35689   4.026   4.464   7.285 -0.0237  0.3982 -0.0156
 8077SOL    HW135690   4.071   4.519   7.221  1.5461 -1.0158 -0.1337
 8077SOL    HW235691   3.949   4.513   7.313 -0.0454  0.3640 -0.0143
 8078SOL     OW35692   3.310   4.084  13.428  0.4788 -0.1506 -0.3254
 8078SOL    HW135693   3.339   4.161  13.380  0.1586 -0.7342 -1.4405
 8078SOL    HW235694   3.322   4.110  13.520  3.6194 -0.4032 -0.6634
 8079SOL     OW35695   4.373   3.054   5.623 -0.4101 -0.8412  0.0878
 8079SOL    HW135696   4.464   3.050   5.592  0.2587  0.0518  1.9159
 8079SOL    HW235697   4.390   3.053   5.717  0.3211  0.7046 -0.0256
 8080SOL     OW35698   2.264   0.395  14.606 -0.5470 -0.4504 -0.3872
 8080SOL    HW135699   2.335   0.396  14.542 -0.6105  2.7184 -0.3840
 8080SOL    HW235700   2.283   0.314  14.654  0.4237  1.9421  3.2315
 8081SOL     OW35701   2.476   1.771   9.062  0.0270 -0.1810  0.9420
 8081SOL    HW135702   2.424   1.793   9.140 -2.3365  0.0416 -0.6883
 8081SOL    HW235703   2.442   1.684   9.040  1.2577 -0.8473  1.6485
 8082SOL     OW35704   0.307   4.615  15.944 -0.2298 -0.3213 -0.4029
 8082SOL    HW135705   0.368   4.549  15.910  0.3503 -0.4015  0.8054
 8082SOL    HW235706   0.319   4.683  15.877  0.8946  0.5308  0.6637
 8083SOL     OW35707   4.684   4.441   2.276 -0.3050 -0.3014 -0.0240
 8083SOL    HW135708   4.618   4.404   2.217 -1.4323  3.2675 -0.9564
 8083SOL    HW235709   4.657   4.532   2.263 -0.5420 -0.3551  0.0898
 8084SOL     OW35710   1.647   4.616   7.613  0.2418 -0.1161 -0.3298
 8084SOL    HW135711   1.610   4.685   7.558 -2.5458 -0.9156  0.5401
 8084SOL    HW235712   1.655   4.665   7.696 -0.9947  2.0773 -1.4910
 8085SOL     OW35713   2.122   0.789  16.086  0.2956  0.5589  0.6881
 8085SOL    HW135714   2.056   0.727  16.054 -0.4683  0.9294  1.5420
 8085SOL    HW235715   2.200   0.749  16.046  0.0118  0.5086  0.1921
 8086SOL     OW35716   0.997   1.393   5.796  0.1587  0.4410 -0.1834
 8086SOL    HW135717   1.091   1.407   5.803  0.1835 -1.0811  2.5185
 8086SOL    HW235718   0.971   1.483   5.773 -2.3395 -0.4401 -0.9150
 8087SOL     OW35719   4.645   1.401   3.154 -0.5402 -0.5165 -0.3175
 8087SOL    HW135720   4.593   1.442   3.085 -0.0808 -2.3560 -1.7550
 8087SOL    HW235721   4.588   1.325   3.158  1.1570 -1.7899 -0.6803
 8088SOL     OW35722   3.982   1.543   7.431  0.0693  0.1973 -0.3127
 8088SOL    HW135723   3.890   1.542   7.405  0.5561 -0.9578 -1.9719
 8088SOL    HW235724   4.001   1.636   7.419 -0.3383  0.3776  0.4066
 8089SOL     OW35725   2.129   1.611  14.321  0.0676  0.0608 -0.6025
 8089SOL    HW135726   2.043   1.602  14.282 -1.0021  1.8268  1.3567
 8089SOL    HW235727   2.165   1.674  14.259 -1.2184 -0.2482 -1.6530
 8090SOL     OW35728   2.118   1.383   2.679 -0.0147  0.0834 -0.3788
 8090SOL    HW135729   2.077   1.395   2.593 -1.6589  0.2893  0.4488
 8090SOL    HW235730   2.126   1.475   2.704 -0.3125  0.2985 -1.0794
 8091SOL     OW35731   4.213   1.732  15.805 -0.4434 -0.2271 -0.0345
 8091SOL    HW135732   4.304   1.722  15.776  0.3084  2.8054  1.3394
 8091SOL    HW235733   4.199   1.827  15.808  1.1997 -0.0143  0.8631
 8092SOL     OW35734   3.579   3.621   5.169  0.1996 -0.2085  0.2114
 8092SOL    HW135735   3.572   3.715   5.154 -0.7668 -0.3860 -0.4282
 8092SOL    HW235736   3.548   3.616   5.260 -2.2435 -2.9515 -0.7557
 8093SOL     OW35737   0.947   0.966  10.683  0.1868  0.3063 -0.6034
 8093SOL    HW135738   0.989   0.971  10.769  1.8202  0.5433 -1.4197
 8093SOL    HW235739   1.031   0.956  10.637 -0.0140 -1.6594 -0.5600
 8094SOL     OW35740   0.976   0.758   4.295  0.3166  1.0009  0.3869
 8094SOL    HW135741   0.898   0.782   4.246  0.3325 -1.2253 -0.7206
 8094SOL    HW235742   1.034   0.741   4.220 -0.0407 -0.4461  0.4440
 8095SOL     OW35743   3.662   3.028   6.304  0.3238 -0.6808  0.5761
 8095SOL    HW135744   3.603   3.072   6.242 -0.8916  0.2406  2.3523
 8095SOL    HW235745   3.596   3.011   6.372 -0.3380  1.3485  0.4484
 8096SOL     OW35746   1.634   3.255   0.446 -0.4838  0.0043 -0.5278
 8096SOL    HW135747   1.625   3.162   0.463 -1.2441  0.1202 -0.2820
 8096SOL    HW235748   1.713   3.263   0.392 -1.3628 -1.6410 -2.0509
 8097SOL     OW35749   4.313   2.775   4.014  0.1491  0.1915 -0.1658
 8097SOL    HW135750   4.394   2.756   4.062  0.0113 -0.9179 -0.3760
 8097SOL    HW235751   4.259   2.697   4.021 -2.0144  1.8076  1.3668
 8098SOL     OW35752   4.514   4.049  10.757 -0.2883 -0.2752 -0.3285
 8098SOL    HW135753   4.476   4.009  10.835  0.9804 -0.1225  0.3726
 8098SOL    HW235754   4.557   3.976  10.713  1.7394  0.1697  0.8724
 8099SOL     OW35755   4.624   1.789   5.867  0.2398  0.3742 -0.2351
 8099SOL    HW135756   4.668   1.857   5.815 -1.0901  1.0412 -0.5021
 8099SOL    HW235757   4.680   1.715   5.845  1.3457  0.5684  1.9146
 8100SOL     OW35758   0.741   2.838   0.766 -0.0212 -0.5533 -0.2036
 8100SOL    HW135759   0.791   2.818   0.845  0.3612  1.0015 -0.0374
 8100SOL    HW235760   0.665   2.782   0.779 -1.1610  1.4641  1.7175
 8101SOL     OW35761   0.904   3.392   2.622  0.2327 -0.5042  0.1528
 8101SOL    HW135762   0.837   3.460   2.629  1.2965  0.7302 -2.1367
 8101SOL    HW235763   0.901   3.400   2.527  1.4305 -2.1110 -0.0171
 8102SOL     OW35764   2.433   4.441   9.272  0.2079  0.2179  0.2392
 8102SOL    HW135765   2.398   4.353   9.255 -0.4204  0.1030  2.0777
 8102SOL    HW235766   2.493   4.461   9.200 -1.9876  1.4061 -1.2608
 8103SOL     OW35767   0.375   3.704   0.877 -0.2751  0.1197 -0.5358
 8103SOL    HW135768   0.399   3.667   0.962  1.8889  0.3259 -1.0488
 8103SOL    HW235769   0.302   3.649   0.848 -2.7491  2.8363  0.5238
 8104SOL     OW35770   0.258   2.038   2.420  0.0424  0.3561  0.0178
 8104SOL    HW135771   0.297   2.122   2.444  0.8618 -0.3761  1.2694
 8104SOL    HW235772   0.244   2.051   2.326 -0.7143  1.4408  0.2861
 8105SOL     OW35773   2.062   4.403  16.554  0.4418 -0.3101 -0.3131
 8105SOL    HW135774   2.051   4.376  16.463  1.0229  0.4739 -0.6196
 8105SOL    HW235775   1.976   4.435  16.582 -0.1706 -0.8286 -1.6020
 8106SOL     OW35776   4.350   2.528   2.144  0.5921 -0.3424  0.4742
 8106SOL    HW135777   4.435   2.558   2.176  1.4826 -1.6450 -0.6528
 8106SOL    HW235778   4.330   2.592   2.076  2.2092 -0.6881 -0.3175
 8107SOL     OW35779   1.856   4.510   1.578 -0.4499 -0.0787  0.2977
 8107SOL    HW135780   1.772   4.547   1.604 -0.7893  0.0626 -0.9824
 8107SOL    HW235781   1.838   4.481   1.488  0.1968  0.4005  0.0096
 8108SOL     OW35782   0.800   3.774   4.387 -0.1737  0.0833  0.6284
 8108SOL    HW135783   0.750   3.855   4.377 -0.0375  0.6174  4.2692
 8108SOL    HW235784   0.729   3.724   4.427 -0.7376 -0.3594 -0.9054
 8109SOL     OW35785   1.541   1.132   1.481 -0.3521 -0.2621  0.0732
 8109SOL    HW135786   1.463   1.077   1.490 -0.8097  0.1590 -1.3744
 8109SOL    HW235787   1.605   1.063   1.500  0.5159  0.7290  0.7055
 8110SOL     OW35788   3.451   2.654   1.817  0.0615  0.2059  0.4391
 8110SOL    HW135789   3.457   2.564   1.787  0.0965  0.3763 -0.0558
 8110SOL    HW235790   3.477   2.696   1.736  1.2828 -1.5924 -0.0950
 8111SOL     OW35791   0.194   0.525   7.190  0.3232  0.1902  0.3976
 8111SOL    HW135792   0.227   0.532   7.280 -0.2024 -1.8785  0.7516
 8111SOL    HW235793   0.225   0.436   7.173 -1.3938 -0.5068  0.8999
 8112SOL     OW35794   0.744   2.615  10.930 -0.8103 -0.1066  0.2210
 8112SOL    HW135795   0.667   2.593  10.877 -0.9154 -0.1649  0.3997
 8112SOL    HW235796   0.783   2.684  10.875  2.5355 -2.4276 -0.3221
 8113SOL     OW35797   4.359   0.900   3.012 -0.5813 -0.3698 -0.4748
 8113SOL    HW135798   4.283   0.935   3.059 -0.7410 -1.9302  0.4308
 8113SOL    HW235799   4.315   0.835   2.959  0.1520 -3.1619  2.3303
 8114SOL     OW35800   2.417   0.107   8.399  0.0492  0.1468  0.0318
 8114SOL    HW135801   2.331   0.128   8.363  0.2629 -0.1130 -0.6467
 8114SOL    HW235802   2.476   0.165   8.351 -0.6016  0.4836 -0.3648
 8115SOL     OW35803   2.867   4.189   2.268  0.2730 -0.4899 -0.7904
 8115SOL    HW135804   2.922   4.147   2.334 -1.6223 -0.4879  0.7711
 8115SOL    HW235805   2.805   4.241   2.319 -0.7468 -0.9836 -1.5193
 8116SOL     OW35806   2.751   1.235  14.127  0.4411  0.2297  0.0395
 8116SOL    HW135807   2.731   1.222  14.034 -1.4986  0.1525  0.4682
 8116SOL    HW235808   2.684   1.298  14.153  1.5037  0.5268  2.0467
 8117SOL     OW35809   1.037   0.940  16.647 -0.4443  0.3094 -0.2532
 8117SOL    HW135810   0.951   0.979  16.661  1.0459  3.7730 -0.8183
 8117SOL    HW235811   1.011   0.899  16.565  0.8949  0.9552 -0.9842
 8118SOL     OW35812   3.060   2.024  16.573  0.1649 -0.9992 -0.7221
 8118SOL    HW135813   3.087   2.059  16.658 -0.1927  0.0069 -1.0212
 8118SOL    HW235814   3.134   1.963  16.563  0.9922 -0.2248  0.7627
 8119SOL     OW35815   3.939   0.309   4.843  0.0675  0.6278  0.2869
 8119SOL    HW135816   4.019   0.344   4.881  0.0129  0.8931  0.1548
 8119SOL    HW235817   3.962   0.265   4.761  3.4661 -1.0812  2.1809
 8120SOL     OW35818   4.113   0.306   4.028 -0.0877 -0.4684 -0.6304
 8120SOL    HW135819   4.147   0.396   4.020 -3.8551  0.9205 -0.9525
 8120SOL    HW235820   4.180   0.266   4.084  0.2695 -0.1368 -0.8173
 8121SOL     OW35821   1.379   3.043   2.650 -0.1585  0.3026  0.4464
 8121SOL    HW135822   1.472   3.020   2.649 -0.3878 -0.7081  2.4435
 8121SOL    HW235823   1.370   3.091   2.732 -0.8372  1.3731 -0.2464
 8122SOL     OW35824   1.397   1.742   5.117  0.1530  0.6246 -0.5898
 8122SOL    HW135825   1.343   1.688   5.174  0.5163  2.4395  1.4915
 8122SOL    HW235826   1.447   1.788   5.185 -0.0454  0.8264 -0.5796
 8123SOL     OW35827   3.527   3.207  13.085 -0.0582 -0.7543 -0.1086
 8123SOL    HW135828   3.571   3.201  13.170  0.5804 -0.1925 -0.3991
 8123SOL    HW235829   3.584   3.268  13.038 -0.7322 -0.7539 -0.9262
 8124SOL     OW35830   0.844   4.307   6.090 -0.1439  0.5080  0.3243
 8124SOL    HW135831   0.858   4.294   6.183 -0.9347 -2.0987  0.0891
 8124SOL    HW235832   0.826   4.220   6.053  1.4593  0.9484 -1.4994
 8125SOL     OW35833   2.544   3.321   4.028 -0.3297 -0.0466  0.0859
 8125SOL    HW135834   2.590   3.244   3.996  0.6600  0.8414 -0.6037
 8125SOL    HW235835   2.546   3.301   4.122 -1.7257  0.9213  0.3242
 8126SOL     OW35836   2.321   1.404   6.694 -0.0632 -0.3907  0.3518
 8126SOL    HW135837   2.264   1.441   6.626  2.2097 -1.4413 -2.1356
 8126SOL    HW235838   2.324   1.481   6.750  0.8979 -1.5488  1.8915
 8127SOL     OW35839   2.378   2.718   6.278  0.7094  0.0272 -0.2894
 8127SOL    HW135840   2.445   2.774   6.239  1.5400 -1.7336 -1.3918
 8127SOL    HW235841   2.413   2.630   6.293 -0.3078 -0.4771 -0.8558
 8128SOL     OW35842   0.411   2.405   0.544  0.4650  0.1638 -0.6317
 8128SOL    HW135843   0.490   2.459   0.545 -0.9303  2.1595  0.2746
 8128SOL    HW235844   0.374   2.437   0.626 -1.4830  1.5254 -2.0347
 8129SOL     OW35845   0.237   1.253   2.154 -0.3742 -0.8231 -0.0522
 8129SOL    HW135846   0.167   1.280   2.095  0.7466  1.0718 -0.5202
 8129SOL    HW235847   0.319   1.281   2.112 -1.1803  2.6192  0.6718
 8130SOL     OW35848   0.717   4.033   4.304  0.3869  0.0507  0.3655
 8130SOL    HW135849   0.651   4.043   4.373 -2.0837  0.5190 -2.0460
 8130SOL    HW235850   0.745   4.124   4.291 -2.0989  0.8902  0.9785
 8131SOL     OW35851   1.925   2.919   0.381 -0.0098  0.1034  0.3861
 8131SOL    HW135852   1.971   2.904   0.298  1.5194 -0.4447  1.3352
 8131SOL    HW235853   1.840   2.877   0.368  0.5248 -1.0662  0.7321
 8132SOL     OW35854   3.259   4.532   2.342 -0.2196 -0.2615 -0.2720
 8132SOL    HW135855   3.265   4.437   2.334 -2.9817 -0.4175 -0.6526
 8132SOL    HW235856   3.191   4.554   2.278 -1.7519 -1.9490  0.7887
 8133SOL     OW35857   1.370   2.610  12.022  0.6972  0.1436  0.0770
 8133SOL    HW135858   1.466   2.616  12.014  0.5374  2.3327 -0.1770
 8133SOL    HW235859   1.354   2.616  12.116 -1.7078  1.1048 -0.4063
 8134SOL     OW35860   0.141   4.722   3.525  0.3783 -0.3952 -0.0478
 8134SOL    HW135861   0.227   0.040   3.526  1.6457 -2.9992 -1.0425
 8134SOL    HW235862   0.123   0.003   3.431  1.1768 -1.1722 -0.2398
 8135SOL     OW35863   4.153   3.826   4.397  0.1432 -0.0562  0.2406
 8135SOL    HW135864   4.086   3.788   4.454  2.8379 -0.2729  3.2731
 8135SOL    HW235865   4.100   3.835   4.318  0.7799 -0.6290 -0.2462
 8136SOL     OW35866   0.768   3.347   7.142  0.1688  0.0201  0.1377
 8136SOL    HW135867   0.674   3.345   7.125 -0.1572 -1.5854  2.1310
 8136SOL    HW235868   0.768   3.366   7.236 -0.1869  3.6638 -0.5704
 8137SOL     OW35869   0.039   3.848  15.777 -0.0543  0.3852 -0.3223
 8137SOL    HW135870   0.010   3.915  15.715  0.3805  0.2528 -0.6696
 8137SOL    HW235871   0.084   3.900  15.844 -2.3222  0.2820  1.2823
 8138SOL     OW35872   3.622   2.926  15.636  0.5284 -0.1010  0.2644
 8138SOL    HW135873   3.705   2.891  15.604 -0.7126 -3.5419  0.8080
 8138SOL    HW235874   3.558   2.872  15.591 -1.7370  0.7774  2.4184
 8139SOL     OW35875   2.962   2.736   1.819 -0.4197  0.4349  0.3849
 8139SOL    HW135876   2.939   2.649   1.789 -2.0829  1.6054 -1.6920
 8139SOL    HW235877   2.895   2.745   1.887  0.4992 -0.8371  1.4631
 8140SOL     OW35878   4.144   0.041   5.044 -0.3986 -0.0943  0.1432
 8140SOL    HW135879   4.069   0.036   4.985  2.5475  0.1319 -3.6515
 8140SOL    HW235880   4.101   0.036   5.129 -2.3754  0.1512 -0.8467
 8141SOL     OW35881   3.051   0.869   1.738 -0.1038  0.0197 -0.1396
 8141SOL    HW135882   3.040   0.960   1.764  2.2232 -0.0521  1.1130
 8141SOL    HW235883   3.051   0.866   1.643  0.9187  1.5087 -0.1824
 8142SOL     OW35884   0.192   3.754  12.438 -0.3028 -0.1602 -0.1288
 8142SOL    HW135885   0.236   3.672  12.463  0.1427  0.6719  1.8174
 8142SOL    HW235886   0.250   3.824  12.469 -0.6427  0.5775 -1.1834
 8143SOL     OW35887   0.765   3.147   4.015  0.1290 -0.7175  0.0157
 8143SOL    HW135888   0.761   3.233   4.056  3.0035 -0.0081 -1.1248
 8143SOL    HW235889   0.677   3.136   3.981 -0.2766 -1.2430  1.2384
 8144SOL     OW35890   3.066   1.184   2.360 -0.4989  0.8624 -0.2232
 8144SOL    HW135891   3.080   1.203   2.453 -1.0432  1.4964 -0.2669
 8144SOL    HW235892   3.040   1.270   2.328 -1.5639  0.1768 -1.1851
 8145SOL     OW35893   0.002   0.010   9.478  0.0303 -0.6814 -0.2689
 8145SOL    HW135894   0.083   4.699   9.440  1.2662  1.0842  0.7280
 8145SOL    HW235895   0.034   0.085   9.529 -3.9486  0.3579  0.6440
 8146SOL     OW35896   1.490   1.492  15.364  0.1814  0.3560  0.0510
 8146SOL    HW135897   1.483   1.535  15.449  0.0177 -1.7627  1.1185
 8146SOL    HW235898   1.577   1.521  15.336  0.2095 -0.8823 -1.1648
 8147SOL     OW35899   1.455   4.476  15.025 -0.0988 -0.1658  0.0517
 8147SOL    HW135900   1.497   4.397  14.992  0.0854 -0.3135  0.6351
 8147SOL    HW235901   1.536   4.517  15.057  0.6459 -1.9711  0.5001
 8148SOL     OW35902   0.416   2.192   5.083 -0.1273 -0.1334 -0.1107
 8148SOL    HW135903   0.486   2.185   5.148  0.2335 -1.0503 -0.6020
 8148SOL    HW235904   0.341   2.163   5.136 -0.4437  0.3756 -0.2760
 8149SOL     OW35905   2.164   4.410   3.042 -0.5104 -0.4652  0.4173
 8149SOL    HW135906   2.169   4.402   3.137  0.0945  1.1220  0.5215
 8149SOL    HW235907   2.234   4.467   3.012 -0.6224 -1.2191 -1.2813
 8150SOL     OW35908   2.344   3.338   8.164 -0.0993  0.0934 -0.1809
 8150SOL    HW135909   2.318   3.259   8.211  3.0760 -1.1577 -0.5451
 8150SOL    HW235910   2.271   3.348   8.103  0.8522  0.5716 -1.2240
 8151SOL     OW35911   2.073   3.710  10.247  0.8502  0.6347 -0.2790
 8151SOL    HW135912   2.001   3.649  10.231 -0.5539  2.5474 -1.2407
 8151SOL    HW235913   2.040   3.783  10.195  2.0789  2.0445  0.9276
 8152SOL     OW35914   1.211   3.860  10.094  0.6835 -0.1702  0.5182
 8152SOL    HW135915   1.200   3.851  10.189 -0.4852  0.8124  0.4697
 8152SOL    HW235916   1.196   3.770  10.064  0.5581 -0.4440  1.3962
 8153SOL     OW35917   2.676   4.237   1.775 -0.1789  0.0734  0.3925
 8153SOL    HW135918   2.582   4.223   1.780 -0.1357 -0.4861 -0.4894
 8153SOL    HW235919   2.691   4.239   1.681 -0.3699  0.2228  0.3644
 8154SOL     OW35920   3.822   1.810   5.324  0.2972  0.0664  0.0184
 8154SOL    HW135921   3.912   1.839   5.310 -0.1219  2.1446  1.5599
 8154SOL    HW235922   3.824   1.741   5.257  2.8544  2.1917 -2.1051
 8155SOL     OW35923   4.415   0.399   4.735 -0.1073  0.0255 -0.6288
 8155SOL    HW135924   4.452   0.474   4.783  0.4615  0.7681 -2.2518
 8155SOL    HW235925   4.477   0.331   4.761 -1.1583 -0.4015  0.8134
 8156SOL     OW35926   2.506   2.456   5.587  0.1276  0.4090 -0.0203
 8156SOL    HW135927   2.414   2.432   5.589  0.3848 -0.6636 -1.0617
 8156SOL    HW235928   2.546   2.442   5.672  1.1086  0.7045 -0.4255
 8157SOL     OW35929   4.362   4.648  12.330 -0.2051 -0.6709  0.1682
 8157SOL    HW135930   4.337   0.015  12.316 -0.5543 -0.6740  0.7683
 8157SOL    HW235931   4.360   4.636  12.425 -1.8843 -2.6417 -0.0979
 8158SOL     OW35932   2.737   2.532   3.536  0.0635 -0.4448 -0.5097
 8158SOL    HW135933   2.780   2.517   3.452 -0.1158 -0.9255 -0.5185
 8158SOL    HW235934   2.755   2.626   3.545 -3.3170  0.2666 -1.2063
 8159SOL     OW35935   2.213   2.174  11.628 -0.4555  0.4239  0.2604
 8159SOL    HW135936   2.294   2.173  11.578 -0.5144 -0.9144  0.1849
 8159SOL    HW235937   2.149   2.212  11.568 -1.5581  1.0858  1.8484
 8160SOL     OW35938   4.716   4.101   4.575 -0.4153 -0.0727  0.7557
 8160SOL    HW135939   4.669   4.033   4.622 -1.2164  0.1524  0.2798
 8160SOL    HW235940   4.664   4.088   4.496 -1.5334  3.8348  0.8139
 8161SOL     OW35941   1.569   2.689   6.108 -0.8894 -0.0839  0.4723
 8161SOL    HW135942   1.626   2.756   6.145 -1.6789  0.8932 -0.1046
 8161SOL    HW235943   1.555   2.632   6.184 -1.7775  0.3872  0.6644
 8162SOL     OW35944   2.916   2.908   1.620 -0.5192  0.7273 -0.3144
 8162SOL    HW135945   2.946   2.847   1.687 -0.2425  1.9715  0.6913
 8162SOL    HW235946   2.998   2.951   1.597 -0.5982  0.9269 -0.2204
 8163SOL     OW35947   2.078   2.527   8.305 -0.0909  0.5483  0.3623
 8163SOL    HW135948   2.049   2.439   8.331  0.3679  0.4826  0.6630
 8163SOL    HW235949   2.151   2.540   8.366  0.2400 -3.8706  0.9307
 8164SOL     OW35950   2.495   1.804   3.890 -0.7514 -0.1829 -0.5951
 8164SOL    HW135951   2.435   1.736   3.858 -0.8161  0.6995 -2.3182
 8164SOL    HW235952   2.543   1.746   3.950 -0.1327  1.1218  0.1581
 8165SOL     OW35953   2.453   2.414   5.071 -0.1477 -0.8164 -0.1492
 8165SOL    HW135954   2.516   2.351   5.035 -0.3513  0.3340 -2.4736
 8165SOL    HW235955   2.493   2.495   5.040  1.4713 -1.0263  1.3351
 8166SOL     OW35956   2.735   1.641  13.442  0.1787 -0.7411 -0.3208
 8166SOL    HW135957   2.677   1.621  13.515 -0.3513 -0.3735 -0.6370
 8166SOL    HW235958   2.820   1.625  13.483  0.1306 -2.9139 -1.1093
 8167SOL     OW35959   2.416   1.742   2.226 -0.2861  0.0788  0.2202
 8167SOL    HW135960   2.486   1.682   2.252 -0.7477 -0.1463  0.9435
 8167SOL    HW235961   2.383   1.690   2.153  2.3638 -1.6724  0.2704
 8168SOL     OW35962   1.932   1.269   4.836  0.1004  0.1112  0.0266
 8168SOL    HW135963   1.982   1.247   4.757  0.7794 -1.3931  0.8851
 8168SOL    HW235964   1.960   1.205   4.901 -0.0101  1.6440  1.5654
 8169SOL     OW35965   0.468   0.646   7.688 -0.1290  0.3561  0.2016
 8169SOL    HW135966   0.379   0.665   7.718 -0.4233  1.0857 -1.1462
 8169SOL    HW235967   0.528   0.647   7.763 -1.6991  3.1195  1.4376
 8170SOL     OW35968   2.989   1.137   8.450 -0.3288  0.1544  0.2329
 8170SOL    HW135969   2.995   1.212   8.508  0.9076  0.2969 -0.0804
 8170SOL    HW235970   3.060   1.093   8.496 -0.6473 -0.6109 -0.0070
 8171SOL     OW35971   3.573   4.702   6.929 -0.4768 -0.0450 -0.2325
 8171SOL    HW135972   3.599   4.686   6.838  2.1193  3.7372 -0.1461
 8171SOL    HW235973   3.613   4.625   6.968 -0.1133  1.0713  1.5783
 8172SOL     OW35974   4.569   1.659   8.463 -0.3723  0.0256  0.2699
 8172SOL    HW135975   4.505   1.703   8.408  0.3551 -0.6465 -1.0965
 8172SOL    HW235976   4.517   1.647   8.543 -2.0150 -1.3253 -1.0090
 8173SOL     OW35977   4.004   3.439   8.295 -0.1784  0.2778  0.0379
 8173SOL    HW135978   4.067   3.403   8.358  0.9847  2.1653 -0.0418
 8173SOL    HW235979   4.033   3.530   8.295 -0.6863  0.4396  1.0340
 8174SOL     OW35980   0.607   4.676   3.649 -0.3373  0.3904 -0.1966
 8174SOL    HW135981   0.521   4.718   3.651 -1.0310 -1.0732  0.1907
 8174SOL    HW235982   0.589   4.583   3.634  0.7739 -0.6936  5.3174
 8175SOL     OW35983   3.322   4.315   2.871 -0.9180 -0.0911  0.1677
 8175SOL    HW135984   3.294   4.389   2.817  1.1643 -0.5821 -1.5920
 8175SOL    HW235985   3.402   4.289   2.826 -1.4563  1.0140 -1.4086
 8176SOL     OW35986   0.511   1.675   3.736 -0.0393 -0.3699  0.2144
 8176SOL    HW135987   0.429   1.645   3.774  0.6502 -0.0263  1.9497
 8176SOL    HW235988   0.498   1.770   3.740  0.0034 -0.3352 -0.3655
 8177SOL     OW35989   1.097   3.593   0.278 -0.1607 -0.2066  0.0291
 8177SOL    HW135990   1.038   3.521   0.301  0.2029 -0.3644  0.4664
 8177SOL    HW235991   1.032   3.630   0.219  1.4286  1.4295 -0.7183
 8178SOL     OW35992   3.323   4.086   0.787 -0.6320 -0.6954  0.5504
 8178SOL    HW135993   3.399   4.113   0.735 -0.9930 -1.1729 -0.2407
 8178SOL    HW235994   3.347   3.993   0.792 -2.9572 -1.2922  0.7536
 8179SOL     OW35995   1.009   3.735   1.615  0.3192  0.0402  0.0234
 8179SOL    HW135996   0.970   3.821   1.634 -2.2107 -1.3059  0.9668
 8179SOL    HW235997   1.072   3.713   1.683  1.6151  0.6570 -0.9869
 8180SOL     OW35998   3.122   2.340   7.511  1.0074 -0.0048  0.4949
 8180SOL    HW135999   3.040   2.294   7.491  3.0768 -1.7286 -3.8826
 8180SOL    HW236000   3.149   2.389   7.433  1.0237 -2.3442 -0.9615
 8181SOL     OW36001   3.089   2.080   3.274  0.0481  0.5562 -0.0329
 8181SOL    HW136002   3.035   2.045   3.203 -3.2416  1.9452  1.7806
 8181SOL    HW236003   3.175   2.050   3.242 -0.1649 -0.1405  0.0452
 8182SOL     OW36004   4.310   4.238   2.255  0.0936  0.0732 -0.3715
 8182SOL    HW136005   4.344   4.275   2.336 -1.0880  0.5490 -0.0998
 8182SOL    HW236006   4.218   4.263   2.247 -0.1300 -0.2110  1.3958
 8183SOL     OW36007   0.200   3.098  12.258 -0.5444  0.3014  0.8811
 8183SOL    HW136008   0.159   3.078  12.341 -1.3222  0.2550  0.4832
 8183SOL    HW236009   0.214   3.192  12.265  1.2557  0.0082  1.4072
 8184SOL     OW36010   4.232   1.236   3.987 -0.2552 -0.6782 -0.0108
 8184SOL    HW136011   4.282   1.155   3.979 -0.1805 -0.4842 -1.4377
 8184SOL    HW236012   4.260   1.271   3.903 -0.6360  1.9668  0.9723
 8185SOL     OW36013   3.013   2.510   9.242  0.2570  0.1752  0.1824
 8185SOL    HW136014   3.101   2.475   9.258  1.6402  2.4875 -2.1362
 8185SOL    HW236015   2.983   2.442   9.182 -0.3459  2.6986 -2.4010
 8186SOL     OW36016   2.551   2.557   4.329 -0.6152 -0.3033  0.3604
 8186SOL    HW136017   2.596   2.597   4.255 -0.9516  0.9671  0.8323
 8186SOL    HW236018   2.542   2.636   4.383  3.1039 -1.1282  2.2003
 8187SOL     OW36019   2.809   0.211   5.931 -0.1748  0.1109  0.1887
 8187SOL    HW136020   2.723   0.236   5.899  0.2455  2.0301  0.5755
 8187SOL    HW236021   2.814   0.272   6.005 -1.6911  0.9598 -0.4168
 8188SOL     OW36022   0.178   3.026   9.078 -0.8066  0.0976  0.3419
 8188SOL    HW136023   0.242   2.994   9.014 -0.4101 -0.1109  0.8477
 8188SOL    HW236024   0.205   3.118   9.080  0.2034 -0.2206  1.1511
 8189SOL     OW36025   3.549   0.230   8.571 -0.1187  0.8280  0.5127
 8189SOL    HW136026   3.598   0.149   8.564 -2.7198 -0.9078  2.5567
 8189SOL    HW236027   3.571   0.261   8.659 -1.5904  0.0419  1.1556
 8190SOL     OW36028   0.689   3.383   0.160 -0.1740  0.3245  0.0848
 8190SOL    HW136029   0.682   3.296   0.198 -1.8305  1.0217  1.3561
 8190SOL    HW236030   0.608   3.409   0.116  0.2687 -0.1904 -1.0559
 8191SOL     OW36031   0.855   2.902   7.864  0.5013 -0.3463  0.1960
 8191SOL    HW136032   0.766   2.867   7.870  0.3553 -0.3691 -2.1169
 8191SOL    HW236033   0.837   2.969   7.799  0.4293 -0.9695 -0.4332
 8192SOL     OW36034   1.060   3.837   4.708  0.3544 -0.4623  0.1205
 8192SOL    HW136035   1.064   3.914   4.653 -0.6146 -0.7309 -0.3220
 8192SOL    HW236036   1.096   3.775   4.645 -0.1275 -1.7689  1.1220
 8193SOL     OW36037   4.143   0.370   4.605 -0.3535 -0.3142 -0.1166
 8193SOL    HW136038   4.216   0.347   4.662 -1.0454  1.3352  1.4133
 8193SOL    HW236039   4.126   0.463   4.618 -2.4732 -0.8328  0.8084
 8194SOL     OW36040   0.891   3.094   5.852 -0.3387 -0.5225 -0.3065
 8194SOL    HW136041   0.842   3.176   5.848 -1.2013 -0.9716  0.9820
 8194SOL    HW236042   0.860   3.057   5.935  1.0515 -4.0517 -1.3510
 8195SOL     OW36043   0.116   1.873   7.165 -0.3802  0.3410  0.0192
 8195SOL    HW136044   0.146   1.833   7.246 -0.4266  2.2093  0.9766
 8195SOL    HW236045   0.043   1.819   7.136 -0.3964  0.5136 -0.2638
 8196SOL     OW36046   3.533   0.162   4.242  0.1085  0.3054  0.0095
 8196SOL    HW136047   3.499   0.221   4.308  1.3325  2.8112 -1.5954
 8196SOL    HW236048   3.544   0.219   4.166  1.6505  1.2955  0.9602
 8197SOL     OW36049   3.732   2.702   7.005 -0.8265  0.0482  0.3824
 8197SOL    HW136050   3.641   2.724   7.024 -1.0931 -0.5086 -0.2497
 8197SOL    HW236051   3.761   2.776   6.952  0.5695 -0.1409  0.8842
 8198SOL     OW36052   2.346   0.971   9.347 -0.9977 -0.1564  0.3747
 8198SOL    HW136053   2.257   0.997   9.324 -0.2989  0.4967 -1.5646
 8198SOL    HW236054   2.365   0.902   9.284 -3.0239 -1.2135  0.9276
 8199SOL     OW36055   0.953   4.553   9.107  0.0010  0.0626 -0.1750
 8199SOL    HW136056   1.005   4.628   9.136 -0.1379  1.1450 -2.7229
 8199SOL    HW236057   0.866   4.559   9.147 -0.3387  0.4770 -0.9710
 8200SOL     OW36058   0.072   1.169   4.739  0.1396 -0.1828 -0.6008
 8200SOL    HW136059   0.092   1.194   4.648  0.6185  0.7968 -0.2253
 8200SOL    HW236060   0.025   1.086   4.733 -0.5294  0.1193  0.4461
 8201SOL     OW36061   4.203   3.023   4.045  0.1448  0.3908  0.1502
 8201SOL    HW136062   4.252   3.044   4.125 -1.7311  1.2574  1.0849
 8201SOL    HW236063   4.220   2.929   4.038  3.0662  0.9209  0.0834
 8202SOL     OW36064   1.263   1.400   6.818 -0.2901 -0.2153 -0.3886
 8202SOL    HW136065   1.232   1.445   6.897  0.3527  0.5216 -0.5511
 8202SOL    HW236066   1.334   1.345   6.850 -0.0048 -0.2793 -1.1305
 8203SOL     OW36067   3.236   1.007   8.520  0.0895 -0.3011 -0.5974
 8203SOL    HW136068   3.269   1.084   8.473  0.9815 -0.9064 -0.9703
 8203SOL    HW236069   3.278   1.018   8.605  0.9708  2.1523 -1.3658
 8204SOL     OW36070   2.298   0.425   3.848 -0.2053  0.4678 -0.0143
 8204SOL    HW136071   2.374   0.423   3.790 -1.4826 -1.3208 -1.6516
 8204SOL    HW236072   2.262   0.507   3.816 -0.4461 -0.7257 -2.7661
 8205SOL     OW36073   1.902   4.058   7.236  0.6751 -0.2979  0.2865
 8205SOL    HW136074   1.958   4.049   7.159 -0.8691  0.6701 -0.9650
 8205SOL    HW236075   1.945   3.992   7.290  0.7069 -0.0466  0.5678
 8206SOL     OW36076   0.990   0.204   2.123 -0.3915 -0.0240  0.2307
 8206SOL    HW136077   1.037   0.284   2.147 -2.8040  1.4280  0.1068
 8206SOL    HW236078   1.016   0.186   2.032 -1.2724  1.4790 -0.3121
 8207SOL     OW36079   2.250   4.123   3.160  0.6794 -0.4434  0.5653
 8207SOL    HW136080   2.250   4.201   3.104 -0.6870  0.4381  1.7966
 8207SOL    HW236081   2.218   4.055   3.100  0.5886 -0.9098  1.1414
 8208SOL     OW36082   2.367   4.164   9.173  0.5948  0.2388 -0.0612
 8208SOL    HW136083   2.344   4.089   9.228 -0.0947  1.0199  0.7126
 8208SOL    HW236084   2.292   4.151   9.115  0.1984  1.3996  0.2000
 8209SOL     OW36085   1.078   3.403  12.925 -0.6084  0.0064  0.0691
 8209SOL    HW136086   0.988   3.377  12.944 -0.3590 -0.7938  0.1369
 8209SOL    HW236087   1.117   3.322  12.894 -1.0670 -0.5609  0.9861
 8210SOL     OW36088   4.425   4.193   6.452  0.3531  0.3585  0.5670
 8210SOL    HW136089   4.417   4.265   6.514  3.5973 -1.0741  2.6827
 8210SOL    HW236090   4.334   4.199   6.423  1.0472  0.4263 -1.5977
 8211SOL     OW36091   1.880   2.792   4.753  0.5481 -0.0053 -0.3192
 8211SOL    HW136092   1.947   2.820   4.690  1.8575 -3.2909 -0.3759
 8211SOL    HW236093   1.847   2.712   4.712 -0.6015  0.6295 -0.6516
 8212SOL     OW36094   2.714   1.465   3.839  0.9328  0.8102 -0.4267
 8212SOL    HW136095   2.783   1.450   3.904  0.3097 -0.5665 -0.0811
 8212SOL    HW236096   2.649   1.506   3.897 -0.6227 -2.1708 -0.0720
 8213SOL     OW36097   2.911   1.613   2.215  0.1626 -0.3441 -0.1451
 8213SOL    HW136098   2.971   1.669   2.264 -0.3280 -1.1987  1.4259
 8213SOL    HW236099   2.964   1.547   2.169 -0.1623 -0.7738  0.0941
 8214SOL     OW36100   2.079   2.667   2.439  0.3704  0.1525  0.4769
 8214SOL    HW136101   2.035   2.663   2.354  2.7400 -0.2365 -0.7422
 8214SOL    HW236102   2.155   2.724   2.431 -0.7412  1.5296 -0.1263
 8215SOL     OW36103   1.329   0.054   7.789  0.3831 -0.2200 -0.3765
 8215SOL    HW136104   1.380   0.090   7.862  0.2443 -2.8144  1.0081
 8215SOL    HW236105   1.272   0.128   7.771  0.4900 -0.1384 -0.3751
 8216SOL     OW36106   1.361   1.567   5.528  0.0834  0.3761 -0.1399
 8216SOL    HW136107   1.376   1.561   5.622  0.1932  0.4853 -0.1502
 8216SOL    HW236108   1.268   1.590   5.525 -0.3505 -1.0167  2.4437
 8217SOL     OW36109   4.095   3.664   2.943 -0.7694  0.9829  0.2926
 8217SOL    HW136110   4.126   3.752   2.923 -0.7199  0.4683 -1.8528
 8217SOL    HW236111   4.108   3.657   3.038  0.4908 -0.5497  0.0096
 8218SOL     OW36112   3.602   0.178   3.201 -0.3109 -0.4740 -0.0167
 8218SOL    HW136113   3.693   0.148   3.205  0.3979  1.4662 -1.6375
 8218SOL    HW236114   3.584   0.175   3.108 -0.9943  1.7775  0.0468
 8219SOL     OW36115   3.681   1.275   6.209  0.2869 -0.3413 -0.4387
 8219SOL    HW136116   3.720   1.254   6.295 -0.1381  1.5621  0.2009
 8219SOL    HW236117   3.718   1.198   6.165 -1.4330 -1.0883 -0.5486
 8220SOL     OW36118   0.664   0.029   2.681 -0.4089  0.0112 -0.2810
 8220SOL    HW136119   0.670   0.096   2.613  1.2869 -0.1850 -0.3377
 8220SOL    HW236120   0.748   0.040   2.726 -0.4217 -1.1486  0.0311
 8221SOL     OW36121   2.640   3.921   3.574 -0.5940 -0.4998 -0.2527
 8221SOL    HW136122   2.559   3.972   3.567 -0.3586 -0.0175  0.4537
 8221SOL    HW236123   2.703   3.981   3.614 -0.3711 -0.6908 -0.3141
 8222SOL     OW36124   0.355   3.825   9.046 -0.3430 -0.1503 -0.6053
 8222SOL    HW136125   0.268   3.805   9.082  0.2280  0.4801  1.1458
 8222SOL    HW236126   0.415   3.766   9.091 -0.1409 -0.7458 -1.6483
 8223SOL     OW36127   0.423   0.714   4.274 -0.0399  0.7932  0.6802
 8223SOL    HW136128   0.488   0.759   4.327 -0.2538  0.2906  1.3808
 8223SOL    HW236129   0.411   0.635   4.328 -0.9499  1.2847  1.2055
 8224SOL     OW36130   1.432   3.479   9.025 -0.2309 -0.1064  0.0473
 8224SOL    HW136131   1.519   3.457   8.990  0.3229 -0.2870  1.5173
 8224SOL    HW236132   1.413   3.399   9.075 -0.8281  0.5251  0.8329
 8225SOL     OW36133   2.809   3.436  13.405  0.8949 -0.1509  0.0040
 8225SOL    HW136134   2.734   3.489  13.381 -0.3851 -1.7949  0.3808
 8225SOL    HW236135   2.872   3.500  13.439 -0.9243  1.5649  0.0968
 8226SOL     OW36136   2.147   1.532   7.553  0.1255 -0.6156  0.0071
 8226SOL    HW136137   2.122   1.489   7.470 -1.4352 -0.2448  0.2900
 8226SOL    HW236138   2.134   1.461   7.615  0.7770 -1.9152 -1.3222
 8227SOL     OW36139   0.030   1.487   2.362  0.8913 -0.2103 -0.6587
 8227SOL    HW136140   4.716   1.504   2.448 -0.8012  1.4443 -1.7330
 8227SOL    HW236141   0.116   1.529   2.373  0.4800  0.6252 -0.6067
 8228SOL     OW36142   1.947   0.272   7.550 -0.0305  0.3559 -0.3740
 8228SOL    HW136143   1.988   0.335   7.490  1.8639 -1.2905 -0.8111
 8228SOL    HW236144   1.860   0.308   7.566  1.2728  2.1283  2.6460
 8229SOL     OW36145   4.517   3.040   3.702 -0.1574 -0.5629 -0.0424
 8229SOL    HW136146   4.431   3.012   3.673 -1.2285  2.0275  0.6105
 8229SOL    HW236147   4.542   3.108   3.639 -2.4518  0.3307  0.0074
 8230SOL     OW36148   1.165   0.397   0.121  0.0956 -0.2527 -0.0095
 8230SOL    HW136149   1.109   0.440   0.185  0.1665  0.6878 -0.5780
 8230SOL    HW236150   1.230   0.352   0.175 -1.4813  0.4231  2.4138
 8231SOL     OW36151   3.671   3.629  11.411 -0.1050 -0.5770  0.1444
 8231SOL    HW136152   3.667   3.548  11.360  0.3910 -0.2601 -0.3887
 8231SOL    HW236153   3.661   3.692  11.339 -0.2433  1.7039  2.1294
 8232SOL     OW36154   0.798   4.253  12.981 -0.5549 -0.1113 -0.1310
 8232SOL    HW136155   0.791   4.249  12.885  1.2178  2.0585 -0.3738
 8232SOL    HW236156   0.782   4.162  13.004 -1.0858  0.0494  0.1284
 8233SOL     OW36157   0.426   3.303   7.867  0.6274 -0.1602  0.1382
 8233SOL    HW136158   0.470   3.219   7.881 -0.4541 -1.0159 -1.5336
 8233SOL    HW236159   0.417   3.332   7.958  0.2925  0.9318 -0.2439
 8234SOL     OW36160   1.374   3.774  16.443 -0.6424  0.3803 -0.2384
 8234SOL    HW136161   1.293   3.775  16.391 -0.1989 -0.8924 -0.9440
 8234SOL    HW236162   1.351   3.742  16.531 -0.3490 -1.0164 -0.6660
 8235SOL     OW36163   0.654   4.513  12.773 -0.3988  0.2849  0.2206
 8235SOL    HW136164   0.614   4.427  12.768 -0.9235  0.5410 -0.0041
 8235SOL    HW236165   0.605   4.557  12.704  1.0118  2.4925  0.5868
 8236SOL     OW36166   4.356   2.112   7.118 -0.5483 -0.7706  0.4039
 8236SOL    HW136167   4.425   2.051   7.144 -1.0642 -1.1623  0.8186
 8236SOL    HW236168   4.274   2.093   7.162  0.7667  0.1067  3.2240
 8237SOL     OW36169   2.173   1.066   3.506  0.5206 -0.2555  0.1283
 8237SOL    HW136170   2.145   1.157   3.520 -0.5852 -0.4702 -0.6659
 8237SOL    HW236171   2.204   1.069   3.416  1.3314 -0.8969  0.3890
 8238SOL     OW36172   1.695   2.174   5.829 -0.6849 -0.4976  0.1843
 8238SOL    HW136173   1.682   2.157   5.923  1.3863 -3.0983  0.0123
 8238SOL    HW236174   1.668   2.266   5.833 -1.8156 -0.8450  0.7954
 8239SOL     OW36175   2.685   0.803   2.828 -0.1340  0.4736 -0.7370
 8239SOL    HW136176   2.641   0.776   2.909 -2.0969  2.0766 -1.2798
 8239SOL    HW236177   2.704   0.723   2.780  1.8361 -1.6147  3.5085
 8240SOL     OW36178   3.383   1.503  13.149 -0.1134  0.0686  0.2363
 8240SOL    HW136179   3.296   1.463  13.158  0.7999 -1.6324  1.4781
 8240SOL    HW236180   3.379   1.538  13.060  0.5571  1.7551  0.8613
 8241SOL     OW36181   3.419   2.479   3.722  0.0702 -0.6499  0.2875
 8241SOL    HW136182   3.340   2.445   3.764  0.2673 -0.5175  0.7622
 8241SOL    HW236183   3.431   2.558   3.773  2.7375  1.0042 -2.9143
 8242SOL     OW36184   2.496   2.141  17.132  0.5175  0.4885  0.2919
 8242SOL    HW136185   2.422   2.175  17.081 -0.8109  0.1221  1.9566
 8242SOL    HW236186   2.522   2.220  17.180  0.2324  0.8535 -0.1435
 8243SOL     OW36187   3.202   1.399   4.137 -0.5332 -0.2722 -0.3020
 8243SOL    HW136188   3.209   1.439   4.224  0.0924  1.2331 -1.0445
 8243SOL    HW236189   3.206   1.307   4.164 -0.9873 -0.3986 -0.6663
 8244SOL     OW36190   3.057   1.377   3.700 -0.1464 -0.5998  0.4440
 8244SOL    HW136191   2.971   1.378   3.743 -0.1168  0.6921  0.4918
 8244SOL    HW236192   3.064   1.283   3.684  2.1078 -0.0655 -1.6060
 8245SOL     OW36193   2.892   1.658  11.622  0.2429  0.2545 -0.0539
 8245SOL    HW136194   2.891   1.638  11.529  0.8874  2.7263 -0.6062
 8245SOL    HW236195   2.797   1.670  11.627  0.1396 -1.0465  0.9784
 8246SOL     OW36196   3.467   0.247   6.335  0.5179 -0.6802  0.3922
 8246SOL    HW136197   3.464   0.153   6.316  0.2699 -0.6279  0.1673
 8246SOL    HW236198   3.476   0.241   6.430 -2.7568  1.1051  0.8102
 8247SOL     OW36199   1.946   2.143   8.224 -0.1024  0.2845  0.2397
 8247SOL    HW136200   1.870   2.177   8.177 -0.6178  0.0195  0.8822
 8247SOL    HW236201   1.951   2.206   8.296 -0.4969  0.7351 -0.1265
 8248SOL     OW36202   4.259   1.701   7.200 -0.0915 -0.0997 -0.0040
 8248SOL    HW136203   4.269   1.742   7.114  0.1021  0.2346  0.1782
 8248SOL    HW236204   4.350   1.706   7.230 -0.2420  1.4595  0.1469
 8249SOL     OW36205   0.128   2.719   7.456  0.3879 -0.3588 -0.0699
 8249SOL    HW136206   0.062   2.696   7.390 -0.4028 -1.2654  1.0318
 8249SOL    HW236207   0.087   2.785   7.512  0.5404 -1.1263  0.9490
 8250SOL     OW36208   0.904   1.653   0.708  0.4113 -0.1306  0.1378
 8250SOL    HW136209   0.830   1.694   0.753  1.9639  0.6509  2.0017
 8250SOL    HW236210   0.972   1.713   0.740 -0.6249  1.3466 -0.3932
 8251SOL     OW36211   0.833   0.019   4.582 -0.3054 -0.0332  0.0182
 8251SOL    HW136212   0.927   0.008   4.590 -0.2184  0.5554 -0.2085
 8251SOL    HW236213   0.815   0.113   4.588  2.3790  0.4889 -0.4834
 8252SOL     OW36214   0.083   1.033  13.710 -0.6000 -0.1812 -0.3146
 8252SOL    HW136215   0.113   1.080  13.632  0.6079 -2.0915 -1.0088
 8252SOL    HW236216   0.001   1.081  13.723  0.1019  1.2454 -1.0812
 8253SOL     OW36217   0.754   2.558   5.778  0.8836  0.6125  0.1256
 8253SOL    HW136218   0.663   2.543   5.804  0.8963 -1.2554 -0.9547
 8253SOL    HW236219   0.794   2.480   5.817 -0.6136 -0.2133 -0.0116
 8254SOL     OW36220   2.769   3.180  14.775 -0.1189  0.4773 -0.2866
 8254SOL    HW136221   2.714   3.137  14.709 -2.2859  1.7256  0.7240
 8254SOL    HW236222   2.841   3.206  14.717  0.3846  0.0802  0.1696
 8255SOL     OW36223   0.983   2.040   1.260 -0.0512  0.5834 -0.4089
 8255SOL    HW136224   1.073   2.065   1.278  0.2729 -0.3339 -0.7374
 8255SOL    HW236225   0.956   2.123   1.222 -0.7196  0.8697  0.6808
 8256SOL     OW36226   4.553   0.982   2.077 -0.7094 -0.6342 -0.8192
 8256SOL    HW136227   4.531   1.038   2.152 -0.5632 -1.8010  0.1002
 8256SOL    HW236228   4.645   0.997   2.054 -1.4811  1.3551 -2.6394
 8257SOL     OW36229   4.530   4.514   7.734  0.3043  0.5301 -0.0372
 8257SOL    HW136230   4.446   4.483   7.769  0.3988 -2.4715 -2.4482
 8257SOL    HW236231   4.592   4.490   7.804 -1.0033 -1.1829  0.5497
 8258SOL     OW36232   3.910   0.207   7.100 -0.1206  0.5710  0.2193
 8258SOL    HW136233   3.895   0.142   7.032  0.5350 -0.8832  1.4581
 8258SOL    HW236234   3.993   0.186   7.144 -0.6597 -2.1617 -0.0916
 8259SOL     OW36235   4.399   0.869  12.546 -0.2127 -0.6915 -0.3553
 8259SOL    HW136236   4.366   0.798  12.491  1.1950 -1.3077 -0.4249
 8259SOL    HW236237   4.335   0.882  12.615  0.0512 -1.7189  0.0830
 8260SOL     OW36238   1.082   4.034   4.531  0.0720  0.1687  0.4862
 8260SOL    HW136239   1.106   4.029   4.439  0.3392  0.8536  0.5209
 8260SOL    HW236240   1.087   4.127   4.551  2.3153  0.1229  0.0981
 8261SOL     OW36241   4.212   0.139   0.773  0.2332 -0.0989 -0.3729
 8261SOL    HW136242   4.249   0.133   0.685 -1.5085 -1.5478 -1.0109
 8261SOL    HW236243   4.292   0.167   0.819  0.2489 -0.1004 -0.3993
 8262SOL     OW36244   1.673   0.064   8.279  0.6597 -0.0002  0.0309
 8262SOL    HW136245   1.640   0.151   8.258  0.6375 -0.3755 -1.4707
 8262SOL    HW236246   1.591   0.016   8.292  1.1895 -0.7322  0.7061
 8263SOL     OW36247   2.257   3.852  15.433 -0.0626  0.3104  0.4699
 8263SOL    HW136248   2.292   3.885  15.350 -0.0068 -2.0399 -0.4590
 8263SOL    HW236249   2.326   3.786  15.442 -0.7044  0.0189  3.0427
 8264SOL     OW36250   3.185   0.237  14.072 -0.2438  0.2096  0.4812
 8264SOL    HW136251   3.105   0.288  14.058 -0.5744 -1.0305 -2.0886
 8264SOL    HW236252   3.161   0.147  14.051 -0.2812  0.2787  0.2275
 8265SOL     OW36253   0.126   1.095   6.062  0.2576 -0.0020  0.0703
 8265SOL    HW136254   0.162   1.007   6.049  0.5716  0.1452 -0.0607
 8265SOL    HW236255   0.100   1.110   5.971 -0.5566 -1.3733  0.0830
 8266SOL     OW36256   1.658   0.111   7.857 -0.2817  0.0489 -0.6280
 8266SOL    HW136257   1.600   0.075   7.924  0.2224  0.4298  0.0150
 8266SOL    HW236258   1.741   0.068   7.874 -0.2074  0.3739 -0.1759
 8267SOL     OW36259   0.910   1.708  14.275  0.3110 -0.2864 -0.2696
 8267SOL    HW136260   0.981   1.741  14.330 -0.6058  0.0638  0.7024
 8267SOL    HW236261   0.968   1.689  14.202  0.1750 -1.5367 -0.0544
 8268SOL     OW36262   1.957   0.595   7.160 -0.2916 -0.2471  0.3372
 8268SOL    HW136263   1.947   0.562   7.071  2.0927  0.4495 -0.1834
 8268SOL    HW236264   2.000   0.679   7.145 -0.5232 -0.4983 -1.6845
 8269SOL     OW36265   3.110   0.838   6.373  0.2400 -0.0192 -0.6861
 8269SOL    HW136266   3.181   0.855   6.311 -0.2773  0.2275 -1.2166
 8269SOL    HW236267   3.033   0.837   6.316 -1.0734 -2.1030  1.1490
 8270SOL     OW36268   1.036   0.500   2.742 -0.6505  0.3741 -0.5279
 8270SOL    HW136269   1.127   0.471   2.752 -1.0088 -1.1554 -1.7919
 8270SOL    HW236270   1.025   0.468   2.653 -0.4280 -0.5334 -0.2238
 8271SOL     OW36271   0.488   2.409   8.872 -0.6465  0.4192  0.1197
 8271SOL    HW136272   0.500   2.348   8.944  1.1241  1.2417  0.5234
 8271SOL    HW236273   0.414   2.462   8.902 -0.3588  0.0980  1.3918
 8272SOL     OW36274   0.230   4.227   2.973 -0.1835  0.8502 -0.0470
 8272SOL    HW136275   0.157   4.184   2.930  1.0902 -0.3031 -1.0621
 8272SOL    HW236276   0.189   4.273   3.046 -0.3088  2.3727 -1.0793
 8273SOL     OW36277   4.703   4.086   0.718  0.0722 -0.0423  0.2561
 8273SOL    HW136278   4.660   4.149   0.777 -0.1783 -2.2873  2.4670
 8273SOL    HW236279   4.654   4.093   0.636 -0.2679 -0.0159  0.4636
 8274SOL     OW36280   1.043   3.583  12.721 -0.3289  0.1131 -0.1521
 8274SOL    HW136281   1.121   3.638  12.709 -0.3456 -0.0026 -0.8117
 8274SOL    HW236282   1.068   3.533  12.798  0.2142 -0.8994 -0.9847
 8275SOL     OW36283   4.087   4.612   2.124  0.3034  0.0019 -0.4768
 8275SOL    HW136284   4.120   4.600   2.035 -0.5021 -0.3755 -0.7213
 8275SOL    HW236285   4.145   4.680   2.158  1.3038 -0.0710 -2.0474
 8276SOL     OW36286   1.016   2.779   5.323 -0.0858 -0.4692 -0.7318
 8276SOL    HW136287   0.971   2.751   5.403  0.5060  1.0424  0.1384
 8276SOL    HW236288   0.986   2.698   5.281 -1.2555 -0.3069 -0.2221
 8277SOL     OW36289   1.106   3.536  10.390  0.1188 -0.0961  0.4952
 8277SOL    HW136290   1.118   3.630  10.385 -0.7793 -0.0719 -1.3797
 8277SOL    HW236291   1.119   3.516  10.482  0.4072 -0.3025  0.4112
 8278SOL     OW36292   0.451   3.615   1.111 -0.1136 -0.0348  0.1992
 8278SOL    HW136293   0.403   3.535   1.136  0.1739 -0.0092  0.8482
 8278SOL    HW236294   0.496   3.633   1.194  0.9610  0.0842 -0.4182
 8279SOL     OW36295   2.062   0.944   1.168 -0.5291  0.5393  0.5933
 8279SOL    HW136296   2.153   0.919   1.183 -0.8960 -0.6891  0.8065
 8279SOL    HW236297   2.052   0.938   1.073 -0.9305  1.4288  0.5863
 8280SOL     OW36298   3.046   4.276   1.914 -0.3550 -0.3432  0.3423
 8280SOL    HW136299   3.135   4.241   1.923  0.5174  1.6520 -0.3652
 8280SOL    HW236300   3.004   4.191   1.903 -1.7224  0.5327 -1.1893
 8281SOL     OW36301   0.401   0.203   2.939 -0.2018 -0.2764 -0.7226
 8281SOL    HW136302   0.475   0.224   2.997  0.0658  2.7271 -2.1196
 8281SOL    HW236303   0.420   0.280   2.886  3.5627  0.4701  1.6926
 8282SOL     OW36304   3.852   0.768   6.716  0.5915 -0.5438  0.3145
 8282SOL    HW136305   3.891   0.749   6.802  1.6893  0.1171 -0.0304
 8282SOL    HW236306   3.910   0.724   6.653 -0.4505  0.9586 -1.7006
 8283SOL     OW36307   1.369   3.120   5.053  0.5684  0.0754  0.1017
 8283SOL    HW136308   1.392   3.033   5.019 -1.3713 -0.9993  1.5162
 8283SOL    HW236309   1.399   3.115   5.144  0.0712  0.4221  0.2816
 8284SOL     OW36310   0.472   2.808   6.485 -0.2700 -0.7756  0.1657
 8284SOL    HW136311   0.483   2.845   6.573 -0.4386 -0.2906 -0.0172
 8284SOL    HW236312   0.379   2.799   6.467  0.1272 -1.7152 -1.4517
 8285SOL     OW36313   2.765   1.039  15.758  0.3764  0.1392 -0.2574
 8285SOL    HW136314   2.855   1.032  15.724  0.2302  0.0909 -0.6347
 8285SOL    HW236315   2.776   1.011  15.849 -1.9706 -0.3455 -0.1335
 8286SOL     OW36316   1.338   1.724  12.350 -0.1990 -0.4282 -0.3694
 8286SOL    HW136317   1.345   1.728  12.445 -2.9611 -0.4867 -0.1469
 8286SOL    HW236318   1.431   1.731  12.330 -0.4247 -2.0375 -1.9633
 8287SOL     OW36319   4.617   0.729   6.099  0.1408  0.1361 -0.6260
 8287SOL    HW136320   4.542   0.670   6.094 -1.3012  1.4972  4.4179
 8287SOL    HW236321   4.696   0.678   6.119  0.7785  0.6455 -1.8483
 8288SOL     OW36322   0.409   4.657   9.847  0.2218 -0.4668 -0.1666
 8288SOL    HW136323   0.327   4.623   9.813  0.9948 -0.0743 -2.4704
 8288SOL    HW236324   0.376   0.023   9.857 -0.6122 -0.9070  0.9090
 8289SOL     OW36325   2.875   1.414   1.425 -0.1447  0.7725 -0.1896
 8289SOL    HW136326   2.791   1.374   1.401  1.7710 -3.3574  0.1195
 8289SOL    HW236327   2.837   1.501   1.438 -0.2775  0.5942  0.5704
 8290SOL     OW36328   3.940   3.971   7.099  0.2694 -0.1481  0.1615
 8290SOL    HW136329   4.034   3.960   7.110  0.4359  1.8470  0.7359
 8290SOL    HW236330   3.944   4.064   7.078  0.5146 -0.2985 -0.4426
 8291SOL     OW36331   2.111   1.912   1.420  0.2332 -0.2071  0.4893
 8291SOL    HW136332   2.105   2.003   1.449 -0.9036 -0.3136  0.5738
 8291SOL    HW236333   2.200   1.921   1.386  0.7083 -0.7152  1.5876
 8292SOL     OW36334   2.700   2.861   6.630 -0.6474  0.2532 -0.2286
 8292SOL    HW136335   2.745   2.938   6.595 -0.0748 -0.5718 -1.3208
 8292SOL    HW236336   2.692   2.814   6.547  1.5965  3.7577 -2.4242
 8293SOL     OW36337   1.861   2.214  13.089  0.6258  0.0707  1.1009
 8293SOL    HW136338   1.901   2.256  13.013  1.2929 -2.4149  0.0799
 8293SOL    HW236339   1.780   2.184  13.047  0.8919  0.5937  0.2047
 8294SOL     OW36340   4.143   3.972   3.272 -0.4930 -0.4463 -0.1222
 8294SOL    HW136341   4.150   4.067   3.261 -1.4618 -0.6814 -2.7224
 8294SOL    HW236342   4.202   3.953   3.345 -0.3186 -0.1366 -0.1842
 8295SOL     OW36343   3.196   3.867  10.556 -0.0584  0.3149 -0.5707
 8295SOL    HW136344   3.209   3.878  10.462  3.3183 -0.5396 -0.2157
 8295SOL    HW236345   3.109   3.906  10.567 -0.6219 -1.1991  0.3007
 8296SOL     OW36346   4.248   3.881   6.445  0.5881 -0.3716  0.4640
 8296SOL    HW136347   4.313   3.858   6.378  0.7399 -2.1722  1.2156
 8296SOL    HW236348   4.302   3.882   6.525  1.6395  3.9203 -0.2835
 8297SOL     OW36349   4.339   4.522   4.454 -0.3961  0.4779 -0.2462
 8297SOL    HW136350   4.308   4.451   4.510  0.2978 -1.2064 -2.0144
 8297SOL    HW236351   4.370   4.585   4.520  2.0531  0.6953 -1.6148
 8298SOL     OW36352   4.702   4.240   6.459 -0.0817 -0.0636 -0.4093
 8298SOL    HW136353   4.703   4.330   6.425 -0.7464 -0.2299 -0.8652
 8298SOL    HW236354   4.608   4.226   6.467 -0.2014  0.7576 -0.3280
 8299SOL     OW36355   2.645   0.080  17.188  0.0852  0.1677  0.1535
 8299SOL    HW136356   2.592   0.003  17.166  0.6238 -0.7257  1.9718
 8299SOL    HW236357   2.622   0.153  17.130  1.1168  0.6353  0.3283
 8300SOL     OW36358   2.788   0.168   7.286 -0.0666  0.2460  0.3487
 8300SOL    HW136359   2.739   0.249   7.272  1.1406  0.8957 -0.0853
 8300SOL    HW236360   2.713   0.111   7.305 -0.3133  0.7533  0.9349
 8301SOL     OW36361   0.914   4.560   5.937  0.3035 -0.5972  0.0609
 8301SOL    HW136362   0.904   4.505   6.014 -1.5275 -1.8451 -1.0731
 8301SOL    HW236363   1.007   4.544   5.926  0.6651 -1.5960  4.6186
 8302SOL     OW36364   2.221   0.288  15.026  0.1105  0.3139 -0.5750
 8302SOL    HW136365   2.255   0.363  14.977  2.1414 -1.6687 -2.2477
 8302SOL    HW236366   2.262   0.212  14.983  0.9313  0.6302 -0.3465
 8303SOL     OW36367   1.164   2.896   3.757  0.1516  0.5660 -0.1120
 8303SOL    HW136368   1.212   2.881   3.838 -1.6783 -0.0542  0.8462
 8303SOL    HW236369   1.101   2.962   3.786  0.0775  1.2153 -1.7015
 8304SOL     OW36370   1.414   3.521   8.223 -0.0666 -0.0327 -0.4340
 8304SOL    HW136371   1.425   3.558   8.135  1.8359  1.0548  0.2524
 8304SOL    HW236372   1.336   3.466   8.222  1.3071 -1.9175 -2.9066
 8305SOL     OW36373   2.471   2.637  11.244 -0.6703 -0.1013 -0.0670
 8305SOL    HW136374   2.466   2.669  11.334 -0.1205  0.0578 -0.0977
 8305SOL    HW236375   2.562   2.611  11.258  0.1650  2.7119 -0.2536
 8306SOL     OW36376   4.402   1.333   2.703  0.2739 -0.1889 -0.0670
 8306SOL    HW136377   4.392   1.238   2.705 -1.7682 -0.0269 -1.4984
 8306SOL    HW236378   4.333   1.354   2.766  1.2649  0.0140  0.9382
 8307SOL     OW36379   0.612   2.586   0.565 -0.0059  0.2643 -0.0649
 8307SOL    HW136380   0.599   2.614   0.656 -1.6688 -0.4609 -0.0868
 8307SOL    HW236381   0.705   2.604   0.550 -0.1772  0.7713 -0.4926
 8308SOL     OW36382   2.279   3.369  11.291  0.2537  0.0651  0.1468
 8308SOL    HW136383   2.269   3.439  11.357 -0.9247 -1.6724  1.8113
 8308SOL    HW236384   2.356   3.390  11.238  0.8550 -4.0065 -0.5817
 8309SOL     OW36385   2.157   0.038   1.831  0.2319 -0.6980  0.0364
 8309SOL    HW136386   2.214   4.712   1.772  0.1709 -1.6132  0.7563
 8309SOL    HW236387   2.116   0.094   1.765 -0.2071  0.3285  1.1799
 8310SOL     OW36388   3.952   0.315   1.882 -0.4069 -0.5991  0.9672
 8310SOL    HW136389   3.912   0.268   1.955  0.2665 -1.5176  0.7522
 8310SOL    HW236390   3.873   0.356   1.848  0.6857  0.2353 -0.5294
 8311SOL     OW36391   3.858   1.269   9.021 -0.4452 -0.0533  0.0507
 8311SOL    HW136392   3.790   1.335   9.040 -0.8820 -0.6810  0.6680
 8311SOL    HW236393   3.835   1.245   8.931  0.2011  2.2289 -0.7378
 8312SOL     OW36394   1.702   1.846  12.405 -0.2656  0.6819 -0.4796
 8312SOL    HW136395   1.770   1.911  12.417 -1.6077  2.0301 -0.1546
 8312SOL    HW236396   1.633   1.871  12.466  0.0541  0.4033  0.0009
 8313SOL     OW36397   4.340   0.056  15.772  0.4808  0.0718 -0.2494
 8313SOL    HW136398   4.378   0.143  15.763  1.1886 -0.0313  1.7175
 8313SOL    HW236399   4.248   0.082  15.778  0.0761 -1.6604  1.1713
 8314SOL     OW36400   3.266   0.097   5.074 -0.0650  0.0170  0.3669
 8314SOL    HW136401   3.235   0.007   5.059  2.1827 -0.6845 -0.0834
 8314SOL    HW236402   3.185   0.143   5.052 -0.8220 -1.3183  0.3163
 8315SOL     OW36403   3.047   1.114   6.917  0.1484  0.3406 -0.5902
 8315SOL    HW136404   3.076   1.113   6.825 -0.1753  2.1510 -0.6988
 8315SOL    HW236405   2.952   1.122   6.912  0.2087 -0.2135 -2.8684
 8316SOL     OW36406   1.498   2.112  11.318 -0.4027 -0.7201  0.2322
 8316SOL    HW136407   1.438   2.186  11.314  0.7456  0.1515 -0.7856
 8316SOL    HW236408   1.455   2.056  11.383  0.8644  0.9888  2.5326
 8317SOL     OW36409   2.102   3.830   3.551  0.0725 -0.2888  0.0835
 8317SOL    HW136410   2.039   3.827   3.479 -0.5176  3.3068  0.4454
 8317SOL    HW236411   2.119   3.924   3.555 -2.4648  0.1137  0.9832
 8318SOL     OW36412   2.064   3.990   0.431  0.3488 -0.2549  0.0162
 8318SOL    HW136413   2.013   3.910   0.421  0.5164 -0.3613  0.0270
 8318SOL    HW236414   2.132   3.965   0.494 -0.9891 -0.3971  1.4045
 8319SOL     OW36415   2.596   2.905  14.887 -0.3266 -0.1631 -0.3092
 8319SOL    HW136416   2.577   2.811  14.886 -4.0729  0.5757 -2.8317
 8319SOL    HW236417   2.569   2.922  14.796  1.3827 -0.7690 -0.9167
 8320SOL     OW36418   2.204   0.539   5.993  0.0377 -0.0756 -0.1322
 8320SOL    HW136419   2.289   0.507   6.023  0.5217  0.5313 -0.8539
 8320SOL    HW236420   2.202   0.500   5.906 -2.2036 -0.1671 -0.0585
 8321SOL     OW36421   4.433   1.907  16.771  0.4463 -0.6439  0.2863
 8321SOL    HW136422   4.392   1.851  16.705  2.1252  2.0568 -2.9744
 8321SOL    HW236423   4.440   1.851  16.849  3.1505 -1.2804 -0.4127
 8322SOL     OW36424   3.327   2.850   5.175  0.3504  0.1308  0.0130
 8322SOL    HW136425   3.328   2.811   5.087 -0.0240  2.2186 -0.9286
 8322SOL    HW236426   3.294   2.785   5.237  0.1998  0.9991  0.8464
 8323SOL     OW36427   3.364   3.000   2.853 -0.8371 -0.3248  0.5455
 8323SOL    HW136428   3.415   2.919   2.861 -0.7433 -0.3000  0.2049
 8323SOL    HW236429   3.319   3.003   2.938  0.4694 -2.2579  1.3223
 8324SOL     OW36430   3.750   2.645   6.566  0.1768 -0.2252 -0.2468
 8324SOL    HW136431   3.808   2.698   6.511 -1.0445  2.5501  1.1181
 8324SOL    HW236432   3.664   2.661   6.529  0.4608  0.4307 -0.6328
 8325SOL     OW36433   3.814   3.885   8.561 -0.1488 -0.2374  0.3854
 8325SOL    HW136434   3.828   3.963   8.615 -0.9133  0.5134 -0.5103
 8325SOL    HW236435   3.843   3.914   8.475 -1.8727  1.1618  0.2688
 8326SOL     OW36436   2.499   1.514   5.292  0.0243  0.2070  0.1567
 8326SOL    HW136437   2.515   1.479   5.205  1.0528 -1.1461  0.9032
 8326SOL    HW236438   2.560   1.466   5.348  0.3490  0.0226 -0.3605
 8327SOL     OW36439   3.640   3.682  16.259 -0.0112 -0.1602  0.5046
 8327SOL    HW136440   3.659   3.744  16.329 -1.2912  1.1966 -0.3582
 8327SOL    HW236441   3.639   3.602  16.312 -0.2208 -2.3252 -2.7597
 8328SOL     OW36442   1.917   4.289   2.149  0.0931 -0.1155 -0.0322
 8328SOL    HW136443   1.851   4.326   2.090  1.2232  0.9147 -0.6479
 8328SOL    HW236444   1.928   4.354   2.218 -1.0175  0.5078 -0.4402
 8329SOL     OW36445   1.785   4.461  16.624 -0.5324 -0.1901 -0.4036
 8329SOL    HW136446   1.738   4.387  16.661  0.0322 -0.3813 -0.0640
 8329SOL    HW236447   1.708   4.495  16.579 -0.6035  0.4822  0.2411
 8330SOL     OW36448   3.153   4.073   6.452  0.0802 -0.2847 -0.3641
 8330SOL    HW136449   3.219   4.067   6.522 -0.6388 -2.3361  0.1450
 8330SOL    HW236450   3.205   4.041   6.378 -1.9568 -0.8876 -1.5377
 8331SOL     OW36451   0.119   2.025  12.708 -0.3122 -0.1005 -0.3912
 8331SOL    HW136452   0.172   2.017  12.628  2.6181 -1.3446  1.6857
 8331SOL    HW236453   0.153   1.950  12.756  2.1731  1.0209 -0.3603
 8332SOL     OW36454   0.694   3.481   8.134  0.4525 -0.6793 -0.5260
 8332SOL    HW136455   0.720   3.410   8.075  1.1863 -1.3569  0.6003
 8332SOL    HW236456   0.779   3.506   8.170  0.5038 -2.4854  0.6121
 8333SOL     OW36457   3.080   4.519  16.395  0.2242  0.2231  0.1037
 8333SOL    HW136458   3.108   4.571  16.470  1.3952  1.9364 -1.5283
 8333SOL    HW236459   3.019   4.580  16.355 -1.5574 -0.1957  2.1715
 8334SOL     OW36460   3.713   3.284  16.210  0.0207 -0.4798  0.6779
 8334SOL    HW136461   3.659   3.239  16.145 -0.7342  0.5016  0.6390
 8334SOL    HW236462   3.733   3.362  16.159 -0.3908  0.4199  1.8973
 8335SOL     OW36463   2.268   2.797   4.986  0.7559 -0.4805 -0.1152
 8335SOL    HW136464   2.267   2.702   4.976 -0.3917 -0.4074 -0.6399
 8335SOL    HW236465   2.173   2.802   4.996  0.6968 -0.5979 -0.6274
 8336SOL     OW36466   4.708   3.102   3.217 -0.0551  0.3132 -0.4154
 8336SOL    HW136467   4.715   3.197   3.215  0.7320  0.2857  1.0860
 8336SOL    HW236468   4.618   3.097   3.248  0.0210  2.0767  0.0703
 8337SOL     OW36469   3.413   0.099   4.642 -0.3997  0.1861  0.0587
 8337SOL    HW136470   3.458   0.060   4.717  2.1313 -0.2909 -1.6931
 8337SOL    HW236471   3.410   0.027   4.579  1.3739  1.5394 -1.5890
 8338SOL     OW36472   0.055   1.839  10.310 -0.1224 -0.1193  0.1617
 8338SOL    HW136473   0.104   1.769  10.266 -0.3898  0.0144 -0.3507
 8338SOL    HW236474   0.048   1.902  10.239  0.4506 -0.2511 -0.0063
 8339SOL     OW36475   0.242   1.231   4.415 -0.1800  0.7206 -0.1299
 8339SOL    HW136476   0.254   1.215   4.321  0.6585  1.0629 -0.0841
 8339SOL    HW236477   0.326   1.266   4.447 -0.0564 -0.0386  0.3748
 8340SOL     OW36478   2.767   2.943   7.625  0.1046  0.4980  0.3737
 8340SOL    HW136479   2.787   3.021   7.676  0.4588 -0.1748  1.2663
 8340SOL    HW236480   2.779   2.974   7.535  1.2686 -1.1195 -0.0268
 8341SOL     OW36481   2.763   3.124   1.680  0.1944  0.0046  0.5512
 8341SOL    HW136482   2.833   3.187   1.698 -0.9174  1.2757  0.4416
 8341SOL    HW236483   2.810   3.048   1.645  3.1298  1.8944  0.4637
 8342SOL     OW36484   4.474   0.276   6.557 -0.0392  0.0508 -0.2852
 8342SOL    HW136485   4.443   0.251   6.644  3.1438  0.2882  0.9250
 8342SOL    HW236486   4.562   0.310   6.576  0.3546 -0.0019 -2.0608
 8343SOL     OW36487   1.865   3.091   3.336  0.1987  0.1711  0.3989
 8343SOL    HW136488   1.866   3.097   3.432 -0.8700 -1.0108  0.4901
 8343SOL    HW236489   1.804   3.018   3.324  1.4798 -0.3415 -2.9609
 8344SOL     OW36490   0.517   4.104  12.493 -0.1960 -0.0856  0.0526
 8344SOL    HW136491   0.524   4.012  12.521 -1.4974 -0.5461 -1.1362
 8344SOL    HW236492   0.592   4.125  12.436  0.0334  0.9383  0.7352
 8345SOL     OW36493   0.369   1.782  13.255  0.4577 -0.2361 -0.0523
 8345SOL    HW136494   0.343   1.695  13.223  1.3200 -0.5425  0.0805
 8345SOL    HW236495   0.389   1.777  13.348  3.8015  0.8828 -0.7284
 8346SOL     OW36496   4.447   4.502  10.937 -0.4458 -0.0448 -0.3384
 8346SOL    HW136497   4.501   4.577  10.961 -0.3863 -0.9698  2.4462
 8346SOL    HW236498   4.367   4.553  10.923 -0.4816  0.0609  0.2631
 8347SOL     OW36499   1.821   4.691   5.369  0.4041  1.0849 -0.1871
 8347SOL    HW136500   1.855   0.001   5.286 -0.9101  2.3015 -0.2242
 8347SOL    HW236501   1.736   4.664   5.333  0.7918 -1.8944  1.0751
 8348SOL     OW36502   1.074   3.854   6.321  0.3020  0.3315 -0.6899
 8348SOL    HW136503   1.076   3.760   6.336  2.1479  0.3880 -0.5384
 8348SOL    HW236504   1.029   3.880   6.401  0.1026  1.5454 -1.2000
 8349SOL     OW36505   3.437   0.280   1.825  0.3156 -0.0371  0.0978
 8349SOL    HW136506   3.420   0.356   1.770  0.3200  0.0963  0.2792
 8349SOL    HW236507   3.433   0.202   1.769  0.2374  1.4446 -1.9693
 8350SOL     OW36508   0.385   0.417   4.022 -0.0219 -0.3042 -0.0763
 8350SOL    HW136509   0.400   0.327   3.994 -1.9846 -0.4877 -0.5254
 8350SOL    HW236510   0.290   0.419   4.029  0.0176 -3.0583  1.1830
 8351SOL     OW36511   2.142   4.204   7.809 -0.0175  0.1520  0.4716
 8351SOL    HW136512   2.216   4.144   7.796 -0.0807  0.0830  0.4357
 8351SOL    HW236513   2.120   4.177   7.899  0.2143  1.0700  0.8037
 8352SOL     OW36514   3.496   2.636   8.671 -0.0763 -0.7596 -0.6647
 8352SOL    HW136515   3.446   2.657   8.751  0.9294  0.8766 -0.4626
 8352SOL    HW236516   3.428   2.643   8.604 -0.3905  0.5013 -0.2032
 8353SOL     OW36517   0.837   3.242   3.136  0.1508 -0.1855 -0.1391
 8353SOL    HW136518   0.749   3.278   3.146  1.6795  3.2786  0.8398
 8353SOL    HW236519   0.874   3.271   3.219 -0.4364 -2.1497  0.8264
 8354SOL     OW36520   1.260   0.345   5.956 -0.3132  0.2481 -0.2665
 8354SOL    HW136521   1.172   0.384   5.954 -1.4273 -2.2561  0.3320
 8354SOL    HW236522   1.230   0.257   5.931 -0.9151 -0.0075  1.3844
 8355SOL     OW36523   3.302   4.293   0.358 -0.2293 -0.3431  0.6761
 8355SOL    HW136524   3.341   4.370   0.316 -0.7266 -0.9138 -0.8286
 8355SOL    HW236525   3.345   4.226   0.305 -0.1196 -1.9662  2.8161
 8356SOL     OW36526   3.584   1.076   6.903 -0.1906  0.1217  0.5782
 8356SOL    HW136527   3.492   1.064   6.924  0.1374 -1.0923  1.3353
 8356SOL    HW236528   3.597   1.011   6.834 -0.4511  0.2210  0.4384
 8357SOL     OW36529   0.334   0.925   3.630 -0.3783  0.1147 -0.1154
 8357SOL    HW136530   0.301   0.995   3.686 -1.6809 -2.1985  1.9561
 8357SOL    HW236531   0.277   0.848   3.633 -0.9791  0.5893  0.7645
 8358SOL     OW36532   3.451   4.100   2.697  0.3431 -0.0236 -0.6474
 8358SOL    HW136533   3.410   4.030   2.646 -1.0217  0.5274 -0.3051
 8358SOL    HW236534   3.461   4.173   2.636 -1.8234  0.5175 -0.3771
 8359SOL     OW36535   2.928   3.906  15.216  0.5938  0.6750  0.6960
 8359SOL    HW136536   2.891   3.847  15.281  1.5816  0.3266  0.9509
 8359SOL    HW236537   2.890   3.886  15.131 -0.3391  1.4821  0.9269
 8360SOL     OW36538   4.286   0.301   7.523 -0.1406 -0.5826 -0.1558
 8360SOL    HW136539   4.297   0.315   7.429 -1.4839 -1.7515 -0.4702
 8360SOL    HW236540   4.356   0.356   7.560  1.3697 -2.2275 -0.5609
 8361SOL     OW36541   1.110   4.082   8.617 -0.1774  0.3725 -0.0709
 8361SOL    HW136542   1.105   4.001   8.669  1.0319  0.5037  0.2643
 8361SOL    HW236543   1.033   4.080   8.561  0.9483 -0.9067 -1.5708
 8362SOL     OW36544   2.687   4.427   7.611  0.0247  0.0019 -0.1047
 8362SOL    HW136545   2.696   4.448   7.518 -0.0644  0.2146 -0.0650
 8362SOL    HW236546   2.667   4.333   7.606  3.8351 -0.8453  0.7717
 8363SOL     OW36547   4.243   3.863   8.067 -0.1303 -0.4126 -0.2197
 8363SOL    HW136548   4.335   3.884   8.080 -0.4853  0.5982  0.6018
 8363SOL    HW236549   4.196   3.946   8.068  1.0869  0.2364  1.5417
 8364SOL     OW36550   4.079   3.785   8.769  0.3554 -0.2291  0.2620
 8364SOL    HW136551   4.028   3.763   8.846  2.0112 -0.1946  1.3532
 8364SOL    HW236552   4.014   3.782   8.698 -0.5185 -0.0753  1.0637
 8365SOL     OW36553   2.887   4.211   3.549 -0.5228  0.8791  0.7727
 8365SOL    HW136554   2.921   4.169   3.469 -1.1756  0.3925  0.7462
 8365SOL    HW236555   2.959   4.273   3.560 -0.1652  0.5585  0.2479
 8366SOL     OW36556   0.208   1.044   1.594 -0.5365  0.4891  0.2150
 8366SOL    HW136557   0.232   0.955   1.572 -0.4771  0.9060 -1.3744
 8366SOL    HW236558   0.249   1.053   1.680 -2.9787 -2.1756  1.6565
 8367SOL     OW36559   3.816   1.194   8.749 -0.3447  0.6049 -0.0336
 8367SOL    HW136560   3.749   1.238   8.697  2.1519  2.8029 -1.4136
 8367SOL    HW236561   3.884   1.208   8.682 -2.7998  2.9873 -2.0318
 8368SOL     OW36562   0.777   4.450   1.683  0.0399  0.4005 -0.8945
 8368SOL    HW136563   0.698   4.488   1.720  0.7038 -1.1902  2.1208
 8368SOL    HW236564   0.767   4.357   1.700  0.2725  0.3436 -1.0629
 8369SOL     OW36565   4.490   0.762   1.928 -0.0005  0.4561 -0.2279
 8369SOL    HW136566   4.578   0.729   1.907  0.1769 -0.5304  2.0006
 8369SOL    HW236567   4.497   0.836   1.988  0.2614 -0.9166  1.4425
 8370SOL     OW36568   2.761   2.551   2.463  0.1936 -0.1002  0.3682
 8370SOL    HW136569   2.772   2.637   2.421  2.9791 -0.2079  0.8628
 8370SOL    HW236570   2.678   2.559   2.510  0.2901  1.1740  0.3337
 8371SOL     OW36571   1.961   1.185   3.918 -0.1418  0.0063 -0.2890
 8371SOL    HW136572   1.916   1.260   3.879  0.9980  0.0644 -1.4615
 8371SOL    HW236573   2.033   1.224   3.968  1.5809  0.1799 -2.9208
 8372SOL     OW36574   2.955   2.028   3.681  0.3609  0.1913 -0.1135
 8372SOL    HW136575   2.912   2.109   3.654  0.2443  0.1490 -0.0556
 8372SOL    HW236576   2.904   2.010   3.760  1.8381  1.1214  1.0512
 8373SOL     OW36577   0.381   2.719   0.194 -0.4873 -0.4483  0.6052
 8373SOL    HW136578   0.368   2.762   0.279  1.5118 -3.3265  2.3364
 8373SOL    HW236579   0.305   2.660   0.193 -1.0561  0.3000 -1.2364
 8374SOL     OW36580   3.057   2.040   5.722 -0.7030 -0.3461  0.2219
 8374SOL    HW136581   3.070   2.069   5.631 -1.4664 -1.5574 -0.2680
 8374SOL    HW236582   2.986   2.096   5.752 -1.0607  0.7280 -2.5970
 8375SOL     OW36583   0.463   3.261  13.038  0.3488 -0.5754  0.3440
 8375SOL    HW136584   0.487   3.248  12.946  2.8700 -2.3819  1.2826
 8375SOL    HW236585   0.414   3.343  13.031  2.1790  0.4387 -0.3680
 8376SOL     OW36586   0.245   4.319   6.429 -0.2848  0.4973 -0.1829
 8376SOL    HW136587   0.252   4.294   6.337 -0.0448  0.0944 -0.0554
 8376SOL    HW236588   0.150   4.313   6.438 -0.1450  1.2553  1.9257
 8377SOL     OW36589   1.894   3.781   0.403  0.1044  0.6801 -0.5307
 8377SOL    HW136590   1.903   3.689   0.378  0.4004  1.0782 -1.8477
 8377SOL    HW236591   1.817   3.763   0.457  0.1154 -0.2830 -0.8385
 8378SOL     OW36592   3.786   3.438   7.303  0.2513  0.1882  0.0897
 8378SOL    HW136593   3.876   3.459   7.323  1.2007 -1.8354 -1.9700
 8378SOL    HW236594   3.750   3.458   7.389 -1.3575 -0.4084 -0.4340
 8379SOL     OW36595   3.773   1.389   9.346 -0.2676 -0.7768 -0.2354
 8379SOL    HW136596   3.859   1.384   9.304 -1.2104  0.5951 -2.3080
 8379SOL    HW236597   3.793   1.338   9.425 -0.8101 -1.9924 -0.8821
 8380SOL     OW36598   0.142   1.901   1.033  0.5715  0.8658 -0.4541
 8380SOL    HW136599   0.206   1.955   1.078  0.6560  0.8954 -0.6111
 8380SOL    HW236600   0.191   1.831   0.990 -0.9298 -0.9424  0.7496
 8381SOL     OW36601   4.375   0.199   6.816  0.1184 -0.1270 -0.5501
 8381SOL    HW136602   4.400   0.168   6.903  0.7367  3.5510  0.5538
 8381SOL    HW236603   4.345   0.124   6.765 -1.8589  0.7276 -0.6347
 8382SOL     OW36604   0.249   0.454   2.758  0.1882  0.3779 -1.0099
 8382SOL    HW136605   0.193   0.532   2.755  0.5377  0.6328 -0.9706
 8382SOL    HW236606   0.193   0.406   2.698 -1.0024  1.4462 -0.7526
 8383SOL     OW36607   2.269   2.053   5.151 -0.4064  0.2530 -0.5394
 8383SOL    HW136608   2.196   2.028   5.208 -0.9194 -1.2938 -1.8689
 8383SOL    HW236609   2.225   2.084   5.072 -2.5848 -0.4327  0.4102
 8384SOL     OW36610   2.850   0.865  16.516 -0.4685  0.2537 -0.4014
 8384SOL    HW136611   2.853   0.786  16.570 -1.1208  0.2811 -0.3278
 8384SOL    HW236612   2.871   0.929  16.585 -1.3768 -0.3043  0.3799
 8385SOL     OW36613   3.336   3.600   7.572 -0.2694  0.0607 -0.6873
 8385SOL    HW136614   3.253   3.628   7.533  1.4002  1.1873 -3.4121
 8385SOL    HW236615   3.333   3.655   7.650  0.7645 -0.6632 -0.1481
 8386SOL     OW36616   1.713   4.074   6.084  0.5552 -0.0498 -0.0576
 8386SOL    HW136617   1.706   3.980   6.097 -1.4357  0.2103  0.8718
 8386SOL    HW236618   1.752   4.069   5.997  0.6449 -0.4730  0.0113
 8387SOL     OW36619   3.963   2.125   6.940  0.4552  0.2310  0.1725
 8387SOL    HW136620   3.920   2.188   6.882 -1.7677  0.3502  1.9848
 8387SOL    HW236621   4.009   2.197   6.984  1.9925  0.7247 -2.2506
 8388SOL     OW36622   3.547   3.310  17.307 -0.1127 -0.0886 -0.1410
 8388SOL    HW136623   3.591   3.238  17.351 -0.6655  1.6127  3.1886
 8388SOL    HW236624   3.599   3.387  17.331  1.0609 -0.6009 -1.0575
 8389SOL     OW36625   3.738   0.570   4.796 -0.0413  1.0297  0.0497
 8389SOL    HW136626   3.817   0.534   4.836 -1.1674 -1.3890  0.0744
 8389SOL    HW236627   3.699   0.499   4.746  1.7071  0.5515 -0.6407
 8390SOL     OW36628   1.204   1.610   2.500 -0.2597  0.7216  0.4464
 8390SOL    HW136629   1.272   1.626   2.435 -0.8229 -1.5020 -0.6500
 8390SOL    HW236630   1.233   1.676   2.564 -0.6781  1.8360 -0.5156
 8391SOL     OW36631   4.555   0.874   3.385  0.0394  0.1992 -0.4152
 8391SOL    HW136632   4.590   0.856   3.298  1.3020 -0.2848  0.1884
 8391SOL    HW236633   4.597   0.806   3.438 -0.7954  0.2654  0.3241
 8392SOL     OW36634   4.584   3.458   3.360  0.6533 -0.0035  0.5307
 8392SOL    HW136635   4.527   3.525   3.398 -1.2775 -0.6166 -1.2458
 8392SOL    HW236636   4.658   3.502   3.317 -0.8159  0.2336 -1.8017
 8393SOL     OW36637   4.656   3.735  16.561 -0.0435 -0.0464  0.6019
 8393SOL    HW136638   0.006   3.722  16.621 -1.0967 -1.0073  1.7044
 8393SOL    HW236639   4.592   3.676  16.601  0.3699 -1.8969 -1.4738
 8394SOL     OW36640   2.570   0.288  10.972 -0.0345 -0.0853 -0.2699
 8394SOL    HW136641   2.554   0.236  11.051 -2.6451  0.3038 -0.5370
 8394SOL    HW236642   2.642   0.239  10.932  1.3839 -0.4379  2.6873
 8395SOL     OW36643   1.343   2.398   7.938 -0.0974 -0.1571  0.0309
 8395SOL    HW136644   1.355   2.365   7.850  0.4755 -1.3363  0.5573
 8395SOL    HW236645   1.333   2.494   7.934 -0.1246 -0.2970 -2.8694
 8396SOL     OW36646   3.066   2.421  17.000  0.0032  0.2777 -0.1269
 8396SOL    HW136647   3.151   2.461  16.984  0.2645 -0.9065 -1.6193
 8396SOL    HW236648   3.033   2.428  16.911 -0.9325  1.3045  0.3022
 8397SOL     OW36649   4.555   2.906   8.081 -0.0551  0.3075  0.4223
 8397SOL    HW136650   4.617   2.966   8.123  0.5494  0.3383 -0.5097
 8397SOL    HW236651   4.585   2.921   7.992  1.3805 -1.7703  0.5570
 8398SOL     OW36652   1.682   0.594   8.191 -0.0829 -0.4219 -0.5230
 8398SOL    HW136653   1.724   0.594   8.105  1.5692 -0.8782  0.2775
 8398SOL    HW236654   1.653   0.685   8.195 -0.8776 -0.8233  2.8641
 8399SOL     OW36655   0.319   4.380   0.935  0.0995 -0.0454 -0.0955
 8399SOL    HW136656   0.240   4.434   0.929 -0.0669 -0.2302  0.4471
 8399SOL    HW236657   0.322   4.338   0.849  1.6905 -0.7445  0.3175
 8400SOL     OW36658   4.505   0.155   7.908 -0.5870  0.2637  0.1818
 8400SOL    HW136659   4.428   0.122   7.955 -1.4199 -0.9868 -2.0726
 8400SOL    HW236660   4.537   0.223   7.968 -0.0585 -0.3360  0.5764
 8401SOL     OW36661   3.894   1.386  14.065  0.0426  0.2458  0.0168
 8401SOL    HW136662   3.848   1.469  14.055 -2.0495 -0.7382  1.4971
 8401SOL    HW236663   3.913   1.378  14.159  1.4829  0.0116 -0.2915
 8402SOL     OW36664   1.683   4.010   1.600 -0.8780  0.1903  0.0792
 8402SOL    HW136665   1.692   3.998   1.506  2.0110 -1.0020  0.5061
 8402SOL    HW236666   1.775   4.001   1.623 -0.6716  2.6495  0.1271
 8403SOL     OW36667   3.788   1.873   5.639  0.3465  0.0115  0.0160
 8403SOL    HW136668   3.778   1.830   5.554  0.7758 -1.4516  0.7173
 8403SOL    HW236669   3.762   1.963   5.618 -1.8004 -1.0948 -2.0968
 8404SOL     OW36670   2.731   2.420   6.428 -0.6802 -0.2874 -0.5687
 8404SOL    HW136671   2.822   2.449   6.433 -0.7186 -0.1794 -0.4775
 8404SOL    HW236672   2.700   2.394   6.515  0.7815  1.9275  0.6303
 8405SOL     OW36673   2.234   3.404   1.746  0.2166 -0.1611  0.3519
 8405SOL    HW136674   2.225   3.318   1.704 -0.5217 -0.4352  1.0918
 8405SOL    HW236675   2.219   3.449   1.662 -0.6920  1.0204  1.1513
 8406SOL     OW36676   2.378   3.821  11.332  0.6908  0.2254  0.0932
 8406SOL    HW136677   2.370   3.738  11.380 -0.5886 -0.6204 -1.5756
 8406SOL    HW236678   2.283   3.829  11.336  0.4436 -3.0622  0.7174
 8407SOL     OW36679   1.341   0.319   5.627 -0.0519 -0.5946  0.1248
 8407SOL    HW136680   1.253   0.289   5.602 -1.0213  1.7789  0.7188
 8407SOL    HW236681   1.365   0.236   5.667 -1.0359 -0.5177  0.8523
 8408SOL     OW36682   2.640   0.157  15.987 -0.5359 -0.3048  0.0195
 8408SOL    HW136683   2.621   0.068  15.957 -0.5300  0.0468 -1.0274
 8408SOL    HW236684   2.668   0.203  15.908  0.5678 -0.3775  0.3632
 8409SOL     OW36685   1.687   4.331   1.980 -0.5606 -0.3046 -0.1643
 8409SOL    HW136686   1.691   4.422   2.010 -1.6400 -0.6070  0.9274
 8409SOL    HW236687   1.619   4.291   2.034  2.5237 -4.2067  0.7519
 8410SOL     OW36688   2.921   0.774  16.244  0.9446  0.5042 -0.0017
 8410SOL    HW136689   2.903   0.805  16.333  0.0504  2.3234 -0.8216
 8410SOL    HW236690   3.017   0.776  16.250  0.9794 -2.6831  0.4642
 8411SOL     OW36691   2.506   2.847   4.733  0.0040  0.2134 -0.6100
 8411SOL    HW136692   2.515   2.834   4.828  0.5290  1.3522 -0.5062
 8411SOL    HW236693   2.548   2.933   4.731  0.9143 -0.2037  1.1260
 8412SOL     OW36694   3.441   2.181   6.925 -0.6243  0.7803  0.7164
 8412SOL    HW136695   3.468   2.272   6.937  0.8722  0.4469 -0.1753
 8412SOL    HW236696   3.491   2.142   6.853 -1.0574  1.6514 -0.0623
 8413SOL     OW36697   0.966   2.734  16.882 -0.3449  0.1782  0.2276
 8413SOL    HW136698   0.870   2.731  16.884 -0.3173 -0.6406  0.3105
 8413SOL    HW236699   0.995   2.644  16.871  1.7302  1.1011 -1.8398
 8414SOL     OW36700   1.429   3.468  11.143 -0.0366 -0.1091 -0.2394
 8414SOL    HW136701   1.522   3.465  11.166 -0.9002 -1.3794  3.0179
 8414SOL    HW236702   1.386   3.429  11.219 -1.5933 -0.9603 -1.5595
 8415SOL     OW36703   2.506   4.058   5.885 -0.0658 -0.4198  0.6556
 8415SOL    HW136704   2.493   3.967   5.910 -2.6933 -0.2117  0.0641
 8415SOL    HW236705   2.509   4.098   5.971 -2.4607  0.3900  0.3774
 8416SOL     OW36706   3.214   3.019   3.066  0.2399 -0.3447 -0.5136
 8416SOL    HW136707   3.129   3.026   3.110  1.1141 -0.7601  1.2660
 8416SOL    HW236708   3.270   3.055   3.136 -0.8468  0.6920 -0.1775
 8417SOL     OW36709   1.182   3.657   7.040  0.4724 -0.5509 -0.3152
 8417SOL    HW136710   1.214   3.731   6.988 -0.5061 -1.5749 -2.3662
 8417SOL    HW236711   1.092   3.689   7.053  0.7604 -0.3266  1.1288
 8418SOL     OW36712   2.149   3.115   5.972  0.2223  0.2194 -0.1197
 8418SOL    HW136713   2.066   3.068   5.978  1.7154 -2.0125  3.0997
 8418SOL    HW236714   2.129   3.200   6.011  0.2796  2.0563 -4.1717
 8419SOL     OW36715   1.520   1.703   3.372  0.0598 -0.1422  0.3442
 8419SOL    HW136716   1.479   1.640   3.313  2.8355 -0.7439 -0.9303
 8419SOL    HW236717   1.482   1.781   3.333  0.0077 -0.6318 -0.5883
 8420SOL     OW36718   3.401   3.231   5.115  0.4063 -0.0250 -0.8641
 8420SOL    HW136719   3.447   3.197   5.038 -1.6818  0.2009 -2.2133
 8420SOL    HW236720   3.446   3.193   5.190 -0.7410 -0.1727 -0.2612
 8421SOL     OW36721   4.389   2.854   0.312 -0.9590  0.5898  0.4516
 8421SOL    HW136722   4.463   2.888   0.363 -0.5071  0.5381 -0.1644
 8421SOL    HW236723   4.435   2.792   0.255  0.0807  2.8089 -1.1509
 8422SOL     OW36724   1.119   4.529   4.849  0.4917  0.1631 -0.7002
 8422SOL    HW136725   1.118   4.433   4.845 -4.0810  0.1375  0.6297
 8422SOL    HW236726   1.203   4.547   4.890  1.2149  0.4174 -2.2912
 8423SOL     OW36727   2.526   1.673   6.705  0.1217  0.2082 -0.3051
 8423SOL    HW136728   2.475   1.629   6.772 -1.6560 -0.0232 -1.8209
 8423SOL    HW236729   2.553   1.754   6.749  0.1649  0.1998 -0.3156
 8424SOL     OW36730   0.843   1.576   1.032  0.0324  0.0396  0.3526
 8424SOL    HW136731   0.885   1.640   1.090 -0.4466  0.3006  0.4072
 8424SOL    HW236732   0.861   1.500   1.087  0.3455 -1.0977 -1.3024
 8425SOL     OW36733   3.015   1.309   7.396  0.2164 -0.2037  0.4943
 8425SOL    HW136734   3.026   1.373   7.466  1.7031 -0.7766  0.7790
 8425SOL    HW236735   3.101   1.309   7.356  0.3200  2.0906  0.7223
 8426SOL     OW36736   3.576   1.581   9.416  0.7889 -0.2191 -0.2164
 8426SOL    HW136737   3.503   1.528   9.384  2.1563 -0.3162 -3.1272
 8426SOL    HW236738   3.658   1.534   9.405  0.7851 -0.3175  0.1686
 8427SOL     OW36739   2.573   4.346   0.428 -0.1534 -0.1531  0.0656
 8427SOL    HW136740   2.497   4.404   0.421 -0.8893 -1.0800  0.4722
 8427SOL    HW236741   2.644   4.410   0.415  1.2415 -1.6784  0.2108
 8428SOL     OW36742   2.116   4.633   7.915  0.0874 -0.1793 -0.0797
 8428SOL    HW136743   2.184   4.570   7.888  0.7563 -0.2597  1.7806
 8428SOL    HW236744   2.107   4.685   7.835 -1.5142 -2.2048 -1.2103
 8429SOL     OW36745   2.154   2.867   5.338 -0.6376 -0.0296 -0.5053
 8429SOL    HW136746   2.144   2.780   5.375  0.9852  0.2718  0.6193
 8429SOL    HW236747   2.069   2.904   5.364 -1.2317 -1.2083 -0.8010
 8430SOL     OW36748   1.693   4.344   4.128  0.8424 -0.5314  0.2617
 8430SOL    HW136749   1.628   4.345   4.059 -0.5149 -0.0626  1.5381
 8430SOL    HW236750   1.735   4.266   4.091  0.8829  0.2215 -1.2755
 8431SOL     OW36751   2.718   3.425  16.330 -0.0080  0.0799 -0.0095
 8431SOL    HW136752   2.788   3.410  16.393  0.3459 -0.0767 -0.4362
 8431SOL    HW236753   2.703   3.519  16.337 -0.4056  0.0840 -0.8772
 8432SOL     OW36754   3.713   1.082   4.562 -0.3735  0.5824  0.2857
 8432SOL    HW136755   3.631   1.124   4.537 -0.4860  0.4410  0.4132
 8432SOL    HW236756   3.684   1.038   4.642  0.2721 -0.7345 -0.2049
 8433SOL     OW36757   1.929   1.820  11.089 -0.3133  0.1648 -0.3903
 8433SOL    HW136758   2.022   1.838  11.102  0.7992 -4.7722 -1.5360
 8433SOL    HW236759   1.923   1.821  10.993  0.0866  1.4212 -0.4034
 8434SOL     OW36760   0.343   1.050   3.398  0.2983  0.5544  0.1124
 8434SOL    HW136761   0.370   1.140   3.416  0.9521 -0.0291  2.0079
 8434SOL    HW236762   0.352   1.010   3.484  0.1163  0.2749  0.0040
 8435SOL     OW36763   3.674   1.046   8.317 -0.4222 -0.3236 -0.2481
 8435SOL    HW136764   3.738   1.076   8.252 -0.2756  1.6558  0.7949
 8435SOL    HW236765   3.647   1.128   8.359  0.8328 -0.4022  0.7310
 8436SOL     OW36766   1.529   4.024   6.475 -0.1171  0.2303  0.1465
 8436SOL    HW136767   1.456   3.999   6.419  0.8738 -0.7585 -0.7081
 8436SOL    HW236768   1.598   4.044   6.412  0.0092  1.9110  0.8287
 8437SOL     OW36769   1.770   1.353   6.035 -0.1641  0.3099 -0.2819
 8437SOL    HW136770   1.851   1.389   5.997 -0.5378  1.1969 -0.2289
 8437SOL    HW236771   1.718   1.430   6.055  2.3333  1.9806 -0.1541
 8438SOL     OW36772   3.561   2.002   5.923 -0.3654  0.2654 -0.6502
 8438SOL    HW136773   3.587   1.921   5.967 -0.7085 -0.0484 -1.0260
 8438SOL    HW236774   3.641   2.053   5.932 -1.5916  1.7473  1.7589
 8439SOL     OW36775   1.346   0.615   0.245 -0.9876 -0.5359 -0.3417
 8439SOL    HW136776   1.385   0.565   0.316 -0.0192 -0.6531 -0.9567
 8439SOL    HW236777   1.254   0.594   0.261 -0.4928 -1.9165  0.7052
 8440SOL     OW36778   4.051   4.450   0.374 -0.3076  0.3060 -0.2741
 8440SOL    HW136779   4.006   4.510   0.434 -0.9485 -0.7506  0.3116
 8440SOL    HW236780   3.986   4.436   0.305  1.2638 -0.7824 -1.5312
 8441SOL     OW36781   0.280   4.118   0.808  0.0316 -0.2073 -0.5441
 8441SOL    HW136782   0.267   4.167   0.726  3.2338 -1.2082 -1.6645
 8441SOL    HW236783   0.192   4.130   0.845 -0.4780 -2.6488 -0.9910
 8442SOL     OW36784   0.721   4.719   3.896 -0.8571  0.6437 -0.1347
 8442SOL    HW136785   0.643   0.039   3.930 -0.6054  0.9823 -0.0102
 8442SOL    HW236786   0.688   4.692   3.809  0.3923  0.0716 -0.4287
 8443SOL     OW36787   2.061   1.682   7.785 -0.8655  0.4229  0.6046
 8443SOL    HW136788   2.134   1.677   7.846 -1.4062  2.1363  1.3928
 8443SOL    HW236789   2.105   1.643   7.710 -0.8816 -0.9437  1.2985
 8444SOL     OW36790   4.280   3.695  13.709  0.0100  0.4350  0.3263
 8444SOL    HW136791   4.289   3.725  13.618  0.7786 -0.7836  0.0048
 8444SOL    HW236792   4.189   3.720  13.725 -0.8113 -2.9137  0.7612
 8445SOL     OW36793   2.581   2.633   4.947  0.2343 -0.4483  0.2639
 8445SOL    HW136794   2.651   2.696   4.956  0.1599 -0.5898  1.7455
 8445SOL    HW236795   2.630   2.577   4.887 -0.1564  0.9013 -1.3061
 8446SOL     OW36796   0.317   3.851  16.129  0.3086  0.7033 -0.2434
 8446SOL    HW136797   0.301   3.920  16.065 -2.0812  1.1744  0.8962
 8446SOL    HW236798   0.354   3.902  16.201 -0.2965 -2.1655  2.1275
 8447SOL     OW36799   1.299   3.865   0.866  0.0271  0.2016  0.3977
 8447SOL    HW136800   1.329   3.775   0.855  0.2907  0.4512 -0.8727
 8447SOL    HW236801   1.248   3.855   0.947  0.3625 -1.0734  0.4467
 8448SOL     OW36802   0.851   1.878   5.436 -0.2371  0.0940 -0.7746
 8448SOL    HW136803   0.833   1.896   5.343 -3.0938 -2.3435 -0.7110
 8448SOL    HW236804   0.945   1.858   5.433 -0.5511 -1.2751 -1.3067
 8449SOL     OW36805   2.646   2.342  13.539  0.1854 -0.1593 -0.1969
 8449SOL    HW136806   2.657   2.336  13.445 -1.7411 -2.3396 -0.2907
 8449SOL    HW236807   2.728   2.305  13.571  1.2513 -0.9365 -3.8919
 8450SOL     OW36808   3.423   2.593   6.668 -0.3425  0.2484  0.1565
 8450SOL    HW136809   3.337   2.627   6.645 -0.0378  1.5530  0.9365
 8450SOL    HW236810   3.444   2.548   6.586 -0.4938  0.9010 -0.2464
 8451SOL     OW36811   2.946   1.617   8.015 -0.2787  0.0856  0.6631
 8451SOL    HW136812   2.878   1.578   7.960  0.6111  1.2140 -1.2338
 8451SOL    HW236813   3.027   1.570   7.992 -1.3541 -2.0220  1.1916
 8452SOL     OW36814   0.776   0.007   1.681  0.1293 -0.2199 -0.4167
 8452SOL    HW136815   0.687   4.696   1.692  0.2253 -0.6406 -0.9537
 8452SOL    HW236816   0.820   4.647   1.670 -0.7828 -0.9353  1.3907
 8453SOL     OW36817   0.655   3.187   1.310  0.2162 -0.0651  0.4847
 8453SOL    HW136818   0.695   3.210   1.393 -0.7828  2.9079  0.1555
 8453SOL    HW236819   0.584   3.134   1.345 -0.8374  2.4744  2.1964
 8454SOL     OW36820   1.174   0.984   6.625  0.2435 -0.6319  0.4661
 8454SOL    HW136821   1.175   0.956   6.534 -1.9081  0.9485 -0.0412
 8454SOL    HW236822   1.145   1.076   6.623 -1.8700 -1.3182 -0.1970
 8455SOL     OW36823   1.742   1.037  12.523  0.5430 -0.3674  0.0382
 8455SOL    HW136824   1.782   1.020  12.437 -0.3250 -1.9574 -0.0507
 8455SOL    HW236825   1.648   1.027  12.509  0.5059 -0.4381  0.3413
 8456SOL     OW36826   1.621   1.665   4.659  0.1846 -0.3737 -0.3575
 8456SOL    HW136827   1.694   1.702   4.708  0.6264 -1.2107 -0.3809
 8456SOL    HW236828   1.589   1.733   4.600  0.5832 -2.1792 -2.6633
 8457SOL     OW36829   1.767   3.002   9.478 -0.2680 -0.0767  0.0335
 8457SOL    HW136830   1.722   3.081   9.509  2.4185  1.7586 -0.8098
 8457SOL    HW236831   1.778   2.960   9.563 -0.4065 -0.1147  0.0329
 8458SOL     OW36832   2.004   1.865   5.910 -0.5610 -0.2913  0.1586
 8458SOL    HW136833   1.980   1.913   5.830 -1.7718 -2.2986 -0.6881
 8458SOL    HW236834   2.071   1.811   5.867 -0.4390  1.9414 -2.4985
 8459SOL     OW36835   0.728   4.690   6.545  0.7326 -0.1855 -0.1221
 8459SOL    HW136836   0.784   4.624   6.587  0.4626  0.6199  1.5080
 8459SOL    HW236837   0.784   0.003   6.477 -0.2361  2.1634  0.3700
 8460SOL     OW36838   3.857   3.323   6.800  0.6134  0.6538 -1.1128
 8460SOL    HW136839   3.867   3.237   6.759 -0.0975  0.5492 -1.0632
 8460SOL    HW236840   3.937   3.327   6.853  0.3588  0.5971 -0.7253
 8461SOL     OW36841   2.214   2.956  17.116 -0.1074  0.0811  0.2492
 8461SOL    HW136842   2.216   2.911  17.032  0.6515  0.0142  0.3071
 8461SOL    HW236843   2.300   2.996  17.123 -0.3649  0.5405  0.8160
 8462SOL     OW36844   3.889   2.792   4.747  0.3243  0.4942  0.8225
 8462SOL    HW136845   3.799   2.818   4.724 -0.4288 -2.2863  0.5998
 8462SOL    HW236846   3.870   2.773   4.839 -3.4179 -1.3950 -0.3294
 8463SOL     OW36847   3.308   2.903   6.706  0.5763 -0.0200  0.4580
 8463SOL    HW136848   3.330   2.996   6.707 -0.6737  0.2920 -0.8876
 8463SOL    HW236849   3.304   2.880   6.613 -1.8048  0.0598  0.5407
 8464SOL     OW36850   4.652   1.200   3.918  0.3267 -0.3623  0.1674
 8464SOL    HW136851   4.592   1.215   3.991 -1.4566  0.3317 -1.4322
 8464SOL    HW236852   4.706   1.132   3.959 -1.9545 -1.0575  2.0228
 8465SOL     OW36853   4.723   1.061   3.056  0.7587  0.2106  0.0762
 8465SOL    HW136854   0.084   1.090   3.091 -0.1716  1.7585  1.0338
 8465SOL    HW236855   0.019   1.026   2.969  0.2978  0.2994 -0.0663
 8466SOL     OW36856   2.535   0.533  11.238  0.1888 -0.4507  0.0244
 8466SOL    HW136857   2.615   0.481  11.239  0.5291  0.0635 -1.4006
 8466SOL    HW236858   2.583   0.615  11.229 -0.2944 -0.2097 -0.3697
 8467SOL     OW36859   3.484   3.152   3.507 -0.1888 -0.3654 -0.2467
 8467SOL    HW136860   3.462   3.060   3.525  0.4777 -0.3116  0.8055
 8467SOL    HW236861   3.414   3.179   3.447 -0.9777 -2.4845 -0.2815
 8468SOL     OW36862   2.999   3.059   3.966 -0.2607 -0.5414  0.2648
 8468SOL    HW136863   2.926   3.011   4.004 -2.8571  1.7564 -1.8357
 8468SOL    HW236864   2.969   3.067   3.875 -1.2164  0.3018  0.6630
 8469SOL     OW36865   3.795   3.761   2.004  0.2974  0.8527 -0.1890
 8469SOL    HW136866   3.796   3.793   1.913  1.3901  0.5968 -0.2718
 8469SOL    HW236867   3.830   3.673   1.989 -2.6817 -0.5737  1.2879
 8470SOL     OW36868   2.780   2.699   5.388 -0.5337  0.0529  0.0071
 8470SOL    HW136869   2.849   2.705   5.322 -0.5485  0.2807  0.0154
 8470SOL    HW236870   2.700   2.693   5.334  0.8921  1.0512 -2.1964
 8471SOL     OW36871   2.913   0.636  11.575 -0.0914 -0.2966 -0.2822
 8471SOL    HW136872   3.002   0.668  11.594  0.3570 -0.2482 -2.4738
 8471SOL    HW236873   2.882   0.622  11.664 -1.0423  0.0227 -0.5681
 8472SOL     OW36874   1.613   2.820  12.738 -0.5383 -0.9092  0.4559
 8472SOL    HW136875   1.529   2.852  12.707  0.2077  1.1972  0.5710
 8472SOL    HW236876   1.644   2.793  12.651  0.2301  0.6028  0.2560
 8473SOL     OW36877   3.674   0.757  12.458 -0.1055  0.2654 -0.0645
 8473SOL    HW136878   3.675   0.688  12.392  2.3974 -1.1604  1.4317
 8473SOL    HW236879   3.745   0.730  12.517 -0.8031 -1.6829 -0.1192
 8474SOL     OW36880   1.814   1.044   4.701 -0.3911  0.1964  0.0839
 8474SOL    HW136881   1.831   1.104   4.773  0.9572  0.6223 -0.5828
 8474SOL    HW236882   1.785   1.106   4.635 -0.9837 -2.2107 -1.9148
 8475SOL     OW36883   1.499   0.590   4.632 -0.2826  0.3410  0.4390
 8475SOL    HW136884   1.485   0.665   4.688  0.2329  2.3571 -2.1212
 8475SOL    HW236885   1.592   0.602   4.613 -0.4148  1.4491  0.5452
 8476SOL     OW36886   4.545   4.440   1.251 -0.4917  0.3474 -0.3630
 8476SOL    HW136887   4.548   4.472   1.161 -0.7972 -2.2264 -1.2792
 8476SOL    HW236888   4.639   4.448   1.266 -0.4726 -1.4583  0.4952
 8477SOL     OW36889   1.330   2.374   3.158  0.1862  0.4526  0.5634
 8477SOL    HW136890   1.362   2.357   3.069 -1.8234  2.2318 -0.4998
 8477SOL    HW236891   1.235   2.367   3.148  0.5052 -1.6707 -0.9219
 8478SOL     OW36892   4.485   2.453   8.877 -0.1038 -0.3122  0.5708
 8478SOL    HW136893   4.575   2.440   8.908  0.1381 -0.6823 -0.2851
 8478SOL    HW236894   4.435   2.484   8.953 -0.3189  1.3990 -0.2764
 8479SOL     OW36895   1.213   3.076   6.264 -0.0545 -0.2597  0.8722
 8479SOL    HW136896   1.126   3.061   6.227  0.8663 -1.0491 -0.9329
 8479SOL    HW236897   1.258   3.000   6.227 -0.7448 -0.0017 -0.5057
 8480SOL     OW36898   2.336   4.594   3.536 -0.3401 -0.3229 -0.3336
 8480SOL    HW136899   2.357   4.673   3.487  0.4862 -0.8824 -0.8737
 8480SOL    HW236900   2.416   4.544   3.527 -0.9719 -1.1489 -1.3465
 8481SOL     OW36901   0.824   3.417   1.782  0.2600 -0.4086 -0.0045
 8481SOL    HW136902   0.878   3.375   1.849 -3.0371 -1.0411  2.2414
 8481SOL    HW236903   0.750   3.438   1.840  0.0617 -2.3622  0.4465
 8482SOL     OW36904   0.995   3.773   0.050 -0.4991 -0.6631  0.4193
 8482SOL    HW136905   0.950   3.826  17.682  0.7065 -0.4580 -0.2282
 8482SOL    HW236906   0.956   3.690   0.022 -0.5379 -1.4713  2.8637
 8483SOL     OW36907   4.557   3.060   2.081  0.6550  0.3495  0.0018
 8483SOL    HW136908   4.587   3.128   2.141 -0.2884  0.8803 -0.1227
 8483SOL    HW236909   4.568   2.984   2.139 -0.1204  0.1984 -0.0466
 8484SOL     OW36910   3.553   0.482  12.439  0.2360  0.0697 -0.3728
 8484SOL    HW136911   3.495   0.407  12.451 -0.2224  0.4595 -0.1874
 8484SOL    HW236912   3.533   0.539  12.513  0.5940 -1.4010  0.8790
 8485SOL     OW36913   2.522   0.019   8.059 -0.1777  0.1128 -0.0523
 8485SOL    HW136914   2.522   4.653   8.027 -2.4358  1.1974 -3.0972
 8485SOL    HW236915   2.441   0.012   8.108 -0.1202 -0.0807  0.0139
 8486SOL     OW36916   1.943   1.366  13.118 -0.6553 -0.0098 -0.2503
 8486SOL    HW136917   1.994   1.358  13.038  1.2478 -0.0265  0.9529
 8486SOL    HW236918   1.869   1.311  13.093 -0.9870 -0.4871  1.7976
 8487SOL     OW36919   2.576   2.025   3.057  0.6469  0.1707 -0.2899
 8487SOL    HW136920   2.551   1.988   2.973 -1.6671 -0.3192  0.6390
 8487SOL    HW236921   2.645   1.966   3.088 -0.4224 -0.4183  0.9602
 8488SOL     OW36922   4.154   0.743   8.069 -0.1274 -0.1672  0.5120
 8488SOL    HW136923   4.067   0.773   8.097  0.1703  0.4550  0.7501
 8488SOL    HW236924   4.207   0.731   8.148 -0.9607 -0.5866  1.0096
 8489SOL     OW36925   3.080   4.289   5.782  0.8821  0.7412 -0.5719
 8489SOL    HW136926   2.998   4.306   5.736  0.3380  0.5174  0.3187
 8489SOL    HW236927   3.071   4.195   5.797 -1.2283  1.0781  0.1623
 8490SOL     OW36928   0.471   4.366  10.455 -0.0061 -0.3109 -0.1865
 8490SOL    HW136929   0.551   4.407  10.489 -1.2075  3.2347 -1.6581
 8490SOL    HW236930   0.481   4.274  10.480  0.5578  0.6000  3.0003
 8491SOL     OW36931   4.466   4.102   8.363 -0.0977 -0.1123  0.3553
 8491SOL    HW136932   4.539   4.133   8.309  0.2060 -2.4566 -0.5585
 8491SOL    HW236933   4.390   4.158   8.346  0.1722  0.4819  1.1124
 8492SOL     OW36934   3.485   1.491   7.900 -0.0800  0.7389  0.2313
 8492SOL    HW136935   3.539   1.562   7.933  0.6917  0.8500 -1.2438
 8492SOL    HW236936   3.534   1.424   7.948  0.4429  0.0445 -1.2458
 8493SOL     OW36937   0.197   4.699   4.244  0.2484 -0.2598  0.0533
 8493SOL    HW136938   0.119   4.645   4.256  1.2456 -1.4140  1.1660
 8493SOL    HW236939   0.177   0.046   4.182  2.4221 -0.7798 -1.2579
 8494SOL     OW36940   3.097   1.397  15.569 -0.2945  0.2199  0.0814
 8494SOL    HW136941   3.119   1.337  15.498 -1.7855 -1.4841  1.0445
 8494SOL    HW236942   3.006   1.379  15.594 -0.8730  0.1259 -2.0243
 8495SOL     OW36943   3.033   3.128  17.015 -0.5489  0.1062  0.1600
 8495SOL    HW136944   3.014   3.141  17.108  1.2135 -0.3569  0.5864
 8495SOL    HW236945   3.085   3.048  17.013 -0.7156 -0.0603  2.2488
 8496SOL     OW36946   1.399   0.868   0.113 -0.1035  0.3348  0.2448
 8496SOL    HW136947   1.386   0.807   0.186  3.4583 -2.0240 -1.0596
 8496SOL    HW236948   1.494   0.879   0.114 -0.3181  2.1007  0.8105
 8497SOL     OW36949   3.539   2.496   5.611  0.0179  0.1270  0.4803
 8497SOL    HW136950   3.562   2.489   5.704  1.7325  1.6120  0.1842
 8497SOL    HW236951   3.557   2.407   5.582 -0.4363 -0.6242  2.4923
 8498SOL     OW36952   4.690   1.751   1.876  0.2560  0.2022  0.1311
 8498SOL    HW136953   4.627   1.814   1.911  0.1580  0.6449 -0.8356
 8498SOL    HW236954   4.706   1.705   1.958  1.8793  1.5527  0.5854
 8499SOL     OW36955   2.487   3.385   6.598 -0.7802 -0.0356  0.5189
 8499SOL    HW136956   2.408   3.339   6.625 -0.9506 -0.8668 -1.3613
 8499SOL    HW236957   2.525   3.401   6.684 -1.2307 -1.5896  1.0121
 8500SOL     OW36958   2.396   1.709   9.905  0.1493  0.4827  0.0267
 8500SOL    HW136959   2.467   1.669   9.955  0.4083 -0.6344 -1.2304
 8500SOL    HW236960   2.323   1.693   9.964  0.0910 -3.1449 -1.0436
 8501SOL     OW36961   2.296   4.418   2.304  0.2896  0.1367  0.4632
 8501SOL    HW136962   2.361   4.350   2.321 -0.0143 -0.0627  0.8533
 8501SOL    HW236963   2.309   4.471   2.383 -1.3247 -0.0767  0.8895
 8502SOL     OW36964   2.365   0.636   7.293 -0.3259  0.6221 -0.0403
 8502SOL    HW136965   2.438   0.610   7.348 -0.4175 -0.1987 -0.3043
 8502SOL    HW236966   2.398   0.695   7.225  3.9907 -1.0951  0.5745
 8503SOL     OW36967   3.014   1.242   5.981  0.1693 -0.4970 -0.7201
 8503SOL    HW136968   2.959   1.303   6.028  0.2705 -4.1369  4.1261
 8503SOL    HW236969   3.074   1.225   6.054 -1.4400 -1.2679  0.4095
 8504SOL     OW36970   2.927   2.168   3.063 -0.0358 -0.2917 -0.1329
 8504SOL    HW136971   2.856   2.174   3.126  0.6683  1.6793  0.4720
 8504SOL    HW236972   2.903   2.095   3.005  0.9991 -0.5752 -0.2165
 8505SOL     OW36973   1.866   1.267   0.184  0.1805 -0.0352 -0.4384
 8505SOL    HW136974   1.906   1.191   0.142 -0.5779 -1.0284  0.6666
 8505SOL    HW236975   1.915   1.283   0.265 -1.1468  1.1659  0.1225
 8506SOL     OW36976   2.426   1.153   8.081  0.3070  0.4475 -0.1095
 8506SOL    HW136977   2.372   1.232   8.082  0.2180  0.3957 -1.5046
 8506SOL    HW236978   2.509   1.190   8.111  0.8947  1.7784 -3.3827
 8507SOL     OW36979   2.144   1.474   5.010 -0.2744 -0.3110  0.2505
 8507SOL    HW136980   2.080   1.511   4.949 -0.8672 -2.0192 -0.1645
 8507SOL    HW236981   2.100   1.403   5.057  1.2315 -1.1206  0.4333
 8508SOL     OW36982   0.262   1.926   0.564 -0.0365  0.4035 -0.0541
 8508SOL    HW136983   0.196   1.913   0.496 -1.8993  0.2425  1.7949
 8508SOL    HW236984   0.212   1.908   0.643 -1.6418  1.6633 -0.7786
 8509SOL     OW36985   2.168   2.462  17.417 -0.0291  0.4702 -0.7863
 8509SOL    HW136986   2.200   2.462  17.327  1.0522  1.8814 -0.4016
 8509SOL    HW236987   2.243   2.433  17.468 -0.7694  0.2658  0.1821
 8510SOL     OW36988   2.848   0.683  13.725 -0.0489 -0.4359  0.4122
 8510SOL    HW136989   2.890   0.754  13.676 -0.1127  1.1121  2.6071
 8510SOL    HW236990   2.764   0.675  13.678 -0.6270  2.4786  0.9373
 8511SOL     OW36991   2.791   0.903   6.395 -0.1088 -0.2237 -0.5285
 8511SOL    HW136992   2.699   0.875   6.396 -0.7417  1.8407 -0.0393
 8511SOL    HW236993   2.814   0.875   6.307 -0.5001 -0.8903 -0.4206
 8512SOL     OW36994   0.364   0.108   3.410 -0.3517 -0.4217  0.3645
 8512SOL    HW136995   0.416   0.173   3.363 -2.6229 -0.4472 -2.1390
 8512SOL    HW236996   0.380   0.036   3.350 -2.2119  0.9915 -1.8042
 8513SOL     OW36997   2.079   1.443   6.955 -0.0130 -0.4418  0.4584
 8513SOL    HW136998   2.022   1.506   7.000  2.0802  2.4388 -0.9420
 8513SOL    HW236999   2.165   1.462   6.993  0.2943  0.3213 -0.6204
 8514SOL     OW37000   1.873   2.611   2.001  0.2447 -0.1446  0.0096
 8514SOL    HW137001   1.897   2.658   2.081  0.7012 -0.1398 -0.1347
 8514SOL    HW237002   1.803   2.561   2.045 -1.1195 -0.1250 -2.1329
 8515SOL     OW37003   1.840   2.168   0.646  0.2437 -0.2377 -0.1098
 8515SOL    HW137004   1.911   2.150   0.708 -1.6069 -0.7958  1.8114
 8515SOL    HW237005   1.763   2.124   0.682 -0.5112  1.6035  0.5332
 8516SOL     OW37006   4.335   1.601  15.265  0.5423 -0.3344  0.1214
 8516SOL    HW137007   4.250   1.635  15.236  1.6338  0.9372 -1.6106
 8516SOL    HW237008   4.311   1.552  15.343 -3.1068  0.6188 -0.4245
 8517SOL     OW37009   4.276   0.666   5.558 -0.0592 -0.1769  0.4299
 8517SOL    HW137010   4.323   0.681   5.640 -0.4068 -2.7867  1.1267
 8517SOL    HW237011   4.186   0.654   5.587  0.7618 -0.7884  2.7309
 8518SOL     OW37012   4.285   4.293  17.570 -0.0640 -0.1773 -0.4961
 8518SOL    HW137013   4.285   4.253  17.656  1.5017 -1.9014 -1.3061
 8518SOL    HW237014   4.343   4.368  17.584 -0.7842 -0.0598  1.8589
 8519SOL     OW37015   2.841   4.535   3.103  0.7520 -0.0055  0.2124
 8519SOL    HW137016   2.818   4.522   3.195  3.6854  0.6613  1.0237
 8519SOL    HW237017   2.855   4.628   3.084  1.3109  0.4047  2.6539
 8520SOL     OW37018   2.343   1.385  11.778 -0.5333 -0.1289 -0.3236
 8520SOL    HW137019   2.251   1.393  11.752 -0.9299  0.8880  1.3881
 8520SOL    HW237020   2.337   1.373  11.873 -1.5629  0.3573 -0.3244
 8521SOL     OW37021   1.708   3.543   6.436  0.0490 -0.1739  0.2290
 8521SOL    HW137022   1.641   3.586   6.489 -0.9946 -1.3579 -0.1180
 8521SOL    HW237023   1.780   3.575   6.490  0.7001  1.8713 -1.8420
 8522SOL     OW37024   3.208   3.281   8.176 -0.3587 -0.0027 -0.0748
 8522SOL    HW137025   3.202   3.218   8.248 -0.9971 -1.6693 -1.5581
 8522SOL    HW237026   3.296   3.317   8.168 -0.8684  1.2118 -0.1807
 8523SOL     OW37027   1.939   0.150   0.976  0.1366 -0.0079  0.6881
 8523SOL    HW137028   1.868   0.129   0.915  1.6267 -0.4293 -0.8938
 8523SOL    HW237029   1.944   0.063   1.015 -0.5760 -0.3245  0.0676
 8524SOL     OW37030   1.250   0.005   0.316  0.5235 -0.1380 -0.5777
 8524SOL    HW137031   1.267   4.709   0.224 -2.9659 -0.5130 -1.1425
 8524SOL    HW237032   1.159   4.700   0.327  0.4717  0.1796 -0.1744
 8525SOL     OW37033   1.696   0.349   8.616 -0.4881  0.2956 -0.1315
 8525SOL    HW137034   1.611   0.312   8.594 -0.3861  0.0324 -0.0764
 8525SOL    HW237035   1.722   0.372   8.527  1.7134  2.1332  0.9928
 8526SOL     OW37036   0.848   3.994   7.202 -0.6371 -0.4217 -0.1219
 8526SOL    HW137037   0.796   4.056   7.150 -1.1768 -2.4739 -2.0512
 8526SOL    HW237038   0.871   4.055   7.271  2.9899  1.1689 -2.7017
 8527SOL     OW37039   2.286   4.459   7.820 -0.1511  0.1637  0.2205
 8527SOL    HW137040   2.300   4.485   7.729 -0.1530  1.5466  0.6261
 8527SOL    HW237041   2.233   4.381   7.802 -1.2941  0.2568  3.2537
 8528SOL     OW37042   3.005   3.497  14.846 -0.4264  0.3421 -0.1755
 8528SOL    HW137043   3.027   3.516  14.937  0.7762 -1.1793 -0.1526
 8528SOL    HW237044   2.996   3.402  14.848  0.2861  0.2645 -0.4645
 8529SOL     OW37045   2.129   1.138   9.637 -0.2125 -0.1293 -0.2303
 8529SOL    HW137046   2.219   1.123   9.608 -1.1217 -3.9254 -1.1506
 8529SOL    HW237047   2.147   1.197   9.710  1.9717 -0.3689 -0.5742
 8530SOL     OW37048   2.806   1.262   3.577 -0.3051  0.3953 -0.5239
 8530SOL    HW137049   2.772   1.306   3.498 -1.5857 -1.6631 -1.1319
 8530SOL    HW237050   2.789   1.332   3.640  2.2934 -0.7520  1.4287
 8531SOL     OW37051   0.026   2.320   7.354  0.1518  0.2597 -0.4618
 8531SOL    HW137052   0.003   2.284   7.439 -1.6784  2.0420 -0.1996
 8531SOL    HW237053   4.674   2.296   7.301  0.6046  0.1175 -1.0503
 8532SOL     OW37054   2.630   4.279   3.595  0.0288 -0.1314 -0.3480
 8532SOL    HW137055   2.700   4.226   3.555  0.0815 -0.7371  0.5523
 8532SOL    HW237056   2.638   4.261   3.688 -1.0166 -1.2754 -0.4718
 8533SOL     OW37057   1.263   3.236   7.640  0.8092 -0.0232 -0.6639
 8533SOL    HW137058   1.181   3.211   7.684  1.6974 -0.7441  0.5810
 8533SOL    HW237059   1.307   3.155   7.618  2.2753  1.1135 -1.8641
 8534SOL     OW37060   0.497   1.226   7.607  0.2182 -0.2104  0.0898
 8534SOL    HW137061   0.578   1.261   7.644 -0.0805 -1.1408  1.6251
 8534SOL    HW237062   0.448   1.194   7.683 -0.9332 -0.3834 -0.7168
 8535SOL     OW37063   1.263   0.088   1.210  0.2597 -0.2508  0.5212
 8535SOL    HW137064   1.253   0.171   1.164 -0.5515  1.1356  3.2421
 8535SOL    HW237065   1.257   0.031   1.133  0.1538  1.0283 -0.4221
 8536SOL     OW37066   4.032   2.322   3.355 -0.0548 -0.0182  0.1779
 8536SOL    HW137067   4.055   2.411   3.330 -3.6525  1.6652  2.8655
 8536SOL    HW237068   4.043   2.276   3.271  1.1271  0.1800  0.2228
 8537SOL     OW37069   4.323   0.672   3.605  0.4278 -0.4868 -0.1683
 8537SOL    HW137070   4.289   0.738   3.544 -0.1968  0.4076  1.1281
 8537SOL    HW237071   4.247   0.668   3.664  0.6436  0.0075  0.1415
 8538SOL     OW37072   2.148   2.513   7.252  0.2884  0.8932  0.2384
 8538SOL    HW137073   2.129   2.489   7.343  0.0070  0.1364 -0.0219
 8538SOL    HW237074   2.119   2.604   7.259 -0.6221  0.4756  1.8469
 8539SOL     OW37075   4.709   3.647   4.483  0.3893 -0.7577  0.6319
 8539SOL    HW137076   4.639   3.710   4.464  2.5530  0.6891 -2.5476
 8539SOL    HW237077   4.686   3.628   4.574 -0.1904  1.8625  1.0420
 8540SOL     OW37078   4.599   0.896   8.827  0.0261 -0.1559  0.1484
 8540SOL    HW137079   4.676   0.937   8.868 -0.1465  1.0541 -0.7500
 8540SOL    HW237080   4.568   0.968   8.773 -2.9055 -1.2574  0.4147
 8541SOL     OW37081   4.527   1.728   3.453 -0.3930 -0.0208  0.1612
 8541SOL    HW137082   4.448   1.782   3.453  0.0171  0.5713  1.5795
 8541SOL    HW237083   4.576   1.807   3.479  1.5716 -1.3728  0.5802
 8542SOL     OW37084   0.173   3.359   6.510  0.6024 -0.3958 -0.2080
 8542SOL    HW137085   0.165   3.419   6.436 -0.4703 -0.5336 -0.2059
 8542SOL    HW237086   0.249   3.403   6.549 -0.4787 -0.6629  2.1987
 8543SOL     OW37087   3.629   2.863   4.703  0.4858 -0.1055 -0.2239
 8543SOL    HW137088   3.576   2.943   4.702  2.9363  1.5478 -0.8665
 8543SOL    HW237089   3.574   2.810   4.645  0.1651 -0.0269  0.0129
 8544SOL     OW37090   0.856   4.341   2.919  0.1071 -0.0506  0.2764
 8544SOL    HW137091   0.763   4.347   2.944 -0.0054  5.3091 -1.3000
 8544SOL    HW237092   0.894   4.348   3.007  1.5651 -2.8051 -0.1463
 8545SOL     OW37093   0.364   2.849  10.426 -0.1390  0.3114  0.1845
 8545SOL    HW137094   0.450   2.819  10.394  0.2106  2.9414 -1.3697
 8545SOL    HW237095   0.317   2.832  10.344  2.2938 -0.4236 -1.0575
 8546SOL     OW37096   3.849   4.200   0.022 -0.4508  0.8054 -0.3565
 8546SOL    HW137097   3.804   4.162   0.098 -0.0945 -1.5246 -1.3283
 8546SOL    HW237098   3.780   4.202  17.654  0.7135 -1.7876 -1.6521
 8547SOL     OW37099   0.442   1.306   1.935 -0.0877 -0.6345  0.8125
 8547SOL    HW137100   0.534   1.277   1.939 -0.4155 -1.5289  1.9030
 8547SOL    HW237101   0.441   1.354   1.853  0.3548 -0.9948  0.5972
 8548SOL     OW37102   4.633   2.438   2.426  0.9292  0.2914 -0.4370
 8548SOL    HW137103   4.617   2.509   2.363  2.9755 -0.3559 -1.7016
 8548SOL    HW237104   4.580   2.473   2.497 -1.7505  0.2168 -2.3850
 8549SOL     OW37105   4.334   4.220   3.591  0.8971  0.0823  0.2904
 8549SOL    HW137106   4.396   4.218   3.664  0.5734  2.3553  0.6338
 8549SOL    HW237107   4.384   4.245   3.513 -1.1418 -0.3301 -1.1406
 8550SOL     OW37108   2.353   2.032   1.373 -0.5959 -0.3562  0.2297
 8550SOL    HW137109   2.400   1.959   1.414  2.1729  0.8719 -0.7880
 8550SOL    HW237110   2.430   2.086   1.359 -1.0084  0.1071 -0.2749
 8551SOL     OW37111   2.683   3.839   9.276  0.7658  0.1221  0.4009
 8551SOL    HW137112   2.708   3.747   9.279  1.1048  0.2045  0.1477
 8551SOL    HW237113   2.673   3.836   9.181 -0.6868  0.6373  0.5388
 8552SOL     OW37114   3.019   3.883  15.733 -0.4496 -0.1225 -0.0263
 8552SOL    HW137115   3.106   3.900  15.695 -0.4516  0.2427  0.1316
 8552SOL    HW237116   3.005   3.789  15.718  2.9629 -0.6243 -0.1279
 8553SOL     OW37117   3.589   4.572  10.955 -0.3415  0.3124 -0.1591
 8553SOL    HW137118   3.529   4.591  10.883  2.6344 -0.2724 -2.7966
 8553SOL    HW237119   3.549   4.621  11.027 -1.7840 -0.8125 -0.2015
 8554SOL     OW37120   3.617   3.363  15.514  0.2150 -0.1030  0.3183
 8554SOL    HW137121   3.634   3.318  15.596  0.1818 -0.4400  0.1400
 8554SOL    HW237122   3.686   3.429  15.505  1.1953 -1.0879  0.6394
 8555SOL     OW37123   3.117   2.475   2.664 -0.1032  0.1106  0.4352
 8555SOL    HW137124   3.170   2.550   2.638  1.6789 -1.7013 -1.1708
 8555SOL    HW237125   3.156   2.406   2.610 -1.2996 -0.4577  0.2894
 8556SOL     OW37126   3.916   1.409   9.604 -0.1555 -0.6623 -0.6917
 8556SOL    HW137127   3.887   1.499   9.596 -0.8797 -0.5750  2.5732
 8556SOL    HW237128   3.860   1.368   9.670 -1.7175  0.4255 -1.3421
 8557SOL     OW37129   1.029   1.508   6.502 -0.1713  0.5717  0.3816
 8557SOL    HW137130   1.069   1.563   6.570 -0.1176  1.1790 -0.1448
 8557SOL    HW237131   1.024   1.423   6.547  1.2507  0.7736  0.9204
 8558SOL     OW37132   1.903   2.945   5.402  0.6000  0.4074  0.0180
 8558SOL    HW137133   1.871   2.870   5.451 -2.4124  2.0500  0.5935
 8558SOL    HW237134   1.887   3.021   5.458  0.7929  1.0550 -0.8018
 8559SOL     OW37135   0.011   0.416   1.510 -0.6849  0.0958 -0.4977
 8559SOL    HW137136   0.053   0.405   1.424  3.7780 -0.1319  1.7242
 8559SOL    HW237137   0.029   0.509   1.527  0.1702 -0.2257  0.3412
 8560SOL     OW37138   2.161   1.777  14.124 -0.3794 -0.1323 -0.0123
 8560SOL    HW137139   2.067   1.777  14.108 -0.2450 -2.0156 -0.8339
 8560SOL    HW237140   2.180   1.868  14.146  1.5504 -0.4651 -0.2975
 8561SOL     OW37141   0.425   3.673  11.444  0.2948  0.8790 -0.1718
 8561SOL    HW137142   0.425   3.753  11.496  1.4769  0.2225  0.8360
 8561SOL    HW237143   0.417   3.608  11.514 -0.1407  0.8925 -0.2095
 8562SOL     OW37144   0.284   1.590   2.038  0.2943 -0.2757  0.1226
 8562SOL    HW137145   0.235   1.554   1.964  1.4730 -1.0073 -0.2907
 8562SOL    HW237146   0.376   1.565   2.029  0.2426 -0.4016 -0.0628
 8563SOL     OW37147   0.867   4.549  17.227  0.0151 -0.0347 -0.3079
 8563SOL    HW137148   0.945   4.560  17.171  0.1469  1.3338  0.1612
 8563SOL    HW237149   0.798   4.525  17.165  0.1502 -0.1569 -0.4141
 8564SOL     OW37150   4.242   0.037   6.623 -0.1466  0.5170  0.2760
 8564SOL    HW137151   4.258   0.085   6.541 -2.5533 -1.4250 -1.3343
 8564SOL    HW237152   4.151   0.010   6.615  0.2054 -0.4411 -0.5049
 8565SOL     OW37153   0.352   3.286   5.743  0.2643  0.0420 -0.0537
 8565SOL    HW137154   0.382   3.323   5.827 -0.3673  2.2181 -0.7923
 8565SOL    HW237155   0.324   3.200   5.775 -2.4787  1.0042  0.1098
 8566SOL     OW37156   3.272   2.782  10.779  0.5431  0.3469  0.2382
 8566SOL    HW137157   3.195   2.735  10.747  1.6750 -0.5639 -1.1630
 8566SOL    HW237158   3.227   2.818  10.855  1.8418  2.7579 -0.1272
 8567SOL     OW37159   2.805   3.987   1.283  0.1010 -0.4534 -0.0744
 8567SOL    HW137160   2.840   4.070   1.315 -1.0133  0.1076 -0.3224
 8567SOL    HW237161   2.862   3.927   1.331 -0.9771 -0.7609  0.8046
 8568SOL     OW37162   1.594   3.552   5.822 -0.4098 -0.0759  0.0118
 8568SOL    HW137163   1.572   3.568   5.731  0.6857 -0.9326 -0.4113
 8568SOL    HW237164   1.689   3.567   5.820 -0.3439 -0.6715 -1.3145
 8569SOL     OW37165   3.435   2.160   2.756 -0.0527 -0.4126  0.4708
 8569SOL    HW137166   3.446   2.168   2.850 -0.8362 -0.9625  0.6100
 8569SOL    HW237167   3.381   2.081   2.748  0.1549 -0.4555 -0.5969
 8570SOL     OW37168   1.643   2.937   2.608  0.6703 -0.0049  0.0603
 8570SOL    HW137169   1.725   2.912   2.565 -0.3733  0.6470 -2.3331
 8570SOL    HW237170   1.686   3.009   2.654  3.2047 -0.8551 -0.9581
 8571SOL     OW37171   0.054   0.786   9.069  0.1787 -0.2222 -0.5196
 8571SOL    HW137172   0.035   0.866   9.020  4.2319  2.0316  1.5918
 8571SOL    HW237173   0.033   0.814   9.158  3.0624 -0.8179  0.3486
 8572SOL     OW37174   2.896   4.457   2.555  0.5461 -0.3089  0.7363
 8572SOL    HW137175   2.951   4.523   2.512  0.5008 -0.1133  0.9750
 8572SOL    HW237176   2.963   4.388   2.554  1.2487  0.4126 -1.7250
 8573SOL     OW37177   3.540   2.491   6.101 -0.3320  0.5885  0.3596
 8573SOL    HW137178   3.561   2.443   6.021  2.0525  0.1742  1.2245
 8573SOL    HW237179   3.450   2.463   6.114 -0.3605 -0.4366 -2.0236
 8574SOL     OW37180   1.098   1.795   3.427  0.5977  0.5098  0.0378
 8574SOL    HW137181   1.083   1.853   3.353 -0.6711  0.9994  0.6667
 8574SOL    HW237182   1.096   1.702   3.406 -1.4986  0.6302 -0.3440
 8575SOL     OW37183   2.875   0.544   5.057 -0.3459 -0.4100  0.2191
 8575SOL    HW137184   2.826   0.625   5.070 -1.2364 -1.0509  0.8442
 8575SOL    HW237185   2.851   0.509   4.971  0.0996 -3.0814  1.1849
 8576SOL     OW37186   0.059   1.934   0.400  0.0901  0.5893  0.5592
 8576SOL    HW137187   4.693   1.948   0.429 -0.7370  2.0155 -2.7293
 8576SOL    HW237188   0.050   1.929   0.305 -2.3861 -1.9932  0.9542
 8577SOL     OW37189   0.391   4.553   8.217  0.1047 -0.3939 -0.1775
 8577SOL    HW137190   0.471   4.504   8.240  0.0540 -0.1863  0.4442
 8577SOL    HW237191   0.431   4.629   8.175  1.5534 -1.2869 -0.4228
 8578SOL     OW37192   4.424   4.533  12.822 -0.3376 -0.0657  0.0402
 8578SOL    HW137193   4.492   4.470  12.800 -0.8769  0.0168 -1.9009
 8578SOL    HW237194   4.451   4.549  12.912 -0.2459 -0.1494  0.0275
 8579SOL     OW37195   3.583   2.976   4.350 -0.0309 -0.2032  0.6009
 8579SOL    HW137196   3.642   3.021   4.410  2.9988 -1.8973 -1.1004
 8579SOL    HW237197   3.516   3.043   4.355 -1.1446 -1.3667  1.2504
 8580SOL     OW37198   3.489   1.645   4.052 -0.0725 -0.1152 -0.2249
 8580SOL    HW137199   3.542   1.721   4.025  0.0856 -0.8261 -1.9078
 8580SOL    HW237200   3.436   1.678   4.124  2.0132  2.0206  0.3452
 8581SOL     OW37201   2.181   4.000   6.401 -0.0119  0.1560  0.5784
 8581SOL    HW137202   2.182   4.056   6.323 -1.3020 -1.1198 -0.3291
 8581SOL    HW237203   2.276   3.986   6.406 -0.1161 -0.3546  1.1600
 8582SOL     OW37204   1.443   4.344   3.499 -0.4020  0.4492  0.2785
 8582SOL    HW137205   1.500   4.351   3.575  2.2333  0.8980 -1.7184
 8582SOL    HW237206   1.497   4.273   3.464 -0.8395  1.3317 -2.2203
 8583SOL     OW37207   3.052   2.085   6.601  0.4178  0.5845 -0.1668
 8583SOL    HW137208   3.022   2.136   6.677  0.2188  2.0276 -1.2176
 8583SOL    HW237209   3.067   1.998   6.638 -0.5337  0.3507 -0.3406
 8584SOL     OW37210   3.283   0.217   6.013  0.3537 -0.2464  0.6127
 8584SOL    HW137211   3.257   0.165   6.089  1.7054 -0.6670  0.7921
 8584SOL    HW237212   3.256   0.159   5.942  2.4726  2.5670 -2.4728
 8585SOL     OW37213   2.474   3.586   7.394  0.0768  0.2327  0.2479
 8585SOL    HW137214   2.424   3.667   7.403  0.0166  0.5882 -3.2752
 8585SOL    HW237215   2.439   3.559   7.309 -0.9327  0.2619  0.6509
 8586SOL     OW37216   0.199   4.589   9.367 -0.2228 -0.6717  0.2193
 8586SOL    HW137217   0.114   4.555   9.339 -0.7360  1.9895 -1.5601
 8586SOL    HW237218   0.257   4.524   9.327  0.8768  0.6951 -0.4411
 8587SOL     OW37219   4.328   2.067  15.953 -0.7998  0.1758  0.4760
 8587SOL    HW137220   4.346   2.074  15.859 -1.4872  2.1520  0.4999
 8587SOL    HW237221   4.377   1.986  15.970 -1.9471 -0.3923  1.0243
 8588SOL     OW37222   0.392   3.489   6.587 -1.0746 -0.3997  0.5344
 8588SOL    HW137223   0.355   3.573   6.615  0.3946  0.4329  0.0229
 8588SOL    HW237224   0.484   3.516   6.588 -1.1374 -0.1802  0.3771
 8589SOL     OW37225   1.628   4.110  16.283  0.5642  0.2898  0.0436
 8589SOL    HW137226   1.630   4.105  16.188  1.8196  0.8520  0.0493
 8589SOL    HW237227   1.640   4.019  16.310 -0.9055  0.5013  1.4848
 8590SOL     OW37228   0.595   1.172   8.391 -0.2365 -0.5749  0.1686
 8590SOL    HW137229   0.605   1.255   8.438  1.0385 -0.1319 -0.8616
 8590SOL    HW237230   0.647   1.117   8.449  1.8249 -0.2033 -1.3003
 8591SOL     OW37231   4.391   3.687   6.707 -0.3070  0.0919 -0.5205
 8591SOL    HW137232   4.337   3.626   6.657  2.0698 -3.7064  1.5917
 8591SOL    HW237233   4.457   3.625   6.739 -0.1435  1.4727  1.8383
 8592SOL     OW37234   0.303   1.372   0.926 -0.3391  0.4749 -0.5171
 8592SOL    HW137235   0.234   1.437   0.913  1.2767  2.0141 -1.3101
 8592SOL    HW237236   0.363   1.423   0.872  0.6113  1.2490  1.2712
 8593SOL     OW37237   2.641   2.790   2.351  0.2522  0.1939  0.0455
 8593SOL    HW137238   2.641   2.835   2.267  0.5296  0.0754 -0.0179
 8593SOL    HW237239   2.548   2.774   2.365  0.4554 -2.0035 -1.1444
 8594SOL     OW37240   0.547   2.025   2.006 -0.7022  0.3497 -0.0144
 8594SOL    HW137241   0.597   2.091   1.956  1.2870  0.7899  2.5279
 8594SOL    HW237242   0.517   1.965   1.938 -0.5182  0.6724 -0.3858
 8595SOL     OW37243   2.085   4.416   7.604  0.2975  0.3327  0.5927
 8595SOL    HW137244   1.998   4.419   7.565 -0.0221  2.8941  1.4911
 8595SOL    HW237245   2.078   4.364   7.685 -0.4622 -0.0099  0.3054
 8596SOL     OW37246   1.407   1.203   4.788 -0.0032  0.4715 -0.1335
 8596SOL    HW137247   1.324   1.193   4.743 -1.0706  0.6661  1.8050
 8596SOL    HW237248   1.430   1.292   4.761 -3.2755  1.4514  0.3885
 8597SOL     OW37249   3.110   1.397   8.339 -0.0980  0.1060  0.1739
 8597SOL    HW137250   3.017   1.381   8.352  0.0826 -1.4931 -0.5193
 8597SOL    HW237251   3.125   1.486   8.372  0.3314 -0.1903  0.7701
 8598SOL     OW37252   1.363   0.872   5.761  0.0557  0.0791 -0.5875
 8598SOL    HW137253   1.332   0.784   5.740 -0.1523  0.6145 -2.5510
 8598SOL    HW237254   1.425   0.889   5.690  0.4379  1.5480  0.0904
 8599SOL     OW37255   4.219   3.788   3.938 -0.0658 -0.1644 -0.1439
 8599SOL    HW137256   4.181   3.740   4.012 -0.5863 -2.0299 -1.6212
 8599SOL    HW237257   4.233   3.709   3.885  0.2294 -1.3432  1.6799
 8600SOL     OW37258   2.961   4.405   6.761 -0.0362 -0.5136  0.1127
 8600SOL    HW137259   2.866   4.400   6.749  0.3003 -1.8977 -1.8719
 8600SOL    HW237260   2.958   4.438   6.851  1.4353 -0.3404  0.0940
 8601SOL     OW37261   1.973   2.314   8.430 -0.2355 -0.2645 -0.3056
 8601SOL    HW137262   1.884   2.321   8.465 -0.7736  0.1912 -1.7830
 8601SOL    HW237263   2.022   2.354   8.502  0.2935  2.4240 -2.1470
 8602SOL     OW37264   3.205   0.805  16.195  0.1858  0.1159 -0.1526
 8602SOL    HW137265   3.204   0.719  16.154  1.3058 -0.1238  0.3241
 8602SOL    HW237266   3.182   0.784  16.286  2.5318 -0.7199  0.2512
 8603SOL     OW37267   0.162   1.620   0.350  0.2493 -0.0238 -0.5373
 8603SOL    HW137268   0.121   1.546   0.305  0.3735 -0.7064  0.4966
 8603SOL    HW237269   0.086   1.654   0.396  0.0776 -0.8253 -0.2250
 8604SOL     OW37270   0.901   1.346   7.101  0.9368  0.2978 -0.3850
 8604SOL    HW137271   0.907   1.430   7.145  0.7915  0.6418 -1.0166
 8604SOL    HW237272   0.977   1.290   7.116  0.2957 -0.4652  0.0156
 8605SOL     OW37273   1.608   3.749   7.687 -0.1060 -0.7168 -0.4309
 8605SOL    HW137274   1.614   3.843   7.672 -0.2852 -0.6655 -0.1758
 8605SOL    HW237275   1.583   3.718   7.601 -0.9523 -0.3330 -0.3198
 8606SOL     OW37276   1.903   3.593   4.593  0.2391  0.0386  0.7283
 8606SOL    HW137277   1.827   3.641   4.624 -0.2394  0.0844 -0.5188
 8606SOL    HW237278   1.865   3.547   4.518  0.3284 -2.0025  1.9254
 8607SOL     OW37279   1.736   0.346  13.026  0.1207  0.8099 -0.2986
 8607SOL    HW137280   1.660   0.337  13.083  0.4778 -0.5271 -0.0425
 8607SOL    HW237281   1.691   0.364  12.944  0.0000  0.8146 -0.2307
 8608SOL     OW37282   4.234   1.069   0.429 -0.7163  0.2388  0.3858
 8608SOL    HW137283   4.323   1.035   0.419 -1.7905 -2.1513 -1.0353
 8608SOL    HW237284   4.208   1.013   0.502 -0.0995 -0.4920  0.0565
 8609SOL     OW37285   3.948   2.060   9.017 -0.2782  0.5683 -0.5072
 8609SOL    HW137286   3.963   2.012   9.098  0.7696  1.2795 -0.2712
 8609SOL    HW237287   3.947   2.147   9.057 -1.0068  1.5322 -2.6261
 8610SOL     OW37288   4.647   2.865   2.808 -0.4218 -0.2113  0.1171
 8610SOL    HW137289   4.586   2.934   2.835  0.3955  0.7565 -0.4813
 8610SOL    HW237290   4.710   2.872   2.880  0.5332  1.1349 -0.8276
 8611SOL     OW37291   3.845   2.860   2.279  0.6114 -0.0064 -0.2447
 8611SOL    HW137292   3.881   2.789   2.332  0.6808  0.3742  0.2239
 8611SOL    HW237293   3.754   2.844   2.305  0.3185  0.4126 -1.0195
 8612SOL     OW37294   1.549   4.147   0.997 -0.2611 -0.0091  0.1316
 8612SOL    HW137295   1.489   4.213   0.963 -1.0458 -1.8587 -2.1080
 8612SOL    HW237296   1.612   4.171   0.929  2.2492  0.2186  2.5558
 8613SOL     OW37297   3.437   3.055  17.420  0.2264 -0.1801 -0.0568
 8613SOL    HW137298   3.520   3.098  17.444  0.5891 -0.7846 -0.2416
 8613SOL    HW237299   3.454   3.017  17.334 -0.5346  1.5422 -0.9638
 8614SOL     OW37300   0.608   3.682   7.087 -0.9337 -0.2808 -0.3427
 8614SOL    HW137301   0.661   3.736   7.028 -1.8046  1.3519  0.3730
 8614SOL    HW237302   0.529   3.660   7.037  1.0294 -2.5973 -2.3865
 8615SOL     OW37303   4.066   1.739   3.614 -0.3204  0.7537 -0.1015
 8615SOL    HW137304   4.066   1.828   3.650  0.9148  0.0188  1.7244
 8615SOL    HW237305   4.157   1.712   3.627  0.1436  1.6055 -1.5942
 8616SOL     OW37306   4.005   4.599   6.602  0.2502 -0.1702 -0.3153
 8616SOL    HW137307   3.943   4.552   6.658  1.8790 -0.6569  1.0509
 8616SOL    HW237308   4.008   4.537   6.528 -2.2449  0.9390 -1.3400
 8617SOL     OW37309   1.207   1.069   5.451 -0.3575 -0.2678  0.5279
 8617SOL    HW137310   1.233   1.158   5.476  1.4466 -1.5170  3.0847
 8617SOL    HW237311   1.155   1.029   5.520  0.2077 -0.8945  0.5847
 8618SOL     OW37312   4.720   2.431   9.456 -0.2309 -0.7796  0.5050
 8618SOL    HW137313   4.673   2.423   9.373 -0.9060  0.9408  0.7175
 8618SOL    HW237314   4.654   2.408   9.521 -0.4316  3.6950  1.8502
 8619SOL     OW37315   0.939   2.861   2.353  0.1658  0.2061  0.3024
 8619SOL    HW137316   0.999   2.928   2.385 -0.3559  0.8055  0.0326
 8619SOL    HW237317   1.000   2.788   2.345  2.4483  1.9581  1.8673
 8620SOL     OW37318   2.112   0.202   3.046 -0.1835  0.7421 -0.2979
 8620SOL    HW137319   2.035   0.215   2.992  0.5776  1.7715 -1.1349
 8620SOL    HW237320   2.168   0.174   2.973 -1.8771  1.1406 -1.7445
 8621SOL     OW37321   1.037   0.597  13.268 -0.5541 -0.0017 -0.1055
 8621SOL    HW137322   1.077   0.513  13.247  1.0734  0.8272 -0.2773
 8621SOL    HW237323   1.102   0.630  13.330 -1.6398  2.8613 -0.5123
 8622SOL     OW37324   0.799   0.870   5.767 -0.0064 -0.1081  0.4907
 8622SOL    HW137325   0.755   0.809   5.708 -1.8278  0.7860  0.9186
 8622SOL    HW237326   0.839   0.813   5.832 -0.1597  2.9017  3.2376
 8623SOL     OW37327   3.286   3.885   8.460 -0.5755  0.0167  0.1383
 8623SOL    HW137328   3.324   3.919   8.541  2.6120 -0.3065 -1.2476
 8623SOL    HW237329   3.356   3.857   8.401  0.2536  2.3611 -0.0127
 8624SOL     OW37330   0.843   2.121   4.412  0.0239  0.0170 -0.2158
 8624SOL    HW137331   0.890   2.155   4.488  1.5015  3.0713 -2.4664
 8624SOL    HW237332   0.783   2.194   4.398  0.0609 -0.3268 -2.1594
 8625SOL     OW37333   1.826   1.272   6.336  0.0485 -0.6668 -0.0893
 8625SOL    HW137334   1.747   1.252   6.285 -1.3349 -1.8763  2.5492
 8625SOL    HW237335   1.821   1.367   6.334 -0.1282 -0.6661  0.6982
 8626SOL     OW37336   1.193   1.075   6.061 -0.4364 -0.3035 -0.2698
 8626SOL    HW137337   1.192   0.984   6.032  0.5405  0.3079 -2.2457
 8626SOL    HW237338   1.122   1.110   6.006 -0.2986  0.1225 -0.1751
 8627SOL     OW37339   3.865   3.745   5.940 -0.0398 -0.4248 -0.3461
 8627SOL    HW137340   3.876   3.650   5.944  0.1547 -0.4000 -0.2738
 8627SOL    HW237341   3.779   3.756   5.980  0.7620  1.3675  0.9053
 8628SOL     OW37342   4.488   1.382  16.070 -0.1449  0.4419 -0.7427
 8628SOL    HW137343   4.468   1.403  16.162 -0.2893 -0.3432 -0.5925
 8628SOL    HW237344   4.448   1.295  16.070  1.4677 -0.2816 -1.6583
 8629SOL     OW37345   1.958   3.291   2.121  0.7812  0.5643 -0.4112
 8629SOL    HW137346   2.011   3.369   2.140  0.9051  0.3669  0.0638
 8629SOL    HW237347   1.869   3.324   2.121  0.3442 -0.6111  0.2182
 8630SOL     OW37348   3.054   0.809  12.639 -0.0894 -0.1626 -0.5800
 8630SOL    HW137349   3.094   0.850  12.562 -0.4003  0.4011 -0.4453
 8630SOL    HW237350   3.138   0.788  12.680  0.2164 -0.3252 -1.2917
 8631SOL     OW37351   2.034   0.570  13.134 -0.1970 -0.1085 -0.3410
 8631SOL    HW137352   2.089   0.511  13.082  0.6824 -1.5817  2.2520
 8631SOL    HW237353   2.030   0.527  13.220 -2.5848 -0.5011 -0.6381
 8632SOL     OW37354   1.131   2.139  15.070 -0.3143 -0.2729 -0.7719
 8632SOL    HW137355   1.221   2.132  15.038  0.6181  1.0857  1.5982
 8632SOL    HW237356   1.108   2.046  15.072 -0.8580 -0.1251 -0.0623
 8633SOL     OW37357   1.411   2.526   6.272  0.2539  0.4586  0.4668
 8633SOL    HW137358   1.402   2.500   6.180  0.5095  2.1210 -0.0232
 8633SOL    HW237359   1.323   2.510   6.304  0.2486 -2.5055 -1.0412
 8634SOL     OW37360   0.131   1.181   9.385 -0.3687 -0.5438 -0.5612
 8634SOL    HW137361   0.182   1.173   9.466  0.0332 -1.8285 -0.9409
 8634SOL    HW237362   0.055   1.234   9.410 -1.2017 -1.1794 -1.7592
 8635SOL     OW37363   3.992   4.452   3.361  0.5126  0.0636  0.2799
 8635SOL    HW137364   4.020   4.388   3.427  2.6394  0.6074 -0.1071
 8635SOL    HW237365   3.903   4.464   3.396  0.2761 -0.9012  0.0127
 8636SOL     OW37366   4.170   1.712   2.239  0.4240 -0.1542 -0.2731
 8636SOL    HW137367   4.181   1.766   2.160 -2.3919 -2.3351 -2.1557
 8636SOL    HW237368   4.129   1.635   2.200 -1.5211 -0.4777  2.4615
 8637SOL     OW37369   3.964   4.228   9.095  0.2604 -0.0788 -0.2067
 8637SOL    HW137370   4.038   4.211   9.154  0.8688 -0.4627 -1.0943
 8637SOL    HW237371   3.927   4.300   9.147  1.1098  1.0448 -1.1723
 8638SOL     OW37372   0.273   1.407   4.001 -0.2191 -0.0279  0.4189
 8638SOL    HW137373   0.232   1.483   4.043 -0.5674  0.1493 -0.2377
 8638SOL    HW237374   0.366   1.426   3.989  0.1738 -3.2866 -1.6521
 8639SOL     OW37375   0.546   1.641   2.670  0.8588 -0.1675  1.0347
 8639SOL    HW137376   0.464   1.592   2.677  1.4247 -0.9249  2.3675
 8639SOL    HW237377   0.577   1.605   2.587 -1.5759 -0.7214  0.3508
 8640SOL     OW37378   3.879   2.131   7.231 -0.2471  0.0126 -0.1057
 8640SOL    HW137379   3.864   2.144   7.137 -0.5703  2.5306  0.2890
 8640SOL    HW237380   3.792   2.101   7.256  0.6783  0.1029  3.1701
 8641SOL     OW37381   1.454   2.065   5.274  0.6679  0.6368 -0.6092
 8641SOL    HW137382   1.470   2.041   5.183 -0.1847  0.5106 -0.7305
 8641SOL    HW237383   1.464   1.976   5.308  0.9108  0.8681 -0.0739
 8642SOL     OW37384   1.425   0.080   6.277  0.3463  0.3106 -0.4302
 8642SOL    HW137385   1.477   0.157   6.301 -1.3524  1.6116 -0.9484
 8642SOL    HW237386   1.411   0.097   6.184 -0.1765  0.9120 -0.2384
 8643SOL     OW37387   4.318   0.687   8.909 -0.5326 -0.0940  0.5310
 8643SOL    HW137388   4.365   0.770   8.907  1.5166 -1.2727 -0.4682
 8643SOL    HW237389   4.360   0.645   8.834  1.1090  1.3164  0.6605
 8644SOL     OW37390   2.175   3.804   1.647 -0.2087  0.2186  0.3610
 8644SOL    HW137391   2.138   3.890   1.665  0.4346  0.9775 -1.9851
 8644SOL    HW237392   2.132   3.752   1.715 -0.3391  0.0274  0.1346
 8645SOL     OW37393   3.806   1.479   8.181 -0.0315 -0.4434 -0.2972
 8645SOL    HW137394   3.816   1.523   8.265  2.2849 -0.9021 -0.3390
 8645SOL    HW237395   3.722   1.432   8.180  0.9492 -2.1986 -0.8794
 8646SOL     OW37396   0.038   4.366   8.527  0.0069  0.0373  0.0603
 8646SOL    HW137397   4.669   4.388   8.523  0.0640  0.3198  0.2789
 8646SOL    HW237398   0.083   4.436   8.479  0.6527  0.2528  0.9974
 8647SOL     OW37399   1.245   4.058   6.069 -0.2395 -0.7253  0.1513
 8647SOL    HW137400   1.153   4.048   6.044  0.6487 -0.9006 -3.0344
 8647SOL    HW237401   1.253   4.154   6.071 -2.5654 -0.5262  0.7777
 8648SOL     OW37402   2.982   4.301  12.215  0.4160 -0.0349  0.3459
 8648SOL    HW137403   2.921   4.373  12.199  2.4604  1.2553 -1.6640
 8648SOL    HW237404   2.973   4.250  12.135  2.0593  1.8623 -1.0366
 8649SOL     OW37405   0.754   3.504   3.523  0.0438  0.4538  0.0896
 8649SOL    HW137406   0.753   3.567   3.595 -1.7842  1.2418 -0.6250
 8649SOL    HW237407   0.741   3.564   3.450 -0.4789 -0.2936 -0.4319
 8650SOL     OW37408   4.675   1.195   8.385  0.1771  0.1189 -0.7267
 8650SOL    HW137409   4.678   1.290   8.381 -0.2957  0.2053  0.9294
 8650SOL    HW237410   0.044   1.178   8.368  0.3746  1.9655 -1.5187
 8651SOL     OW37411   2.335   2.816  16.855  0.5755  0.3368  0.7821
 8651SOL    HW137412   2.419   2.854  16.882  1.4123 -0.7380 -0.3124
 8651SOL    HW237413   2.340   2.732  16.900  0.1721  0.2494  0.6548
 8652SOL     OW37414   2.632   2.435   7.293  0.1170 -0.1193  0.2970
 8652SOL    HW137415   2.614   2.448   7.199  0.3432 -0.7252  0.1653
 8652SOL    HW237416   2.577   2.357   7.304  0.2521 -0.4935 -1.5659
 8653SOL     OW37417   3.566   0.081  12.449  0.4928 -0.1062 -0.1827
 8653SOL    HW137418   3.498   0.145  12.470  0.4596 -0.5028  0.9576
 8653SOL    HW237419   3.604   0.065  12.536 -2.0816  0.3180  1.0197
 8654SOL     OW37420   0.860   1.532   8.181 -0.9961 -0.4110  0.1547
 8654SOL    HW137421   0.850   1.611   8.127  0.2286 -0.7160 -0.5268
 8654SOL    HW237422   0.771   1.525   8.214 -1.1853  1.5867  0.0955
 8655SOL     OW37423   2.616   1.815   8.181 -0.5163 -0.1679  0.0772
 8655SOL    HW137424   2.677   1.813   8.255 -0.9309 -0.3418  0.4061
 8655SOL    HW237425   2.564   1.891   8.205 -0.4169  0.1004 -0.5484
 8656SOL     OW37426   2.303   0.660   6.700 -0.2302 -1.0199 -0.5072
 8656SOL    HW137427   2.302   0.628   6.610 -0.8130 -0.6428 -0.6314
 8656SOL    HW237428   2.275   0.751   6.696  0.1438 -0.9308 -1.0471
 8657SOL     OW37429   2.145   2.650   5.518 -0.2589  0.0216  0.0876
 8657SOL    HW137430   2.131   2.681   5.607  0.6754 -0.4091  0.3891
 8657SOL    HW237431   2.051   2.645   5.502 -0.5661 -0.5358  2.1164
 8658SOL     OW37432   1.401   2.728   1.824 -0.0774  0.2160 -0.5889
 8658SOL    HW137433   1.477   2.695   1.872 -0.1137  1.3366  0.2552
 8658SOL    HW237434   1.443   2.812   1.803  0.8936  0.3045  1.6139
 8659SOL     OW37435   0.202   2.034   4.598 -0.0934  0.4094 -0.2159
 8659SOL    HW137436   0.107   2.035   4.584 -0.0482 -1.3938 -0.7119
 8659SOL    HW237437   0.198   1.986   4.681  0.1573  0.0570 -0.4078
 8660SOL     OW37438   3.158   1.116   5.560 -0.6958  0.1145  0.3264
 8660SOL    HW137439   3.172   1.171   5.637 -0.0463  2.6339 -1.5951
 8660SOL    HW237440   3.136   1.035   5.606  1.4001 -2.0764 -2.5872
 8661SOL     OW37441   4.341   3.413   9.642 -0.3203  0.0518  0.2870
 8661SOL    HW137442   4.282   3.446   9.710  0.4699  1.7582  0.1552
 8661SOL    HW237443   4.389   3.340   9.682 -1.5600  0.2605  2.1526
 8662SOL     OW37444   0.994   4.519  15.180 -0.6278 -0.2665  0.1174
 8662SOL    HW137445   1.049   4.576  15.233 -1.8727  0.1671  0.9665
 8662SOL    HW237446   0.937   4.584  15.139  1.5303  0.5865 -1.4825
 8663SOL     OW37447   0.767   3.754   5.863  0.1507 -0.4355  0.1704
 8663SOL    HW137448   0.795   3.683   5.921  1.2407  0.5931  0.8898
 8663SOL    HW237449   0.798   3.833   5.909 -0.6056  1.0381 -1.8683
 8664SOL     OW37450   0.400   2.513   5.058  0.2324  0.0787  0.3351
 8664SOL    HW137451   0.453   2.501   5.137 -0.1398 -0.6057  0.4845
 8664SOL    HW237452   0.387   2.422   5.032 -2.6475  0.9494 -1.2896
 8665SOL     OW37453   1.709   2.495   8.227 -0.0185  0.4246 -0.1433
 8665SOL    HW137454   1.726   2.492   8.321 -0.7220  0.7007 -0.0056
 8665SOL    HW237455   1.702   2.401   8.210 -1.0353  0.2143  1.4419
 8666SOL     OW37456   1.393   1.673   3.822  0.0246 -0.4913  0.6135
 8666SOL    HW137457   1.302   1.649   3.839  0.8860 -2.9396  1.8599
 8666SOL    HW237458   1.408   1.625   3.740 -0.7219 -1.4503  1.0415
 8667SOL     OW37459   1.834   2.037   5.325 -0.1379  0.1453  0.6605
 8667SOL    HW137460   1.859   1.954   5.366  3.6625 -0.2533 -2.4730
 8667SOL    HW237461   1.872   2.022   5.239 -1.0282  1.3347  0.0571
 8668SOL     OW37462   0.394   3.398   8.140  0.2078 -0.1396 -0.1740
 8668SOL    HW137463   0.326   3.460   8.168  1.0350  0.9603 -0.5996
 8668SOL    HW237464   0.465   3.426   8.198  0.0211  2.6951 -1.2744
 8669SOL     OW37465   4.120   3.164  17.508  0.2508 -0.3284 -0.8858
 8669SOL    HW137466   4.193   3.102  17.512  0.5409  0.0165 -0.8387
 8669SOL    HW237467   4.098   3.149  17.600 -0.3898 -0.1241 -1.0060
 8670SOL     OW37468   3.446   3.440   8.196 -0.4490 -0.2919 -0.3130
 8670SOL    HW137469   3.428   3.490   8.275 -0.5100 -1.1712  0.2290
 8670SOL    HW237470   3.517   3.493   8.160  0.6964 -1.3672  0.3929
 8671SOL     OW37471   4.646   3.284   4.707 -0.0151 -0.1297 -0.2661
 8671SOL    HW137472   4.657   3.273   4.612  0.6232 -0.1811 -0.1859
 8671SOL    HW237473   4.561   3.329   4.713 -0.7732 -1.4560 -1.0112
 8672SOL     OW37474   0.397   2.710   4.440  0.0338 -0.1236 -0.0700
 8672SOL    HW137475   0.316   2.758   4.425  0.5047  0.6127 -0.2439
 8672SOL    HW237476   0.469   2.764   4.408 -2.8716  3.6088 -0.2416
 8673SOL     OW37477   1.046   4.431   1.053  0.1041  0.0189  0.1965
 8673SOL    HW137478   1.057   4.482   0.973  0.3300  0.7929  0.7206
 8673SOL    HW237479   1.018   4.344   1.023  0.4097  0.0919 -0.2945
 8674SOL     OW37480   3.251   4.499   4.068  0.1913  0.0141 -0.1468
 8674SOL    HW137481   3.221   4.410   4.083  1.6827 -0.3267  0.8570
 8674SOL    HW237482   3.167   4.543   4.060  0.4065  0.4143 -0.2216
 8675SOL     OW37483   0.975   1.234  17.492 -0.0049 -0.1382 -0.6040
 8675SOL    HW137484   0.984   1.329  17.500 -1.0021 -0.0025 -1.0942
 8675SOL    HW237485   1.001   1.200  17.578 -1.3340 -0.3442 -0.2918
 8676SOL     OW37486   1.150   1.770  15.770  0.4899 -0.7383  0.8300
 8676SOL    HW137487   1.219   1.722  15.815  1.5786  0.1355  0.1021
 8676SOL    HW237488   1.081   1.720  15.814 -0.9095  1.8116  1.5445
 8677SOL     OW37489   1.141   3.342   8.415  0.4829  0.2368 -0.3438
 8677SOL    HW137490   1.204   3.322   8.346  0.9665  1.0179 -0.1339
 8677SOL    HW237491   1.163   3.272   8.476 -0.6040 -2.1655 -2.7242
 8678SOL     OW37492   2.539   3.769  12.892  0.6042  0.5921  0.4779
 8678SOL    HW137493   2.486   3.805  12.963  0.9889 -0.7691  1.4507
 8678SOL    HW237494   2.483   3.796  12.819  0.7469  2.2492  0.9869
 8679SOL     OW37495   1.045   3.557   7.578  0.8460  0.4537  0.3059
 8679SOL    HW137496   1.100   3.565   7.501  0.0461 -0.0829 -0.3295
 8679SOL    HW237497   1.035   3.461   7.579  1.3551  0.3969 -0.1202
 8680SOL     OW37498   2.860   3.170  15.186  0.2275 -0.1310 -0.4131
 8680SOL    HW137499   2.909   3.127  15.116  0.8321  1.4232 -0.9411
 8680SOL    HW237500   2.795   3.221  15.138 -0.8414 -1.9981 -0.9450
 8681SOL     OW37501   0.997   1.285   1.883 -0.5800  0.2948 -0.0046
 8681SOL    HW137502   1.026   1.376   1.878  2.6717 -0.6642  1.4137
 8681SOL    HW237503   0.981   1.271   1.790  3.0268  0.6273 -0.6972
 8682SOL     OW37504   2.065   2.865   2.942 -0.3891 -0.2450  0.2141
 8682SOL    HW137505   1.993   2.825   2.990 -0.8093  0.6810  0.3502
 8682SOL    HW237506   2.045   2.958   2.933 -2.0495 -0.7141 -0.9516
 8683SOL     OW37507   2.041   2.183  13.745  0.0067  0.5360 -0.4034
 8683SOL    HW137508   1.989   2.104  13.730 -2.3991  2.6296 -3.0120
 8683SOL    HW237509   1.970   2.244  13.764  0.2605  0.4891  0.7129
 8684SOL     OW37510   2.365   2.259   5.303 -0.0304 -0.4837 -0.3685
 8684SOL    HW137511   2.333   2.199   5.236 -0.4522  1.5844 -2.0289
 8684SOL    HW237512   2.433   2.295   5.247  0.0616 -0.0540  0.0144
 8685SOL     OW37513   0.131   0.061   0.762 -0.1485  0.1323  0.1373
 8685SOL    HW137514   0.073   4.710   0.771 -0.3064  0.0252 -1.8001
 8685SOL    HW237515   0.071   0.130   0.791  1.0420  1.2377 -0.0224
 8686SOL     OW37516   4.567   0.092  16.090  0.0346 -0.2303 -0.2624
 8686SOL    HW137517   4.536   0.043  16.014  2.5100 -0.0524 -1.4078
 8686SOL    HW237518   4.649   0.044  16.106  0.9574  1.3125 -0.3488
 8687SOL     OW37519   3.671   0.570   5.147  0.0212  0.5749 -0.8147
 8687SOL    HW137520   3.609   0.536   5.083  0.3691 -2.6476  0.5830
 8687SOL    HW237521   3.676   0.498   5.210 -0.5375  0.3676 -1.0056
 8688SOL     OW37522   0.494   1.549  15.536 -0.0473 -0.1400  0.3992
 8688SOL    HW137523   0.568   1.516  15.485 -0.6023 -0.4438 -0.1996
 8688SOL    HW237524   0.494   1.635  15.496 -1.4079  1.7211  4.3353
 8689SOL     OW37525   4.446   4.280  15.809  0.7861  0.0156  0.8418
 8689SOL    HW137526   4.439   4.375  15.817  0.4044  0.0528  0.1114
 8689SOL    HW237527   4.512   4.277  15.740  0.8792 -1.0169  0.9715
 8690SOL     OW37528   0.601   2.885   2.715  0.1688 -0.8668 -0.0773
 8690SOL    HW137529   0.641   2.959   2.762  0.6253 -1.0057 -0.2499
 8690SOL    HW237530   0.523   2.922   2.675  0.3609 -0.6988 -0.2976
 8691SOL     OW37531   0.315   4.107   2.006 -0.1913  0.1543  0.5116
 8691SOL    HW137532   0.319   4.113   1.911  1.8736  1.9539  0.6949
 8691SOL    HW237533   0.245   4.171   2.020  1.0135  1.9282 -1.5862
 8692SOL     OW37534   3.049   3.904   4.999  0.5794  0.3177  0.5506
 8692SOL    HW137535   3.032   3.986   5.046 -0.3265  0.4653 -0.0562
 8692SOL    HW237536   2.980   3.906   4.934  1.6430  0.7531 -0.5592
 8693SOL     OW37537   0.798   3.154   2.708  0.0977  0.8219 -0.0922
 8693SOL    HW137538   0.847   3.235   2.693 -2.0787  2.4351  1.4725
 8693SOL    HW237539   0.709   3.177   2.681 -0.6530 -0.4195  1.3112
 8694SOL     OW37540   3.284   1.781   7.336 -0.3016 -0.3815 -0.1556
 8694SOL    HW137541   3.227   1.848   7.299  0.3408 -0.5704 -1.5092
 8694SOL    HW237542   3.247   1.766   7.423  0.4714 -0.2724  0.1836
 8695SOL     OW37543   4.055   2.008   3.683 -0.1387  0.3344  0.2210
 8695SOL    HW137544   4.010   2.047   3.608  1.0823 -0.8636 -1.1393
 8695SOL    HW237545   4.148   2.029   3.675  0.2767 -0.9120  1.6523
 8696SOL     OW37546   3.515   1.411  14.926  0.0278  0.7166  0.0035
 8696SOL    HW137547   3.450   1.343  14.907  1.8871 -0.9848 -0.1904
 8696SOL    HW237548   3.481   1.485  14.875  0.4843  1.6242  1.0278
 8697SOL     OW37549   0.825   1.571   8.654  0.5692  0.3212 -0.4818
 8697SOL    HW137550   0.826   1.651   8.708 -1.0218 -0.1606  0.2851
 8697SOL    HW237551   0.911   1.534   8.673 -0.1353 -1.8854 -1.5417
 8698SOL     OW37552   0.237   4.713  13.599 -0.4838  0.3283 -0.2417
 8698SOL    HW137553   0.302   4.674  13.657  0.4226  3.9769  1.2606
 8698SOL    HW237554   0.287   0.062  13.561  3.6671 -2.4807 -0.1051
 8699SOL     OW37555   1.267   4.600   7.550  0.1388 -0.8076 -0.1151
 8699SOL    HW137556   1.274   4.654   7.628  3.4017 -0.8607 -0.3441
 8699SOL    HW237557   1.337   4.535   7.558 -0.3066 -1.1450  1.0598
 8700SOL     OW37558   4.163   0.564   9.312 -1.2506  0.1725  0.3778
 8700SOL    HW137559   4.163   0.556   9.216  0.8776 -1.8611  0.5555
 8700SOL    HW237560   4.069   0.549   9.319 -0.7117 -2.4765  1.8482
 8701SOL     OW37561   0.457   2.070   6.817 -0.0248 -0.1736  0.0511
 8701SOL    HW137562   0.405   2.072   6.898 -1.7085  1.5603 -1.0932
 8701SOL    HW237563   0.462   1.977   6.796 -1.3581 -0.1089 -0.5442
 8702SOL     OW37564   0.186   4.257   5.565 -0.3512  0.0799 -0.1070
 8702SOL    HW137565   0.126   4.331   5.560  0.3592  0.5344 -1.8722
 8702SOL    HW237566   0.262   4.305   5.598  0.4304 -2.1997  1.4177
 8703SOL     OW37567   0.968   0.455   4.370 -0.2935 -0.5163 -0.4978
 8703SOL    HW137568   0.950   0.547   4.388  2.9443 -0.2882  1.6354
 8703SOL    HW237569   0.996   0.460   4.279 -0.2904  0.3066 -0.4543
 8704SOL     OW37570   2.649   2.175   8.419 -0.4369 -0.0574 -0.1822
 8704SOL    HW137571   2.740   2.153   8.398 -0.3181  0.6209 -0.3871
 8704SOL    HW237572   2.648   2.184   8.514 -3.5498 -1.6466 -0.0791
 8705SOL     OW37573   1.908   0.551   3.565 -0.2023  1.2291 -0.1296
 8705SOL    HW137574   1.900   0.515   3.653 -2.4557  0.6941 -0.5495
 8705SOL    HW237575   1.870   0.478   3.516  1.8035  1.0726 -1.4701
 8706SOL     OW37576   0.180   2.635   5.740 -0.5081 -0.1326  0.9127
 8706SOL    HW137577   0.229   2.715   5.760  1.9159 -1.4489  0.2038
 8706SOL    HW237578   0.189   2.644   5.645  1.2196 -0.1953  1.0760
 8707SOL     OW37579   1.968   2.161   4.209 -0.2115  0.1099 -0.0203
 8707SOL    HW137580   2.042   2.195   4.259 -0.1614  1.0379 -0.7076
 8707SOL    HW237581   1.967   2.066   4.220 -2.9394 -0.0389 -1.6509
 8708SOL     OW37582   2.507   4.093   3.844 -0.1375  0.2894 -0.1742
 8708SOL    HW137583   2.428   4.146   3.833 -0.9101 -1.1981 -1.8708
 8708SOL    HW237584   2.487   4.020   3.785 -1.0542  0.2450  0.1882
 8709SOL     OW37585   0.924   3.420   5.730  0.1770 -0.0456  0.7603
 8709SOL    HW137586   0.924   3.351   5.663  0.8570 -0.3255  1.0563
 8709SOL    HW237587   1.013   3.429   5.763  0.2702 -0.0270  0.4989
 8710SOL     OW37588   1.892   0.887  14.203  0.2563  0.4292  0.1970
 8710SOL    HW137589   1.953   0.814  14.191 -1.3011 -0.8574  0.1466
 8710SOL    HW237590   1.819   0.856  14.149  0.6901 -0.6579  0.2217
 8711SOL     OW37591   2.704   1.098   3.112  0.0759  0.0130 -0.5694
 8711SOL    HW137592   2.653   1.128   3.036 -1.0390  1.1553  0.6160
 8711SOL    HW237593   2.755   1.178   3.121 -1.2773  0.6167  1.7156
 8712SOL     OW37594   2.333   0.459  11.402 -0.9713  0.3974  0.5707
 8712SOL    HW137595   2.375   0.531  11.355 -0.9981  1.6673  2.4627
 8712SOL    HW237596   2.373   0.470  11.488  0.6137  0.4458 -0.1793
 8713SOL     OW37597   0.969   1.693   2.879 -0.0895 -0.3646 -0.0910
 8713SOL    HW137598   0.876   1.714   2.877 -0.0170 -0.0620 -0.1953
 8713SOL    HW237599   1.015   1.752   2.821  0.4511  0.5673  1.2777
 8714SOL     OW37600   2.652   1.173   6.642  0.5236 -0.4463  0.0066
 8714SOL    HW137601   2.560   1.146   6.648  0.1791  0.4654 -1.0008
 8714SOL    HW237602   2.648   1.269   6.635 -2.4862 -0.4216  2.0907
 8715SOL     OW37603   1.879   2.985  16.040  0.0532  0.3303  0.7507
 8715SOL    HW137604   1.904   3.077  16.050  1.3247 -0.1793  2.2128
 8715SOL    HW237605   1.878   2.983  15.944 -1.0441  1.4349  0.7470
 8716SOL     OW37606   0.696   1.808   0.781 -0.0420  0.6470  0.8588
 8716SOL    HW137607   0.700   1.896   0.817 -2.4998  0.5372  1.4190
 8716SOL    HW237608   0.629   1.810   0.713  1.6041 -1.1217 -0.8348
 8717SOL     OW37609   1.068   3.563   3.103 -0.0574  0.1545  0.4813
 8717SOL    HW137610   1.092   3.601   3.188 -0.7214  0.9151  0.3181
 8717SOL    HW237611   0.987   3.612   3.089 -0.9647 -1.0747  1.4198
 8718SOL     OW37612   0.942   2.555   0.717 -0.3504 -0.3538 -0.1868
 8718SOL    HW137613   0.951   2.621   0.648 -2.2389  0.5120  0.3944
 8718SOL    HW237614   0.959   2.613   0.792 -1.1778 -0.1944 -0.1209
 8719SOL     OW37615   2.285   2.652   2.142 -0.2083 -0.1798  0.3420
 8719SOL    HW137616   2.195   2.622   2.132 -0.8828  1.5926  0.9243
 8719SOL    HW237617   2.320   2.637   2.055 -2.3792  0.8662 -0.7082
 8720SOL     OW37618   0.710   3.417  13.732 -0.0308  0.0437 -0.2316
 8720SOL    HW137619   0.644   3.479  13.764  2.9781  2.4695  1.1585
 8720SOL    HW237620   0.652   3.348  13.699 -0.6015  0.1431  0.5504
 8721SOL     OW37621   0.002   4.238   3.597  0.5133 -0.0452  0.6564
 8721SOL    HW137622   0.070   4.299   3.569  1.2239 -1.2360 -0.2064
 8721SOL    HW237623   4.724   4.178   3.523 -0.4143 -0.1683  0.7806
 8722SOL     OW37624   1.044   1.295   9.649 -0.3617  0.1798  0.2731
 8722SOL    HW137625   1.104   1.350   9.701  0.1699  0.9777 -1.1967
 8722SOL    HW237626   1.010   1.232   9.713  1.0857 -2.6145 -1.6761
 8723SOL     OW37627   3.134   0.075  15.547  0.0100 -0.5641  0.5628
 8723SOL    HW137628   3.214   0.126  15.541 -0.9631  1.1997  2.4866
 8723SOL    HW237629   3.101   0.099  15.634  0.0737 -0.9060  0.6834
 8724SOL     OW37630   2.066   0.105   7.738 -0.0781  0.1663  0.3070
 8724SOL    HW137631   2.019   0.145   7.665  0.6427  0.9722  0.2894
 8724SOL    HW237632   2.097   0.185   7.780 -1.5652  1.5353 -1.1946
 8725SOL     OW37633   2.484   4.451   1.948 -0.4321  0.5449  0.2364
 8725SOL    HW137634   2.515   4.362   1.967  1.3710  0.8589 -1.1295
 8725SOL    HW237635   2.542   4.510   1.997 -2.1827  0.5794  2.2465
 8726SOL     OW37636   1.691   1.098   7.678 -0.6663 -0.3723 -0.0990
 8726SOL    HW137637   1.609   1.135   7.710 -1.3966 -1.3212 -0.9077
 8726SOL    HW237638   1.723   1.184   7.651 -1.5793 -0.1371 -0.4038
 8727SOL     OW37639   2.650   3.470   8.281 -0.2887  0.4038 -0.0153
 8727SOL    HW137640   2.703   3.525   8.223  0.0669  0.5889  0.4858
 8727SOL    HW237641   2.572   3.524   8.295 -1.0021 -0.6047 -0.1660
 8728SOL     OW37642   4.635   3.426   5.929  0.0435 -0.3850 -0.1617
 8728SOL    HW137643   4.715   3.429   5.877  0.7886 -0.5685  0.9729
 8728SOL    HW237644   4.621   3.332   5.945 -1.3727 -0.1577 -0.0145
 8729SOL     OW37645   0.089   0.765   3.924  0.0338 -0.2635  0.6687
 8729SOL    HW137646   0.169   0.726   3.959  1.8698  0.2540 -3.0038
 8729SOL    HW237647   0.077   0.838   3.984  0.5500  2.2175 -2.2684
 8730SOL     OW37648   1.229   1.125   5.112 -0.1360  0.3550 -0.0464
 8730SOL    HW137649   1.267   1.212   5.097  1.8179 -0.4760  0.0867
 8730SOL    HW237650   1.211   1.105   5.020  2.9471  0.5747 -0.6913
 8731SOL     OW37651   2.174   3.355  13.463  0.5321 -0.2344 -0.4758
 8731SOL    HW137652   2.153   3.290  13.395  0.4187 -0.6562 -0.0380
 8731SOL    HW237653   2.227   3.296  13.516  0.3382 -0.7740 -0.8687
 8732SOL     OW37654   3.007   3.114   8.812 -0.2461  0.5326 -0.3044
 8732SOL    HW137655   3.035   3.205   8.811 -0.6096  0.6539  0.1505
 8732SOL    HW237656   2.913   3.120   8.798 -0.4052 -2.3968 -0.6480
 8733SOL     OW37657   3.361   1.664   9.606 -0.5914  0.1473  0.4024
 8733SOL    HW137658   3.301   1.662   9.532  1.4274 -2.2483 -1.1691
 8733SOL    HW237659   3.444   1.669   9.560 -1.6760 -0.6046 -1.6302
 8734SOL     OW37660   2.187   2.534   7.841 -0.0919 -0.1679 -0.4785
 8734SOL    HW137661   2.155   2.622   7.859  3.1102  0.6488  1.1986
 8734SOL    HW237662   2.240   2.523   7.920  1.1551  3.8229 -0.7849
 8735SOL     OW37663   4.582   0.378   9.032 -0.2002 -0.4347  0.1973
 8735SOL    HW137664   4.647   0.312   9.057 -1.7139 -1.1756  2.2134
 8735SOL    HW237665   4.614   0.462   9.066 -0.4156  0.1991 -1.1809
 8736SOL     OW37666   0.665   0.191   3.451 -0.2165 -0.3502 -0.4308
 8736SOL    HW137667   0.629   0.106   3.475  0.5659  0.0832  2.2438
 8736SOL    HW237668   0.743   0.162   3.403  0.5820 -0.2170  0.7883
 8737SOL     OW37669   2.846   0.928   5.452 -0.0984 -0.1774 -0.7100
 8737SOL    HW137670   2.766   0.881   5.427  1.3299 -1.4663 -2.9156
 8737SOL    HW237671   2.831   0.937   5.546  3.1568 -0.3333 -0.1628
 8738SOL     OW37672   3.109   4.086   8.357 -0.4140 -0.2724 -0.1442
 8738SOL    HW137673   3.174   4.126   8.299  0.9257 -1.8457  0.2563
 8738SOL    HW237674   3.158   4.017   8.401 -0.8307 -2.0960 -2.5247
 8739SOL     OW37675   1.515   0.624   2.245  0.6663 -0.0768 -0.4614
 8739SOL    HW137676   1.592   0.677   2.224  0.5241  0.1545 -0.4003
 8739SOL    HW237677   1.531   0.557   2.179 -1.9552 -1.0503 -0.1237
 8740SOL     OW37678   0.908   2.553  11.938  0.1899 -1.0839 -0.2990
 8740SOL    HW137679   1.001   2.573  11.951 -0.3939  1.5291 -0.1427
 8740SOL    HW237680   0.867   2.638  11.923  1.0149 -0.7875 -0.8828
 8741SOL     OW37681   0.825   0.570   6.748  0.0883 -0.0506  0.1473
 8741SOL    HW137682   0.745   0.556   6.798  0.0394 -0.0803  0.0599
 8741SOL    HW237683   0.898   0.542   6.802  0.4142  1.5853  0.5676
 8742SOL     OW37684   2.428   1.363   5.657 -0.3289  0.2563 -0.6317
 8742SOL    HW137685   2.474   1.382   5.739  0.5545 -0.2640 -1.0108
 8742SOL    HW237686   2.493   1.393   5.594 -1.0591 -1.6615 -2.2749
 8743SOL     OW37687   2.388   3.364  10.366 -0.2482  0.2831  0.2551
 8743SOL    HW137688   2.412   3.446  10.322  0.4674 -0.8503 -1.5060
 8743SOL    HW237689   2.473   3.321  10.355 -0.1332  0.4368  0.5472
 8744SOL     OW37690   2.846   1.515   8.575  0.0986  0.3788 -0.3725
 8744SOL    HW137691   2.785   1.494   8.646 -0.9912 -2.6360 -2.1947
 8744SOL    HW237692   2.916   1.454   8.596  0.0396  0.1438 -0.8587
 8745SOL     OW37693   0.694   3.409  16.497 -0.4153  0.1933 -0.1420
 8745SOL    HW137694   0.645   3.397  16.577 -3.2044 -0.9480 -2.0247
 8745SOL    HW237695   0.624   3.434  16.437 -0.7530 -2.0489 -0.6845
 8746SOL     OW37696   3.095   2.466   3.552  0.2826  0.0712 -0.0580
 8746SOL    HW137697   3.131   2.412   3.482  0.1594 -0.2105  0.0945
 8746SOL    HW237698   3.127   2.554   3.532  0.0072  0.3504  0.7370
 8747SOL     OW37699   0.068   2.708   4.291  0.5397 -0.1576  0.3297
 8747SOL    HW137700   0.047   2.658   4.370  2.2603 -0.0745  0.8355
 8747SOL    HW237701   0.116   2.785   4.322  0.5119 -0.0043 -0.0032
 8748SOL     OW37702   2.819   1.774   7.437 -0.1387 -0.1189  0.1014
 8748SOL    HW137703   2.811   1.823   7.355 -0.7342 -0.6314 -0.1492
 8748SOL    HW237704   2.777   1.695   7.402 -0.0427  0.6674 -1.8213
 8749SOL     OW37705   1.733   0.561   4.877  0.0111  0.1137  0.0408
 8749SOL    HW137706   1.764   0.548   4.787  2.1029 -0.8515  0.9144
 8749SOL    HW237707   1.718   0.656   4.872 -1.4829 -0.1805 -0.9995
 8750SOL     OW37708   0.465   1.587   3.213 -0.2813 -0.4169 -0.4349
 8750SOL    HW137709   0.496   1.501   3.243 -0.2726  0.1524  1.1420
 8750SOL    HW237710   0.413   1.606   3.291  0.0350 -1.2921 -0.0105
 8751SOL     OW37711   4.572   0.480   2.130 -0.0564  0.0936  0.1779
 8751SOL    HW137712   4.517   0.494   2.053  0.9242 -1.9369 -0.8582
 8751SOL    HW237713   4.608   0.392   2.123 -0.6385 -0.1627  0.3516
 8752SOL     OW37714   1.213   4.376   8.846 -0.0210  0.7513  0.5110
 8752SOL    HW137715   1.223   4.444   8.780  2.5269  0.6713  0.8056
 8752SOL    HW237716   1.267   4.306   8.809 -4.7162 -2.5448 -0.1301
 8753SOL     OW37717   1.152   0.260   8.375 -0.3735 -0.6459  0.6126
 8753SOL    HW137718   1.167   0.345   8.335 -0.3725 -0.3324  1.2760
 8753SOL    HW237719   1.127   0.285   8.464  0.5293  2.1940  0.0654
 8754SOL     OW37720   2.363   4.523   0.411  0.1834 -0.1529 -0.1298
 8754SOL    HW137721   2.375   4.593   0.475  0.1527  1.2347 -1.6381
 8754SOL    HW237722   2.267   4.516   0.417  0.1391  0.8438  0.1673
 8755SOL     OW37723   3.803   1.728   3.794 -0.4160 -0.1610  0.4383
 8755SOL    HW137724   3.727   1.774   3.830 -2.2861 -1.0956 -2.3859
 8755SOL    HW237725   3.802   1.761   3.704 -0.5629 -0.7062  0.2428
 8756SOL     OW37726   3.235   0.321   4.333  0.0508 -0.5860 -0.7041
 8756SOL    HW137727   3.284   0.330   4.250  1.6785 -1.6164  0.1402
 8756SOL    HW237728   3.300   0.310   4.403  1.1728 -0.9254 -1.7958
 8757SOL     OW37729   0.145   2.570   0.086 -0.1629  0.0060  0.4314
 8757SOL    HW137730   0.078   2.552   0.021  1.8197  0.6806 -1.7787
 8757SOL    HW237731   0.180   2.481   0.095  1.1536  0.3691 -1.1310
 8758SOL     OW37732   0.081   1.524   0.898  0.4394  0.3552 -0.2022
 8758SOL    HW137733   0.047   1.505   0.810 -0.9691 -2.4714  0.9561
 8758SOL    HW237734   0.007   1.544   0.955  0.5658  0.8170 -0.1971
 8759SOL     OW37735   0.794   3.029   0.593  0.6713  0.7231  0.0097
 8759SOL    HW137736   0.872   3.068   0.633  1.8259 -1.4426 -0.1566
 8759SOL    HW237737   0.766   2.974   0.666 -0.2956  1.0662 -0.0999
 8760SOL     OW37738   1.818   0.207   6.630  0.3853  0.0202 -0.1223
 8760SOL    HW137739   1.796   0.187   6.721  0.9610  0.5749  0.1441
 8760SOL    HW237740   1.784   0.127   6.591  2.1177  1.2717 -4.1525
 8761SOL     OW37741   1.016   1.736   6.301 -0.7701 -0.5348  0.1573
 8761SOL    HW137742   0.969   1.665   6.346 -0.8094 -0.1165  0.7764
 8761SOL    HW237743   1.105   1.705   6.319 -1.1136 -1.4620  0.2849
 8762SOL     OW37744   4.579   2.679  17.445 -0.1127  0.0366  0.4746
 8762SOL    HW137745   4.655   2.643  17.399 -0.8049 -0.8432 -0.0031
 8762SOL    HW237746   4.511   2.633  17.395 -1.0803  3.8457 -1.6521
 8763SOL     OW37747   3.289   0.389   0.419  0.7315 -0.0928 -0.1449
 8763SOL    HW137748   3.210   0.420   0.463  0.3076 -0.6006 -0.5458
 8763SOL    HW237749   3.248   0.353   0.341  0.3541  1.4746 -0.6687
 8764SOL     OW37750   4.190   1.114   5.282 -0.2068 -0.0250 -0.1771
 8764SOL    HW137751   4.176   1.189   5.340 -2.1405 -0.5293  0.0114
 8764SOL    HW237752   4.146   1.054   5.342 -0.9416  1.6872  1.0058
 8765SOL     OW37753   4.077   3.225   0.958  0.2454  0.0118  0.7826
 8765SOL    HW137754   4.080   3.198   0.866 -1.6886  1.8619  0.1708
 8765SOL    HW237755   4.104   3.143   1.000  0.7590  0.6324  1.6490
 8766SOL     OW37756   0.871   4.308   8.268  0.0597  0.5487  0.2283
 8766SOL    HW137757   0.885   4.216   8.293 -1.3276 -0.2862 -2.0196
 8766SOL    HW237758   0.947   4.360   8.294  3.1560 -2.4730 -2.7683
 8767SOL     OW37759   1.825   1.038   6.065  0.3930  0.0403  0.9335
 8767SOL    HW137760   1.765   1.097   6.111  0.7556  0.8427  0.3792
 8767SOL    HW237761   1.775   0.986   6.002  0.4706  0.4576  0.5235
 8768SOL     OW37762   2.827   1.717   9.320 -0.1164 -0.3000  0.2837
 8768SOL    HW137763   2.771   1.775   9.372  1.0828  0.0560  1.1978
 8768SOL    HW237764   2.894   1.699   9.387 -0.7108 -0.8402  0.7330
 8769SOL     OW37765   0.403   3.348  17.106 -0.0992  0.4790  1.0281
 8769SOL    HW137766   0.489   3.312  17.083 -1.1946 -1.4924 -0.0022
 8769SOL    HW237767   0.389   3.407  17.032 -0.2567 -2.0378 -0.9401
 8770SOL     OW37768   0.492   0.484   5.004  0.0101 -0.2050  0.2314
 8770SOL    HW137769   0.462   0.526   5.085 -0.6925 -0.8527  0.3114
 8770SOL    HW237770   0.564   0.543   4.982 -0.8367  0.5553 -0.5038
 8771SOL     OW37771   0.093   0.683   8.348  0.8022  0.5137  0.0138
 8771SOL    HW137772   0.043   0.763   8.335 -0.5831 -0.1161  1.4463
 8771SOL    HW237773   0.122   0.685   8.439  2.6024  2.0080 -0.5879
 8772SOL     OW37774   0.789   4.247   2.657 -0.1781 -0.1883  0.0730
 8772SOL    HW137775   0.836   4.282   2.733 -0.3745 -0.5909  0.3791
 8772SOL    HW237776   0.715   4.198   2.691 -0.3428  0.3847  0.5459
 8773SOL     OW37777   3.780   1.007   5.637 -0.1917  0.6127 -0.3396
 8773SOL    HW137778   3.835   1.038   5.709  0.3306 -0.7330 -0.1547
 8773SOL    HW237779   3.840   0.984   5.567  0.9850 -0.8599  1.1605
 8774SOL     OW37780   2.465   1.259  10.504  0.1813 -0.2497 -0.5107
 8774SOL    HW137781   2.461   1.190  10.570  0.2076  0.4350  0.2241
 8774SOL    HW237782   2.376   1.279  10.473 -0.8272 -1.5295  1.4961
 8775SOL     OW37783   0.909   0.913   0.448  0.4132  0.0199 -0.2874
 8775SOL    HW137784   0.914   0.952   0.536 -0.7081 -2.0853  0.7177
 8775SOL    HW237785   0.931   0.822   0.468 -0.3319 -0.1464 -0.2342
 8776SOL     OW37786   4.144   0.588  13.539  0.1576 -0.5148 -0.0079
 8776SOL    HW137787   4.072   0.534  13.506  0.3989 -0.9357  0.1421
 8776SOL    HW237788   4.191   0.609  13.458 -0.0677 -3.6494 -0.9570
 8777SOL     OW37789   0.069   4.693  16.102 -0.5764 -0.4109 -1.0117
 8777SOL    HW137790   0.019   4.612  16.115 -0.6747 -0.2140 -0.1758
 8777SOL    HW237791   0.127   4.670  16.030  1.0048 -0.4148  0.2651
 8778SOL     OW37792   1.186   3.592   6.243  0.7125 -0.3027 -0.2086
 8778SOL    HW137793   1.280   3.613   6.242  0.6544 -0.0404 -0.0213
 8778SOL    HW237794   1.192   3.497   6.248 -0.3091 -0.3356  0.2554
 8779SOL     OW37795   2.180   4.454   0.768 -0.0412  0.0825 -0.0161
 8779SOL    HW137796   2.251   4.392   0.784  0.5489  0.0150 -2.9369
 8779SOL    HW237797   2.233   4.533   0.774  1.0214 -0.6435  0.3279
 8780SOL     OW37798   1.788   0.235   3.035  0.4222 -0.4839 -0.0216
 8780SOL    HW137799   1.788   0.310   3.093 -0.3927  0.6203 -1.4532
 8780SOL    HW237800   1.792   0.268   2.945  1.6677 -2.5694 -0.7263
 8781SOL     OW37801   2.583   2.184   5.739  0.2004 -0.1205  0.1594
 8781SOL    HW137802   2.491   2.176   5.766 -0.1217 -0.4750 -1.0631
 8781SOL    HW237803   2.585   2.136   5.657  1.2787 -0.1259  0.1957
 8782SOL     OW37804   0.732   0.500   5.300  0.4731  0.4873  0.2892
 8782SOL    HW137805   0.655   0.459   5.261  1.0529  1.5199 -1.9135
 8782SOL    HW237806   0.702   0.590   5.312 -0.0671  0.4191 -0.6035
 8783SOL     OW37807   2.155   4.545  12.901  0.1346 -0.1761 -0.0356
 8783SOL    HW137808   2.197   4.500  12.975 -0.0912 -0.2409  0.0513
 8783SOL    HW237809   2.167   4.638  12.922  0.3475 -0.2971  0.3759
 8784SOL     OW37810   0.419   0.144   8.125 -0.3098  0.3357  0.1444
 8784SOL    HW137811   0.380   0.223   8.161  2.7145  0.8836  2.1673
 8784SOL    HW237812   0.510   0.172   8.122  0.6166 -2.4015  2.7630
 8785SOL     OW37813   2.398   2.301  10.047 -0.6427  0.2929  0.8061
 8785SOL    HW137814   2.371   2.209  10.046  1.5013 -0.3217 -0.5842
 8785SOL    HW237815   2.483   2.299  10.003 -0.4644  1.8454  1.0770
 8786SOL     OW37816   4.491   1.969   1.704  0.1276 -0.3585 -0.4765
 8786SOL    HW137817   4.420   2.033   1.697  0.0261 -0.2596  1.6295
 8786SOL    HW237818   4.485   1.947   1.797 -1.3529 -0.0632 -0.4992
 8787SOL     OW37819   1.169   4.515  10.328  0.3380  0.6456  0.2337
 8787SOL    HW137820   1.196   4.576  10.259  0.4089 -0.4196 -0.6717
 8787SOL    HW237821   1.250   4.476  10.360 -0.2027  0.1033  0.9475
 8788SOL     OW37822   3.961   0.563  14.857 -0.3166  0.0244  0.1977
 8788SOL    HW137823   3.998   0.547  14.944 -0.8523  1.5262  0.7021
 8788SOL    HW237824   3.926   0.650  14.877 -1.2429 -0.5506  1.0904
 8789SOL     OW37825   2.087   0.325   1.145 -0.2083 -0.7265  0.0636
 8789SOL    HW137826   2.009   0.380   1.141 -1.4223 -2.7092 -3.2142
 8789SOL    HW237827   2.058   0.261   1.081 -1.3327 -0.4471  0.2989
 8790SOL     OW37828   1.168   3.667   3.376  0.3772 -0.1873 -0.2459
 8790SOL    HW137829   1.078   3.701   3.375  0.9130  1.2057 -1.1535
 8790SOL    HW237830   1.183   3.658   3.470  2.2256  0.0939 -0.5145
 8791SOL     OW37831   3.174   4.028  14.890 -0.4243 -0.7657  0.3484
 8791SOL    HW137832   3.118   4.014  14.814  0.9701  0.2340 -0.8724
 8791SOL    HW237833   3.138   4.108  14.928  0.5797  0.6961 -1.7862
 8792SOL     OW37834   3.278   3.076   5.882  0.0187 -0.3847  0.0362
 8792SOL    HW137835   3.203   3.041   5.931 -0.0500 -1.7059 -1.0019
 8792SOL    HW237836   3.292   3.003   5.821  1.2670 -0.9003  0.9551
 8793SOL     OW37837   3.533   2.673   6.365  0.4485 -0.6599  0.2459
 8793SOL    HW137838   3.456   2.615   6.371  1.3096 -1.7079  1.1482
 8793SOL    HW237839   3.547   2.676   6.271 -0.4706 -3.5207 -0.0008
 8794SOL     OW37840   1.289   2.720   6.890  0.6187  0.1419 -0.3338
 8794SOL    HW137841   1.307   2.758   6.976  0.6913 -0.6247 -0.0082
 8794SOL    HW237842   1.369   2.742   6.843  0.6048  3.5369  1.2495
 8795SOL     OW37843   3.223   1.482  10.850  0.2373 -0.0548  0.2417
 8795SOL    HW137844   3.261   1.516  10.931  0.6997 -1.1263  0.4817
 8795SOL    HW237845   3.302   1.474  10.796 -1.3438 -2.6982 -1.7198
 8796SOL     OW37846   4.673   1.515   5.450 -0.2982  0.2479 -0.3243
 8796SOL    HW137847   0.028   1.557   5.415 -1.5892  2.6288 -0.4215
 8796SOL    HW237848   4.676   1.430   5.406  0.4550  0.5422 -0.8430
 8797SOL     OW37849   4.704   0.432   5.389  0.0899  0.0003 -0.3789
 8797SOL    HW137850   4.651   0.357   5.362 -0.4345  0.2211  0.0232
 8797SOL    HW237851   4.632   0.493   5.409 -1.0495 -1.3634 -0.3389
 8798SOL     OW37852   2.073   1.630   3.279  0.1050 -0.3511 -0.2877
 8798SOL    HW137853   2.115   1.713   3.259 -1.2009  0.2671 -0.4347
 8798SOL    HW237854   2.059   1.603   3.188 -0.5542 -2.6941  0.5100
 8799SOL     OW37855   4.108   4.025   9.716 -0.0103 -0.2908 -0.3346
 8799SOL    HW137856   4.131   3.956   9.655 -1.0724 -0.3342 -0.6861
 8799SOL    HW237857   4.013   4.013   9.708  0.2166 -1.2440 -1.5611
 8800SOL     OW37858   0.093   3.717   1.475 -0.2688 -0.6634  0.1706
 8800SOL    HW137859   0.140   3.644   1.435  0.4996  0.3942 -0.8273
 8800SOL    HW237860   0.105   3.705   1.569 -0.0425 -1.5167  0.0320
 8801SOL     OW37861   3.919   1.192   2.805 -0.8098 -0.3805 -0.3819
 8801SOL    HW137862   3.938   1.199   2.899 -1.1049 -2.0797 -0.2013
 8801SOL    HW237863   3.833   1.234   2.796 -0.0317  1.4322  0.5570
 8802SOL     OW37864   1.300   3.459   4.903 -0.4726 -0.1731  0.1498
 8802SOL    HW137865   1.291   3.542   4.856 -1.9869 -2.7510 -4.2209
 8802SOL    HW237866   1.254   3.402   4.841 -1.2018  0.9146 -0.3196
 8803SOL     OW37867   0.849   3.620   8.950 -0.4103  0.7095 -0.0966
 8803SOL    HW137868   0.898   3.552   8.904  0.1945  1.6721 -0.8833
 8803SOL    HW237869   0.917   3.664   9.002 -0.6035 -0.6566  1.3031
 8804SOL     OW37870   1.550   2.654  10.417 -0.1017 -0.1347 -0.1892
 8804SOL    HW137871   1.599   2.693  10.344  1.2514 -0.3461  0.6156
 8804SOL    HW237872   1.569   2.564  10.391  2.9687 -0.2778  2.6421
 8805SOL     OW37873   0.431   2.909  11.979  0.4651  0.7846 -0.2774
 8805SOL    HW137874   0.399   2.849  11.912 -2.7899  2.5012 -0.2596
 8805SOL    HW237875   0.462   2.983  11.926 -0.0199  1.9279  1.0473
 8806SOL     OW37876   0.534   4.185  12.147  0.3049 -0.6886  0.3160
 8806SOL    HW137877   0.442   4.213  12.146  0.0204 -1.6141  0.3659
 8806SOL    HW237878   0.577   4.266  12.173  1.4837 -0.8042 -1.2466
 8807SOL     OW37879   0.383   2.015   8.004  0.5338  0.1236  0.0131
 8807SOL    HW137880   0.458   2.027   7.945  1.3199 -3.4596  0.2600
 8807SOL    HW237881   0.409   2.078   8.070  1.6111 -1.1350  0.7820
 8808SOL     OW37882   1.032   2.546  17.562 -0.1635  0.2334 -0.1665
 8808SOL    HW137883   0.937   2.533  17.566  0.1606 -2.5339 -1.2388
 8808SOL    HW237884   1.062   2.479  17.623  1.1553  0.2274 -0.8115
 8809SOL     OW37885   4.566   0.451  12.495 -0.1611 -0.0889  0.3751
 8809SOL    HW137886   4.650   0.470  12.454 -0.7416 -1.2585 -1.3850
 8809SOL    HW237887   4.581   0.361  12.522  1.8090  0.0682 -0.2325
 8810SOL     OW37888   1.043   0.725  17.299 -0.2243  0.4386 -0.0514
 8810SOL    HW137889   1.125   0.695  17.261 -1.4048 -1.0927 -1.4097
 8810SOL    HW237890   1.067   0.712  17.391  0.3707  0.7111 -0.1700
 8811SOL     OW37891   2.074   3.325  10.189 -0.2316 -0.2669 -0.6069
 8811SOL    HW137892   2.043   3.341  10.099  1.6864  2.2043 -0.8116
 8811SOL    HW237893   2.000   3.363  10.237  1.1604 -0.0480  1.3277
 8812SOL     OW37894   4.652   3.376   4.414 -0.2778 -0.2528 -0.5128
 8812SOL    HW137895   4.617   3.465   4.407  1.6635  0.5805  0.2245
 8812SOL    HW237896   4.572   3.331   4.387 -1.7480  0.3180  2.9112
 8813SOL     OW37897   2.030   4.129   3.852  0.6970  0.1114  0.4133
 8813SOL    HW137898   1.994   4.041   3.850  1.0250 -0.0225  0.2886
 8813SOL    HW237899   2.104   4.115   3.912 -1.1673  0.3488  2.7491
 8814SOL     OW37900   3.927   0.935   5.401  0.4005  0.0374 -0.7255
 8814SOL    HW137901   3.849   0.916   5.350 -0.3760  3.7627 -0.9147
 8814SOL    HW237902   3.988   0.873   5.362  1.7714  0.7563  0.2261
 8815SOL     OW37903   4.636   2.622   8.316  0.1209  0.0658  0.4144
 8815SOL    HW137904   4.562   2.666   8.358 -0.7233 -1.1170  0.1471
 8815SOL    HW237905   4.602   2.629   8.227 -0.2893  1.5540  0.6781
 8816SOL     OW37906   1.579   3.528   2.362  0.4899 -0.4360  0.2524
 8816SOL    HW137907   1.497   3.479   2.354 -0.2426  1.2429 -2.5975
 8816SOL    HW237908   1.568   3.569   2.447  1.2504  0.9289 -0.3160
 8817SOL     OW37909   2.929   1.530   6.522  1.3157  0.4855  0.6211
 8817SOL    HW137910   2.882   1.499   6.445  0.4778 -1.6459  1.9880
 8817SOL    HW237911   3.013   1.483   6.526 -0.3522 -2.5939 -0.5614
 8818SOL     OW37912   1.526   0.932   4.473 -0.1992 -0.2647 -0.9939
 8818SOL    HW137913   1.615   0.918   4.506  0.0599  1.2574 -1.0268
 8818SOL    HW237914   1.532   1.013   4.423 -1.2346 -0.3341 -1.2332
 8819SOL     OW37915   2.148   3.976   2.641  0.1114  0.0452  0.0083
 8819SOL    HW137916   2.086   3.986   2.568 -1.8240 -1.1385  1.4882
 8819SOL    HW237917   2.224   4.026   2.612 -0.5669  1.7937  1.3102
 8820SOL     OW37918   1.729   4.403  14.945 -0.0656  0.2143 -0.2288
 8820SOL    HW137919   1.771   4.429  14.863 -0.3725 -1.1792 -0.8269
 8820SOL    HW237920   1.755   4.311  14.944  0.4949  0.3788 -0.9662
 8821SOL     OW37921   3.943   4.234  14.838  0.0891  0.1646  0.0405
 8821SOL    HW137922   3.951   4.309  14.898  3.5900 -0.9703  0.9532
 8821SOL    HW237923   3.892   4.265  14.763  0.5405  0.9490  0.0531
 8822SOL     OW37924   3.946   1.654  15.904 -0.2460  0.1513  0.4614
 8822SOL    HW137925   3.941   1.741  15.943 -1.1697  0.5368 -0.5144
 8822SOL    HW237926   4.030   1.653  15.858  0.1228 -0.0082  1.1464
 8823SOL     OW37927   1.581   4.381   0.311  0.0810  0.4337 -0.9088
 8823SOL    HW137928   1.676   4.390   0.316 -0.0598  1.8495 -0.7021
 8823SOL    HW237929   1.557   4.466   0.348 -2.7788 -2.1234  3.0828
 8824SOL     OW37930   1.671   4.283   2.622 -0.0256  0.3998  0.1990
 8824SOL    HW137931   1.596   4.231   2.650  1.8615 -2.8491 -0.7168
 8824SOL    HW237932   1.697   4.254   2.534 -0.6614 -3.8708  1.4362
 8825SOL     OW37933   0.206   2.635  11.421 -0.0797  0.1400 -0.5259
 8825SOL    HW137934   0.257   2.568  11.376 -0.1924  0.7255 -1.5375
 8825SOL    HW237935   0.273   2.697  11.451 -1.6276  2.3704 -1.6791
 8826SOL     OW37936   0.509   0.838   2.017 -0.7088 -0.6090  0.1964
 8826SOL    HW137937   0.593   0.802   1.988 -1.3805 -0.3218 -2.1488
 8826SOL    HW237938   0.536   0.866   2.104 -0.6931  0.1500 -0.0556
 8827SOL     OW37939   0.806   1.324   5.605  0.3217  0.1776  0.1642
 8827SOL    HW137940   0.852   1.246   5.575  0.1616  0.4255 -0.7288
 8827SOL    HW237941   0.846   1.335   5.691 -0.1814 -1.8046  0.6626
 8828SOL     OW37942   3.843   3.505   2.004 -0.2506  0.3735  0.0765
 8828SOL    HW137943   3.863   3.476   1.915 -0.8738 -2.7975  0.9597
 8828SOL    HW237944   3.807   3.427   2.047  1.1282  0.8844  2.1927
 8829SOL     OW37945   4.026   2.687   4.547  0.0210  0.3591  0.4599
 8829SOL    HW137946   3.972   2.688   4.626 -0.9814  1.4849 -0.2508
 8829SOL    HW237947   4.038   2.781   4.533  0.1017  0.4372  1.0711
 8830SOL     OW37948   0.702   4.042   6.389  0.3047 -0.0603  0.0461
 8830SOL    HW137949   0.627   4.008   6.341  2.8898 -2.1647 -2.5013
 8830SOL    HW237950   0.685   4.137   6.387  0.6400 -0.0584 -2.3919
 8831SOL     OW37951   2.611   0.830   1.620  0.1439 -0.2404  0.1866
 8831SOL    HW137952   2.640   0.897   1.558 -1.4800  2.5448  2.4166
 8831SOL    HW237953   2.524   0.862   1.645  0.5138 -0.7448  2.1332
 8832SOL     OW37954   2.387   0.614   2.008 -0.0643 -0.1409 -0.5939
 8832SOL    HW137955   2.433   0.640   2.087  2.5047 -1.9350 -1.5033
 8832SOL    HW237956   2.465   0.606   1.953  1.1915  1.9546  0.8460
 8833SOL     OW37957   3.344   3.190   6.722 -0.0743 -1.3906 -0.3003
 8833SOL    HW137958   3.315   3.265   6.774 -0.2901 -1.0708 -0.8907
 8833SOL    HW237959   3.423   3.162   6.767  1.6277  4.1232  0.1752
 8834SOL     OW37960   3.803   2.637   0.509  0.8012  0.2129  0.9301
 8834SOL    HW137961   3.860   2.607   0.579  0.3264 -0.1028  1.1804
 8834SOL    HW237962   3.798   2.729   0.534 -1.0906  0.2903  0.2781
 8835SOL     OW37963   4.023   3.295  14.142  0.1365 -0.2627  0.1671
 8835SOL    HW137964   3.961   3.347  14.194  0.3193 -0.4401  0.5584
 8835SOL    HW237965   3.975   3.221  14.105  1.8104  0.1615 -2.8820
 8836SOL     OW37966   0.913   0.375   2.513  0.3156  0.8681  0.1463
 8836SOL    HW137967   1.004   0.369   2.483  0.4077  1.3125  0.3351
 8836SOL    HW237968   0.877   0.353   2.427  1.1569  0.3707 -0.0776
 8837SOL     OW37969   2.359   2.521   7.610  0.4755 -0.1130  0.4590
 8837SOL    HW137970   2.335   2.548   7.699  2.7896  0.4673  0.9180
 8837SOL    HW237971   2.308   2.440   7.603 -1.0398  1.0104 -1.5861
 8838SOL     OW37972   3.060   0.290   0.861 -0.1432 -0.0058  0.0835
 8838SOL    HW137973   3.081   0.312   0.951  3.4608  3.1216 -1.5044
 8838SOL    HW237974   2.966   0.301   0.878 -0.0592  0.6037  0.1648
 8839SOL     OW37975   1.539   0.418   7.094  0.1750 -0.1237  0.0570
 8839SOL    HW137976   1.601   0.373   7.152  0.5029 -0.7514 -0.7905
 8839SOL    HW237977   1.520   0.488   7.157  1.7138  0.9937 -0.7392
 8840SOL     OW37978   2.450   1.902   4.317 -0.3349 -0.6882  0.5045
 8840SOL    HW137979   2.399   1.822   4.331 -2.7924  0.5784 -1.2071
 8840SOL    HW237980   2.457   1.941   4.404  1.0863  3.2154 -1.3902
 8841SOL     OW37981   2.948   3.203  12.458  0.3315 -0.4338  0.0561
 8841SOL    HW137982   2.994   3.126  12.494  2.0704  0.6116  0.0676
 8841SOL    HW237983   3.015   3.271  12.462 -0.9957  0.8701 -0.0228
 8842SOL     OW37984   1.981   0.574   6.566 -0.0642 -1.1367 -0.1107
 8842SOL    HW137985   2.008   0.535   6.483  3.6388 -0.1256  0.6434
 8842SOL    HW237986   1.888   0.552   6.565 -0.9671  2.7755 -0.0725
 8843SOL     OW37987   1.742   2.960   4.926  0.8182 -0.6421  0.1282
 8843SOL    HW137988   1.788   2.928   4.849  0.3106  2.0341 -1.2620
 8843SOL    HW237989   1.676   2.892   4.940 -0.3725  0.2483 -1.2024
 8844SOL     OW37990   2.020   3.934   7.748 -0.4209  0.2904 -0.0877
 8844SOL    HW137991   2.090   3.972   7.801 -0.4267  3.8446 -2.6240
 8844SOL    HW237992   2.022   3.843   7.778  2.3742  0.3457 -0.0631
 8845SOL     OW37993   3.822   1.887  13.193 -0.3551 -0.3675 -0.0569
 8845SOL    HW137994   3.735   1.917  13.168 -1.4526 -0.4499  3.6877
 8845SOL    HW237995   3.811   1.812  13.135 -0.1182 -1.0604  0.7979
 8846SOL     OW37996   1.355   2.705   6.568 -0.1856  0.0563 -0.1221
 8846SOL    HW137997   1.353   2.797   6.539  0.5962 -0.5868 -2.2160
 8846SOL    HW237998   1.270   2.703   6.611  0.2006 -0.8194  0.5837
 8847SOL     OW37999   0.535   0.079   8.575  0.0627  0.5065 -0.5278
 8847SOL    HW138000   0.550   4.711   8.595 -0.6399  0.4847 -0.1046
 8847SOL    HW238001   0.604   0.115   8.631  1.3163 -0.6382 -1.3510
 8848SOL     OW38002   3.419   3.777   7.233 -0.2983  0.3610 -0.3996
 8848SOL    HW138003   3.443   3.745   7.321 -0.2944  0.3938 -0.3888
 8848SOL    HW238004   3.459   3.864   7.232 -0.7692  0.6052  1.5563
 8849SOL     OW38005   2.512   2.169   9.044 -0.3677  0.3281 -0.4694
 8849SOL    HW138006   2.472   2.188   9.129  1.2724 -1.1385  0.6484
 8849SOL    HW238007   2.538   2.258   9.021 -1.5522  0.5665 -0.8723
 8850SOL     OW38008   4.042   2.948   4.456  0.3103  0.6646 -0.3679
 8850SOL    HW138009   4.003   2.965   4.371 -0.1338 -3.2017 -0.9145
 8850SOL    HW238010   4.126   2.912   4.427 -1.1195 -0.4769 -3.0483
 8851SOL     OW38011   1.340   3.262   6.490  0.0325 -0.1664 -0.6030
 8851SOL    HW138012   1.347   3.307   6.406  1.2650  2.4825  0.9116
 8851SOL    HW238013   1.388   3.324   6.545 -0.5606 -0.5604  0.3672
 8852SOL     OW38014   1.785   0.828   2.696  0.5430  0.4193  0.1009
 8852SOL    HW138015   1.721   0.833   2.767 -2.1349  3.1778 -2.5171
 8852SOL    HW238016   1.846   0.899   2.714 -2.1966  2.0854  2.7475
 8853SOL     OW38017   4.265   2.438   5.306  0.0032  0.2611 -0.2130
 8853SOL    HW138018   4.354   2.473   5.318  1.1335 -2.2170 -1.4592
 8853SOL    HW238019   4.263   2.376   5.378 -2.1289  0.0277 -0.4723
 8854SOL     OW38020   1.586   3.360   1.399 -0.1326 -0.6196 -0.4556
 8854SOL    HW138021   1.529   3.366   1.322 -2.0728 -0.6596  0.9938
 8854SOL    HW238022   1.673   3.345   1.361 -0.0589  0.1418 -0.5853
 8855SOL     OW38023   1.823   1.776   7.498 -0.8488 -0.3811  0.2749
 8855SOL    HW138024   1.780   1.691   7.513 -0.7325 -0.6059 -0.6895
 8855SOL    HW238025   1.756   1.830   7.455 -0.0502  1.5343  1.4556
 8856SOL     OW38026   0.541   4.600   1.709  0.2794  0.2417  0.1469
 8856SOL    HW138027   0.458   4.640   1.734  0.9987  2.6911 -1.3208
 8856SOL    HW238028   0.510   4.526   1.657  1.8812  0.0607 -0.5668
 8857SOL     OW38029   4.697   2.651  13.681 -0.6959  0.1341  0.3840
 8857SOL    HW138030   4.633   2.722  13.676  1.1023  1.9371  2.9762
 8857SOL    HW238031   4.670   2.616  13.766  1.2367 -0.0825  0.9142
 8858SOL     OW38032   2.978   1.547  13.153  0.0499 -0.4688 -0.7171
 8858SOL    HW138033   3.009   1.599  13.079  0.8355 -2.0721 -1.5004
 8858SOL    HW238034   3.024   1.584  13.228  1.0993  0.2495 -1.7017
 8859SOL     OW38035   3.991   1.206  15.422  0.2376  0.0102  0.0821
 8859SOL    HW138036   3.901   1.209  15.390  0.1860 -0.5542  0.1709
 8859SOL    HW238037   4.035   1.128  15.388 -1.0027 -1.2167  1.2866
 8860SOL     OW38038   0.726   3.582  12.915  0.0554  0.6874 -0.1925
 8860SOL    HW138039   0.776   3.639  12.973 -0.4326  0.7015  0.2178
 8860SOL    HW238040   0.784   3.512  12.885 -2.4563 -1.3226 -0.3631
 8861SOL     OW38041   4.461   0.022   2.916  0.4710  0.1278 -0.2893
 8861SOL    HW138042   4.524   0.054   2.981  0.0592  0.9566 -0.3029
 8861SOL    HW238043   4.386   0.073   2.946  1.0690  2.5480 -2.9719
 8862SOL     OW38044   2.306   1.396   6.050 -0.3072 -0.2672  0.0462
 8862SOL    HW138045   2.340   1.428   5.966 -1.4568 -1.1148 -0.7482
 8862SOL    HW238046   2.265   1.314   6.022 -0.9619  0.9659 -2.5694
 8863SOL     OW38047   1.245   2.999   4.306  0.5178 -0.2640  0.2233
 8863SOL    HW138048   1.153   3.015   4.286  0.9428  1.0149 -0.7160
 8863SOL    HW238049   1.253   2.905   4.323 -1.6300 -0.7515 -1.4938
 8864SOL     OW38050   4.528   1.222  17.584  0.2454 -0.1328  0.3864
 8864SOL    HW138051   4.615   1.189  17.559  0.4113 -1.8379  3.1918
 8864SOL    HW238052   4.482   1.148  17.545 -1.3200  2.0440 -1.9184
 8865SOL     OW38053   3.705   1.059  16.431  0.0772  0.2726 -0.3842
 8865SOL    HW138054   3.729   1.140  16.387  0.4018  0.1166 -0.4996
 8865SOL    HW238055   3.718   1.003  16.354  3.5923 -1.1186  1.1841
 8866SOL     OW38056   4.021   0.020   6.226 -0.3423 -0.1050  0.0086
 8866SOL    HW138057   3.994   4.657   6.256  1.3418 -1.2226 -1.6882
 8866SOL    HW238058   4.006   0.006   6.133 -1.9847  3.8144 -0.3122
 8867SOL     OW38059   0.538   3.883   4.976  0.1527 -0.0994  0.7920
 8867SOL    HW138060   0.515   3.790   4.986  1.1151 -0.1863  2.3403
 8867SOL    HW238061   0.463   3.924   4.935  2.5879  2.4124 -1.1586
 8868SOL     OW38062   0.268   1.546   1.483 -0.0666  0.2163 -0.0564
 8868SOL    HW138063   0.236   1.456   1.487  0.3733  0.0163 -0.9587
 8868SOL    HW238064   0.232   1.576   1.399  0.2438  1.0328  0.1044
 8869SOL     OW38065   3.623   1.359   3.078  0.0273  0.5467  0.6498
 8869SOL    HW138066   3.612   1.427   3.145  0.5248 -0.4464  1.7349
 8869SOL    HW238067   3.533   1.343   3.051  0.5161 -0.6660 -0.2404
 8870SOL     OW38068   3.201   2.782  12.753  0.3903 -0.2535  0.2655
 8870SOL    HW138069   3.124   2.737  12.788  0.4964 -0.8058 -0.2276
 8870SOL    HW238070   3.263   2.763  12.824 -1.0178  0.6414  1.7421
 8871SOL     OW38071   1.585   2.271   5.060 -0.0327  0.2292 -0.8083
 8871SOL    HW138072   1.551   2.281   5.149  0.7409  2.9147 -0.8121
 8871SOL    HW238073   1.524   2.331   5.017 -0.3019  0.5040 -0.0606
 8872SOL     OW38074   0.528   0.581   9.263 -0.0034  0.4336  0.5899
 8872SOL    HW138075   0.502   0.602   9.353 -0.8033 -1.5742  0.8271
 8872SOL    HW238076   0.483   0.646   9.208 -0.6416 -0.5391 -0.0433
 8873SOL     OW38077   1.758   4.197   7.859  0.3453  0.1410 -0.1805
 8873SOL    HW138078   1.774   4.149   7.941  2.2479  0.0988 -0.5746
 8873SOL    HW238079   1.669   4.232   7.867  0.0156 -0.3820 -1.6381
 8874SOL     OW38080   2.683   0.378   6.484  0.0342  0.3486  0.0765
 8874SOL    HW138081   2.743   0.353   6.555  0.5805  1.5891  0.0625
 8874SOL    HW238082   2.640   0.458   6.513 -0.2256 -0.0915  0.9083
 8875SOL     OW38083   0.475   3.064   8.444  0.2187  0.0513 -0.2968
 8875SOL    HW138084   0.432   3.042   8.362  0.7778  0.2516 -0.6423
 8875SOL    HW238085   0.416   3.057   8.519  2.8408 -0.3283  1.7227
 8876SOL     OW38086   2.305   3.468   5.117  0.1528 -0.0028  0.4507
 8876SOL    HW138087   2.221   3.436   5.152 -0.9468  1.6756 -0.6745
 8876SOL    HW238088   2.288   3.555   5.082  0.6348  0.9177  2.4853
 8877SOL     OW38089   1.068   3.330   6.078  0.1669  0.0709  0.0247
 8877SOL    HW138090   1.061   3.328   6.173  1.0241 -0.6707  0.0720
 8877SOL    HW238091   1.100   3.240   6.071  1.7538  0.7499 -1.6696
 8878SOL     OW38092   1.093   4.144   3.914 -0.1712 -0.0239  0.0561
 8878SOL    HW138093   1.010   4.173   3.954  0.9769 -0.9164  3.1449
 8878SOL    HW238094   1.139   4.226   3.932 -0.6090  0.3292 -0.4303
 8879SOL     OW38095   3.608   4.607   3.308 -0.8370  0.2841 -0.1742
 8879SOL    HW138096   3.527   4.632   3.263 -1.4425 -1.5132 -0.0597
 8879SOL    HW238097   3.679   4.608   3.244  0.1946 -2.3688  0.9668
 8880SOL     OW38098   1.058   0.412   6.940  0.2819  0.0876  0.2126
 8880SOL    HW138099   1.033   0.324   6.967 -0.5833 -0.1517 -1.3636
 8880SOL    HW238100   1.119   0.394   6.869 -0.7608  0.2653 -0.7345
 8881SOL     OW38101   4.176   1.031   3.160  0.0741 -0.4585  0.6243
 8881SOL    HW138102   4.105   1.095   3.152  1.1691  0.6327 -0.1672
 8881SOL    HW238103   4.181   1.025   3.256 -0.2342 -0.4581  0.6410
 8882SOL     OW38104   3.634   2.366   5.897 -0.5715  0.1346  0.1441
 8882SOL    HW138105   3.690   2.441   5.879 -1.6242  0.5426 -1.4083
 8882SOL    HW238106   3.689   2.302   5.942  1.5736  1.2563 -0.8741
 8883SOL     OW38107   0.947   1.501   2.433  0.4187 -0.3102  0.1055
 8883SOL    HW138108   0.924   1.440   2.503 -0.1018 -1.9716 -1.4964
 8883SOL    HW238109   1.023   1.544   2.472 -0.8572  2.2284 -0.1951
 8884SOL     OW38110   4.084   3.000  13.557 -0.5762  0.4117 -0.1802
 8884SOL    HW138111   4.060   2.958  13.639 -1.9680 -2.8842 -2.2841
 8884SOL    HW238112   4.152   3.062  13.583  1.7436 -0.4991 -4.0998
 8885SOL     OW38113   4.270   3.811  13.456 -0.7199  0.6282  0.4840
 8885SOL    HW138114   4.253   3.854  13.372 -2.4683 -2.1226 -0.6066
 8885SOL    HW238115   4.250   3.721  13.429 -1.3764  0.7401  0.6046
 8886SOL     OW38116   2.582   0.355   4.527  0.1970 -0.1726  0.1559
 8886SOL    HW138117   2.583   0.368   4.433 -0.4151  1.5814  0.3799
 8886SOL    HW238118   2.612   0.264   4.534  2.2886  0.6951  2.6808
 8887SOL     OW38119   0.793   1.067   2.271  0.1958  0.1650 -0.6928
 8887SOL    HW138120   0.713   1.014   2.277 -0.4966  1.1600 -1.0643
 8887SOL    HW238121   0.838   1.039   2.192  0.4275  0.7649 -0.7709
 8888SOL     OW38122   0.870   0.303  14.816 -0.5338  0.2934  0.1146
 8888SOL    HW138123   0.828   0.351  14.887  0.6101  0.0628  0.9273
 8888SOL    HW238124   0.914   0.369  14.763  0.8045 -0.7740 -0.1016
 8889SOL     OW38125   4.585   0.209   4.312 -0.3184  0.9082  0.3531
 8889SOL    HW138126   4.565   0.301   4.332  0.1087  1.4276 -1.6990
 8889SOL    HW238127   4.589   0.175   4.402 -1.9404  1.8025  0.7631
 8890SOL     OW38128   0.631   1.025   3.575 -0.5714 -0.1572 -0.4555
 8890SOL    HW138129   0.565   1.026   3.645 -0.1170  0.9296 -0.0468
 8890SOL    HW238130   0.712   1.006   3.622 -1.5426  1.1467  1.7291
 8891SOL     OW38131   3.014   4.117   5.137 -0.2047  0.3012 -0.4905
 8891SOL    HW138132   2.940   4.166   5.101  0.2029 -1.3787 -3.6099
 8891SOL    HW238133   3.016   4.160   5.223  0.1933  0.6151 -0.6596
 8892SOL     OW38134   4.632   3.456   8.993 -0.7202  0.2577 -0.1910
 8892SOL    HW138135   4.684   3.478   8.915  0.7849 -0.8794  0.4970
 8892SOL    HW238136   4.694   3.484   9.060 -2.2649 -2.0027  2.1924
 8893SOL     OW38137   4.403   1.929   5.733  0.0851  0.2232 -0.4837
 8893SOL    HW138138   4.442   1.890   5.655  0.2338 -1.7364  0.5677
 8893SOL    HW238139   4.444   1.870   5.796 -0.9383 -0.3730 -0.3694
 8894SOL     OW38140   2.093   4.666   8.832  0.5567 -0.3437 -0.1871
 8894SOL    HW138141   2.101   0.030   8.869  1.4932 -0.6629  0.3821
 8894SOL    HW238142   2.120   4.681   8.741  0.5783  1.5561  0.1219
 8895SOL     OW38143   3.368   4.723   8.667 -0.6769 -0.7594  0.6306
 8895SOL    HW138144   3.297   0.061   8.654  0.3521  1.1171  4.0176
 8895SOL    HW238145   3.442   0.024   8.612 -1.3555 -1.7281 -0.7420
 8896SOL     OW38146   0.991   4.342  10.093  0.3206 -0.3452  0.1466
 8896SOL    HW138147   1.008   4.249  10.077 -0.2925 -0.5839  0.8690
 8896SOL    HW238148   1.057   4.366  10.158  0.8352  0.7522 -0.7915
 8897SOL     OW38149   1.988   3.282   3.844  0.0893  0.2843  0.1435
 8897SOL    HW138150   1.966   3.248   3.757 -0.5037  0.1570  0.3392
 8897SOL    HW238151   1.981   3.376   3.830 -1.2805  0.2824  0.8602
 8898SOL     OW38152   1.317   4.691  12.829  0.5217  0.4565 -0.2813
 8898SOL    HW138153   1.324   4.610  12.880 -0.3928  1.3300  1.2387
 8898SOL    HW238154   1.409   4.708  12.809  0.0252  0.3062 -2.6590
 8899SOL     OW38155   4.223   1.652   2.594  0.1503 -0.5099 -0.1219
 8899SOL    HW138156   4.217   1.558   2.610  0.2535 -0.4597  0.2172
 8899SOL    HW238157   4.211   1.701   2.676 -0.0192 -0.8943  0.0860
 8900SOL     OW38158   3.572   3.722   5.604  0.3191 -0.1919 -0.2305
 8900SOL    HW138159   3.566   3.649   5.541  0.7120 -1.4135  1.1583
 8900SOL    HW238160   3.493   3.702   5.654  0.5838 -3.3372 -1.0341
 8901SOL     OW38161   1.253   4.694  11.871 -0.8380 -0.1597  0.0473
 8901SOL    HW138162   1.315   4.719  11.939 -0.7468 -0.6601  0.1500
 8901SOL    HW238163   1.225   4.613  11.914 -1.0431  0.2827  0.7318
 8902SOL     OW38164   0.277   1.360   5.832 -0.1593  0.5436  0.4592
 8902SOL    HW138165   0.220   1.293   5.794 -0.0101  1.0564 -0.6678
 8902SOL    HW238166   0.339   1.307   5.881 -1.7799 -1.7613  0.0221
 8903SOL     OW38167   2.131   0.801   4.093  0.2574 -0.2896  0.3708
 8903SOL    HW138168   2.100   0.866   4.031 -1.1966 -0.1285  1.2799
 8903SOL    HW238169   2.226   0.813   4.092  0.0386  1.5366  1.5129
 8904SOL     OW38170   1.265   2.671   7.939 -0.7825 -0.1824 -0.2086
 8904SOL    HW138171   1.240   2.755   7.978  0.2707 -0.1589  0.4176
 8904SOL    HW238172   1.179   2.650   7.903  0.2108  0.2838 -2.8221
 8905SOL     OW38173   2.591   3.971  14.806  0.1661 -1.1392 -0.3744
 8905SOL    HW138174   2.573   4.059  14.773 -2.1103 -1.2691  0.5031
 8905SOL    HW238175   2.630   3.931  14.728 -0.2520 -0.4080 -0.9559
 8906SOL     OW38176   2.347   1.956  13.929  0.5911  0.4398  0.0669
 8906SOL    HW138177   2.392   2.020  13.875  0.8153  0.1440 -0.0941
 8906SOL    HW238178   2.259   1.991  13.943 -0.4580 -1.6369 -1.2600
 8907SOL     OW38179   2.624   2.204   4.661  0.1417  0.1282  0.0342
 8907SOL    HW138180   2.542   2.160   4.639  0.6952 -1.3222  0.8421
 8907SOL    HW238181   2.668   2.196   4.576 -0.3849  0.9860 -0.3209
 8908SOL     OW38182   0.594   2.202   6.505  0.0784 -0.0190 -0.1266
 8908SOL    HW138183   0.617   2.110   6.519 -0.0182 -0.0484 -0.1635
 8908SOL    HW238184   0.658   2.244   6.562  1.7950 -1.2169 -1.1709
 8909SOL     OW38185   1.768   3.987   1.044  0.6020 -0.1776 -0.5700
 8909SOL    HW138186   1.688   3.986   1.096  1.5537  2.3092  0.9751
 8909SOL    HW238187   1.743   3.961   0.955 -2.8213 -0.7692  0.5880
 8910SOL     OW38188   2.582   2.702   6.052  0.2457  0.4786 -0.4062
 8910SOL    HW138189   2.593   2.640   5.981  1.3709  1.2307 -0.8864
 8910SOL    HW238190   2.571   2.641   6.125  0.6176 -0.0365 -0.7841
 8911SOL     OW38191   2.385   0.483  14.924 -0.4250 -0.3281 -0.0378
 8911SOL    HW138192   2.441   0.502  14.999  0.3218  1.4983 -1.0476
 8911SOL    HW238193   2.448   0.443  14.864 -2.8669 -0.1007 -2.7736
 8912SOL     OW38194   0.749   1.231   3.957  0.3694  0.4117  0.5393
 8912SOL    HW138195   0.835   1.190   3.954 -0.3409 -0.8522 -1.7860
 8912SOL    HW238196   0.719   1.192   4.039  2.5511 -1.8869  0.2162
 8913SOL     OW38197   2.930   3.976  10.525 -0.4384 -0.0214  0.0083
 8913SOL    HW138198   2.899   3.944  10.610  0.5335  1.3004  0.8412
 8913SOL    HW238199   2.868   4.049  10.521 -0.8039 -0.3360 -0.1895
 8914SOL     OW38200   3.531   4.051   6.431  0.0163 -0.2714  0.3833
 8914SOL    HW138201   3.463   4.038   6.365  0.5188  4.1314 -0.9415
 8914SOL    HW238202   3.552   3.959   6.449  0.4991  0.0934  1.7024
 8915SOL     OW38203   0.785   1.923   5.177  0.2290 -0.1830 -0.1053
 8915SOL    HW138204   0.857   1.898   5.119  0.0389 -0.0983 -0.3841
 8915SOL    HW238205   0.727   1.957   5.108  0.0384  2.5740  1.4001
 8916SOL     OW38206   1.790   1.239   4.497 -0.4483  0.7336  0.3091
 8916SOL    HW138207   1.807   1.330   4.521  0.6324  1.2288 -2.3539
 8916SOL    HW238208   1.832   1.228   4.412  1.2225 -1.6483  1.4583
 8917SOL     OW38209   0.608   1.984   9.178 -0.0332  0.8007 -0.3267
 8917SOL    HW138210   0.628   1.890   9.182  1.2001  1.2194  2.9004
 8917SOL    HW238211   0.661   2.008   9.254 -0.9527  1.6046  0.0658
 8918SOL     OW38212   4.279   4.147  11.929  0.1783  0.3638 -0.0644
 8918SOL    HW138213   4.228   4.184  11.857  0.5120 -2.5961 -1.7829
 8918SOL    HW238214   4.324   4.228  11.954  1.0465 -0.3511  0.6792
 8919SOL     OW38215   2.958   0.359   4.292  0.7905 -0.0058 -0.1692
 8919SOL    HW138216   2.930   0.446   4.322 -0.0132 -0.2416 -0.2142
 8919SOL    HW238217   3.051   0.356   4.312  0.3094 -4.5408  1.3926
 8920SOL     OW38218   1.715   0.359  15.396 -0.0699  0.0451  0.1853
 8920SOL    HW138219   1.767   0.290  15.356 -0.5256 -0.5893  0.6850
 8920SOL    HW238220   1.710   0.425  15.327  1.6079  1.3957  1.3349
 8921SOL     OW38221   3.637   3.923   8.842 -0.3173  0.3493  0.3476
 8921SOL    HW138222   3.606   3.835   8.824 -1.3101  0.6350  0.6858
 8921SOL    HW238223   3.593   3.978   8.777 -2.6569 -1.0461  0.7838
 8922SOL     OW38224   3.810   4.161   6.785  0.4082  0.5002 -0.3014
 8922SOL    HW138225   3.720   4.169   6.751  0.1738 -1.7412 -0.1693
 8922SOL    HW238226   3.823   4.068   6.769  1.3705  0.6911 -0.6308
 8923SOL     OW38227   3.469   4.193   2.434 -0.7841 -0.3933  0.0811
 8923SOL    HW138228   3.395   4.223   2.381 -0.1900 -1.1857 -1.1932
 8923SOL    HW238229   3.510   4.141   2.365  0.0820 -1.1464  1.1667
 8924SOL     OW38230   4.638   1.834   7.840 -0.1630 -0.2432  0.2074
 8924SOL    HW138231   4.610   1.765   7.901 -0.9382  0.0372  0.1663
 8924SOL    HW238232   4.707   1.873   7.895  0.4791 -1.3079  0.1564
 8925SOL     OW38233   2.057   2.386   9.024 -0.1249  0.4846 -0.0744
 8925SOL    HW138234   2.110   2.452   9.068  1.9659 -0.4807 -1.1474
 8925SOL    HW238235   2.127   2.329   8.995 -0.6712 -0.7264  0.9923
 8926SOL     OW38236   2.405   3.597   8.168 -0.4411 -0.2717  0.3898
 8926SOL    HW138237   2.401   3.503   8.155 -0.6646  0.0911 -2.0562
 8926SOL    HW238238   2.311   3.607   8.183 -0.3764  0.4329  0.3683
 8927SOL     OW38239   0.363   0.330   9.171 -0.2782 -0.3157  0.1453
 8927SOL    HW138240   0.436   0.392   9.173  0.4248 -1.2127  2.2955
 8927SOL    HW238241   0.298   0.383   9.126 -0.2785 -2.2144 -2.1091
 8928SOL     OW38242   4.236   0.693   7.386  0.2131  0.0144  0.7846
 8928SOL    HW138243   4.268   0.709   7.297 -0.7945  1.2004  0.6389
 8928SOL    HW238244   4.317   0.684   7.435  0.0522 -2.3350  0.6035
 8929SOL     OW38245   1.104   0.174   7.210 -0.2101 -1.0065 -0.1055
 8929SOL    HW138246   1.074   0.116   7.141  1.9108 -0.5569 -1.4166
 8929SOL    HW238247   1.021   0.218   7.226  0.0283 -0.2375 -1.0016
 8930SOL     OW38248   1.477   3.647   8.466  0.4390 -0.1667 -0.4384
 8930SOL    HW138249   1.457   3.597   8.387 -0.3853  0.3150 -0.5226
 8930SOL    HW238250   1.543   3.706   8.429  0.3634 -0.1246 -0.5047
 8931SOL     OW38251   2.796   0.072  15.664  0.0831  0.1674  0.4684
 8931SOL    HW138252   2.853   0.145  15.638  0.6199 -0.5218 -0.2729
 8931SOL    HW238253   2.720   0.119  15.701  0.1978  0.7757 -0.0706
 8932SOL     OW38254   1.582   2.497   1.170  0.1004 -0.6812 -0.1208
 8932SOL    HW138255   1.645   2.568   1.155  0.7242 -1.4279 -1.0019
 8932SOL    HW238256   1.505   2.553   1.180  0.7236  0.0299  0.7853
 8933SOL     OW38257   1.909   1.781  10.565 -0.2439 -0.5449  0.0273
 8933SOL    HW138258   1.990   1.734  10.544 -0.8193 -1.1866 -0.7708
 8933SOL    HW238259   1.879   1.713  10.625 -1.9387 -0.0197 -0.2419
 8934SOL     OW38260   1.883   1.833   8.476 -0.1091 -0.0440 -0.7377
 8934SOL    HW138261   1.929   1.849   8.394  0.3077 -0.2160 -0.5395
 8934SOL    HW238262   1.905   1.740   8.483  1.3279  0.5118  2.2498
 8935SOL     OW38263   4.539   0.556   5.616  0.0373 -0.4504 -0.1166
 8935SOL    HW138264   4.547   0.466   5.648 -0.9787 -0.1852  0.8632
 8935SOL    HW238265   4.451   0.557   5.578  0.0216  2.4994  0.0440
 8936SOL     OW38266   0.494   3.286   4.755 -0.3175  0.1303 -0.2865
 8936SOL    HW138267   0.533   3.366   4.719  1.7432 -0.4364  0.7004
 8936SOL    HW238268   0.569   3.227   4.753  0.3556  0.9159  2.2262
 8937SOL     OW38269   0.075   2.073  11.188 -0.4031  0.4384  0.0449
 8937SOL    HW138270   0.143   2.053  11.252  0.7571  0.5573 -1.1391
 8937SOL    HW238271   0.055   2.166  11.195 -0.7740  0.4884 -1.7365
 8938SOL     OW38272   3.096   3.881   2.014  0.5002  0.1922  0.3381
 8938SOL    HW138273   3.011   3.919   2.036 -0.1959 -0.1548 -1.6927
 8938SOL    HW238274   3.108   3.932   1.934  0.1134  0.2117  0.2879
 8939SOL     OW38275   0.741   4.562   6.242 -0.0868 -0.3819  0.4646
 8939SOL    HW138276   0.744   4.483   6.295 -3.4129  0.8168  2.4530
 8939SOL    HW238277   0.817   4.608   6.276  1.6651 -1.6114 -1.7670
 8940SOL     OW38278   3.959   1.895   4.805 -0.1036 -0.1588 -0.4170
 8940SOL    HW138279   4.006   1.908   4.887 -0.7486  1.2072 -0.2637
 8940SOL    HW238280   4.030   1.888   4.741 -0.8480 -2.4723 -0.9914
 8941SOL     OW38281   1.788   2.454   7.286 -0.0727 -0.0363  0.3239
 8941SOL    HW138282   1.694   2.444   7.272 -0.0048 -0.1668 -0.0365
 8941SOL    HW238283   1.790   2.515   7.360 -0.1485  0.1034  0.2122
 8942SOL     OW38284   1.704   4.398   5.068 -0.0833 -0.0441 -0.3829
 8942SOL    HW138285   1.705   4.475   5.124  0.1023 -2.1248  2.5032
 8942SOL    HW238286   1.762   4.338   5.116 -2.5968 -1.2149  1.1549
 8943SOL     OW38287   0.744   1.450   0.805  0.0582  0.4276 -0.6683
 8943SOL    HW138288   0.787   1.492   0.880  0.3273  3.2635 -2.3939
 8943SOL    HW238289   0.804   1.489   0.741  0.1743 -0.8924 -1.3600
 8944SOL     OW38290   0.162   3.396  14.959  0.3372 -0.5636  0.2554
 8944SOL    HW138291   0.241   3.387  14.906  0.9425 -1.6663  1.3399
 8944SOL    HW238292   0.092   3.362  14.903  2.1126 -1.4746 -1.4250
 8945SOL     OW38293   3.690   0.464   6.629  0.2940 -0.4880 -0.5870
 8945SOL    HW138294   3.721   0.546   6.592  0.0587 -0.6757 -1.2113
 8945SOL    HW238295   3.596   0.482   6.638  0.5829 -0.0318  1.3358
 8946SOL     OW38296   1.267   0.862   5.266 -0.2011  0.6801 -0.4045
 8946SOL    HW138297   1.255   0.951   5.299 -0.4775  0.3329  0.4287
 8946SOL    HW238298   1.251   0.881   5.173  0.4195  0.0775 -0.6382
 8947SOL     OW38299   4.478   1.037  11.735  0.2583 -0.4596 -0.3331
 8947SOL    HW138300   4.519   1.103  11.679  2.3405 -0.3248  1.3479
 8947SOL    HW238301   4.482   0.952  11.692  0.5344  0.1770 -1.5667
 8948SOL     OW38302   3.145   1.325  11.866 -0.1901 -0.4771  0.1794
 8948SOL    HW138303   3.172   1.415  11.883 -1.0279 -0.1563 -0.2056
 8948SOL    HW238304   3.222   1.298  11.816 -0.2625  0.2006 -0.2894
 8949SOL     OW38305   1.936   2.609   5.028  0.2737  0.5794 -0.4103
 8949SOL    HW138306   1.919   2.691   4.983  0.3585  1.4123  1.0594
 8949SOL    HW238307   1.980   2.561   4.958 -0.6278 -0.1752 -0.4645
 8950SOL     OW38308   4.136   3.733   8.301  0.3121  0.1357 -0.1642
 8950SOL    HW138309   4.106   3.811   8.347 -1.0728  0.3752 -1.4600
 8950SOL    HW238310   4.162   3.776   8.220  2.0401 -0.3674  0.1321
 8951SOL     OW38311   1.568   1.927   4.800  0.1007  0.0244  0.0428
 8951SOL    HW138312   1.599   1.944   4.889 -0.4697  0.7880  0.1040
 8951SOL    HW238313   1.480   1.891   4.816  1.1790 -3.0820 -1.1330
 8952SOL     OW38314   4.179   3.305   6.849 -0.0461 -0.2077 -0.7980
 8952SOL    HW138315   4.173   3.308   6.945  0.5410  0.1201 -0.7706
 8952SOL    HW238316   4.271   3.283   6.833  0.4600 -0.4643  2.4160
 8953SOL     OW38317   0.519   3.108   9.749  0.3960 -0.1503  0.1932
 8953SOL    HW138318   0.446   3.049   9.729  0.2105 -0.2685  1.2425
 8953SOL    HW238319   0.487   3.188   9.706 -0.2253 -1.1227 -1.1628
 8954SOL     OW38320   2.827   0.244   2.123 -0.5165 -0.4086 -0.0124
 8954SOL    HW138321   2.784   0.253   2.038 -1.1166  1.0534  0.4352
 8954SOL    HW238322   2.870   0.162   2.100  0.6423  0.3444 -0.5534
 8955SOL     OW38323   2.066   0.998   9.390 -0.3211 -0.5970  0.3425
 8955SOL    HW138324   2.078   1.039   9.476  1.5043  1.6180 -0.9854
 8955SOL    HW238325   2.030   0.911   9.406  0.7747 -1.1818 -0.4312
 8956SOL     OW38326   2.458   4.099   9.976  0.2929 -0.0005  0.6599
 8956SOL    HW138327   2.388   4.074  10.037 -0.8314 -0.6752 -0.8990
 8956SOL    HW238328   2.472   4.012   9.940 -0.7885  0.4268 -0.7842
 8957SOL     OW38329   2.949   3.126   8.249  0.2253  0.2304  0.3752
 8957SOL    HW138330   2.953   3.053   8.188 -1.0167 -0.8840  1.5986
 8957SOL    HW238331   2.997   3.190   8.198  1.9748 -0.1295  1.5607
 8958SOL     OW38332   0.622   1.784  12.625 -0.2355 -0.0847  0.0390
 8958SOL    HW138333   0.683   1.764  12.554 -1.1837 -0.4559 -0.6827
 8958SOL    HW238334   0.615   1.705  12.678 -1.5517 -0.9480 -1.3892
 8959SOL     OW38335   2.354   2.512   8.413  0.4868  0.3670  0.4823
 8959SOL    HW138336   2.301   2.448   8.460  0.2535  0.7131  0.6927
 8959SOL    HW238337   2.394   2.460   8.344 -0.3076  0.2411  0.1136
 8960SOL     OW38338   3.542   1.760   9.906 -0.3889  0.1515 -0.1413
 8960SOL    HW138339   3.554   1.667   9.886 -0.4723 -0.0515  0.7365
 8960SOL    HW238340   3.456   1.785   9.872 -0.4575 -0.6046 -0.5268
 8961SOL     OW38341   3.677   3.865   1.060 -0.3950  0.3220 -0.2450
 8961SOL    HW138342   3.719   3.808   0.996 -0.2676 -0.9869  0.9938
 8961SOL    HW238343   3.678   3.944   1.006 -1.1986  0.3343 -0.2424
 8962SOL     OW38344   2.867   4.351   4.635  0.1398  0.1308 -0.9278
 8962SOL    HW138345   2.881   4.395   4.551 -0.7556  0.5688 -0.8476
 8962SOL    HW238346   2.927   4.277   4.624 -1.2904 -1.3824  1.4093
 8963SOL     OW38347   4.039   4.366  10.571 -0.6765 -0.2492  0.0552
 8963SOL    HW138348   3.984   4.321  10.507  1.4937 -1.9489 -0.6089
 8963SOL    HW238349   3.995   4.363  10.655 -0.1414 -0.9452  0.3107
 8964SOL     OW38350   0.423   0.986   4.764  0.3181  0.0158  0.8564
 8964SOL    HW138351   0.408   0.989   4.858  1.5489  1.4166  1.0171
 8964SOL    HW238352   0.352   1.036   4.723  2.6063  2.4498 -0.1003
 8965SOL     OW38353   3.547   2.914   2.273  0.2437 -0.3060  0.8260
 8965SOL    HW138354   3.536   2.862   2.352 -1.3317 -0.0317  0.8021
 8965SOL    HW238355   3.457   2.945   2.257  0.4900 -0.7621 -1.4749
 8966SOL     OW38356   2.564   3.579   4.831 -0.3244  0.1512  0.1230
 8966SOL    HW138357   2.648   3.585   4.785 -0.4616  1.1537  0.0186
 8966SOL    HW238358   2.520   3.641   4.774  0.7955  0.1597 -0.7392
 8967SOL     OW38359   1.902   4.247  11.112  0.3384 -0.3300  0.0887
 8967SOL    HW138360   1.895   4.250  11.208 -0.6125 -0.2316  0.0200
 8967SOL    HW238361   1.873   4.158  11.093  2.0807 -0.6934 -0.8428
 8968SOL     OW38362   0.232   1.235  10.119  0.5289 -0.0542 -0.0520
 8968SOL    HW138363   0.209   1.255  10.209  1.8710  1.2665 -0.0108
 8968SOL    HW238364   0.309   1.289  10.106 -0.6599  1.5738 -0.2411
 8969SOL     OW38365   1.362   4.506   4.941  0.1520  0.2378 -0.5067
 8969SOL    HW138366   1.394   4.422   4.975 -2.4797 -0.9874 -1.1210
 8969SOL    HW238367   1.428   4.521   4.872 -0.4441  0.6262 -0.9914
 8970SOL     OW38368   2.590   3.386   6.330  0.0945  0.0564 -0.0393
 8970SOL    HW138369   2.551   3.394   6.417 -1.5476  1.1742 -0.8851
 8970SOL    HW238370   2.645   3.464   6.336 -2.5014  1.6311  3.1658
 8971SOL     OW38371   0.654   3.674   3.327  0.3466  0.2141  0.2571
 8971SOL    HW138372   0.648   3.655   3.234 -1.2769  0.7037  0.2539
 8971SOL    HW238373   0.565   3.697   3.354 -0.3649 -0.6688 -1.3688
 8972SOL     OW38374   0.059   4.353  10.390 -0.1556  0.2186  0.8340
 8972SOL    HW138375   4.708   4.402  10.357 -0.6071 -0.5440  0.7165
 8972SOL    HW238376   0.103   4.414  10.449  0.8650  1.7585 -1.5399
 8973SOL     OW38377   0.760   4.277   0.981  0.7922  0.7466 -0.2441
 8973SOL    HW138378   0.808   4.288   0.899  1.0258  1.3339 -0.0272
 8973SOL    HW238379   0.702   4.202   0.972  0.1859  1.4691 -2.4888
 8974SOL     OW38380   4.019   2.428   6.190 -0.0737 -0.0764  0.2213
 8974SOL    HW138381   4.049   2.407   6.278 -0.9665 -0.4675  0.4333
 8974SOL    HW238382   3.925   2.411   6.197  0.4577 -1.6194  3.6598
 8975SOL     OW38383   0.460   3.284  13.817  0.9932  0.0713 -0.2860
 8975SOL    HW138384   0.501   3.202  13.843 -1.3410  0.0367  3.4227
 8975SOL    HW238385   0.481   3.342  13.890  2.9258  1.2063 -1.7557
 8976SOL     OW38386   1.089   1.398   0.681  0.0972 -0.1467 -0.0204
 8976SOL    HW138387   1.062   1.489   0.687  2.5580  0.5688  0.0621
 8976SOL    HW238388   1.175   1.397   0.640 -0.0022 -0.3786 -0.2258
 8977SOL     OW38389   1.861   0.061   2.427  0.1657 -0.2539 -0.0344
 8977SOL    HW138390   1.865   0.070   2.332 -2.0289 -0.4274 -0.1250
 8977SOL    HW238391   1.774   0.096   2.446  0.3462  0.4277 -0.4617
 8978SOL     OW38392   3.648   1.947  16.802  0.5062 -0.6778  0.6812
 8978SOL    HW138393   3.575   2.009  16.801 -0.6882 -2.0982 -0.6863
 8978SOL    HW238394   3.616   1.884  16.736 -0.7646  0.5508  0.1270
 8979SOL     OW38395   0.499   4.164   5.450  0.1858  0.1181 -0.4352
 8979SOL    HW138396   0.504   4.069   5.451  2.9703  0.2740  1.3398
 8979SOL    HW238397   0.424   4.183   5.394 -2.0464 -1.8192  1.8994
 8980SOL     OW38398   4.610   3.854   2.913 -0.9301 -0.2393  0.1736
 8980SOL    HW138399   4.595   3.912   2.988 -1.4251 -1.3673  0.9363
 8980SOL    HW238400   4.522   3.871   2.879 -1.5935  1.0277  2.5670
 8981SOL     OW38401   4.450   3.269   6.846  0.3071  0.2347  0.2459
 8981SOL    HW138402   4.522   3.245   6.787 -0.1408  2.8708 -1.3501
 8981SOL    HW238403   4.493   3.315   6.917  0.0297 -1.5281  1.5546
 8982SOL     OW38404   0.707   2.518   7.076 -0.2256  0.2867 -0.4429
 8982SOL    HW138405   0.703   2.443   7.016 -2.0773  0.5479 -0.6225
 8982SOL    HW238406   0.633   2.512   7.135  0.3087 -1.6554  0.0505
 8983SOL     OW38407   2.576   1.368   5.889  0.0199  0.3810  0.3510
 8983SOL    HW138408   2.611   1.451   5.856  0.2849 -0.1402 -0.6932
 8983SOL    HW238409   2.620   1.368   5.974 -0.3381 -0.7743  0.5393
 8984SOL     OW38410   2.128   1.882   9.343 -0.0022  0.0025 -0.2910
 8984SOL    HW138411   2.122   1.900   9.249 -1.3368 -0.4094 -0.2937
 8984SOL    HW238412   2.099   1.967   9.377  0.5863 -0.1853  0.6882
 8985SOL     OW38413   1.996   0.416   2.310 -0.0681 -0.0075  0.1830
 8985SOL    HW138414   2.001   0.371   2.395  0.3971  0.9383  0.6609
 8985SOL    HW238415   2.085   0.453   2.314 -0.6287  1.2744  0.7473
 8986SOL     OW38416   3.209   4.253   2.315 -0.4477  0.3554 -0.0547
 8986SOL    HW138417   3.240   4.202   2.240  2.5063 -0.1475  1.4836
 8986SOL    HW238418   3.138   4.195   2.343 -0.2518  0.2709  0.2689
 8987SOL     OW38419   2.751   3.616  14.653 -0.3892 -0.0865 -0.2808
 8987SOL    HW138420   2.681   3.682  14.651  0.5061  0.8649 -0.1423
 8987SOL    HW238421   2.694   3.539  14.663  0.1782 -0.4595  0.1314
 8988SOL     OW38422   3.830   2.907   7.799 -0.4327 -0.3930 -0.2447
 8988SOL    HW138423   3.829   2.914   7.895 -1.6733 -1.5425 -0.1723
 8988SOL    HW238424   3.889   2.832   7.798  0.0380 -0.0201  0.0644
 8989SOL     OW38425   3.470   2.416   1.612  0.1150 -0.2442 -0.0054
 8989SOL    HW138426   3.510   2.495   1.576 -1.9458  1.5684  1.6667
 8989SOL    HW238427   3.422   2.373   1.542 -1.5400  0.4951  0.6725
 8990SOL     OW38428   3.247   4.339   4.976 -0.0475  0.0368 -0.8375
 8990SOL    HW138429   3.228   4.392   5.054  0.9667  0.2535 -0.7304
 8990SOL    HW238430   3.175   4.374   4.923  0.8525  1.5343 -1.0791
 8991SOL     OW38431   1.971   1.659  12.976  0.5048 -0.0534  0.1170
 8991SOL    HW138432   2.053   1.611  12.964 -0.4994 -1.8074  0.2382
 8991SOL    HW238433   1.978   1.666  13.071  2.8019 -0.7232 -0.0023
 8992SOL     OW38434   0.994   1.937   7.816  0.1988  0.3562 -0.1366
 8992SOL    HW138435   1.013   1.876   7.888  1.0509 -0.4031 -0.9981
 8992SOL    HW238436   0.927   1.991   7.858  0.6220  1.4102 -0.8399
 8993SOL     OW38437   2.468   3.774   7.961  0.0852 -0.2288  0.4678
 8993SOL    HW138438   2.535   3.831   7.999  1.5232 -0.6802 -1.3773
 8993SOL    HW238439   2.442   3.724   8.038 -1.2248 -0.0411  0.1469
 8994SOL     OW38440   3.357   3.637   5.749 -0.4161  0.3991 -0.0852
 8994SOL    HW138441   3.282   3.690   5.776  0.5901  1.7476  0.0345
 8994SOL    HW238442   3.300   3.573   5.705 -2.4354  1.9480  0.2892
 8995SOL     OW38443   1.250   0.678   2.302  0.3627 -0.3656  0.1849
 8995SOL    HW138444   1.254   0.772   2.281  1.1209 -0.7064 -1.2095
 8995SOL    HW238445   1.342   0.657   2.284  0.5474  1.5741 -1.1951
 8996SOL     OW38446   4.313   2.814   2.437  0.1640 -0.1218  0.0585
 8996SOL    HW138447   4.347   2.784   2.521 -1.1730  0.6972  0.8798
 8996SOL    HW238448   4.313   2.730   2.390  0.1722  0.4799 -1.0327
 8997SOL     OW38449   4.643   3.794   7.267 -0.6175  0.5338 -0.6868
 8997SOL    HW138450   4.667   3.837   7.349 -0.6162 -2.8173  1.0708
 8997SOL    HW238451   4.613   3.877   7.229  1.6630  1.3153 -0.7757
 8998SOL     OW38452   1.352   2.985   7.584 -0.6033 -0.3666 -0.2435
 8998SOL    HW138453   1.385   2.899   7.608  0.0339  0.4895  1.9232
 8998SOL    HW238454   1.280   2.962   7.526 -0.8269 -0.3117  0.0094
 8999SOL     OW38455   3.333   1.841   6.801 -0.3762 -0.1408 -0.7515
 8999SOL    HW138456   3.265   1.899   6.835 -1.2332 -1.6457  0.0551
 8999SOL    HW238457   3.406   1.870   6.855  0.5049  1.2583 -2.6744
 9000SOL     OW38458   3.164   2.623   6.597  0.2439  0.0816  0.2139
 9000SOL    HW138459   3.170   2.568   6.519  1.3201 -0.5227  0.7176
 9000SOL    HW238460   3.114   2.696   6.561  0.6760 -0.5450 -1.6456
 9001SOL     OW38461   4.558   3.396   5.503 -0.1517  0.0425  0.3241
 9001SOL    HW138462   4.490   3.372   5.566 -1.4660 -0.4006 -1.2906
 9001SOL    HW238463   4.500   3.395   5.428  1.8119  0.5886 -1.1972
 9002SOL     OW38464   2.099   1.329  11.670 -0.3527 -1.2206 -0.2468
 9002SOL    HW138465   2.036   1.350  11.601 -0.0426 -0.7836 -0.3935
 9002SOL    HW238466   2.095   1.238  11.698 -0.5494 -0.9459  0.6269
 9003SOL     OW38467   0.327   4.573  14.357  0.0131 -0.5623  0.0371
 9003SOL    HW138468   0.388   4.601  14.425 -2.2423  0.7511  1.5393
 9003SOL    HW238469   0.322   4.479  14.371  0.2051 -0.7895 -1.4713
 9004SOL     OW38470   2.385   3.780   1.305  0.1892 -0.6288  0.2822
 9004SOL    HW138471   2.410   3.688   1.309  1.1389 -0.3222  1.3473
 9004SOL    HW238472   2.394   3.788   1.210 -0.1449 -2.0668  0.1409
 9005SOL     OW38473   2.154   3.385   8.011  0.2174 -0.2774  0.3899
 9005SOL    HW138474   2.065   3.415   7.992  0.6994 -0.6649 -2.3607
 9005SOL    HW238475   2.208   3.413   7.937 -0.6986  2.4534  0.7417
 9006SOL     OW38476   2.540   4.477   7.962 -0.3923  0.3170 -0.3765
 9006SOL    HW138477   2.483   4.410   7.924  1.1830 -1.6803  0.8008
 9006SOL    HW238478   2.556   4.528   7.883  0.9431  1.1851  0.4495
 9007SOL     OW38479   3.387   2.035  16.809  0.1073  0.6794 -0.0837
 9007SOL    HW138480   3.328   2.077  16.746 -0.0076 -0.2641 -0.6030
 9007SOL    HW238481   3.351   2.089  16.879 -1.5491 -0.4382 -0.0848
 9008SOL     OW38482   4.172   1.347  13.979  0.4036 -0.3234  0.0545
 9008SOL    HW138483   4.152   1.304  14.062 -0.8563 -1.5034 -0.8603
 9008SOL    HW238484   4.110   1.419  13.968 -0.1154 -0.8905 -0.6666
 9009SOL     OW38485   4.531   0.791   9.461 -0.2899 -0.3594  0.6974
 9009SOL    HW138486   4.492   0.787   9.374  0.6567 -0.0279  0.2498
 9009SOL    HW238487   4.456   0.769   9.515 -1.4602  1.2050 -0.3051
 9010SOL     OW38488   4.202   1.082   4.373 -0.2644 -0.0098  0.5133
 9010SOL    HW138489   4.129   1.143   4.362  0.4303  0.4803 -1.3769
 9010SOL    HW238490   4.198   1.044   4.285  1.0809  2.4791 -0.6089
 9011SOL     OW38491   2.488   2.668  17.327  0.3157  0.1274  0.2066
 9011SOL    HW138492   2.543   2.696  17.401 -0.4977 -2.0047  1.6205
 9011SOL    HW238493   2.421   2.736  17.327  0.1693 -0.0199 -0.3833
 9012SOL     OW38494   0.392   4.369   4.221  0.3817 -0.7655  0.4826
 9012SOL    HW138495   0.297   4.372   4.227  0.3443  0.0777 -0.7015
 9012SOL    HW238496   0.416   4.451   4.263 -3.4518  0.9621 -0.7522
 9013SOL     OW38497   0.390   2.351   3.849  0.3652  0.3549  0.4214
 9013SOL    HW138498   0.374   2.373   3.757  1.4257  0.1131  0.1840
 9013SOL    HW238499   0.466   2.298   3.823  1.2741  1.4637  0.8344
 9014SOL     OW38500   0.560   2.727   5.593 -0.2523 -0.3327  0.6928
 9014SOL    HW138501   0.575   2.745   5.500 -2.3270 -1.0172  0.2162
 9014SOL    HW238502   0.638   2.673   5.601  0.7098  0.9977  0.3169
 9015SOL     OW38503   1.172   0.085   6.948 -0.0964  0.6465 -0.6418
 9015SOL    HW138504   1.170   4.717   6.920  0.2934 -0.2447  2.1633
 9015SOL    HW238505   1.223   0.069   7.028 -0.9203  0.1903 -0.2035
 9016SOL     OW38506   1.988   0.872   8.039 -0.3788 -0.0325 -0.2914
 9016SOL    HW138507   2.048   0.824   8.096  0.6729  0.7459 -0.7323
 9016SOL    HW238508   1.950   0.942   8.091  3.0879  2.2787 -0.8870
 9017SOL     OW38509   1.715   0.276   4.638 -0.6080 -0.5238 -0.1023
 9017SOL    HW138510   1.622   0.294   4.647 -0.8089 -0.6913 -1.8842
 9017SOL    HW238511   1.710   0.259   4.544  1.1867  1.5003 -0.5617
 9018SOL     OW38512   1.268   0.433   0.530 -0.0776 -0.5931 -0.2966
 9018SOL    HW138513   1.287   0.405   0.441  1.2142 -2.2631  0.5172
 9018SOL    HW238514   1.255   0.351   0.578 -2.2936  0.8078  1.5405
 9019SOL     OW38515   2.896   0.596   6.296  0.0902  0.6579 -0.0254
 9019SOL    HW138516   2.894   0.602   6.392  1.3953  2.9288 -0.1512
 9019SOL    HW238517   2.912   0.688   6.276  0.2068  0.4221 -0.9982
 9020SOL     OW38518   4.439   1.294  16.330 -0.1970 -0.5854 -0.8869
 9020SOL    HW138519   4.383   1.240  16.274  0.4243  0.2813 -2.3386
 9020SOL    HW238520   4.513   1.233  16.339 -0.8153 -0.9941  1.6602
 9021SOL     OW38521   4.412   3.126   1.875  0.6800  1.0314  0.6631
 9021SOL    HW138522   4.319   3.119   1.900  1.6065 -1.4706  3.5048
 9021SOL    HW238523   4.459   3.104   1.956  0.8209 -4.2425 -0.8554
 9022SOL     OW38524   2.977   2.738   5.105  0.0974  0.5115  0.7757
 9022SOL    HW138525   2.926   2.657   5.111 -1.7029  1.5038 -0.9718
 9022SOL    HW238526   3.045   2.723   5.171  1.7239  0.5672 -0.8989
 9023SOL     OW38527   3.737   0.426  14.931  0.3642  0.6803 -0.4514
 9023SOL    HW138528   3.788   0.395  15.005  0.6290  3.1402  0.3944
 9023SOL    HW238529   3.804   0.485  14.896  1.4271 -0.7912 -0.8893
 9024SOL     OW38530   2.572   2.319   2.657  0.1979  0.5187  0.6355
 9024SOL    HW138531   2.519   2.394   2.630 -2.1770 -1.3451  0.1893
 9024SOL    HW238532   2.528   2.246   2.614 -1.3179  2.5381 -1.3099
 9025SOL     OW38533   2.282   2.669  15.019 -0.6998 -0.3978  0.0344
 9025SOL    HW138534   2.226   2.620  14.959  2.3528 -2.1362 -1.3876
 9025SOL    HW238535   2.272   2.757  14.984  0.0572 -0.6805 -0.8906
 9026SOL     OW38536   3.769   4.703   4.662 -0.3142  0.4833  0.1448
 9026SOL    HW138537   3.721   4.703   4.580  0.6820  0.7775 -0.4359
 9026SOL    HW238538   3.839   0.037   4.632  1.2935 -1.8666 -0.6625
 9027SOL     OW38539   1.885   0.571  14.998  0.2813 -0.6820  0.3218
 9027SOL    HW138540   1.847   0.586  15.084 -0.4438  0.0421 -0.1223
 9027SOL    HW238541   1.901   0.478  15.008  1.9700 -0.3600  0.6942
 9028SOL     OW38542   2.551   1.894  17.012 -0.2216 -0.3846 -0.0925
 9028SOL    HW138543   2.634   1.920  16.971  1.0438 -1.4990  1.7484
 9028SOL    HW238544   2.527   1.978  17.050  1.5520  0.2258 -0.3052
 9029SOL     OW38545   4.210   4.540   3.651  0.4342  0.6838  0.5349
 9029SOL    HW138546   4.202   4.581   3.564  0.3563 -1.0631 -0.2828
 9029SOL    HW238547   4.280   4.478   3.632  0.5052  0.5234  1.3669
 9030SOL     OW38548   0.878   1.724  11.898  0.1209  0.0678 -0.1015
 9030SOL    HW138549   0.876   1.686  11.986  0.9570  1.6918  0.6176
 9030SOL    HW238550   0.966   1.760  11.894  0.4203 -0.6319  0.2206
 9031SOL     OW38551   2.134   3.657   8.918 -0.6250 -0.1507 -0.4016
 9031SOL    HW138552   2.091   3.709   8.850  3.6962  2.7984 -0.8522
 9031SOL    HW238553   2.144   3.733   8.975  1.0748  0.0570 -0.9834
 9032SOL     OW38554   0.278   0.774  11.897  0.4958  0.4962  0.1570
 9032SOL    HW138555   0.271   0.693  11.847 -2.6228  1.3089 -0.7324
 9032SOL    HW238556   0.322   0.748  11.978  1.8828 -1.2864 -1.1772
 9033SOL     OW38557   0.276   4.493   7.717 -0.6659 -0.0368  0.0174
 9033SOL    HW138558   0.327   4.526   7.791 -1.5788  0.9413  0.2137
 9033SOL    HW238559   0.241   4.574   7.679 -2.9741 -0.2399  1.6692
 9034SOL     OW38560   2.187   3.520   5.437  0.3346  0.4171 -0.0448
 9034SOL    HW138561   2.260   3.466   5.406  0.4444 -0.0044  0.9499
 9034SOL    HW238562   2.114   3.495   5.380  1.3350 -1.0811 -0.6603
 9035SOL     OW38563   3.356   3.479   0.640 -0.3109 -0.2391  0.2516
 9035SOL    HW138564   3.363   3.567   0.602 -0.5103 -0.1308  0.4630
 9035SOL    HW238565   3.337   3.423   0.566 -0.9916 -0.4302  0.5641
 9036SOL     OW38566   2.151   3.645   8.235  0.0442 -0.4055  0.2562
 9036SOL    HW138567   2.113   3.677   8.317  0.5822  1.9674 -0.4255
 9036SOL    HW238568   2.123   3.555   8.248  0.0785 -0.5294 -0.5315
 9037SOL     OW38569   4.583   1.544   4.127 -0.5393  0.2543  0.0123
 9037SOL    HW138570   4.672   1.520   4.103 -1.3804 -1.7704 -1.1181
 9037SOL    HW238571   4.597   1.639   4.129 -2.0452  0.4446  1.6509
 9038SOL     OW38572   1.015   3.471  16.692 -0.5232  0.5386 -0.1946
 9038SOL    HW138573   1.020   3.458  16.786 -2.8484 -1.5328 -0.3426
 9038SOL    HW238574   0.948   3.411  16.657  0.5445  0.1442 -1.5992
 9039SOL     OW38575   3.581   4.046  13.706  0.1576  0.0537  0.2319
 9039SOL    HW138576   3.638   4.087  13.771 -0.5996 -0.3294  1.1449
 9039SOL    HW238577   3.518   4.017  13.772 -0.3532  0.9141  0.1200
 9040SOL     OW38578   2.640   2.357   9.527  0.3902 -0.0185 -0.3473
 9040SOL    HW138579   2.707   2.424   9.513  0.0115  0.0575 -1.8967
 9040SOL    HW238580   2.687   2.275   9.513  0.3573 -0.6067  3.0539
 9041SOL     OW38581   0.847   3.381   7.399 -0.1101 -0.1722  0.1018
 9041SOL    HW138582   0.820   3.369   7.490 -0.4848  0.1030  0.0293
 9041SOL    HW238583   0.850   3.477   7.398  2.9819 -0.2924 -0.4531
 9042SOL     OW38584   4.296   3.630   5.196 -0.1425  0.3068 -0.0512
 9042SOL    HW138585   4.240   3.604   5.123  1.2617  1.2683 -1.4702
 9042SOL    HW238586   4.335   3.710   5.161  0.8305  0.9787  2.5431
 9043SOL     OW38587   2.902   2.808   7.828  0.4667 -0.1721 -0.0492
 9043SOL    HW138588   2.883   2.853   7.746  0.1446 -0.0827  0.0740
 9043SOL    HW238589   2.906   2.717   7.800  2.1658 -0.0956 -0.0979
 9044SOL     OW38590   2.651   3.267  10.336  0.3235  0.0910 -0.4544
 9044SOL    HW138591   2.682   3.355  10.314 -0.0371  0.6057  1.1001
 9044SOL    HW238592   2.728   3.240  10.385  0.5801  0.7050 -0.5103
 9045SOL     OW38593   0.527   1.322   4.404 -0.0323 -0.2549  0.6360
 9045SOL    HW138594   0.621   1.307   4.396  0.1800 -0.3564  3.1048
 9045SOL    HW238595   0.529   1.418   4.401  0.2469 -0.2907 -0.3855
 9046SOL     OW38596   0.088   0.204   8.994 -0.3144 -0.2810 -0.2779
 9046SOL    HW138597   0.067   0.129   8.938 -0.3135  0.6824 -1.5619
 9046SOL    HW238598   0.129   0.273   8.941 -2.1206 -0.8236 -2.3488
 9047SOL     OW38599   3.950   0.496   3.256 -0.2384  0.1303  0.1223
 9047SOL    HW138600   4.035   0.541   3.248  0.5624 -1.5518 -0.8974
 9047SOL    HW238601   3.935   0.487   3.350 -0.6183  2.0952  0.2453
 9048SOL     OW38602   1.818   0.075   0.584 -0.4091 -0.0861 -0.5795
 9048SOL    HW138603   1.782   0.038   0.666  1.4049  3.0442  1.6056
 9048SOL    HW238604   1.773   0.020   0.520  0.7736 -1.8178  0.0728
 9049SOL     OW38605   2.043   4.658   7.365 -0.1998 -0.1225 -0.1591
 9049SOL    HW138606   2.003   4.604   7.433  3.0801 -1.0737  1.0108
 9049SOL    HW238607   1.961   4.690   7.329  0.0020  1.6383  0.9678
 9050SOL     OW38608   0.210   4.684   6.847  0.0359  0.4601 -0.3086
 9050SOL    HW138609   0.234   4.653   6.759 -1.0457 -0.2155 -0.3660
 9050SOL    HW238610   0.258   0.042   6.847  1.2306 -0.2286 -0.3701
 9051SOL     OW38611   3.765   2.460   9.476  0.0939 -0.5746  0.3611
 9051SOL    HW138612   3.691   2.513   9.507  0.2105 -0.2167  0.0298
 9051SOL    HW238613   3.768   2.494   9.386 -2.0328 -1.7121 -0.1448
 9052SOL     OW38614   1.320   3.684   1.200 -0.5450  0.1062 -0.0393
 9052SOL    HW138615   1.291   3.709   1.288  0.2764 -0.7933  0.4961
 9052SOL    HW238616   1.241   3.680   1.148  0.1362  0.4043 -1.0992
 9053SOL     OW38617   2.287   3.831  14.279  0.5144  0.2178  0.2333
 9053SOL    HW138618   2.196   3.801  14.276 -0.1586  2.1190  1.1322
 9053SOL    HW238619   2.264   3.921  14.303  1.0277 -0.2957  2.6831
 9054SOL     OW38620   3.689   0.872   4.012  0.2473 -0.5342  0.0706
 9054SOL    HW138621   3.618   0.898   4.071  2.1377 -0.5280  2.3413
 9054SOL    HW238622   3.770   0.887   4.061 -0.9437  1.2962  1.4968
 9055SOL     OW38623   0.752   1.673  17.346  0.6238 -0.2754  0.6577
 9055SOL    HW138624   0.681   1.666  17.410 -0.3983  0.5184 -0.3953
 9055SOL    HW238625   0.689   1.667  17.275 -0.3936 -1.1216  1.6375
 9056SOL     OW38626   4.303   2.607   6.874  0.7719  1.1676 -0.5662
 9056SOL    HW138627   4.343   2.561   6.801  0.2434 -1.3782  0.7397
 9056SOL    HW238628   4.290   2.691   6.830 -2.9489  0.7416 -0.3429
 9057SOL     OW38629   3.719   2.448   4.343 -0.5433  0.0152  0.5102
 9057SOL    HW138630   3.711   2.434   4.249  0.1924  2.6062  0.0435
 9057SOL    HW238631   3.782   2.521   4.345 -1.2400  0.6591 -1.6252
 9058SOL     OW38632   2.981   2.077   8.937  0.2992 -0.3127 -0.4700
 9058SOL    HW138633   3.067   2.049   8.904  0.7096  0.4442 -0.0526
 9058SOL    HW238634   3.002   2.164   8.971 -1.6477 -0.0305  0.0177
 9059SOL     OW38635   0.425   2.091  16.817 -0.3196  0.3868 -0.0011
 9059SOL    HW138636   0.482   2.099  16.740  0.2958 -1.3087  0.2739
 9059SOL    HW238637   0.485   2.070  16.888 -2.5132 -1.5742  1.2775
 9060SOL     OW38638   3.384   3.309   5.801  0.0043 -0.3968  0.2247
 9060SOL    HW138639   3.306   3.342   5.757  0.5720  0.9589  0.2051
 9060SOL    HW238640   3.360   3.226   5.842  1.9864 -0.9983  0.1521
 9061SOL     OW38641   0.264   0.006   5.404  0.1609 -0.5442  0.4461
 9061SOL    HW138642   0.278   4.647   5.450  1.6089 -1.4274 -1.6040
 9061SOL    HW238643   0.319   4.706   5.329 -0.3812 -1.0629  0.2198
 9062SOL     OW38644   3.180   1.429   7.605  0.4087 -0.0697  0.2478
 9062SOL    HW138645   3.274   1.442   7.593  0.4453 -1.6575 -1.1315
 9062SOL    HW238646   3.137   1.509   7.573  0.8197 -0.6602 -1.7898
 9063SOL     OW38647   2.014   0.417   3.247 -0.1810  0.1664 -0.4299
 9063SOL    HW138648   2.063   0.339   3.221 -2.0407 -0.9462 -0.5761
 9063SOL    HW238649   2.041   0.487   3.188  0.9628 -0.2625 -0.4137
 9064SOL     OW38650   2.204   2.471   5.110 -0.9485  0.1117  0.4558
 9064SOL    HW138651   2.289   2.436   5.084 -0.1363  1.9828  0.6367
 9064SOL    HW238652   2.168   2.475   5.021 -1.2694 -0.5337  0.5598
 9065SOL     OW38653   3.332   1.589  12.910 -0.2500 -0.3189 -0.3898
 9065SOL    HW138654   3.411   1.606  12.859 -1.4073 -2.4192 -2.8571
 9065SOL    HW238655   3.284   1.672  12.913 -0.6436 -0.5907  1.4586
 9066SOL     OW38656   1.264   0.134   0.625 -0.5235 -0.0235  0.0631
 9066SOL    HW138657   1.228   0.078   0.556 -1.5751  0.7641 -0.0266
 9066SOL    HW238658   1.179   0.163   0.658  0.6051  0.9291  2.1102
 9067SOL     OW38659   4.016   4.508   5.449 -0.8493 -0.2796  0.1062
 9067SOL    HW138660   3.921   4.522   5.459 -0.1758  2.4226  2.8613
 9067SOL    HW238661   4.029   4.417   5.422 -1.1520 -0.9328  2.1527
 9068SOL     OW38662   2.294   2.302  13.610  0.0713  0.3631  0.1118
 9068SOL    HW138663   2.217   2.248  13.626 -0.6741  1.2725 -0.4242
 9068SOL    HW238664   2.352   2.258  13.671 -0.1798  0.6452  0.5539
 9069SOL     OW38665   3.191   1.380   1.114  0.3092 -0.0849  0.2783
 9069SOL    HW138666   3.149   1.352   1.033  2.1400 -2.8528  0.3036
 9069SOL    HW238667   3.147   1.326   1.179  0.8239 -1.0261 -0.1528
 9070SOL     OW38668   1.858   3.914   2.570 -0.1578 -0.3358 -0.7054
 9070SOL    HW138669   1.820   3.987   2.520 -1.6800 -0.2001  0.6569
 9070SOL    HW238670   1.870   3.962   2.652  0.7260 -0.1538 -0.9339
 9071SOL     OW38671   3.992   1.190   3.540 -0.2707  0.1402  0.0967
 9071SOL    HW138672   3.954   1.104   3.521 -0.7215  0.1027  1.1585
 9071SOL    HW238673   3.921   1.243   3.503  1.0623  1.8512 -0.0507
 9072SOL     OW38674   0.664   1.464  17.596 -0.6442  0.0900  0.1355
 9072SOL    HW138675   0.582   1.511  17.613 -0.1187  1.4974 -1.2198
 9072SOL    HW238676   0.641   1.432  17.509  2.6249  1.6757 -1.2732
 9073SOL     OW38677   1.218   1.722   8.235  0.1713 -0.2267 -0.9500
 9073SOL    HW138678   1.275   1.795   8.213 -0.3929  0.9043  1.3773
 9073SOL    HW238679   1.221   1.670   8.155  2.2724 -2.4099  0.5596
 9074SOL     OW38680   2.555   3.288  15.876  0.4087  0.2121  0.2485
 9074SOL    HW138681   2.542   3.334  15.959  1.7207 -0.0098  0.5767
 9074SOL    HW238682   2.471   3.244  15.862 -0.7964  1.6926  2.9541
 9075SOL     OW38683   0.665   2.954  13.330 -0.2034  0.6299  0.7508
 9075SOL    HW138684   0.580   2.911  13.327  0.8899 -1.4186 -1.2759
 9075SOL    HW238685   0.706   2.911  13.405 -1.9984 -1.0884  0.7557
 9076SOL     OW38686   3.616   0.552   3.932 -0.3177  0.5655 -0.4883
 9076SOL    HW138687   3.617   0.644   3.958 -1.3575 -0.2750  2.5830
 9076SOL    HW238688   3.596   0.516   4.018 -1.2015  0.5319 -0.7129
 9077SOL     OW38689   3.875   0.595   2.941  0.2107 -0.4937  0.2768
 9077SOL    HW138690   3.929   0.662   2.899 -0.0604 -0.9329 -0.7959
 9077SOL    HW238691   3.930   0.581   3.018  0.1174 -0.0899  0.4155
 9078SOL     OW38692   3.091   4.687  12.786  0.7251 -0.2699 -0.0049
 9078SOL    HW138693   3.028   4.663  12.854  1.2905  0.3934  0.7454
 9078SOL    HW238694   3.172   4.703  12.835  0.9931  0.9640 -0.8643
 9079SOL     OW38695   1.287   0.244  16.804  0.5332  0.0278 -0.0675
 9079SOL    HW138696   1.284   0.337  16.823 -0.5265  0.1702 -0.9245
 9079SOL    HW238697   1.289   0.241  16.708  1.8492  1.0077 -0.0628
 9080SOL     OW38698   0.196   1.862   4.335 -0.8921  0.3992  0.1002
 9080SOL    HW138699   0.175   1.915   4.411  0.2652  1.0548 -0.0316
 9080SOL    HW238700   0.226   1.935   4.280 -1.8043  1.3642  0.8820
 9081SOL     OW38701   2.195   3.484   3.666  0.1595 -0.1037 -0.5346
 9081SOL    HW138702   2.177   3.452   3.578  1.2060  2.0739 -1.5363
 9081SOL    HW238703   2.240   3.565   3.645  0.2824 -0.1553 -0.4720
 9082SOL     OW38704   3.276   3.484   4.203  0.0098  0.0562  0.0643
 9082SOL    HW138705   3.253   3.496   4.295 -1.2404  0.4040 -0.2955
 9082SOL    HW238706   3.369   3.462   4.206  0.1830  0.7932  0.0682
 9083SOL     OW38707   4.236   2.118   7.861 -0.7926  0.2384  0.2795
 9083SOL    HW138708   4.247   2.179   7.788  1.0603  0.9265  1.1252
 9083SOL    HW238709   4.271   2.041   7.818  2.3636  0.9276  1.6508
 9084SOL     OW38710   4.585   3.659  17.084  0.1624  0.1963 -0.2769
 9084SOL    HW138711   4.618   3.622  17.167  2.1537  1.6724 -0.4068
 9084SOL    HW238712   4.490   3.647  17.090  0.3076 -0.9832 -0.2095
 9085SOL     OW38713   1.208   1.685   1.751 -0.5489  0.4110  0.1375
 9085SOL    HW138714   1.183   1.657   1.839  2.7096  2.1468  1.6165
 9085SOL    HW238715   1.266   1.611   1.731 -1.9193 -0.9602  1.1847
 9086SOL     OW38716   1.039   3.675   4.480  0.2018 -0.5612 -0.0143
 9086SOL    HW138717   1.090   3.700   4.403  0.8378 -0.3136  0.4775
 9086SOL    HW238718   0.951   3.702   4.455 -0.2111 -0.3227  1.6717
 9087SOL     OW38719   0.948   3.393   9.660 -0.1100  0.5001 -0.0974
 9087SOL    HW138720   0.890   3.319   9.680  0.0435  0.1210 -1.0474
 9087SOL    HW238721   1.002   3.370   9.585 -0.3920 -1.0840  0.1846
 9088SOL     OW38722   0.369   0.219   8.431  0.3642  0.1346  0.2626
 9088SOL    HW138723   0.435   0.175   8.485 -0.6825 -1.2686  0.4235
 9088SOL    HW238724   0.302   0.151   8.445  0.4164  0.2551  1.1122
 9089SOL     OW38725   0.395   1.302   5.288 -0.4420 -0.2155 -0.2686
 9089SOL    HW138726   0.369   1.394   5.289  0.2294 -0.0388  0.6793
 9089SOL    HW238727   0.428   1.288   5.376  1.1963 -2.1362 -1.1925
 9090SOL     OW38728   4.650   4.447   6.835  0.7275  0.1285  0.0496
 9090SOL    HW138729   4.643   4.509   6.907 -1.4867  1.1221 -1.0345
 9090SOL    HW238730   4.588   4.479   6.769  1.0049  0.0076 -0.2696
 9091SOL     OW38731   1.101   4.034   1.313  0.5480  0.0210 -0.2733
 9091SOL    HW138732   1.166   4.088   1.268 -0.5148  1.1473 -0.4588
 9091SOL    HW238733   1.147   3.953   1.336 -0.5708 -0.4729  0.2392
 9092SOL     OW38734   4.361   2.361   3.280  0.0585 -0.1419  0.0434
 9092SOL    HW138735   4.396   2.290   3.335  1.0193  0.0209 -0.3521
 9092SOL    HW238736   4.344   2.314   3.199  1.0285  1.5829 -1.1425
 9093SOL     OW38737   3.093   4.278   5.380  0.2420 -0.2451 -0.3293
 9093SOL    HW138738   3.044   4.240   5.453  0.4417  1.8742  0.9176
 9093SOL    HW238739   3.147   4.343   5.426 -1.0650  2.1844 -2.2377
 9094SOL     OW38740   2.736   4.149   8.480  0.2941 -0.1478  0.1927
 9094SOL    HW138741   2.695   4.233   8.460 -0.3807 -0.7583 -0.9581
 9094SOL    HW238742   2.694   4.122   8.562  1.4534 -0.2443  0.7428
 9095SOL     OW38743   4.577   2.185   5.202 -0.0925  0.4653  0.0987
 9095SOL    HW138744   4.514   2.158   5.134  0.5634 -0.0465 -0.3014
 9095SOL    HW238745   4.582   2.278   5.176 -0.5570  0.1974 -0.9898
 9096SOL     OW38746   0.419   1.936   3.719  0.4762  0.0285  0.3515
 9096SOL    HW138747   0.480   2.003   3.688  0.2186  0.5349  0.9127
 9096SOL    HW238748   0.415   1.946   3.814  0.2980 -2.4581  0.5905
 9097SOL     OW38749   2.263   2.201   8.406 -0.5847  0.5287  0.1425
 9097SOL    HW138750   2.265   2.117   8.452  0.1412 -0.3389 -1.4937
 9097SOL    HW238751   2.206   2.257   8.459  1.6734 -0.6598  3.8352
 9098SOL     OW38752   0.655   1.818   6.223  0.2858  0.2281  0.0159
 9098SOL    HW138753   0.656   1.758   6.297 -4.7195 -1.0741 -0.9374
 9098SOL    HW238754   0.568   1.858   6.232  0.2864  0.8035 -2.4578
 9099SOL     OW38755   0.728   3.572   5.651  0.0013  0.3145  0.6212
 9099SOL    HW138756   0.796   3.510   5.678  0.6073  1.2346  1.2102
 9099SOL    HW238757   0.746   3.643   5.713  1.6545  1.2630 -0.9703
 9100SOL     OW38758   0.802   3.618   6.259  0.0533  0.2784  0.2468
 9100SOL    HW138759   0.793   3.570   6.341 -0.6527  1.7332  1.0255
 9100SOL    HW238760   0.804   3.709   6.289  1.3310 -0.1112  1.3589
 9101SOL     OW38761   0.244   3.843   7.171 -0.2044 -0.0493  0.4283
 9101SOL    HW138762   0.171   3.896   7.203 -1.5867 -2.0060  0.5311
 9101SOL    HW238763   0.299   3.834   7.249  0.2410 -1.1789 -0.0066
 9102SOL     OW38764   1.654   4.572   6.859 -0.1779 -0.0416  0.1121
 9102SOL    HW138765   1.587   4.588   6.793 -0.7407 -0.4029  0.5866
 9102SOL    HW238766   1.710   4.518   6.804  0.7364 -1.5640  2.5047
 9103SOL     OW38767   0.723   0.646   4.957  0.2808 -0.0742 -0.0648
 9103SOL    HW138768   0.797   0.587   4.969 -0.5004 -1.0982 -0.2393
 9103SOL    HW238769   0.722   0.705   5.033  1.4838 -0.0978 -0.0332
 9104SOL     OW38770   2.722   3.040   9.145  0.0914 -0.5420  0.1885
 9104SOL    HW138771   2.811   3.067   9.124 -0.3595 -1.5779 -3.1102
 9104SOL    HW238772   2.706   3.097   9.220 -0.8134  0.7432 -0.9749
 9105SOL     OW38773   2.128   3.620  14.564 -0.2139  0.3086  0.0723
 9105SOL    HW138774   2.164   3.531  14.562 -0.9628 -0.0211  0.9010
 9105SOL    HW238775   2.203   3.674  14.590  1.6053 -0.6147 -3.3450
 9106SOL     OW38776   1.677   4.709   8.874  0.0929 -0.0471 -0.0828
 9106SOL    HW138777   1.613   0.002   8.805 -0.2480 -1.2626 -0.0667
 9106SOL    HW238778   1.750   0.047   8.862  0.0936 -0.3687 -1.7763
 9107SOL     OW38779   2.709   3.317  15.022  0.3730  0.0598 -0.2454
 9107SOL    HW138780   2.691   3.410  15.005  1.2013  0.1386 -0.7107
 9107SOL    HW238781   2.761   3.291  14.945  1.3976 -0.0848  0.4935
 9108SOL     OW38782   1.564   3.177  16.619  0.0591 -0.4660  1.2846
 9108SOL    HW138783   1.500   3.117  16.655  0.4768 -1.6140  0.1106
 9108SOL    HW238784   1.572   3.229  16.699 -0.9836  1.5994  0.0469
 9109SOL     OW38785   2.614   3.379   0.055 -0.0053  0.1995  0.2889
 9109SOL    HW138786   2.701   3.339   0.057 -0.4745 -0.8352 -0.8791
 9109SOL    HW238787   2.643   3.468   0.034  0.0850 -0.0277 -0.5126
 9110SOL     OW38788   3.711   2.943   0.210  0.1459  0.0488 -0.0000
 9110SOL    HW138789   3.657   2.943   0.131 -0.6428  1.1985  0.5336
 9110SOL    HW238790   3.793   2.923   0.166 -0.4872 -3.3213  0.3542
 9111SOL     OW38791   0.895   3.003   5.168  0.6919 -0.9598 -0.3871
 9111SOL    HW138792   0.956   2.948   5.216  0.8575  0.0384  0.5553
 9111SOL    HW238793   0.952   3.055   5.112 -0.2493  1.1314  0.5660
 9112SOL     OW38794   0.218   4.705  12.218  0.4711  0.1197  0.6068
 9112SOL    HW138795   0.276   4.631  12.237 -3.3318 -2.5161  1.9886
 9112SOL    HW238796   0.191   4.666  12.135 -0.0403 -1.5241  1.5403
 9113SOL     OW38797   4.353   3.934   3.741 -0.2861  0.8119  0.4602
 9113SOL    HW138798   4.313   3.905   3.824 -1.3788 -1.0164 -0.6910
 9113SOL    HW238799   4.398   4.012   3.773  1.7487 -0.3108  0.3519
 9114SOL     OW38800   0.508   2.958   3.851  0.1213  0.0508  0.6979
 9114SOL    HW138801   0.509   3.051   3.877  0.4120 -0.2929  1.9266
 9114SOL    HW238802   0.417   2.953   3.820  0.3111 -0.8298  0.2910
 9115SOL     OW38803   1.228   3.853   0.211 -0.1272  0.4809 -0.2161
 9115SOL    HW138804   1.167   3.821   0.145 -2.0099 -0.4260  1.9736
 9115SOL    HW238805   1.272   3.921   0.161 -0.4789  0.6832 -0.2496
 9116SOL     OW38806   3.006   2.290   4.500 -0.0988  0.2231  0.0389
 9116SOL    HW138807   3.071   2.225   4.472 -0.7161 -0.4187  0.0750
 9116SOL    HW238808   2.923   2.258   4.465  1.1999 -2.8102 -0.3101
 9117SOL     OW38809   1.716   1.055  12.817 -0.2276  0.1720  0.1616
 9117SOL    HW138810   1.730   1.054  12.722 -0.4229  1.3751  0.1200
 9117SOL    HW238811   1.642   0.994  12.819  0.0448 -0.2686 -2.1967
 9118SOL     OW38812   1.028   0.874   7.246  0.2146 -0.2626  0.1736
 9118SOL    HW138813   1.042   0.920   7.163  1.0820 -4.1632 -1.8657
 9118SOL    HW238814   1.003   0.788   7.211  1.1632 -0.7765  0.7821
 9119SOL     OW38815   4.389   4.687   8.944 -0.1031 -0.3430 -0.4950
 9119SOL    HW138816   4.303   4.698   8.905 -0.5076  3.2533  1.4348
 9119SOL    HW238817   4.390   0.042   8.998  0.9369 -0.6553 -0.0597
 9120SOL     OW38818   1.480   3.353   9.711  0.2529  0.4083  0.7700
 9120SOL    HW138819   1.508   3.301   9.636  0.4206  1.1858  0.2927
 9120SOL    HW238820   1.462   3.287   9.778 -0.0980  1.4308  1.6803
 9121SOL     OW38821   3.472   1.586   7.354 -0.1592 -0.5189 -0.4851
 9121SOL    HW138822   3.416   1.656   7.322 -1.0852 -0.8717  0.3726
 9121SOL    HW238823   3.439   1.573   7.443 -0.7265 -1.3300 -0.8054
 9122SOL     OW38824   0.018   3.991   8.473 -0.0483  0.7201 -0.2737
 9122SOL    HW138825   0.017   4.031   8.559 -1.9887  1.5693 -0.6734
 9122SOL    HW238826   4.662   3.938   8.478  0.0671  0.7500  1.7603
 9123SOL     OW38827   1.198   4.113   4.306  0.0983  0.4748  0.4160
 9123SOL    HW138828   1.174   4.059   4.231 -1.1821 -0.8753  1.7837
 9123SOL    HW238829   1.292   4.128   4.298  0.1563 -0.1719 -0.1424
 9124SOL     OW38830   2.229   1.049   2.435  0.3738 -0.3553 -0.1482
 9124SOL    HW138831   2.297   1.112   2.455  0.2177 -0.3512  0.3565
 9124SOL    HW238832   2.246   0.980   2.499  0.6066  0.0482  0.2181
 9125SOL     OW38833   3.840   0.413   5.396 -0.1568  0.2915  0.0025
 9125SOL    HW138834   3.818   0.375   5.481 -1.1935  1.0750  0.0826
 9125SOL    HW238835   3.841   0.505   5.420  1.2625 -0.0464  1.2064
 9126SOL     OW38836   1.462   2.896   8.955  0.3114  0.1554  0.4217
 9126SOL    HW138837   1.382   2.848   8.976 -0.8564  1.6299 -0.7048
 9126SOL    HW238838   1.475   2.875   8.863  0.3996  0.6218  0.3265
 9127SOL     OW38839   1.314   1.285   1.058 -0.5058  0.1295 -0.8824
 9127SOL    HW138840   1.395   1.250   1.095 -0.6542  1.7190  0.9269
 9127SOL    HW238841   1.349   1.365   1.019 -1.8633  1.3792  0.4864
 9128SOL     OW38842   0.575   0.452  13.799  0.8709  0.5879  0.2345
 9128SOL    HW138843   0.482   0.456  13.778  0.5442 -2.0049  1.2134
 9128SOL    HW238844   0.600   0.381  13.740  1.4976  1.9481 -1.1250
 9129SOL     OW38845   1.317   1.957  15.658 -0.0911  0.0911  0.2504
 9129SOL    HW138846   1.385   1.899  15.692 -1.6657 -0.9566  1.6481
 9129SOL    HW238847   1.238   1.921  15.699  0.5295  1.0043  2.2592
 9130SOL     OW38848   2.188   1.707  15.944 -0.0065  0.0162 -0.1326
 9130SOL    HW138849   2.272   1.696  15.988  0.3812 -0.3383 -0.9709
 9130SOL    HW238850   2.202   1.717  15.850 -1.0639  0.7407 -0.2208
 9131SOL     OW38851   4.507   3.255   2.691  0.0422 -0.8269  0.1481
 9131SOL    HW138852   4.438   3.318   2.712  1.6519  0.8364  0.4545
 9131SOL    HW238853   4.460   3.172   2.693 -0.9588 -0.2997 -0.8267
 9132SOL     OW38854   1.973   3.930  10.122  0.3711 -0.2073  0.0249
 9132SOL    HW138855   1.957   3.930  10.028  2.5127 -4.5821 -0.3706
 9132SOL    HW238856   1.971   4.022  10.147  1.8538 -0.3409  0.6787
 9133SOL     OW38857   3.699   1.386   5.193  0.1427 -0.0893 -0.0073
 9133SOL    HW138858   3.672   1.478   5.201  0.0297 -0.1249  0.0272
 9133SOL    HW238859   3.624   1.338   5.229 -0.8468  0.2264 -1.6172
 9134SOL     OW38860   4.299   3.853   4.682 -0.2934  0.0710  0.2163
 9134SOL    HW138861   4.247   3.773   4.690 -1.6855  1.1279  1.6488
 9134SOL    HW238862   4.228   3.917   4.691  0.2075  1.1770 -3.4689
 9135SOL     OW38863   4.184   0.421   5.003 -0.0901  0.2691  0.1591
 9135SOL    HW138864   4.221   0.509   4.999  0.9813 -0.0609  2.6201
 9135SOL    HW238865   4.181   0.402   5.097 -2.3648  2.1186  0.4629
 9136SOL     OW38866   2.208   2.765   6.027 -0.1954  0.3620  0.2201
 9136SOL    HW138867   2.287   2.720   6.058 -1.9525 -2.1599  1.0281
 9136SOL    HW238868   2.207   2.849   6.074 -0.3435  0.8195 -0.6025
 9137SOL     OW38869   2.248   1.705  10.333 -0.0755  0.2056 -0.0680
 9137SOL    HW138870   2.221   1.796  10.331  0.8778  0.5199  2.9196
 9137SOL    HW238871   2.230   1.694  10.239 -2.6685 -0.2723  0.4863
 9138SOL     OW38872   4.638   2.631   6.613  0.1038 -0.3743  0.6799
 9138SOL    HW138873   4.628   2.538   6.596 -3.4667  0.1657 -0.3551
 9138SOL    HW238874   4.720   2.645   6.661  0.8786  2.5056 -1.4694
 9139SOL     OW38875   0.743   3.701   8.566  0.1086 -0.5360  0.1329
 9139SOL    HW138876   0.650   3.680   8.551  0.0293 -0.1306  0.0519
 9139SOL    HW238877   0.755   3.677   8.657 -0.0869 -0.9354  0.0545
 9140SOL     OW38878   3.508   2.029   9.763 -0.1045  0.3526  0.0912
 9140SOL    HW138879   3.500   2.072   9.848  0.3130 -0.0140  0.3160
 9140SOL    HW238880   3.419   2.032   9.728 -0.1935 -0.2565  0.2699
 9141SOL     OW38881   2.439   0.675   2.943 -0.3888  0.0527  0.4929
 9141SOL    HW138882   2.445   0.608   2.875  1.0663  0.2082  0.4731
 9141SOL    HW238883   2.400   0.751   2.899 -0.5734  0.2543  1.0126
 9142SOL     OW38884   0.186   0.675   4.717 -0.1947 -0.0845 -0.3452
 9142SOL    HW138885   0.237   0.707   4.792  1.1375  1.2957 -1.8460
 9142SOL    HW238886   0.246   0.676   4.643  3.0627 -0.9377  2.2688
 9143SOL     OW38887   3.399   0.308   7.404  0.3486 -0.1414  0.0869
 9143SOL    HW138888   3.476   0.358   7.431  1.3065 -1.7810  0.3214
 9143SOL    HW238889   3.352   0.310   7.488  2.2485  0.3458  1.1407
 9144SOL     OW38890   4.278   3.497   6.524 -0.5033 -0.2565  0.5394
 9144SOL    HW138891   4.239   3.423   6.571  2.0269 -3.0993 -1.9208
 9144SOL    HW238892   4.320   3.449   6.454  1.6339  1.3240  0.7360
 9145SOL     OW38893   2.216   3.342  14.590 -0.1169 -0.1464 -0.4376
 9145SOL    HW138894   2.246   3.260  14.629  0.9240  0.7401  0.6339
 9145SOL    HW238895   2.263   3.347  14.507  1.6854  1.8613  0.6847
 9146SOL     OW38896   1.171   2.125   6.869  0.2424 -0.0177 -0.3744
 9146SOL    HW138897   1.163   2.209   6.825 -1.8476  0.0666  0.1858
 9146SOL    HW238898   1.095   2.126   6.927  0.4888 -3.6247  0.0660
 9147SOL     OW38899   4.249   1.893   8.186 -0.4749  0.5741 -0.6031
 9147SOL    HW138900   4.248   1.981   8.224  0.5736  1.5627 -2.8522
 9147SOL    HW238901   4.173   1.894   8.128 -1.8490  0.5052  1.1795
 9148SOL     OW38902   3.757   0.428  16.197  0.1755  0.7664 -0.3216
 9148SOL    HW138903   3.697   0.451  16.268 -0.2989 -1.0505 -0.1195
 9148SOL    HW238904   3.803   0.510  16.185  0.1840  0.6171 -1.2867
 9149SOL     OW38905   3.161   2.002   8.489  0.5540  0.4023  0.0449
 9149SOL    HW138906   3.225   2.016   8.419 -0.8041 -2.0668 -1.6605
 9149SOL    HW238907   3.170   1.908   8.500  1.6852  0.2524 -2.2212
 9150SOL     OW38908   3.214   2.538  17.603  0.4222  0.0151 -0.2211
 9150SOL    HW138909   3.308   2.535  17.617  0.1270 -0.7315  1.6380
 9150SOL    HW238910   3.211   2.472  17.534  0.6838  0.8224 -1.0127
 9151SOL     OW38911   0.221   2.748  16.866  0.1246 -0.5198 -0.2753
 9151SOL    HW138912   0.244   2.811  16.935 -1.3998 -0.6462  0.3519
 9151SOL    HW238913   0.271   2.671  16.893 -0.3541 -1.4492 -2.0359
 9152SOL     OW38914   0.145   0.137   7.976  0.0650  0.4825  0.1219
 9152SOL    HW138915   0.104   0.080   8.041  1.4952  0.2337  0.8201
 9152SOL    HW238916   0.236   0.122   8.002 -0.0038  1.1073  0.7239
 9153SOL     OW38917   4.130   2.291   9.087  0.2613 -0.1862 -0.1384
 9153SOL    HW138918   4.124   2.315   9.179  1.6820  0.3739 -0.1899
 9153SOL    HW238919   4.068   2.356   9.052 -0.4477 -0.8206 -0.0578
 9154SOL     OW38920   3.672   2.048   6.407 -0.0434 -0.0813 -0.2162
 9154SOL    HW138921   3.703   2.003   6.486 -1.5256  2.2325  1.6875
 9154SOL    HW238922   3.618   1.980   6.367 -0.1293 -0.0632 -0.1320
 9155SOL     OW38923   0.132   0.722   3.646 -0.0814 -0.4884  0.5020
 9155SOL    HW138924   0.046   0.696   3.613  0.1296  0.7365 -1.0291
 9155SOL    HW238925   0.108   0.755   3.733 -0.1742  1.1002 -0.1171
 9156SOL     OW38926   3.554   2.323   1.883 -0.3216  0.1267  0.6479
 9156SOL    HW138927   3.546   2.228   1.893 -1.3647  0.4278  2.6443
 9156SOL    HW238928   3.551   2.327   1.788 -0.3197  0.4105  0.6586
 9157SOL     OW38929   0.442   4.195   6.549 -0.8228 -0.0068  0.0670
 9157SOL    HW138930   0.373   4.252   6.515  1.1696  1.2760 -1.8294
 9157SOL    HW238931   0.487   4.263   6.599 -0.0274 -0.2774 -0.2876
 9158SOL     OW38932   3.823   3.515   5.624 -0.0980 -0.2790 -0.2333
 9158SOL    HW138933   3.849   3.581   5.559 -1.8431  1.7348  1.0978
 9158SOL    HW238934   3.741   3.549   5.660 -0.1292 -0.9200  0.2874
 9159SOL     OW38935   1.406   0.935  10.815  0.8608  0.0363 -0.1567
 9159SOL    HW138936   1.487   0.905  10.774  0.1300  1.3892 -2.5964
 9159SOL    HW238937   1.440   1.008  10.868 -1.3956  0.3509  0.8244
 9160SOL     OW38938   3.959   3.184   8.791  0.1483 -0.0215  0.1803
 9160SOL    HW138939   4.005   3.126   8.730  1.4745  2.0810 -0.7990
 9160SOL    HW238940   3.976   3.275   8.768 -1.6654 -0.1565 -1.7181
 9161SOL     OW38941   2.352   0.290   8.938 -0.2741 -0.4491 -0.1343
 9161SOL    HW138942   2.383   0.379   8.952 -1.3890 -0.3023  1.4379
 9161SOL    HW238943   2.355   0.252   9.026 -0.6599  2.2372  1.0529
 9162SOL     OW38944   1.763   2.265   6.362  0.3328 -0.2333 -0.0509
 9162SOL    HW138945   1.831   2.241   6.425 -0.7686  0.6938  1.4787
 9162SOL    HW238946   1.743   2.355   6.389 -1.6310 -0.4985 -0.6552
 9163SOL     OW38947   1.159   3.767   1.857 -0.1388  0.2847  0.1179
 9163SOL    HW138948   1.254   3.777   1.858 -0.2203  1.2364 -1.0843
 9163SOL    HW238949   1.127   3.858   1.851 -2.0323 -0.3832 -0.0261
 9164SOL     OW38950   1.567   1.780  11.478 -0.5716  0.3290  0.0140
 9164SOL    HW138951   1.607   1.769  11.391  2.3479 -0.0626  1.4154
 9164SOL    HW238952   1.541   1.688  11.492 -1.0196  0.4526 -0.0003
 9165SOL     OW38953   3.605   2.441  16.235 -0.1739 -0.4315 -0.1093
 9165SOL    HW138954   3.517   2.477  16.221  0.0498  0.8068  1.6766
 9165SOL    HW238955   3.601   2.438  16.330 -1.5498  0.4701 -0.1255
 9166SOL     OW38956   4.672   2.680  17.017  0.1987  0.1838  0.7434
 9166SOL    HW138957   4.707   2.617  16.955 -0.2971  1.1692 -0.5583
 9166SOL    HW238958   0.029   2.717  17.053  0.9032 -0.9000  0.2663
 9167SOL     OW38959   2.022   3.244   3.178 -0.2247  0.0411  0.0930
 9167SOL    HW138960   1.958   3.184   3.216 -0.6785  0.0882 -0.6026
 9167SOL    HW238961   1.974   3.280   3.103 -0.9536  2.7616  1.8423
 9168SOL     OW38962   4.166   4.037   2.060  0.1447 -0.3632  0.0590
 9168SOL    HW138963   4.236   4.085   2.103 -0.7053  1.8488 -0.9815
 9168SOL    HW238964   4.149   4.084   1.977  0.7774  2.6822  1.6429
 9169SOL     OW38965   0.585   1.720   1.054  0.2079 -0.1433  0.2019
 9169SOL    HW138966   0.607   1.638   1.098  1.2398  0.7766  1.4098
 9169SOL    HW238967   0.656   1.726   0.990 -0.6579  0.8207 -0.6639
 9170SOL     OW38968   2.896   1.257   8.030  0.0369 -0.0493  0.4038
 9170SOL    HW138969   2.896   1.266   7.934 -2.5320 -0.7742  0.3399
 9170SOL    HW238970   2.989   1.274   8.046 -0.3660  1.8731  0.7853
 9171SOL     OW38971   2.769   0.715   3.582 -0.2685 -0.6706  0.2390
 9171SOL    HW138972   2.756   0.810   3.578 -0.3245 -0.7900 -2.2248
 9171SOL    HW238973   2.865   0.712   3.589 -0.2007 -1.2868 -0.9561
 9172SOL     OW38974   1.475   2.015   2.799  0.6422 -0.6494 -0.3584
 9172SOL    HW138975   1.386   1.982   2.806  1.4543 -2.3656  2.1251
 9172SOL    HW238976   1.481   2.049   2.889  2.3241  1.9932 -1.4602
 9173SOL     OW38977   0.758   4.701   9.376 -0.0758  0.1359  0.1816
 9173SOL    HW138978   0.707   4.644   9.318 -1.2200  0.9602  0.3667
 9173SOL    HW238979   0.701   4.701   9.453 -0.8460 -2.2514 -0.3673
 9174SOL     OW38980   3.034   4.552  15.393 -0.1040 -0.4058 -0.0939
 9174SOL    HW138981   2.968   4.556  15.462  0.0880  2.0721 -0.0357
 9174SOL    HW238982   3.088   4.631  15.397  0.1304 -0.6369  1.5899
 9175SOL     OW38983   0.094   1.444   7.371 -0.2184  0.2319  0.3349
 9175SOL    HW138984   0.054   1.386   7.306 -0.0247 -1.4719  1.7352
 9175SOL    HW238985   0.185   1.414   7.368 -0.6030 -0.9552  0.5601
 9176SOL     OW38986   1.857   0.200  10.507  0.2625 -0.3043  0.1674
 9176SOL    HW138987   1.903   0.270  10.461 -1.1727 -0.0249 -0.8162
 9176SOL    HW238988   1.795   0.184  10.436  1.6225  0.6722 -1.2266
 9177SOL     OW38989   2.741   1.723   6.167 -0.0998 -0.0428 -0.0124
 9177SOL    HW138990   2.790   1.717   6.084  1.3880  2.3194  0.6919
 9177SOL    HW238991   2.772   1.642   6.209 -0.8867 -0.5297 -0.3674
 9178SOL     OW38992   0.919   3.784   3.359 -0.0920  0.0907  0.2844
 9178SOL    HW138993   0.828   3.756   3.348  0.2710 -0.7995 -0.3976
 9178SOL    HW238994   0.915   3.846   3.432 -0.9784 -0.6055  0.8374
 9179SOL     OW38995   2.901   4.040   1.608 -0.4168 -0.1936  0.1825
 9179SOL    HW138996   2.903   3.957   1.560 -1.3622 -1.2119  1.9157
 9179SOL    HW238997   2.989   4.068   1.581 -0.9339  0.7466 -0.5344
 9180SOL     OW38998   4.456   3.774   4.452 -0.4984 -0.4615  0.2211
 9180SOL    HW138999   4.379   3.775   4.509 -1.0616 -0.9974 -0.5242
 9180SOL    HW239000   4.418   3.768   4.364 -0.0712 -0.8173  0.0665
 9181SOL     OW39001   0.611   1.379   8.566 -0.3328  0.8942  0.4496
 9181SOL    HW139002   0.642   1.469   8.562  2.6368 -0.1010  1.6309
 9181SOL    HW239003   0.649   1.352   8.649 -1.4869 -0.3052  0.5964
 9182SOL     OW39004   2.185   1.451   2.991 -0.0075  0.2559  0.5417
 9182SOL    HW139005   2.131   1.372   2.998  1.0273 -0.4571  0.4200
 9182SOL    HW239006   2.149   1.486   2.909 -2.6495 -0.6759  1.2725
 9183SOL     OW39007   0.689   3.820  13.778  0.1812  0.8194  0.0386
 9183SOL    HW139008   0.633   3.750  13.813  1.8086 -0.1247  0.7910
 9183SOL    HW239009   0.672   3.886  13.845 -0.3520  1.3499 -0.6279
 9184SOL     OW39010   3.457   0.618   8.070 -0.4826 -0.0960  0.0575
 9184SOL    HW139011   3.549   0.617   8.045 -1.0029  1.1726 -1.9314
 9184SOL    HW239012   3.453   0.706   8.108 -1.5843 -0.4027  0.6552
 9185SOL     OW39013   2.186   0.380   5.767  0.0704  0.2751  0.3168
 9185SOL    HW139014   2.138   0.298   5.773  0.2859  0.1541  0.4081
 9185SOL    HW239015   2.261   0.343   5.721 -0.8969 -0.8258 -0.3832
 9186SOL     OW39016   4.180   2.996   6.762 -0.6282 -0.3459 -0.2054
 9186SOL    HW139017   4.264   2.972   6.802 -0.7073  0.6316  0.5303
 9186SOL    HW239018   4.174   3.090   6.782  0.1842  0.1409 -2.1846
 9187SOL     OW39019   0.618   1.830  12.033  0.3441 -0.2233 -0.5567
 9187SOL    HW139020   0.684   1.784  12.085  0.9669  2.6278  1.1682
 9187SOL    HW239021   0.648   1.822  11.943  0.3141  0.5481 -0.6384
 9188SOL     OW39022   1.025   2.154   9.141  0.3090  0.3621  0.4659
 9188SOL    HW139023   0.991   2.066   9.156 -0.9113  0.7107 -0.2491
 9188SOL    HW239024   1.106   2.135   9.094 -0.1043  1.6266 -0.7684
 9189SOL     OW39025   4.494   1.739   5.529  0.3738  0.0796  0.7120
 9189SOL    HW139026   4.544   1.762   5.451  0.8054  1.4254  1.3931
 9189SOL    HW239027   4.551   1.675   5.571 -1.3102 -0.1671  2.6130
 9190SOL     OW39028   2.274   0.208   2.745  0.1705 -0.1801 -0.0492
 9190SOL    HW139029   2.283   0.119   2.778  1.3477  0.7268  2.0156
 9190SOL    HW239030   2.196   0.197   2.690 -0.0562 -0.3580  0.3139
 9191SOL     OW39031   2.837   3.404   5.544 -0.4417  0.4016 -0.3477
 9191SOL    HW139032   2.853   3.311   5.526 -1.4658  0.0341  0.6430
 9191SOL    HW239033   2.865   3.437   5.458 -0.6425 -0.1062 -0.6099
 9192SOL     OW39034   0.903   0.642   0.520  0.0540 -0.8036 -0.5167
 9192SOL    HW139035   0.904   0.608   0.610  0.1494 -0.4523 -0.3859
 9192SOL    HW239036   0.812   0.615   0.507  0.3337 -1.2710 -1.4518
 9193SOL     OW39037   2.985   2.529   7.050 -0.4001  0.1976  0.7518
 9193SOL    HW139038   2.914   2.499   6.994 -0.7788  0.7434  0.9357
 9193SOL    HW239039   3.055   2.539   6.986 -1.1126 -0.6280 -0.1557
 9194SOL     OW39040   0.814   3.831   2.130  0.2959  0.6183  0.1316
 9194SOL    HW139041   0.760   3.900   2.093 -1.7832 -0.5848  0.9229
 9194SOL    HW239042   0.786   3.824   2.221 -0.6265 -2.4742 -0.3699
 9195SOL     OW39043   4.668   3.551   4.052  0.1803 -0.0427  0.0852
 9195SOL    HW139044   4.629   3.625   4.096  1.8989 -0.7884  2.8580
 9195SOL    HW239045   4.613   3.475   4.071  2.5411 -2.2512 -1.8306
 9196SOL     OW39046   4.692   3.572  17.334  0.6807  0.4210  0.5858
 9196SOL    HW139047   4.681   3.479  17.352 -2.4202  0.8687  0.9122
 9196SOL    HW239048   4.655   3.596  17.419  0.2390  0.1659  0.4658
 9197SOL     OW39049   4.631   2.402   6.460 -0.1942 -0.3822 -0.0528
 9197SOL    HW139050   4.561   2.421   6.397 -1.1277 -0.9026  0.8219
 9197SOL    HW239051   4.704   2.400   6.399 -2.2303  1.2250 -2.5506
 9198SOL     OW39052   1.009   1.935   3.196  0.0078  0.4068 -0.3350
 9198SOL    HW139053   0.917   1.954   3.174 -0.0992  0.6137  0.3059
 9198SOL    HW239054   1.013   1.999   3.266 -2.4969 -0.9284  1.0713
 9199SOL     OW39055   4.574   4.705   5.836  0.2939  0.6888  0.1310
 9199SOL    HW139056   4.601   4.690   5.745  1.0061 -3.5401  1.0461
 9199SOL    HW239057   4.479   4.699   5.828  0.0038  3.7244  1.1162
 9200SOL     OW39058   1.150   4.268   4.837 -0.4167  0.0580  0.0254
 9200SOL    HW139059   1.080   4.211   4.806  0.7324 -1.1711 -0.3174
 9200SOL    HW239060   1.231   4.238   4.796 -0.7815 -3.1526  1.6486
 9201SOL     OW39061   2.246   1.517  17.400  0.3796 -0.0810 -0.1048
 9201SOL    HW139062   2.313   1.480  17.342  3.2075 -0.2086  3.2711
 9201SOL    HW239063   2.230   1.450  17.466  1.4390 -0.3082 -0.0713
 9202SOL     OW39064   2.672   4.151  11.029 -0.0372 -0.5743 -0.4536
 9202SOL    HW139065   2.719   4.186  11.104 -1.9734  0.8673  0.0927
 9202SOL    HW239066   2.712   4.064  11.030 -1.1827 -1.1154 -2.4434
 9203SOL     OW39067   2.958   2.507   4.303 -0.1893  0.6623  0.4936
 9203SOL    HW139068   2.922   2.442   4.241  1.3194 -0.3116  0.6545
 9203SOL    HW239069   2.981   2.449   4.375  1.4847 -1.8818 -2.0722
 9204SOL     OW39070   1.228   0.424   3.679  1.0226  0.2815 -0.2147
 9204SOL    HW139071   1.282   0.394   3.606  0.8349 -0.5345 -0.0263
 9204SOL    HW239072   1.271   0.493   3.728  0.6330  0.1278  0.3530
 9205SOL     OW39073   3.659   3.076   5.868 -0.0347  0.2264  0.3273
 9205SOL    HW139074   3.624   3.096   5.781 -1.2733 -1.2833  0.4883
 9205SOL    HW239075   3.667   3.162   5.910  0.6857  0.3068  0.0180
 9206SOL     OW39076   4.655   1.441  11.053  0.1145  0.0598  0.2699
 9206SOL    HW139077   4.662   1.533  11.079 -1.7212 -0.8409  3.8057
 9206SOL    HW239078   4.571   1.444  11.007 -1.3936 -0.9320  2.9666
 9207SOL     OW39079   1.603   1.483   4.001  0.0220 -0.2206 -0.0340
 9207SOL    HW139080   1.520   1.435   3.999 -0.6786  0.9860  0.0404
 9207SOL    HW239081   1.587   1.559   4.057 -1.3202 -1.7800  1.6726
 9208SOL     OW39082   3.265   0.046   6.758 -0.7954  0.2031  0.2177
 9208SOL    HW139083   3.228   0.051   6.847  0.2176 -1.5629  0.7368
 9208SOL    HW239084   3.230   4.689   6.722 -1.1218 -0.0344  1.0693
 9209SOL     OW39085   1.572   0.345   2.512  0.4754 -0.5710  0.3805
 9209SOL    HW139086   1.603   0.348   2.422  0.5990 -0.3097  0.4332
 9209SOL    HW239087   1.540   0.255   2.510 -1.1048 -0.0350  0.9166
 9210SOL     OW39088   3.151   1.635   3.234  0.0313 -0.0192  0.4515
 9210SOL    HW139089   3.187   1.574   3.169  0.3193 -0.1430  0.7232
 9210SOL    HW239090   3.065   1.595   3.246 -0.3603  0.8886  0.6439
 9211SOL     OW39091   2.363   2.446   8.781 -0.2479  0.0596  0.3796
 9211SOL    HW139092   2.369   2.540   8.799 -1.9035  0.1983  0.2475
 9211SOL    HW239093   2.453   2.421   8.796 -0.1294 -0.6695 -1.5518
 9212SOL     OW39094   3.916   0.900   6.968 -0.2867  0.5251  0.6048
 9212SOL    HW139095   3.969   0.967   6.924 -2.2747  0.7115 -1.4638
 9212SOL    HW239096   3.830   0.941   6.956 -1.2457 -1.5687  0.3041
 9213SOL     OW39097   3.098   0.499   8.539 -0.1221 -0.7316  0.3780
 9213SOL    HW139098   3.102   0.593   8.554 -1.4008 -0.6803  0.3193
 9213SOL    HW239099   3.187   0.474   8.567  1.1951  2.3447 -1.0011
 9214SOL     OW39100   1.885   3.877   3.198  0.3389  0.5698 -0.4637
 9214SOL    HW139101   1.802   3.900   3.158  0.6582  1.8501 -0.4063
 9214SOL    HW239102   1.922   3.961   3.226 -0.5956  0.0608  2.3238
 9215SOL     OW39103   2.930   1.303   3.098 -0.5019 -0.0727 -1.1309
 9215SOL    HW139104   2.973   1.221   3.074 -0.1755 -0.8417  2.1348
 9215SOL    HW239105   2.951   1.367   3.029  0.7991  0.8821  0.1613
 9216SOL     OW39106   1.863   3.572   1.728 -0.0302  0.2317  0.0374
 9216SOL    HW139107   1.934   3.600   1.786  0.2730 -1.1147  0.3227
 9216SOL    HW239108   1.786   3.614   1.766 -0.4188  0.7258 -1.3176
 9217SOL     OW39109   4.131   3.362  14.486  0.0303  0.5397 -0.2250
 9217SOL    HW139110   4.177   3.396  14.410  0.4055 -0.9909 -0.6809
 9217SOL    HW239111   4.107   3.449  14.518 -0.5336  0.3821 -0.2086
 9218SOL     OW39112   0.725   2.854   3.711  1.1484 -0.5715 -0.0753
 9218SOL    HW139113   0.684   2.768   3.701 -0.4986  0.3949 -1.7165
 9218SOL    HW239114   0.648   2.897   3.750  2.3049  0.2755  1.2529
 9219SOL     OW39115   1.675   1.760  10.924 -0.2680 -0.2094 -0.3478
 9219SOL    HW139116   1.594   1.774  10.972 -1.7115 -0.6343 -2.6363
 9219SOL    HW239117   1.687   1.846  10.882 -0.6168  0.0139  0.0181
 9220SOL     OW39118   1.615   3.877  17.314 -0.1006 -0.4342  0.4999
 9220SOL    HW139119   1.571   3.961  17.318 -0.7557 -0.6918 -1.3344
 9220SOL    HW239120   1.545   3.830  17.268 -0.0577  1.3770 -1.3963
 9221SOL     OW39121   3.663   1.917   3.155 -0.8140  0.2377  0.0764
 9221SOL    HW139122   3.711   1.853   3.208  2.3091  0.9408 -1.9035
 9221SOL    HW239123   3.721   1.942   3.083  0.0804 -1.2967  0.2720
 9222SOL     OW39124   1.624   1.488   8.847  0.2172  0.4353  0.2420
 9222SOL    HW139125   1.642   1.459   8.936 -0.1758  1.4302  0.6439
 9222SOL    HW239126   1.682   1.565   8.842  0.5223  0.0840 -1.8640
 9223SOL     OW39127   1.792   4.248   8.367  0.0026  0.4312  0.1558
 9223SOL    HW139128   1.878   4.221   8.399 -0.2764 -1.7541 -0.9349
 9223SOL    HW239129   1.782   4.337   8.400  0.5333  0.5224  0.0717
 9224SOL     OW39130   0.030   0.290   6.770 -0.3916 -0.4876  0.3404
 9224SOL    HW139131   4.693   0.216   6.763 -0.4057 -0.6327  2.0953
 9224SOL    HW239132   0.102   0.260   6.715  0.5989  0.0258  1.3551
 9225SOL     OW39133   3.492   0.304   0.066 -0.1364 -0.1180  0.2659
 9225SOL    HW139134   3.440   0.240   0.113 -0.3379  0.6317  1.0602
 9225SOL    HW239135   3.465   0.282  17.675  1.8364  0.2667 -0.4339
 9226SOL     OW39136   0.482   3.292   7.454 -0.1394  0.1016  0.4355
 9226SOL    HW139137   0.410   3.283   7.516 -2.5019 -1.0679 -2.4656
 9226SOL    HW239138   0.482   3.387   7.447 -1.2058  0.0386 -0.5113
 9227SOL     OW39139   3.613   3.612  12.428  0.1550 -0.0436  0.1362
 9227SOL    HW139140   3.663   3.544  12.383  1.5806  0.6315  0.6949
 9227SOL    HW239141   3.652   3.621  12.515  2.0955  0.9744 -0.8310
 9228SOL     OW39142   0.446   4.449   3.525 -0.1265 -0.1029 -0.4637
 9228SOL    HW139143   0.441   4.516   3.458 -0.9931  0.1127 -0.1775
 9228SOL    HW239144   0.421   4.368   3.480 -0.8475 -0.3575  0.3804
 9229SOL     OW39145   4.000   4.446   8.098  0.6672  0.4161 -0.3631
 9229SOL    HW139146   4.021   4.533   8.132  0.3488 -0.3394  1.7924
 9229SOL    HW239147   4.067   4.394   8.143 -0.4101 -0.5527  0.1250
 9230SOL     OW39148   4.198   3.148   8.068  0.0089  0.3215  0.4575
 9230SOL    HW139149   4.254   3.188   8.135  0.2593  1.4543 -0.4437
 9230SOL    HW239150   4.145   3.222   8.039 -1.7612 -0.9166  0.5402
 9231SOL     OW39151   4.068   2.429   2.623  0.8453 -0.5225  0.9916
 9231SOL    HW139152   4.101   2.452   2.536 -0.7898 -1.5963  0.0892
 9231SOL    HW239153   4.129   2.357   2.640 -1.0419 -2.1128  0.9479
 9232SOL     OW39154   4.270   2.881  15.935 -0.8695  0.0921 -0.0472
 9232SOL    HW139155   4.183   2.921  15.932 -1.8096 -1.8516  1.4474
 9232SOL    HW239156   4.319   2.960  15.910  0.9460 -1.3653 -1.0739
 9233SOL     OW39157   0.565   4.349   6.720  0.0769 -0.4300  0.4638
 9233SOL    HW139158   0.629   4.292   6.763  1.2494  0.7450  0.2818
 9233SOL    HW239159   0.545   4.408   6.794  2.3448 -0.8828  1.4442
 9234SOL     OW39160   0.353   1.124   0.999 -0.1780  0.0170 -0.5910
 9234SOL    HW139161   0.409   1.079   0.936 -0.8622 -1.9928  0.2127
 9234SOL    HW239162   0.349   1.211   0.960 -2.6309 -0.4902 -1.5191
 9235SOL     OW39163   2.779   4.529   0.416 -0.3368  0.1106 -0.0044
 9235SOL    HW139164   2.856   4.482   0.447 -0.1802  0.5187  0.2364
 9235SOL    HW239165   2.784   4.606   0.473 -1.4114 -0.4171  0.7804
 9236SOL     OW39166   0.978   2.040   6.530  0.5733  1.1205  0.0236
 9236SOL    HW139167   0.910   1.991   6.575  1.6822  0.3104  0.8253
 9236SOL    HW239168   1.004   2.108   6.593  0.6343  0.2185  0.9612
 9237SOL     OW39169   3.657   3.457   0.799  0.4630 -0.8406  0.4307
 9237SOL    HW139170   3.675   3.373   0.757  0.8667  0.3390 -1.7536
 9237SOL    HW239171   3.701   3.523   0.745 -0.5745 -0.3567  0.1651
 9238SOL     OW39172   3.055   1.662  10.560  0.6460 -0.2020 -0.1518
 9238SOL    HW139173   3.050   1.711  10.642  0.1460 -2.2292  1.0191
 9238SOL    HW239174   2.987   1.594  10.563  0.6546 -0.0896  2.2181
 9239SOL     OW39175   2.739   0.866  14.365 -0.2372  0.5583  0.2517
 9239SOL    HW139176   2.655   0.833  14.396 -0.5964  0.6121 -0.6554
 9239SOL    HW239177   2.709   0.906  14.283  1.0024  1.1123  0.0547
 9240SOL     OW39178   3.815   1.373  10.421  0.7314  0.3189 -0.1121
 9240SOL    HW139179   3.870   1.392  10.344  0.1900 -1.3328 -0.9244
 9240SOL    HW239180   3.778   1.459  10.438 -0.4071  0.0739 -1.3301
 9241SOL     OW39181   3.850   4.359   4.338  0.5757  0.5256  0.1915
 9241SOL    HW139182   3.864   4.385   4.247  0.3505 -1.3224 -0.3678
 9241SOL    HW239183   3.889   4.435   4.380  2.0889  0.2861 -0.7597
 9242SOL     OW39184   3.501   0.928   2.421 -0.2455 -0.5423  0.2425
 9242SOL    HW139185   3.440   0.971   2.361  0.4194  1.0715  0.7286
 9242SOL    HW239186   3.586   0.920   2.377 -0.6795  1.4961 -0.9853
 9243SOL     OW39187   3.130   4.499   6.377 -0.0635  0.1374  0.6461
 9243SOL    HW139188   3.112   4.541   6.292  0.9768 -0.7488 -0.0161
 9243SOL    HW239189   3.094   4.413   6.361 -3.6486  1.3973  2.0228
 9244SOL     OW39190   4.723   4.415   9.955 -0.0288 -0.8070  0.2246
 9244SOL    HW139191   4.666   4.383   9.885  0.4252  1.2811 -1.0903
 9244SOL    HW239192   4.656   4.415  10.023 -1.1882  0.8941 -0.9297
 9245SOL     OW39193   1.015   1.317   5.237  0.0167 -0.2684 -0.3581
 9245SOL    HW139194   0.971   1.308   5.153 -1.6314 -0.1475  0.5081
 9245SOL    HW239195   1.083   1.250   5.232 -1.1269 -1.6003  2.0804
 9246SOL     OW39196   1.462   2.031   0.268  0.0528  0.9237  0.3683
 9246SOL    HW139197   1.551   2.049   0.296  0.8977 -0.5814 -1.2934
 9246SOL    HW239198   1.482   1.976   0.191 -0.3687  1.0022  0.1988
 9247SOL     OW39199   0.363   0.277   9.800  0.7163 -0.3118  0.2079
 9247SOL    HW139200   0.290   0.221   9.826  0.5916 -0.5703 -0.7016
 9247SOL    HW239201   0.364   0.357   9.852  2.7305 -0.0652 -0.2258
 9248SOL     OW39202   4.206   0.882  11.738  0.4024  0.2787  0.2261
 9248SOL    HW139203   4.256   0.916  11.664  0.9219  0.5843  0.7166
 9248SOL    HW239204   4.265   0.823  11.785 -0.1893  0.0960  0.7389
 9249SOL     OW39205   4.695   1.990   5.582 -0.6413 -0.3516  0.6903
 9249SOL    HW139206   4.673   2.021   5.494 -3.0496  0.3421  1.5365
 9249SOL    HW239207   4.716   1.900   5.559  1.2005  0.4032 -0.5695
 9250SOL     OW39208   2.101   2.731  12.865 -0.4311  0.0705  0.4210
 9250SOL    HW139209   2.077   2.819  12.894  0.2650  0.2684  0.3947
 9250SOL    HW239210   2.093   2.745  12.771 -0.1668  4.0318  0.9887
 9251SOL     OW39211   1.691   0.899   5.846 -0.1573  0.0764 -0.6359
 9251SOL    HW139212   1.655   0.816   5.813  1.2276 -0.8026  0.0656
 9251SOL    HW239213   1.695   0.949   5.764 -3.4353  0.9237 -0.2845
 9252SOL     OW39214   4.708   4.049   3.375 -0.6836 -0.2094 -0.2972
 9252SOL    HW139215   4.665   4.034   3.291 -1.2655 -0.2349  0.0035
 9252SOL    HW239216   4.712   3.959   3.409 -2.0944 -0.1467  0.0205
 9253SOL     OW39217   3.948   3.705  13.060  0.0469 -0.0184 -0.1088
 9253SOL    HW139218   3.962   3.790  13.018 -2.2990  1.2655  1.6661
 9253SOL    HW239219   3.928   3.647  12.986  1.4207  0.7056 -1.0242
 9254SOL     OW39220   2.102   2.567   4.556 -0.5323 -0.2832 -0.1025
 9254SOL    HW139221   2.185   2.537   4.519  0.6954  0.7308  1.8247
 9254SOL    HW239222   2.121   2.660   4.548 -1.2463 -0.0501  0.9016
 9255SOL     OW39223   2.323   2.873  13.700  0.2468  0.7663  0.3965
 9255SOL    HW139224   2.295   2.846  13.612 -2.1246  2.9780  0.4878
 9255SOL    HW239225   2.264   2.822  13.757  1.6709 -0.2752  0.9369
 9256SOL     OW39226   3.771   3.759   3.728 -0.4371 -0.1608  0.5913
 9256SOL    HW139227   3.801   3.669   3.721  2.9119  1.0351 -0.2981
 9256SOL    HW239228   3.760   3.774   3.822 -0.4890  0.7067  0.4503
 9257SOL     OW39229   0.500   2.706   4.105  0.1317  0.1817  0.1274
 9257SOL    HW139230   0.595   2.716   4.098  0.0949  1.0565  0.9175
 9257SOL    HW239231   0.471   2.796   4.115  0.4037  0.2797  0.0235
 9258SOL     OW39232   0.853   3.660   4.796 -0.1863  0.3893 -0.1704
 9258SOL    HW139233   0.914   3.734   4.792  1.2344 -0.7312  1.2398
 9258SOL    HW239234   0.765   3.698   4.789 -0.1934 -0.1435 -3.0739
 9259SOL     OW39235   0.160   0.624   4.367  0.4532 -0.0480 -0.1320
 9259SOL    HW139236   0.078   0.664   4.394  0.2148 -0.8691  0.3415
 9259SOL    HW239237   0.202   0.700   4.327 -0.7055  0.5631 -0.1927
 9260SOL     OW39238   4.225   0.389   8.140  0.5553 -0.1948 -0.0882
 9260SOL    HW139239   4.306   0.439   8.148  2.3113 -3.0816 -0.1097
 9260SOL    HW239240   4.186   0.402   8.227  2.6572  0.7889  0.7079
 9261SOL     OW39241   0.550   0.726   5.713 -0.2672 -0.0243 -0.1789
 9261SOL    HW139242   0.531   0.633   5.709 -0.4472  0.1918 -3.6914
 9261SOL    HW239243   0.501   0.753   5.635  0.7767  0.3248 -0.7128
 9262SOL     OW39244   2.609   4.185   8.747  0.7114 -0.2073 -0.7320
 9262SOL    HW139245   2.613   4.125   8.822  0.2386  2.2535  1.2424
 9262SOL    HW239246   2.521   4.157   8.722 -0.0771  2.1648 -0.6288
 9263SOL     OW39247   2.141   4.375   2.588  0.1382  0.1361 -0.2570
 9263SOL    HW139248   2.101   4.452   2.628  0.0799 -0.4462  0.8136
 9263SOL    HW239249   2.078   4.308   2.615  1.4007 -1.5701 -1.5677
 9264SOL     OW39250   4.239   3.268  16.578  0.1508 -0.8711  0.3166
 9264SOL    HW139251   4.194   3.320  16.644  2.2208  0.9192  0.3074
 9264SOL    HW239252   4.278   3.334  16.522  1.8977 -0.5553  1.8736
 9265SOL     OW39253   0.502   1.238  13.921 -0.2893  0.1241 -0.6261
 9265SOL    HW139254   0.446   1.164  13.899  1.0878 -1.0269 -0.2546
 9265SOL    HW239255   0.444   1.300  13.965 -1.4616 -1.3924 -0.0143
 9266SOL     OW39256   3.462   0.485  14.311  0.0348 -0.0525  0.3641
 9266SOL    HW139257   3.534   0.516  14.365  1.3029 -1.7162 -0.3706
 9266SOL    HW239258   3.499   0.458  14.227  1.4984  1.3819  0.5564
 9267SOL     OW39259   3.060   1.215  16.468 -0.5745  0.0412  0.0102
 9267SOL    HW139260   3.151   1.207  16.495 -1.0836 -0.5579  1.5732
 9267SOL    HW239261   3.065   1.180  16.380  1.7484 -1.6424  0.8276
 9268SOL     OW39262   0.072   3.858   8.216 -0.2704  0.1523 -0.1319
 9268SOL    HW139263   0.055   3.889   8.305  0.3528 -0.2586  0.1311
 9268SOL    HW239264   0.110   3.771   8.230 -1.0596 -0.2149 -0.2375
 9269SOL     OW39265   2.279   3.400   0.062 -0.4446 -0.1332 -0.3561
 9269SOL    HW139266   2.365   3.371   0.030 -0.4432  0.9956 -1.3599
 9269SOL    HW239267   2.233   3.316   0.068 -0.0941 -0.4374 -2.0135
 9270SOL     OW39268   0.189   1.582  15.383 -0.1848 -0.1275 -0.1073
 9270SOL    HW139269   0.272   1.552  15.419  1.1666  1.0594 -2.2027
 9270SOL    HW239270   0.223   1.638  15.312 -0.2769 -0.8131 -0.6935
 9271SOL     OW39271   3.691   0.461   0.210  0.3238 -0.4066  0.4654
 9271SOL    HW139272   3.630   0.442   0.139  0.1804 -2.7529  1.2194
 9271SOL    HW239273   3.639   0.522   0.262 -0.8351 -0.6083 -0.4569
 9272SOL     OW39274   3.997   1.174   8.525  0.1953  0.2001  0.5461
 9272SOL    HW139275   4.087   1.177   8.493  0.5184  4.7362  1.9391
 9272SOL    HW239276   3.978   1.080   8.524  2.7671 -0.2829 -1.9112
 9273SOL     OW39277   1.353   3.491   3.815  0.2854  0.1523 -0.3805
 9273SOL    HW139278   1.407   3.421   3.778  0.2597 -0.2255  0.2964
 9273SOL    HW239279   1.337   3.453   3.901  2.1964  0.3872  0.0740
 9274SOL     OW39280   1.284   1.678  12.620  0.3804  0.4282  0.1133
 9274SOL    HW139281   1.253   1.742  12.684  0.8087  0.9584 -0.2067
 9274SOL    HW239282   1.371   1.658  12.655 -0.1054 -0.9266  0.5631
 9275SOL     OW39283   0.202   1.708  10.517 -0.1870 -0.2233 -0.1745
 9275SOL    HW139284   0.126   1.735  10.464 -0.8854 -0.6776  0.5980
 9275SOL    HW239285   0.150   1.647  10.568 -0.2785 -0.2085 -0.2496
 9276SOL     OW39286   2.596   0.539   1.867 -0.0884  0.2103 -0.4724
 9276SOL    HW139287   2.645   0.609   1.909  0.2934 -0.5460  0.3468
 9276SOL    HW239288   2.653   0.462   1.869  0.7585  0.8531  0.1386
 9277SOL     OW39289   0.127   1.941  13.390 -0.3725  0.6906  0.0890
 9277SOL    HW139290   0.142   1.900  13.476 -1.8446  0.7706  0.3732
 9277SOL    HW239291   0.123   2.032  13.419 -0.8695  0.7493 -0.1817
 9278SOL     OW39292   3.581   4.083   2.961  0.0547  0.1253  0.2019
 9278SOL    HW139293   3.662   4.040   2.935 -0.4909 -1.5362  1.2621
 9278SOL    HW239294   3.531   4.083   2.879  0.4051 -1.3601 -0.0087
 9279SOL     OW39295   4.534   0.465   6.197 -0.4637  0.6668 -0.1898
 9279SOL    HW139296   4.442   0.441   6.204  0.3785 -2.5091  0.1368
 9279SOL    HW239297   4.568   0.394   6.141 -1.4101  1.0122 -1.1982
 9280SOL     OW39298   4.701   1.820   7.545 -0.5788  0.9141 -0.2898
 9280SOL    HW139299   4.699   1.788   7.635 -2.8705  1.3659 -0.1773
 9280SOL    HW239300   4.670   1.911   7.553 -1.6795  0.7594 -2.6237
 9281SOL     OW39301   3.424   3.446   0.957  0.2376  0.1374 -0.1982
 9281SOL    HW139302   3.352   3.455   0.895 -0.4819 -1.5142  0.3836
 9281SOL    HW239303   3.495   3.464   0.895  1.4963 -1.8699  0.6665
 9282SOL     OW39304   0.921   3.939   9.611 -0.2466 -0.0201 -0.3053
 9282SOL    HW139305   0.966   3.994   9.676 -1.7091  0.7406  0.0534
 9282SOL    HW239306   0.931   3.851   9.647 -2.4651  0.7867  2.2380
 9283SOL     OW39307   0.829   3.836   6.843 -0.1533 -0.5189  0.3407
 9283SOL    HW139308   0.837   3.911   6.784 -2.0455  0.3367  1.1811
 9283SOL    HW239309   0.736   3.843   6.862 -0.1174  2.4143 -0.5448
 9284SOL     OW39310   1.849   3.666   4.881  0.1928  0.3608 -0.2805
 9284SOL    HW139311   1.806   3.589   4.918 -1.0415 -0.0328 -2.5355
 9284SOL    HW239312   1.926   3.627   4.840  0.6457  0.3282  0.6078
 9285SOL     OW39313   2.057   2.170   7.482 -0.3378  0.2131  0.1409
 9285SOL    HW139314   2.061   2.265   7.469 -0.4008  0.3969  1.5108
 9285SOL    HW239315   2.141   2.158   7.526 -1.5489 -2.5008  1.7210
 9286SOL     OW39316   2.109   1.849   3.115 -0.3017  0.3754 -0.1114
 9286SOL    HW139317   2.172   1.848   3.043 -0.4154  0.1751 -0.2080
 9286SOL    HW239318   2.025   1.837   3.070  0.5672  1.3773 -2.0295
 9287SOL     OW39319   4.552   2.743   0.956  0.5064 -0.5061  0.8852
 9287SOL    HW139320   4.496   2.773   0.885  4.2236  1.8855 -1.0059
 9287SOL    HW239321   4.506   2.667   0.992  0.9797 -1.4436 -0.5152
 9288SOL     OW39322   4.282   2.910   3.755 -0.1619 -0.1652 -0.1551
 9288SOL    HW139323   4.367   2.871   3.777 -0.1013 -0.2702 -0.5716
 9288SOL    HW239324   4.216   2.872   3.813 -1.1028  0.9984 -0.4639
 9289SOL     OW39325   3.999   2.516  14.712  0.5608 -0.7580 -0.3076
 9289SOL    HW139326   4.063   2.525  14.783 -0.4522 -0.3397  0.5653
 9289SOL    HW239327   4.050   2.547  14.637  0.4918  2.8760  1.1242
 9290SOL     OW39328   0.831   0.009   5.407 -0.0604  0.2706 -0.5848
 9290SOL    HW139329   0.812   4.721   5.314  1.8878 -1.3789 -0.7784
 9290SOL    HW239330   0.827   0.104   5.412  0.3090  0.1964  1.4586
 9291SOL     OW39331   1.649   2.928   5.767 -0.4972  0.2603  0.1447
 9291SOL    HW139332   1.718   2.986   5.736 -1.2432  0.9561 -0.2383
 9291SOL    HW239333   1.588   2.990   5.807  0.2962  1.6628 -0.8535
 9292SOL     OW39334   1.988   2.520   1.729  0.3129 -0.0287  0.6512
 9292SOL    HW139335   1.908   2.476   1.699 -0.1032 -0.2457  2.0440
 9292SOL    HW239336   1.957   2.558   1.812 -0.9506 -0.5993  0.4344
 9293SOL     OW39337   1.875   0.273   0.049 -0.2918  0.2553  0.3836
 9293SOL    HW139338   1.883   0.361   0.011 -1.1138 -0.7768 -2.1418
 9293SOL    HW239339   1.953   0.233   0.009  1.6555  1.5635  2.8922
 9294SOL     OW39340   4.345   1.886   5.267  0.0332 -0.3801 -0.0583
 9294SOL    HW139341   4.404   1.907   5.195 -1.1681  0.2053 -0.8610
 9294SOL    HW239342   4.374   1.951   5.331 -0.5507  0.0797 -0.2581
 9295SOL     OW39343   4.624   3.917   6.611 -0.0673 -0.2904  0.5958
 9295SOL    HW139344   4.544   3.957   6.644 -0.7047 -0.4353 -0.7875
 9295SOL    HW239345   4.686   3.984   6.640  0.3078 -0.9747  1.3848
 9296SOL     OW39346   1.473   2.840   3.743 -0.4648  0.5574 -0.4133
 9296SOL    HW139347   1.396   2.882   3.705  0.3328  0.2878 -2.3698
 9296SOL    HW239348   1.437   2.752   3.746 -0.2744  0.5753  2.1054
 9297SOL     OW39349   1.033   2.494  16.152 -0.1366 -0.4448 -0.1212
 9297SOL    HW139350   1.109   2.549  16.131 -1.9947  2.0592 -0.1650
 9297SOL    HW239351   0.959   2.550  16.172  0.2999 -0.5628  1.9001
 9298SOL     OW39352   0.623   2.178   1.725 -0.0050 -0.1224  0.4088
 9298SOL    HW139353   0.582   2.173   1.639 -2.1162  0.6047  1.3659
 9298SOL    HW239354   0.628   2.274   1.725 -0.5341 -0.0920 -0.0633
 9299SOL     OW39355   2.923   1.986  13.175 -0.1591  0.5883 -0.5877
 9299SOL    HW139356   2.911   2.081  13.175 -0.4065  0.5573 -1.0946
 9299SOL    HW239357   2.876   1.960  13.254  0.5767 -0.1018 -0.3835
 9300SOL     OW39358   2.887   1.062   3.343  0.5772  0.3328  0.0237
 9300SOL    HW139359   2.843   1.022   3.418  0.0225 -0.6926 -0.8506
 9300SOL    HW239360   2.818   1.079   3.279 -0.8561  0.1309  1.5140
 9301SOL     OW39361   3.696   0.507   9.049  0.1065  0.4444 -0.5323
 9301SOL    HW139362   3.640   0.514   9.126  1.3777 -2.3122  0.6293
 9301SOL    HW239363   3.635   0.536   8.981  1.3992 -1.8417 -2.6569
 9302SOL     OW39364   1.726   0.037  10.117 -0.3306  0.4413  0.2466
 9302SOL    HW139365   1.699   0.090  10.191  1.4031 -0.1790  1.3346
 9302SOL    HW239366   1.792   0.090  10.072 -1.0694  0.9953 -0.1810
 9303SOL     OW39367   3.262   1.840  16.608 -0.4107  0.7505 -0.1445
 9303SOL    HW139368   3.234   1.779  16.676  1.1039 -0.2414 -0.4188
 9303SOL    HW239369   3.356   1.851  16.621 -0.7647 -0.2980  3.3339
 9304SOL     OW39370   0.262   0.266  11.974  0.0525  0.1193 -0.3592
 9304SOL    HW139371   0.298   0.339  11.923  0.2940  0.8006  0.7854
 9304SOL    HW239372   0.334   0.242  12.032  0.3283 -1.1658 -1.2269
 9305SOL     OW39373   0.962   2.765   4.754  0.8152 -0.1062 -0.1600
 9305SOL    HW139374   1.044   2.766   4.705  0.5414 -0.4393 -0.6399
 9305SOL    HW239375   0.896   2.728   4.695 -1.5304  0.8272  1.8668
 9306SOL     OW39376   2.694   4.356   6.731 -0.1147  0.0572 -0.2518
 9306SOL    HW139377   2.619   4.414   6.715 -0.7349 -0.7407 -0.2203
 9306SOL    HW239378   2.711   4.312   6.647  0.1469 -0.6948  0.1964
 9307SOL     OW39379   3.642   0.673   3.075  0.5406  0.0443 -0.3839
 9307SOL    HW139380   3.584   0.702   3.004  0.5743 -0.0024 -0.4305
 9307SOL    HW239381   3.717   0.630   3.033  1.0468 -0.1263  0.6858
 9308SOL     OW39382   3.957   1.932  10.830  0.3157  0.2347 -0.1484
 9308SOL    HW139383   4.021   1.972  10.890  1.6409 -1.9506 -0.0851
 9308SOL    HW239384   3.897   2.004  10.811 -0.6148 -0.3105  0.7410
 9309SOL     OW39385   3.611   3.990  10.651 -0.7028 -0.0273  0.5100
 9309SOL    HW139386   3.603   3.923  10.582 -1.7686 -1.3874  1.9628
 9309SOL    HW239387   3.650   4.059  10.598 -1.5007 -0.8006 -1.0790
 9310SOL     OW39388   1.109   0.080  12.989 -0.2355 -0.4796 -0.7251
 9310SOL    HW139389   1.178   0.046  12.932  1.1115  1.8911 -0.5066
 9310SOL    HW239390   1.161   0.093  13.069 -0.9154 -0.5126 -0.2768
 9311SOL     OW39391   0.175   2.267  12.847  0.4412  0.3546  0.3210
 9311SOL    HW139392   0.187   2.326  12.772  0.1898  0.2569  0.2041
 9311SOL    HW239393   0.149   2.190  12.798 -0.7369 -0.0355  1.5568
 9312SOL     OW39394   1.923   3.053  13.487  0.1292 -0.0730 -0.1306
 9312SOL    HW139395   1.940   2.969  13.443 -1.0286  0.6467 -1.9505
 9312SOL    HW239396   1.827   3.048  13.479  0.3388 -0.3477 -2.3624
 9313SOL     OW39397   3.658   3.908  16.051 -0.2447 -0.5102  0.3012
 9313SOL    HW139398   3.619   3.993  16.075 -0.4194 -0.7001  0.6836
 9313SOL    HW239399   3.611   3.848  16.108  2.2563 -3.4427 -0.7714
 9314SOL     OW39400   0.376   3.585   2.059 -0.6374  0.3186 -0.9138
 9314SOL    HW139401   0.314   3.533   2.008  0.4763 -2.4722  0.6253
 9314SOL    HW239402   0.319   3.662   2.054 -0.9230  0.1240 -0.6304
 9315SOL     OW39403   2.803   0.759   6.875 -0.1249 -0.3696 -0.3166
 9315SOL    HW139404   2.839   0.805   6.799 -0.4471 -1.9580 -1.4485
 9315SOL    HW239405   2.708   0.759   6.874 -0.1222  0.5464  1.1569
 9316SOL     OW39406   2.362   4.630  11.421 -0.1920 -0.4230 -0.3775
 9316SOL    HW139407   2.452   4.603  11.441 -0.0525  0.2959 -0.0434
 9316SOL    HW239408   2.370   4.629  11.325  1.2279  3.6946 -0.2889
 9317SOL     OW39409   2.267   2.916   4.043  0.5996 -0.0325 -0.3541
 9317SOL    HW139410   2.206   2.889   3.973  2.0138 -1.3861 -1.0674
 9317SOL    HW239411   2.347   2.867   4.023  0.4853  0.2462 -1.4874
 9318SOL     OW39412   3.217   0.080  13.521  0.0010 -0.2860  0.0331
 9318SOL    HW139413   3.128   0.112  13.506 -0.3240 -0.6254  1.2533
 9318SOL    HW239414   3.271   0.159  13.527  0.0899 -0.4391  1.1955
 9319SOL     OW39415   1.905   2.503   4.038  0.4974 -0.5641 -0.2117
 9319SOL    HW139416   1.958   2.572   4.076  0.1215  0.1414 -0.9552
 9319SOL    HW239417   1.959   2.477   3.963 -1.6738 -1.8970 -1.3433
 9320SOL     OW39418   3.034   0.414   8.024  0.1753  0.3782 -0.1487
 9320SOL    HW139419   3.021   0.463   8.105  1.3199  0.4041  0.0209
 9320SOL    HW239420   3.120   0.444   7.996  0.6672 -0.6281  0.3204
 9321SOL     OW39421   2.911   3.338   1.717 -0.0451 -0.3505 -0.0857
 9321SOL    HW139422   2.999   3.348   1.682  0.5361 -1.1176  1.1657
 9321SOL    HW239423   2.926   3.358   1.809  0.0338 -2.2544  0.2988
 9322SOL     OW39424   0.266   3.743   6.608 -0.0368 -0.1340 -0.7767
 9322SOL    HW139425   0.189   3.693   6.580  0.0187 -1.1037  0.7851
 9322SOL    HW239426   0.255   3.813   6.543 -2.6409 -0.2624 -0.4911
 9323SOL     OW39427   1.327   3.452   6.915  0.1814 -0.6402  0.2697
 9323SOL    HW139428   1.255   3.416   6.864  0.9082 -1.4840 -0.1693
 9323SOL    HW239429   1.274   3.519   6.958 -0.2204  0.0602 -1.2863
 9324SOL     OW39430   0.045   0.866   5.382  0.2835  0.1106  0.2110
 9324SOL    HW139431   0.140   0.872   5.378  0.0570  2.0620 -2.7921
 9324SOL    HW239432   0.017   0.840   5.470  0.7119 -0.5226  0.1545
 9325SOL     OW39433   1.718   3.840   0.202  0.0484  0.0330  0.1995
 9325SOL    HW139434   1.693   3.931   0.188  0.4136 -0.1987 -1.8668
 9325SOL    HW239435   1.791   3.848   0.263 -1.1365 -1.1266  1.7722
 9326SOL     OW39436   3.321   3.809  12.162  0.3360  0.0266 -0.1677
 9326SOL    HW139437   3.385   3.877  12.140 -0.3571  0.1055 -1.9796
 9326SOL    HW239438   3.327   3.833  12.254 -2.6280 -3.3445  0.9059
 9327SOL     OW39439   2.850   4.512   0.871 -0.3226  0.1147  0.7340
 9327SOL    HW139440   2.935   4.548   0.847 -0.1411 -0.3535  0.6817
 9327SOL    HW239441   2.877   4.461   0.948  1.6483  0.2805  0.1536
 9328SOL     OW39442   3.930   4.481   3.683 -0.2485 -0.3195 -0.0043
 9328SOL    HW139443   3.987   4.408   3.658 -0.6010 -0.2290 -1.0526
 9328SOL    HW239444   3.859   4.474   3.620 -0.7118 -1.4463  0.6449
 9329SOL     OW39445   0.579   3.707   4.106  0.3237  0.0635  0.1586
 9329SOL    HW139446   0.545   3.618   4.109 -0.9304  0.5602  0.6364
 9329SOL    HW239447   0.516   3.759   4.156  0.3620 -1.4287  1.7392
 9330SOL     OW39448   4.371   1.698  16.567  0.3271  0.2740  0.3551
 9330SOL    HW139449   4.372   1.603  16.560  0.5355  0.3589 -0.9342
 9330SOL    HW239450   4.293   1.722  16.517 -0.4715  0.5088  1.7330
 9331SOL     OW39451   2.791   2.849   8.365 -0.2790 -0.3953  0.1253
 9331SOL    HW139452   2.713   2.807   8.401 -1.1826 -0.2419 -1.6605
 9331SOL    HW239453   2.747   2.934   8.358  0.7982  0.3227  2.2257
 9332SOL     OW39454   0.361   3.069   4.221  0.0452  0.4249 -0.1615
 9332SOL    HW139455   0.274   3.094   4.188 -0.5495 -2.0863 -0.5122
 9332SOL    HW239456   0.419   3.132   4.179  2.1117  0.7978  3.2655
 9333SOL     OW39457   0.150   3.649   0.069 -0.2150 -0.1713  0.0396
 9333SOL    HW139458   0.140   3.635   0.164  1.2553  0.5554  0.2930
 9333SOL    HW239459   0.087   3.586   0.034 -0.6857  1.1457 -1.4963
 9334SOL     OW39460   3.752   3.772   4.015  0.4533  0.1531  0.0102
 9334SOL    HW139461   3.727   3.821   4.094 -0.6086 -0.4258  0.0299
 9334SOL    HW239462   3.726   3.682   4.035 -0.3914  0.7917  1.8755
 9335SOL     OW39463   2.177   1.888   4.736  0.5687  0.2122  0.7807
 9335SOL    HW139464   2.116   1.817   4.754  0.9272 -0.5687 -1.1120
 9335SOL    HW239465   2.261   1.849   4.714 -0.1389  0.4919 -2.4531
 9336SOL     OW39466   2.126   4.443   1.695  0.0618 -0.8550  0.4243
 9336SOL    HW139467   2.041   4.478   1.666 -0.5669 -0.7910  2.3024
 9336SOL    HW239468   2.108   4.406   1.782  0.8973 -1.3690  0.3740
 9337SOL     OW39469   2.226   4.510   2.057  0.0166 -0.5129  0.3803
 9337SOL    HW139470   2.251   4.484   2.146  1.0574 -2.7908 -0.5686
 9337SOL    HW239471   2.302   4.480   2.007 -0.5088  0.9951 -1.3090
 9338SOL     OW39472   4.493   2.002   0.473 -0.0524 -0.5587 -0.5225
 9338SOL    HW139473   4.423   2.067   0.475  1.4817  1.1414 -1.4083
 9338SOL    HW239474   4.523   2.004   0.564  1.6318  1.6536 -1.1108
 9339SOL     OW39475   4.293   3.590   7.601 -0.0009  0.6046 -0.2078
 9339SOL    HW139476   4.269   3.537   7.678 -1.1619 -1.2829 -1.8637
 9339SOL    HW239477   4.378   3.553   7.577 -1.5582 -1.2230 -2.9170
 9340SOL     OW39478   0.700   0.887  10.698 -0.1451 -0.1204  0.0370
 9340SOL    HW139479   0.790   0.917  10.688 -0.3638  0.4044 -0.3426
 9340SOL    HW239480   0.703   0.795  10.672 -0.8572  0.2835 -1.4986
 9341SOL     OW39481   1.200   0.309   2.338  0.4773  0.1660  0.1024
 9341SOL    HW139482   1.263   0.266   2.280  0.5905 -1.1430  1.1962
 9341SOL    HW239483   1.168   0.382   2.286 -1.1368 -0.7286 -0.1313
 9342SOL     OW39484   3.107   4.114  15.240  0.1957 -0.3388 -0.6560
 9342SOL    HW139485   3.115   4.144  15.150 -0.2972  2.0848  0.1031
 9342SOL    HW239486   3.047   4.040  15.238 -2.5302  1.9188 -1.4340
 9343SOL     OW39487   2.792   1.379   4.935  0.1387  0.1048  0.2509
 9343SOL    HW139488   2.846   1.409   5.008 -0.2051  1.0461  0.1231
 9343SOL    HW239489   2.860   1.374   4.869 -1.2121 -0.1097 -1.1183
 9344SOL     OW39490   2.895   3.170  16.795 -0.2918  0.0819  0.0244
 9344SOL    HW139491   2.815   3.187  16.845  1.1132  1.9959  1.6521
 9344SOL    HW239492   2.956   3.154  16.867  0.2310  0.3533 -0.3533
 9345SOL     OW39493   1.080   1.816   2.313  0.5798  0.3886  0.1115
 9345SOL    HW139494   1.097   1.727   2.344  0.8525  0.7925  1.1436
 9345SOL    HW239495   1.105   1.800   2.222  2.1019  2.1577  0.2137
 9346SOL     OW39496   1.823   1.130   8.009  0.3141 -0.1203 -0.3086
 9346SOL    HW139497   1.792   1.220   8.005 -0.4770 -0.3875 -0.2593
 9346SOL    HW239498   1.781   1.111   8.093 -1.4397  1.8403 -0.7352
 9347SOL     OW39499   3.633   1.435  12.319 -0.1624  0.0849  0.8149
 9347SOL    HW139500   3.696   1.506  12.307 -1.2261  1.1298  1.3920
 9347SOL    HW239501   3.678   1.365  12.272 -0.7775  0.7924 -0.8442
 9348SOL     OW39502   1.642   2.087  11.087 -0.0953  0.2297  0.2785
 9348SOL    HW139503   1.611   2.123  11.170  0.4828 -1.5986  1.2981
 9348SOL    HW239504   1.578   2.015  11.089  1.3823 -1.0741  1.3402
 9349SOL     OW39505   2.891   2.010   9.205 -0.7476 -0.2103 -0.3996
 9349SOL    HW139506   2.870   1.925   9.166 -1.7657  0.2123 -0.7665
 9349SOL    HW239507   2.910   2.061   9.126 -0.3650 -1.1362 -0.9100
 9350SOL     OW39508   2.428   4.694   4.367  0.5466  0.3843 -0.4125
 9350SOL    HW139509   2.383   4.638   4.431 -1.3449  1.0571 -1.1705
 9350SOL    HW239510   2.514   4.689   4.408  0.2494 -0.6512  0.0975
 9351SOL     OW39511   2.362   4.408   4.124  0.1360 -0.1529 -0.8296
 9351SOL    HW139512   2.430   4.476   4.127  1.7457 -1.8596  1.5305
 9351SOL    HW239513   2.414   4.339   4.166  0.8290  0.5500 -0.5376
 9352SOL     OW39514   0.184   2.735   6.897 -0.1198 -0.2030  0.1041
 9352SOL    HW139515   0.125   2.661   6.909  0.2237 -0.6890 -1.1970
 9352SOL    HW239516   0.121   2.804   6.917 -0.7261 -0.8552  0.4498
 9353SOL     OW39517   3.505   3.006  16.071  0.0219  0.1315  0.2625
 9353SOL    HW139518   3.584   3.005  16.018  0.2274 -2.2743  0.6079
 9353SOL    HW239519   3.468   3.093  16.060 -1.4534 -0.3964  0.9216
 9354SOL     OW39520   1.965   0.200   6.958  0.2527 -0.3148 -0.4624
 9354SOL    HW139521   2.005   0.164   6.879  3.2210  0.6747  0.6164
 9354SOL    HW239522   1.871   0.188   6.939  0.7425  0.1979 -3.2659
 9355SOL     OW39523   4.684   2.970   6.514  0.0252  0.1213  0.3714
 9355SOL    HW139524   0.049   2.985   6.545 -0.1002 -0.7777  1.1710
 9355SOL    HW239525   4.655   2.942   6.601  2.4874  1.9521  1.8001
 9356SOL     OW39526   0.212   3.112   2.766  0.7699  0.0356  0.2487
 9356SOL    HW139527   0.150   3.182   2.783  0.9974  1.1702 -3.5733
 9356SOL    HW239528   0.166   3.034   2.798  0.8355 -1.4814 -3.3927
 9357SOL     OW39529   3.608   2.331   7.540 -0.7762  0.4391 -0.0841
 9357SOL    HW139530   3.640   2.401   7.597  1.7226 -0.6377 -0.1748
 9357SOL    HW239531   3.616   2.367   7.451  1.4274 -1.4233 -0.6334
 9358SOL     OW39532   2.458   2.071  14.161 -0.0047  0.1093  0.2848
 9358SOL    HW139533   2.416   2.035  14.083 -2.9554  0.3652  1.7517
 9358SOL    HW239534   2.422   2.159  14.170 -0.4211  0.0718 -0.9840
 9359SOL     OW39535   2.137   3.241  16.220  0.1846  0.1854  0.3613
 9359SOL    HW139536   2.160   3.149  16.232 -0.8454  0.1821  2.1324
 9359SOL    HW239537   2.203   3.277  16.279 -0.5621 -1.2760  2.0730
 9360SOL     OW39538   1.795   2.170  13.977 -0.0635  0.0738 -0.0021
 9360SOL    HW139539   1.737   2.095  13.971 -0.2056  0.2551 -0.8931
 9360SOL    HW239540   1.803   2.166  14.073  0.9333  0.3137 -0.0750
 9361SOL     OW39541   4.568   2.026  15.747 -0.0879  0.2331  0.1980
 9361SOL    HW139542   4.620   2.078  15.809 -1.1221  1.2557  0.1984
 9361SOL    HW239543   4.556   2.093  15.680 -2.9019  0.1032  0.5874
 9362SOL     OW39544   0.209   3.996   4.463 -0.0720 -0.0111  0.0652
 9362SOL    HW139545   0.227   3.910   4.500 -0.6241 -0.3789 -0.5186
 9362SOL    HW239546   0.139   4.025   4.521  0.7378  1.9368  0.0637
 9363SOL     OW39547   1.991   1.793  11.941  0.0771  1.1110 -0.2020
 9363SOL    HW139548   2.073   1.775  11.986  0.2400 -1.2932 -1.4460
 9363SOL    HW239549   2.018   1.850  11.870  1.9928  0.1585 -0.2363
 9364SOL     OW39550   4.629   2.095  16.712  0.2984 -0.1556  0.8843
 9364SOL    HW139551   4.566   2.167  16.711  0.6361  0.1215 -0.1774
 9364SOL    HW239552   4.577   2.024  16.751 -0.8076  0.9319  1.3928
 9365SOL     OW39553   0.081   4.715   3.275  0.0724  0.4535  0.2948
 9365SOL    HW139554   0.154   0.041   3.240 -0.5374 -0.6745 -2.5653
 9365SOL    HW239555   0.018   4.723   3.204 -0.1663  0.2499  0.4825
 9366SOL     OW39556   4.346   0.493   1.923 -0.3566 -0.3865  0.0161
 9366SOL    HW139557   4.359   0.463   1.833  1.9497 -1.9447  0.8508
 9366SOL    HW239558   4.334   0.588   1.918 -0.3068 -0.4169 -0.7029
 9367SOL     OW39559   4.096   1.813   6.548  0.5396  0.3056 -0.3935
 9367SOL    HW139560   4.090   1.718   6.551  2.4463  0.2307  1.7413
 9367SOL    HW239561   4.095   1.835   6.455 -1.3173  2.1944  0.0628
 9368SOL     OW39562   3.317   4.718   5.346 -0.3115  0.2217 -0.1278
 9368SOL    HW139563   3.331   0.062   5.412  0.7792  1.3120 -1.4769
 9368SOL    HW239564   3.281   0.056   5.283  0.7020  1.0748  0.1232
 9369SOL     OW39565   4.091   4.008   6.236 -0.5322 -0.3055  0.0410
 9369SOL    HW139566   4.140   4.088   6.253 -0.4272 -0.8129  2.2166
 9369SOL    HW239567   4.125   3.951   6.306  1.5575  0.4401 -0.3973
 9370SOL     OW39568   4.012   3.861  12.856  0.3602 -0.0371 -0.4603
 9370SOL    HW139569   4.063   3.942  12.844  1.9886 -1.1323 -0.9664
 9370SOL    HW239570   4.085   3.800  12.847 -0.0161 -0.5221 -0.2035
 9371SOL     OW39571   2.162   3.749   1.019 -0.0796 -0.1491  0.0267
 9371SOL    HW139572   2.176   3.718   0.930 -0.1424 -0.6618  0.1971
 9371SOL    HW239573   2.251   3.745   1.056 -0.4950  0.1377  1.0639
 9372SOL     OW39574   0.029   2.092   9.239 -0.3067 -0.1230 -0.0120
 9372SOL    HW139575   4.669   2.058   9.209 -0.5540  0.9454 -0.5415
 9372SOL    HW239576   0.010   2.106   9.332 -0.1947 -1.4914  0.2115
 9373SOL     OW39577   0.463   3.990   3.171 -0.4502  0.6914  0.5634
 9373SOL    HW139578   0.524   4.007   3.242 -0.0325  1.5227  0.0073
 9373SOL    HW239579   0.523   3.965   3.100 -0.5746 -0.2130  0.7737
 9374SOL     OW39580   2.299   3.569   6.398 -0.4245  0.6306  0.3765
 9374SOL    HW139581   2.286   3.476   6.381 -1.9025  0.8857  0.1287
 9374SOL    HW239582   2.283   3.581   6.492 -2.4645  1.1054 -0.0306
 9375SOL     OW39583   1.990   4.267   9.946  0.1871 -0.6972 -0.5827
 9375SOL    HW139584   1.984   4.232  10.035 -0.4889  1.2123  0.1275
 9375SOL    HW239585   2.056   4.206   9.914  0.0886 -1.0410 -0.1428
 9376SOL     OW39586   2.477   3.333   8.893 -0.1231 -0.1194  0.3992
 9376SOL    HW139587   2.463   3.320   8.986 -2.0069 -1.9628 -0.1437
 9376SOL    HW239588   2.478   3.246   8.853 -0.9758 -0.8690  1.9980
 9377SOL     OW39589   3.845   2.760   2.548  0.2461 -0.4248  0.2927
 9377SOL    HW139590   3.897   2.841   2.540 -2.1928  1.0949 -0.3089
 9377SOL    HW239591   3.840   2.745   2.642  0.5590 -0.7922  0.2498
 9378SOL     OW39592   1.762   3.201  11.562  0.1217 -0.1846 -0.6046
 9378SOL    HW139593   1.848   3.243  11.553 -0.6696  1.4641 -0.5308
 9378SOL    HW239594   1.754   3.158  11.477 -2.2418  1.4039 -1.1876
 9379SOL     OW39595   4.329   1.065   8.223 -0.1123 -0.1557 -0.1848
 9379SOL    HW139596   4.389   0.997   8.194 -0.5519 -1.7105  2.5915
 9379SOL    HW239597   4.302   1.111   8.144 -3.3512 -2.6716 -0.5534
 9380SOL     OW39598   4.546   4.658  13.410  0.1574  0.4340  0.3412
 9380SOL    HW139599   4.503   4.718  13.349 -0.1065  0.1734  0.2722
 9380SOL    HW239600   4.586   4.603  13.342 -0.9295 -1.3975  1.2022
 9381SOL     OW39601   1.487   4.175   2.135  0.2108 -0.6303 -0.3199
 9381SOL    HW139602   1.447   4.202   2.218  1.1611  1.0193 -0.3965
 9381SOL    HW239603   1.411   4.131   2.097  0.4206 -2.1542  1.0389
 9382SOL     OW39604   4.204   3.001  16.259  0.2537  0.1306 -0.1758
 9382SOL    HW139605   4.297   2.992  16.240 -0.6420 -3.6976 -2.7276
 9382SOL    HW239606   4.191   3.094  16.238  0.8344  0.5673  1.4219
 9383SOL     OW39607   1.935   3.152   7.408 -0.1130  0.4259 -0.6225
 9383SOL    HW139608   1.921   3.245   7.392 -1.5005  0.2594 -0.4227
 9383SOL    HW239609   2.029   3.150   7.393  0.1149  0.7824  0.7541
 9384SOL     OW39610   0.849   0.280   5.393 -0.5086 -0.1127 -0.3615
 9384SOL    HW139611   0.809   0.364   5.371  2.0135  0.2933 -3.3724
 9384SOL    HW239612   0.936   0.275   5.354 -0.0583 -0.2912  0.6608
 9385SOL     OW39613   0.686   0.744  16.566  0.2256  0.2481 -0.5397
 9385SOL    HW139614   0.645   0.828  16.587 -1.4804 -0.5228 -0.8072
 9385SOL    HW239615   0.675   0.729  16.472  2.1149  0.3071 -0.7701
 9386SOL     OW39616   2.993   1.320   7.778 -0.2633  0.0800  0.0195
 9386SOL    HW139617   3.068   1.346   7.725  0.7641 -0.0016  1.4383
 9386SOL    HW239618   2.918   1.353   7.728  0.7986 -0.3297 -1.8530
 9387SOL     OW39619   4.663   0.351   8.774  0.0789 -0.0637 -0.1981
 9387SOL    HW139620   4.588   0.295   8.751 -1.9067  3.0581 -1.4155
 9387SOL    HW239621   4.639   0.373   8.864 -0.8990 -1.3125 -0.1476
 9388SOL     OW39622   3.650   1.359   1.958  0.1450 -0.1397 -0.2610
 9388SOL    HW139623   3.629   1.361   1.865  2.2510 -2.3352 -0.7912
 9388SOL    HW239624   3.738   1.397   1.951 -0.1626  0.3271 -1.4989
 9389SOL     OW39625   0.958   1.500  17.507  0.3213  0.1732 -0.1726
 9389SOL    HW139626   0.931   1.578  17.457  0.3098  1.5972  2.0544
 9389SOL    HW239627   0.903   1.510  17.584  1.0754  0.6829  0.3074
 9390SOL     OW39628   1.015   1.367   8.866 -0.2323  0.3642 -0.0101
 9390SOL    HW139629   1.066   1.438   8.827 -2.8418  2.5460  0.5526
 9390SOL    HW239630   1.085   1.312   8.902  0.9232 -0.5286 -3.6734
 9391SOL     OW39631   4.722   1.689  15.700  0.0532  0.7546  0.0868
 9391SOL    HW139632   4.696   1.656  15.786 -0.1826  0.0672 -0.2468
 9391SOL    HW239633   0.042   1.612  15.665 -2.5597 -1.2176  1.1069
 9392SOL     OW39634   2.818   0.482   9.108 -0.1634  0.0611 -0.2181
 9392SOL    HW139635   2.855   0.459   9.023 -0.7047 -1.3507 -0.0844
 9392SOL    HW239636   2.764   0.405   9.125 -2.1679  1.1853 -1.5489
 9393SOL     OW39637   1.014   3.994   7.482  0.1904 -0.1360 -0.2305
 9393SOL    HW139638   0.932   3.997   7.530  1.5743  1.3588  2.0691
 9393SOL    HW239639   1.032   4.086   7.459 -1.1061  0.0098 -0.6374
 9394SOL     OW39640   0.909   0.182   4.219  0.1112 -0.6288 -0.4160
 9394SOL    HW139641   0.889   0.273   4.240  0.1830 -0.7470  0.1684
 9394SOL    HW239642   0.823   0.139   4.214 -0.5621  0.6822 -0.0398
 9395SOL     OW39643   2.075   1.652   6.070  0.3834 -0.1959 -0.3731
 9395SOL    HW139644   2.169   1.661   6.057  0.9598 -1.7032  2.8076
 9395SOL    HW239645   2.038   1.728   6.025  1.4212  0.6424  0.2179
 9396SOL     OW39646   1.617   2.383   0.744 -0.3847 -0.0254  0.0316
 9396SOL    HW139647   1.633   2.317   0.811  1.1418 -0.1975 -0.4908
 9396SOL    HW239648   1.701   2.429   0.739 -1.5250  2.1246  1.0052
 9397SOL     OW39649   2.356   4.338   8.264  0.0033 -0.3482 -0.0668
 9397SOL    HW139650   2.294   4.409   8.281  1.4311  0.6701  0.7949
 9397SOL    HW239651   2.334   4.312   8.174 -1.0953  1.7348 -0.4023
 9398SOL     OW39652   4.157   2.612  14.460  0.2485  0.0026 -0.6447
 9398SOL    HW139653   4.107   2.675  14.513 -0.1204 -2.0791  1.5041
 9398SOL    HW239654   4.166   2.668  14.383 -1.3107 -0.1578 -0.9567
 9399SOL     OW39655   1.482   1.463  15.063 -0.6933  0.0095  0.0449
 9399SOL    HW139656   1.468   1.469  15.158 -1.3429  3.3149 -0.2861
 9399SOL    HW239657   1.569   1.422  15.059 -0.5577  0.0756  1.9893
 9400SOL     OW39658   3.348   2.039   1.528  0.1870  0.0128  0.1056
 9400SOL    HW139659   3.304   2.121   1.549 -0.5564 -1.0242  2.6182
 9400SOL    HW239660   3.382   2.067   1.443 -0.8656  1.6676  0.2250
 9401SOL     OW39661   2.379   3.905  17.478  0.3085 -0.6910 -0.1450
 9401SOL    HW139662   2.375   3.815  17.512 -1.6699 -0.5014  0.1003
 9401SOL    HW239663   2.431   3.900  17.398  0.8007  0.1626  0.1167
 9402SOL     OW39664   2.233   0.191   4.405  0.3905  0.1871 -0.4174
 9402SOL    HW139665   2.288   0.114   4.390  1.0155  0.5370  0.0666
 9402SOL    HW239666   2.229   0.231   4.319 -2.1579 -0.7556 -0.7365
 9403SOL     OW39667   4.233   0.060   3.819  0.2946 -0.3612 -0.2479
 9403SOL    HW139668   4.288   0.037   3.894 -2.2012  0.5893  1.8821
 9403SOL    HW239669   4.209   0.149   3.845  1.3879  0.6702 -2.8628
 9404SOL     OW39670   1.679   2.539  14.785 -0.3850  0.1493 -0.6147
 9404SOL    HW139671   1.761   2.491  14.794  0.0875  1.1226  0.2650
 9404SOL    HW239672   1.690   2.585  14.702  2.1817  0.2358 -0.2312
 9405SOL     OW39673   4.152   3.373   7.920 -0.0799  0.0416  0.8036
 9405SOL    HW139674   4.149   3.466   7.898 -0.2060  0.7304  3.6755
 9405SOL    HW239675   4.192   3.338   7.840 -1.3465 -0.3874  0.3655
 9406SOL     OW39676   0.115   3.049   4.683  0.0333 -0.1376  0.5259
 9406SOL    HW139677   0.070   3.106   4.745 -3.1717 -0.8712 -1.1437
 9406SOL    HW239678   0.085   2.963   4.710 -0.6165 -1.1621 -3.4446
 9407SOL     OW39679   0.952   2.278   9.360  0.4983  0.0389 -0.0608
 9407SOL    HW139680   0.999   2.359   9.383  0.9271  0.1150 -1.1987
 9407SOL    HW239681   0.994   2.247   9.280  0.4795  0.0140 -0.0608
 9408SOL     OW39682   4.429   4.404  11.949 -0.3858 -0.1254  0.5207
 9408SOL    HW139683   4.407   4.448  11.867  2.2365  0.7547  0.3000
 9408SOL    HW239684   4.469   4.474  12.000 -0.6506  0.5730 -0.2354
 9409SOL     OW39685   4.536   2.271   8.183  0.2140 -0.3183 -0.5717
 9409SOL    HW139686   4.551   2.191   8.232 -0.4133 -0.1242 -0.0672
 9409SOL    HW239687   4.491   2.328   8.246 -0.3202  1.0254 -2.1629
 9410SOL     OW39688   4.103   1.334  17.231  0.1982  0.1645  0.7146
 9410SOL    HW139689   4.130   1.252  17.272  0.9746 -0.1702 -0.4628
 9410SOL    HW239690   4.164   1.401  17.261 -0.5984  0.7462  1.0029
 9411SOL     OW39691   0.451   0.964   3.097  0.0468  0.4753  0.3403
 9411SOL    HW139692   0.449   0.998   3.186 -1.6994  1.2468  0.0057
 9411SOL    HW239693   0.533   0.916   3.090  0.4161  1.0097  1.0588
 9412SOL     OW39694   1.054   1.340   4.093 -0.2841  0.3047  0.0108
 9412SOL    HW139695   1.025   1.355   4.003 -0.9809 -0.3368  0.1325
 9412SOL    HW239696   1.103   1.257   4.095  0.1787  0.5619 -0.6271
 9413SOL     OW39697   4.591   3.838   2.484 -0.9475 -0.0282 -0.2262
 9413SOL    HW139698   4.663   3.871   2.429 -1.4458  0.9307 -0.3167
 9413SOL    HW239699   4.521   3.892   2.447  0.4975  2.2492  0.3278
 9414SOL     OW39700   0.683   3.919   1.166  0.0778 -0.3790 -0.1535
 9414SOL    HW139701   0.741   3.952   1.097  0.9856 -1.7513 -0.0366
 9414SOL    HW239702   0.600   3.911   1.120 -0.6524  0.3664  1.0278
 9415SOL     OW39703   2.984   3.966   4.040 -0.0972 -0.0717  0.4375
 9415SOL    HW139704   3.008   3.874   4.052  0.0427 -0.0689  0.1739
 9415SOL    HW239705   3.044   3.988   3.969 -1.1290  1.0650 -0.0775
 9416SOL     OW39706   2.687   3.763   3.027  0.0095  0.2997  0.5759
 9416SOL    HW139707   2.779   3.787   3.037  0.2683  0.1673 -1.7052
 9416SOL    HW239708   2.660   3.772   3.119 -0.1324 -0.8486  0.6435
 9417SOL     OW39709   3.917   2.934   6.409  0.1677  0.5487  0.3414
 9417SOL    HW139710   3.827   2.953   6.383 -0.1597  1.4441  2.0925
 9417SOL    HW239711   3.956   3.003   6.355  0.9333 -1.3371 -1.5179
 9418SOL     OW39712   1.897   0.967  15.061 -0.2036 -0.1748 -0.0546
 9418SOL    HW139713   1.838   0.910  15.011 -0.9216 -0.3636  0.9991
 9418SOL    HW239714   1.972   0.910  15.044  1.3521  2.1896 -1.1152
 9419SOL     OW39715   0.377   3.807   7.399 -0.8186  0.2648  0.2082
 9419SOL    HW139716   0.371   3.808   7.494 -2.0807 -0.4369  0.1382
 9419SOL    HW239717   0.416   3.720   7.388  2.3518  1.3655  2.6563
 9420SOL     OW39718   1.898   1.650   2.097  0.0464 -0.5177 -0.6795
 9420SOL    HW139719   1.974   1.706   2.087 -0.9690  0.8000 -0.9798
 9420SOL    HW239720   1.879   1.634   2.004  0.9645  0.3041 -1.0147
 9421SOL     OW39721   3.389   2.937   4.048  0.4358 -0.6108  0.1022
 9421SOL    HW139722   3.340   2.961   3.970  3.5040 -0.2378 -1.7088
 9421SOL    HW239723   3.474   2.977   4.030  0.8058 -1.6499 -0.4457
 9422SOL     OW39724   0.021   2.102   7.704  0.2293  0.1616 -0.0344
 9422SOL    HW139725   0.012   2.060   7.790 -1.9094  1.1066  0.1996
 9422SOL    HW239726   0.069   2.178   7.738 -1.2089  0.8534  0.4484
 9423SOL     OW39727   4.004   0.174   5.794 -0.1739  0.4558  0.2408
 9423SOL    HW139728   3.951   0.252   5.778 -3.1781 -1.2325  1.8937
 9423SOL    HW239729   3.934   0.109   5.805  0.2016  0.0606  0.2920
 9424SOL     OW39730   3.254   3.899  15.602 -0.5114 -0.1550  0.5697
 9424SOL    HW139731   3.271   3.937  15.516  0.0756 -1.3651  0.1615
 9424SOL    HW239732   3.230   3.816  15.562  1.9273 -0.3437 -0.4774
 9425SOL     OW39733   2.152   2.602  10.915  0.0650 -0.4393 -0.0475
 9425SOL    HW139734   2.140   2.517  10.872  2.2530  0.6621 -2.8153
 9425SOL    HW239735   2.240   2.618  10.881 -0.3497 -0.6386 -1.2180
 9426SOL     OW39736   1.282   3.702  16.677 -0.2371 -0.3240  0.5499
 9426SOL    HW139737   1.348   3.755  16.723  1.0736  0.8253 -2.6860
 9426SOL    HW239738   1.207   3.728  16.730 -0.0234 -1.0240  1.2033
 9427SOL     OW39739   3.792   4.695   1.819 -0.5344 -0.4250  0.1307
 9427SOL    HW139740   3.834   4.645   1.749 -1.9994 -1.1157 -0.2373
 9427SOL    HW239741   3.703   4.688   1.785 -0.0485  1.5803 -1.5443
 9428SOL     OW39742   4.479   0.121  13.876 -0.1843 -0.4507 -0.0226
 9428SOL    HW139743   4.434   0.086  13.799  0.2030 -1.4104  0.1902
 9428SOL    HW239744   4.547   0.055  13.886  0.7672  0.4032 -0.9279
 9429SOL     OW39745   4.493   1.309   6.780  0.5883 -0.3489  0.5603
 9429SOL    HW139746   4.498   1.394   6.736 -1.3051  0.2580  1.5397
 9429SOL    HW239747   4.434   1.321   6.854 -1.3126  0.1857 -1.0559
 9430SOL     OW39748   3.674   0.488  12.163 -0.0116 -0.6782  0.1138
 9430SOL    HW139749   3.765   0.516  12.172  0.2763 -1.9554  1.0924
 9430SOL    HW239750   3.643   0.453  12.246 -2.2147  2.5089  0.6339
 9431SOL     OW39751   1.860   1.521  17.230 -0.2657  0.5161 -0.7742
 9431SOL    HW139752   1.778   1.563  17.206  0.1213  0.9366 -1.3787
 9431SOL    HW239753   1.834   1.435  17.199  0.5450 -0.1007  0.2846
 9432SOL     OW39754   1.901   1.935   6.301  0.2399 -0.2608  0.3776
 9432SOL    HW139755   1.821   1.938   6.354  0.0838 -2.5628  0.2348
 9432SOL    HW239756   1.954   2.013   6.319  0.7259 -0.3259 -0.7703
 9433SOL     OW39757   3.115   1.112   3.048  0.1781 -0.0306  0.3884
 9433SOL    HW139758   3.169   1.067   3.113 -0.7566 -3.4980 -1.2634
 9433SOL    HW239759   3.164   1.097   2.967  0.8919  1.8721  0.4584
 9434SOL     OW39760   2.329   1.761   7.424 -1.0074  0.7308  0.4535
 9434SOL    HW139761   2.243   1.803   7.424 -1.6192 -0.5279  0.3523
 9434SOL    HW239762   2.366   1.790   7.508  1.4441  0.1096 -0.3911
 9435SOL     OW39763   1.673   1.050   6.998 -0.0332  0.0074 -0.1353
 9435SOL    HW139764   1.769   1.047   6.998 -0.0993 -2.4581 -0.4575
 9435SOL    HW239765   1.650   1.054   7.091 -1.6044  0.9084 -0.5778
 9436SOL     OW39766   3.598   3.166   5.614  0.4500 -0.4072 -0.0080
 9436SOL    HW139767   3.524   3.220   5.587 -0.3562 -0.5822  1.8249
 9436SOL    HW239768   3.659   3.232   5.648 -1.0296  0.5346  0.7987
 9437SOL     OW39769   3.491   4.316   0.908  0.7126  0.2376 -0.1311
 9437SOL    HW139770   3.579   4.281   0.894  1.1774  1.4644 -0.3276
 9437SOL    HW239771   3.512   4.409   0.921 -0.8410  0.5865 -0.0954
 9438SOL     OW39772   2.752   2.783   6.359 -0.0899  0.0649  0.6061
 9438SOL    HW139773   2.710   2.858   6.318 -0.4850 -0.0549  0.7942
 9438SOL    HW239774   2.756   2.712   6.294 -1.6507  0.1060  0.4737
 9439SOL     OW39775   2.378   2.480  12.389  0.5244 -0.1331 -0.5894
 9439SOL    HW139776   2.379   2.527  12.473  0.0077  1.1203 -1.2990
 9439SOL    HW239777   2.324   2.402  12.402  0.3899  0.3091  1.5952
 9440SOL     OW39778   1.446   0.587   8.455 -0.2569 -0.2366  0.4838
 9440SOL    HW139779   1.463   0.574   8.548  1.6154 -0.5580  0.0949
 9440SOL    HW239780   1.426   0.680   8.444 -3.2211 -1.0911 -1.6142
 9441SOL     OW39781   2.005   3.988   5.076 -0.0862  0.0923 -0.4149
 9441SOL    HW139782   1.982   4.013   4.986 -1.1976 -3.3484 -1.0748
 9441SOL    HW239783   1.915   3.976   5.108  0.1181  0.3062  0.2465
 9442SOL     OW39784   3.211   0.233  10.046  0.4324 -0.2768  0.4804
 9442SOL    HW139785   3.190   0.142  10.068  0.5236 -0.2323  0.7655
 9442SOL    HW239786   3.186   0.232   9.954 -3.1113 -1.0777  1.4608
 9443SOL     OW39787   4.391   0.135   3.305  0.3494  0.1740 -0.7303
 9443SOL    HW139788   4.383   0.227   3.331  3.9643  0.0419  0.8822
 9443SOL    HW239789   4.330   0.089   3.363 -0.6813  2.7122  0.1999
 9444SOL     OW39790   3.883   3.044   5.531 -0.1501  0.1027  0.3274
 9444SOL    HW139791   3.881   2.966   5.587  1.9767 -0.1470  0.0577
 9444SOL    HW239792   3.883   3.109   5.600 -2.3191  0.8405 -0.3660
 9445SOL     OW39793   3.513   3.548   6.356 -0.8753 -0.1538  0.7697
 9445SOL    HW139794   3.586   3.493   6.386 -0.5296 -0.0232  0.1692
 9445SOL    HW239795   3.455   3.477   6.328 -0.3410 -0.5624  0.7012
 9446SOL     OW39796   1.633   4.057   7.160 -0.4080  0.3070 -0.6861
 9446SOL    HW139797   1.627   3.986   7.096 -0.5674 -0.9660  0.7401
 9446SOL    HW239798   1.722   4.058   7.194 -0.5275  2.3119 -0.4299
 9447SOL     OW39799   1.350   3.604  17.502 -0.6777  0.3815 -0.0614
 9447SOL    HW139800   1.367   3.695  17.529 -1.2266 -0.4613  3.1678
 9447SOL    HW239801   1.272   3.582  17.552 -0.7014  0.1825 -0.1884
 9448SOL     OW39802   1.692   4.055  11.350 -0.7780  0.3455 -0.1101
 9448SOL    HW139803   1.656   3.991  11.289 -1.4144 -0.6753  1.3265
 9448SOL    HW239804   1.783   4.028  11.361 -1.7043 -2.2961  1.0992
 9449SOL     OW39805   2.662   1.454   7.595 -0.7173 -0.2596 -0.4768
 9449SOL    HW139806   2.704   1.507   7.526  0.2554 -1.7826 -1.0723
 9449SOL    HW239807   2.574   1.449   7.558 -0.8001  0.6536 -0.4017
 9450SOL     OW39808   2.555   2.895   2.760  0.5530  0.3516 -0.3887
 9450SOL    HW139809   2.626   2.887   2.697  1.4795  0.2429  0.6777
 9450SOL    HW239810   2.561   2.981   2.800  0.1630  0.9213 -1.5764
 9451SOL     OW39811   0.984   3.455   4.638  0.0523 -0.2351  0.4204
 9451SOL    HW139812   0.924   3.503   4.694  1.3286  1.3417  0.4146
 9451SOL    HW239813   1.019   3.526   4.584  0.7432 -1.5120 -0.8218
 9452SOL     OW39814   0.728   0.864  10.281  0.0947  0.2325  0.9175
 9452SOL    HW139815   0.771   0.949  10.286  0.1585  0.1138  2.5118
 9452SOL    HW239816   0.802   0.806  10.301 -1.0564 -0.8625  2.0946
 9453SOL     OW39817   1.055   3.227  17.357  0.5572  0.3957  0.1399
 9453SOL    HW139818   1.097   3.162  17.413 -0.2597  1.6953  2.2186
 9453SOL    HW239819   1.128   3.286  17.341  1.9640 -1.7479 -1.4073
 9454SOL     OW39820   3.632   1.261  10.216 -0.2131  0.4314 -0.2508
 9454SOL    HW139821   3.595   1.344  10.246 -2.1077 -0.2970 -0.5854
 9454SOL    HW239822   3.698   1.256  10.285 -1.8781 -0.3287  1.2827
 9455SOL     OW39823   3.199   3.207   9.221 -0.0123  0.0276  0.1760
 9455SOL    HW139824   3.285   3.178   9.252 -0.2549 -1.5662 -0.6346
 9455SOL    HW239825   3.169   3.242   9.305  1.6498 -0.6089  1.0272
 9456SOL     OW39826   3.333   1.295  12.910 -0.0623  0.2319 -0.1862
 9456SOL    HW139827   3.339   1.391  12.910 -2.0991  0.3797  1.5892
 9456SOL    HW239828   3.292   1.276  12.995 -0.2134  0.4850 -0.2027
 9457SOL     OW39829   3.984   3.045   2.095  0.3075  0.3277 -0.4088
 9457SOL    HW139830   3.950   2.971   2.146 -1.8998  1.3806 -0.3833
 9457SOL    HW239831   3.904   3.096   2.080  0.1441  0.8817  2.2789
 9458SOL     OW39832   1.605   1.600   4.948  0.6483  0.0278  0.5151
 9458SOL    HW139833   1.548   1.658   4.999  1.3376  1.6353 -0.5557
 9458SOL    HW239834   1.574   1.618   4.859 -1.9327 -1.9904  1.0187
 9459SOL     OW39835   4.698   2.508   2.910 -0.1807 -0.2813  0.3541
 9459SOL    HW139836   4.718   2.563   2.834  0.5025 -2.2027 -0.8374
 9459SOL    HW239837   4.603   2.513   2.924 -0.1659  0.2725  0.2792
 9460SOL     OW39838   2.728   4.612  16.896 -0.8320 -0.8221 -0.1621
 9460SOL    HW139839   2.668   4.591  16.824 -1.6174 -1.7649  0.7606
 9460SOL    HW239840   2.686   4.564  16.967  0.4857 -2.0799 -0.2323
 9461SOL     OW39841   3.194   4.051   3.880  0.8299  0.2734 -0.4571
 9461SOL    HW139842   3.214   4.128   3.826  2.7899 -0.4018 -0.6872
 9461SOL    HW239843   3.236   3.983   3.828  0.0313 -0.8270  0.3502
 9462SOL     OW39844   2.939   1.205   6.638 -0.1791  0.2294  0.1565
 9462SOL    HW139845   2.845   1.188   6.644  0.1475 -0.6808  2.9830
 9462SOL    HW239846   2.947   1.287   6.687 -2.2038 -0.7191  2.0804
 9463SOL     OW39847   2.203   0.687   3.333 -0.0702  0.0922  0.0363
 9463SOL    HW139848   2.265   0.751   3.367 -1.2969  0.7525  1.0177
 9463SOL    HW239849   2.259   0.610   3.321 -3.0458 -2.3180  1.5815
 9464SOL     OW39850   2.862   2.304   4.179  0.0517 -1.0835 -0.2411
 9464SOL    HW139851   2.801   2.331   4.111  0.1136  1.3865  0.7106
 9464SOL    HW239852   2.918   2.244   4.130  1.7602  0.6165 -0.3711
 9465SOL     OW39853   1.087   0.874   7.920 -0.3034 -0.1169 -0.6877
 9465SOL    HW139854   1.038   0.922   7.987 -0.4009 -1.4047  0.1464
 9465SOL    HW239855   1.166   0.857   7.970 -0.4295  3.1488  0.6695
 9466SOL     OW39856   2.603   4.365   8.358 -0.5816 -0.1104  0.2953
 9466SOL    HW139857   2.519   4.358   8.312  0.7536 -0.6803 -2.0658
 9466SOL    HW239858   2.585   4.452   8.393 -1.8408 -0.5587  0.7751
 9467SOL     OW39859   1.094   4.131   5.726 -0.2183  0.5504  0.5343
 9467SOL    HW139860   1.061   4.090   5.806 -0.9148  0.5086  0.2194
 9467SOL    HW239861   1.017   4.178   5.697 -0.2746 -0.4143 -0.9026
 9468SOL     OW39862   0.385   1.705  11.568  0.6698  0.1836  0.4472
 9468SOL    HW139863   0.326   1.781  11.566 -2.7181 -2.3919  1.8000
 9468SOL    HW239864   0.471   1.746  11.569  0.0026  1.5974  0.5228
 9469SOL     OW39865   4.028   3.333   5.339  0.4688  0.7624 -0.1077
 9469SOL    HW139866   4.073   3.271   5.396  0.3434  0.9952  0.2483
 9469SOL    HW239867   4.087   3.406   5.359  1.4755 -0.5115  1.6104
 9470SOL     OW39868   3.290   1.135  14.466 -0.0390 -0.0660 -0.2199
 9470SOL    HW139869   3.279   1.043  14.443  1.7349 -0.6875  1.4306
 9470SOL    HW239870   3.225   1.141  14.536 -0.5962  1.4259 -0.8859
 9471SOL     OW39871   0.135   1.005  11.552  0.0078 -0.2586  0.1337
 9471SOL    HW139872   0.170   0.998  11.463  0.2431  0.4273  0.1751
 9471SOL    HW239873   0.067   1.072  11.546  0.3696  0.0235 -0.7852
 9472SOL     OW39874   1.272   3.372   8.751 -0.9410 -0.3884 -0.5262
 9472SOL    HW139875   1.333   3.317   8.799 -0.6535 -0.6286 -1.1713
 9472SOL    HW239876   1.309   3.376   8.663 -3.0675  0.1831 -1.4030
 9473SOL     OW39877   2.840   3.607  10.650  0.2432 -0.1663 -0.5688
 9473SOL    HW139878   2.837   3.679  10.713 -0.9414  0.5459 -1.4498
 9473SOL    HW239879   2.909   3.632  10.589 -0.4657  0.8348 -0.9597
 9474SOL     OW39880   4.147   4.230   3.212  0.3924  0.5762 -0.2441
 9474SOL    HW139881   4.052   4.234   3.201  0.5754  1.1026 -1.6675
 9474SOL    HW239882   4.180   4.252   3.125  2.9448  0.6079  0.7257
 9475SOL     OW39883   0.325   3.206   3.724  0.3937 -0.4203 -0.2174
 9475SOL    HW139884   0.244   3.155   3.716  0.3620 -0.3113 -0.5733
 9475SOL    HW239885   0.298   3.275   3.663  1.1716 -0.0939 -0.1932
 9476SOL     OW39886   1.185   3.040   4.561  0.3432 -1.0951  0.1188
 9476SOL    HW139887   1.212   2.952   4.586  0.7780 -1.1424 -0.5253
 9476SOL    HW239888   1.194   3.041   4.466  0.0523  2.2520  0.1202
 9477SOL     OW39889   1.004   0.118   1.866  0.2444  0.4663 -0.3309
 9477SOL    HW139890   0.940   0.097   1.798  1.1847 -0.2030 -1.0174
 9477SOL    HW239891   1.092   0.105   1.829  0.6219 -0.0331  0.7523
 9478SOL     OW39892   3.174   1.422   7.177 -0.0224  0.1600 -0.0289
 9478SOL    HW139893   3.210   1.351   7.124 -3.9302 -1.3136 -0.6848
 9478SOL    HW239894   3.228   1.495   7.147  0.5613  0.1362  0.9737
 9479SOL     OW39895   4.333   0.050   6.010 -0.1745  0.3209  0.4303
 9479SOL    HW139896   4.329   4.714   5.935  4.6715  1.5877 -0.8340
 9479SOL    HW239897   4.362   4.713   6.077 -1.0701  0.3475  0.8529
 9480SOL     OW39898   2.315   0.045  10.677 -0.0122  0.1698 -0.2354
 9480SOL    HW139899   2.282   0.051  10.588  0.0539  1.1984 -0.1913
 9480SOL    HW239900   2.410   0.034  10.666  0.0301 -1.3720  1.6106
 9481SOL     OW39901   4.103   2.911  14.390  0.2401 -0.1249 -0.2700
 9481SOL    HW139902   4.093   2.893  14.297 -0.1056  0.3126 -0.3141
 9481SOL    HW239903   4.193   2.943  14.400  0.4909 -1.3627  1.4543
 9482SOL     OW39904   1.659   0.556   5.530  0.2940 -0.5539 -0.5699
 9482SOL    HW139905   1.671   0.484   5.467  0.2557 -1.2278  0.1951
 9482SOL    HW239906   1.664   0.628   5.467 -1.1159 -1.7480 -2.0520
 9483SOL     OW39907   4.176   1.059   7.640  0.3936  0.5271  0.1571
 9483SOL    HW139908   4.104   1.122   7.638 -1.0979 -1.1931 -1.3623
 9483SOL    HW239909   4.148   0.999   7.710 -0.3498  0.9762  0.2442
 9484SOL     OW39910   3.498   3.821   9.050  0.1639 -0.3242 -0.3193
 9484SOL    HW139911   3.551   3.900   9.055 -1.4706  0.6872  0.9848
 9484SOL    HW239912   3.554   3.761   9.001 -0.8381 -2.7151  1.4734
 9485SOL     OW39913   1.934   4.216  12.563 -0.1168  0.6005 -0.6998
 9485SOL    HW139914   1.944   4.162  12.641  1.3590  0.7416 -0.8022
 9485SOL    HW239915   1.998   4.286  12.574 -0.6688  1.2250 -1.3902
 9486SOL     OW39916   2.162   0.940  16.342 -0.3800  0.4291  0.2710
 9486SOL    HW139917   2.226   0.870  16.349 -0.8484 -0.1704 -1.3532
 9486SOL    HW239918   2.119   0.909  16.262 -0.5225 -0.7487  0.8048
 9487SOL     OW39919   1.938   1.684   9.144  0.1309  0.4392 -0.3131
 9487SOL    HW139920   1.873   1.658   9.209  1.1297 -2.4491 -0.4405
 9487SOL    HW239921   1.890   1.744   9.088 -0.5496  0.4024  0.2298
 9488SOL     OW39922   2.952   3.707   1.146 -0.0675 -0.4485 -0.1209
 9488SOL    HW139923   2.978   3.797   1.129  1.1189 -0.2676  2.6550
 9488SOL    HW239924   3.038   3.664   1.143  0.5544  0.7782 -0.0587
 9489SOL     OW39925   4.552   1.674   4.879 -0.0612  0.1284  0.1088
 9489SOL    HW139926   4.518   1.595   4.836  3.1896 -1.1720 -0.0266
 9489SOL    HW239927   4.566   1.638   4.967  1.5702 -0.8181 -0.5512
 9490SOL     OW39928   2.802   3.103   2.209 -0.0952 -0.2331 -0.6829
 9490SOL    HW139929   2.707   3.113   2.219  0.2240  0.7776  1.4397
 9490SOL    HW239930   2.809   3.166   2.138  0.1968  1.4448  0.8291
 9491SOL     OW39931   3.928   1.796   8.455 -0.1658  0.5421 -0.5479
 9491SOL    HW139932   3.850   1.797   8.399 -0.8867 -1.0900  0.4391
 9491SOL    HW239933   3.996   1.766   8.395  1.4028 -0.1785  1.6068
 9492SOL     OW39934   4.339   3.399   9.355 -0.5935 -0.3472 -0.0380
 9492SOL    HW139935   4.432   3.385   9.339 -0.8520 -0.9438 -1.0273
 9492SOL    HW239936   4.340   3.425   9.447 -2.1837  2.7751 -0.8787
 9493SOL     OW39937   0.999   3.547  15.676  0.6424  0.1100  0.1940
 9493SOL    HW139938   0.906   3.555  15.696  0.9101 -1.7055  2.0739
 9493SOL    HW239939   1.030   3.610  15.741 -0.1240 -0.2297  0.8813
 9494SOL     OW39940   1.685   3.244   7.210  0.0394 -0.0513  0.2014
 9494SOL    HW139941   1.662   3.213   7.297 -1.9605  1.7590  0.3150
 9494SOL    HW239942   1.599   3.249   7.168  0.7107  0.3231 -1.1321
 9495SOL     OW39943   0.716   0.648   4.677 -0.2233  0.5549  0.3884
 9495SOL    HW139944   0.739   0.673   4.767 -0.3414  1.4664  0.1701
 9495SOL    HW239945   0.631   0.606   4.687 -0.0048 -0.2765 -1.3419
 9496SOL     OW39946   0.242   3.699   2.522  0.5800  0.0512 -0.3475
 9496SOL    HW139947   0.273   3.745   2.444  0.9053  2.2128  1.0586
 9496SOL    HW239948   0.186   3.764   2.564 -1.6568 -0.8047 -1.9841
 9497SOL     OW39949   1.161   4.396   2.028 -0.0189 -0.1946  0.1174
 9497SOL    HW139950   1.178   4.302   2.037 -1.4425 -0.7206 -2.6405
 9497SOL    HW239951   1.115   4.407   2.112 -0.6077 -0.6584 -0.1393
 9498SOL     OW39952   3.735   2.377  16.002  0.1836  0.1000  0.4407
 9498SOL    HW139953   3.684   2.392  16.082 -0.0667 -2.1120  0.6776
 9498SOL    HW239954   3.690   2.439  15.944 -0.2639 -1.3802 -0.7773
 9499SOL     OW39955   2.551   2.424  15.646 -0.3007  0.1058  0.6280
 9499SOL    HW139956   2.537   2.501  15.701  2.4247  0.6264  0.6131
 9499SOL    HW239957   2.614   2.371  15.695  1.1090 -1.1953 -2.6277
 9500SOL     OW39958   3.093   3.222   2.308 -0.0759 -0.1884 -0.0847
 9500SOL    HW139959   3.019   3.282   2.312  0.3967  0.2073  2.9761
 9500SOL    HW239960   3.104   3.208   2.402 -0.4278 -1.5560 -0.2628
 9501SOL     OW39961   0.085   3.226  12.537  0.4375 -0.4330  0.7185
 9501SOL    HW139962   0.077   3.188  12.624  0.3782 -1.5620  0.2245
 9501SOL    HW239963   4.718   3.237  12.509  0.2302  0.1946  1.6405
 9502SOL     OW39964   4.520   0.305   8.421  0.7680  0.1652 -0.1061
 9502SOL    HW139965   4.575   0.240   8.463  0.1631 -0.9773 -1.0718
 9502SOL    HW239966   4.584   0.376   8.426  1.0495 -0.1670  0.9145
 9503SOL     OW39967   3.045   0.051  13.843 -0.1864  0.5702 -0.3716
 9503SOL    HW139968   3.053   0.079  13.752  0.4078  1.7906  0.0551
 9503SOL    HW239969   3.029   0.140  13.876  0.0896  1.2676 -2.1330
 9504SOL     OW39970   2.638   1.307   8.148 -0.4411 -0.0915  0.0684
 9504SOL    HW139971   2.695   1.322   8.073 -0.3142  2.0518  0.5832
 9504SOL    HW239972   2.644   1.396   8.184  0.6172 -0.1740  0.0924
 9505SOL     OW39973   0.537   0.546   8.331  0.1816  0.8863  0.2766
 9505SOL    HW139974   0.442   0.530   8.335  0.2228  0.9473  1.6758
 9505SOL    HW239975   0.567   0.463   8.293 -2.6245 -0.3403  0.7343
 9506SOL     OW39976   3.085   3.966   1.118 -0.3016 -0.0267  0.0661
 9506SOL    HW139977   3.105   4.059   1.124 -0.5636  0.0306  0.0633
 9506SOL    HW239978   3.134   3.939   1.040  0.6894 -0.1206  0.7213
 9507SOL     OW39979   2.639   0.541  15.911 -0.1455  0.0713  0.4741
 9507SOL    HW139980   2.556   0.586  15.897 -0.3663 -0.0213  1.4761
 9507SOL    HW239981   2.693   0.618  15.927  0.1239  0.1281 -0.7447
 9508SOL     OW39982   4.422   1.152   4.555 -0.0510  0.6612  0.4254
 9508SOL    HW139983   4.355   1.115   4.498  0.7105 -0.2361  0.1228
 9508SOL    HW239984   4.455   1.228   4.507 -0.2228  0.4582 -0.0122
 9509SOL     OW39985   2.718   1.380  10.531  0.2628 -0.4484 -0.2311
 9509SOL    HW139986   2.684   1.469  10.528 -1.5735 -1.0953  1.6416
 9509SOL    HW239987   2.633   1.345  10.507 -0.1380  1.1308 -1.1120
 9510SOL     OW39988   0.701   3.288   6.728  0.2571 -0.1316 -0.2774
 9510SOL    HW139989   0.630   3.280   6.792  0.0058 -1.4724 -0.7168
 9510SOL    HW239990   0.733   3.376   6.745 -0.5228 -0.1830  1.4508
 9511SOL     OW39991   4.116   2.958   3.545  0.2275  0.0457 -0.2619
 9511SOL    HW139992   4.200   2.959   3.592 -0.0487  1.5222  0.1989
 9511SOL    HW239993   4.113   2.862   3.554 -0.3771  0.0889 -0.0125
 9512SOL     OW39994   0.559   0.566   7.169 -0.1327 -0.1254 -0.5803
 9512SOL    HW139995   0.551   0.533   7.259 -0.6647  2.2065  0.2072
 9512SOL    HW239996   0.604   0.649   7.180 -2.1068  0.7479  0.8737
 9513SOL     OW39997   2.967   2.899   2.189 -0.1419 -0.4516  0.5358
 9513SOL    HW139998   2.913   2.973   2.163  0.4522 -0.4608 -0.7262
 9513SOL    HW239999   3.015   2.934   2.264  0.7121  2.8798 -1.5626
 9514SOL     OW40000   2.840   2.291  17.058  0.2273  0.2890  0.3532
 9514SOL    HW140001   2.871   2.201  17.071 -0.9487 -0.2302 -0.4531
 9514SOL    HW240002   2.920   2.336  17.034 -0.8434  0.8917 -2.0210
 9515SOL     OW40003   3.386   2.865   7.994  0.2326 -0.4682 -0.3118
 9515SOL    HW140004   3.363   2.872   8.087  2.8744 -1.6759  0.4381
 9515SOL    HW240005   3.331   2.792   7.967 -1.3731  0.4485  0.4029
 9516SOL     OW40006   1.926   0.264  10.910 -0.0534 -0.3250  0.4361
 9516SOL    HW140007   2.016   0.244  10.884  0.3087 -1.0993  2.3130
 9516SOL    HW240008   1.944   0.286  11.001 -0.4593 -1.7980  0.8624
 9517SOL     OW40009   1.934   2.028   2.765 -0.0684 -0.2958 -0.3721
 9517SOL    HW140010   1.958   1.960   2.703  0.4249  0.1600 -0.6788
 9517SOL    HW240011   1.848   2.052   2.728  0.2994  0.6139 -0.6468
 9518SOL     OW40012   3.006   0.928   2.417  0.4600 -0.3002  0.2458
 9518SOL    HW140013   2.940   0.885   2.363  0.7325  0.8958 -1.0519
 9518SOL    HW240014   3.018   1.006   2.363  1.4541  0.8881  2.1857
 9519SOL     OW40015   0.362   4.528   2.598  0.5434  0.1964  0.4804
 9519SOL    HW140016   0.415   4.451   2.618  0.1676  0.4021  2.2994
 9519SOL    HW240017   0.384   4.586   2.671 -1.0547  0.4320  0.7584
 9520SOL     OW40018   2.793   2.408   6.880  1.0559 -0.0492  0.6596
 9520SOL    HW140019   2.749   2.348   6.940  1.7516 -1.2634 -0.0351
 9520SOL    HW240020   2.735   2.398   6.805 -0.3860  2.3051  1.4620
 9521SOL     OW40021   4.648   0.191   2.180 -0.3298  0.3165  0.6798
 9521SOL    HW140022   4.704   0.201   2.257  1.6819 -1.5250 -0.5348
 9521SOL    HW240023   4.706   0.190   2.104  1.6136  1.0495  2.1557
 9522SOL     OW40024   0.133   1.848   3.277 -0.1163 -0.2060 -0.1048
 9522SOL    HW140025   0.223   1.859   3.310 -0.6024  1.7437  0.5756
 9522SOL    HW240026   0.150   1.860   3.183 -0.6586 -3.5400 -0.6294
 9523SOL     OW40027   1.340   0.600   5.680 -0.7155 -0.2954  0.1224
 9523SOL    HW140028   1.287   0.620   5.603  0.1230 -2.2699 -0.9617
 9523SOL    HW240029   1.326   0.505   5.684  0.3956 -0.4523  0.5362
 9524SOL     OW40030   4.587   3.630   4.982  0.7116  0.2940 -0.1985
 9524SOL    HW140031   4.510   3.574   4.997  0.5498 -0.2175 -2.9205
 9524SOL    HW240032   4.658   3.576   5.018  0.2593 -2.1041 -2.8774
 9525SOL     OW40033   4.537   3.227   3.505  0.5919 -0.0360 -0.4817
 9525SOL    HW140034   4.495   3.162   3.449  0.8047 -0.4923 -0.1114
 9525SOL    HW240035   4.565   3.290   3.439 -1.0089 -1.0664 -2.1666
 9526SOL     OW40036   4.264   3.945   5.947  0.3454  0.1003  0.2659
 9526SOL    HW140037   4.228   3.956   6.035 -0.5578  1.6358 -0.2994
 9526SOL    HW240038   4.222   3.868   5.909  0.7277  0.6378 -1.2490
 9527SOL     OW40039   2.605   2.857  16.611 -0.4375 -0.4378 -0.3522
 9527SOL    HW140040   2.516   2.890  16.599 -0.6970 -1.2685 -0.7354
 9527SOL    HW240041   2.597   2.814  16.697  0.1881 -0.6760 -0.4126
 9528SOL     OW40042   3.247   3.812  13.473 -0.2035 -0.1550  0.4720
 9528SOL    HW140043   3.318   3.779  13.419  0.2731 -0.8120  1.4934
 9528SOL    HW240044   3.261   3.907  13.468 -0.0743 -0.2043 -0.0426
 9529SOL     OW40045   0.213   3.623  17.214 -0.4778 -0.0173 -0.0055
 9529SOL    HW140046   0.270   3.571  17.271 -0.6862  0.0328  0.2489
 9529SOL    HW240047   0.128   3.615  17.258  0.8510  1.0956  2.7833
 9530SOL     OW40048   1.183   2.762  16.108 -0.1756  0.0566  0.3459
 9530SOL    HW140049   1.137   2.837  16.070  1.2105 -0.4319 -2.3024
 9530SOL    HW240050   1.203   2.798  16.194 -0.0647  2.5484 -0.7253
 9531SOL     OW40051   3.737   2.193  10.457 -0.1239 -0.2700  0.0233
 9531SOL    HW140052   3.648   2.221  10.480  0.0826  0.2685  0.1685
 9531SOL    HW240053   3.729   2.172  10.364 -2.1599 -0.4253  0.2227
 9532SOL     OW40054   0.813   3.556  10.081 -0.5405 -0.0095 -0.0668
 9532SOL    HW140055   0.785   3.603  10.002 -2.0026  0.4702  0.7529
 9532SOL    HW240056   0.763   3.609  10.142 -0.1165  2.3294 -1.7154
 9533SOL     OW40057   4.452   2.747  12.637  0.0818  0.0692  0.5813
 9533SOL    HW140058   4.544   2.735  12.658  0.3200  1.8069  0.5075
 9533SOL    HW240059   4.462   2.798  12.557 -0.5970  1.2539  1.2299
 9534SOL     OW40060   4.049   2.986   5.058  0.2280  0.6787  0.1526
 9534SOL    HW140061   4.144   2.996   5.055  0.0774  1.2376 -2.3581
 9534SOL    HW240062   4.023   2.942   5.140 -1.0514 -0.1858 -0.7194
 9535SOL     OW40063   2.399   0.697   4.218  0.5732  0.1533  0.2823
 9535SOL    HW140064   2.362   0.712   4.305 -0.8813  0.0210 -0.3156
 9535SOL    HW240065   2.361   0.611   4.202  0.4708 -0.2877  2.8525
 9536SOL     OW40066   4.379   0.458   6.735 -0.2767 -0.0372 -0.6654
 9536SOL    HW140067   4.355   0.500   6.818  2.5745  0.4152 -0.0857
 9536SOL    HW240068   4.343   0.370   6.746  0.8724 -0.6568 -1.8787
 9537SOL     OW40069   4.040   0.460   0.237  0.2931  0.3543  0.2489
 9537SOL    HW140070   4.089   0.377   0.239  1.5575  1.0545 -1.3244
 9537SOL    HW240071   4.037   0.478   0.143 -0.5256 -0.8123  0.0560
 9538SOL     OW40072   1.169   1.213   4.635 -0.1369  0.0839 -0.6435
 9538SOL    HW140073   1.189   1.145   4.571  1.2662  0.1934 -0.3168
 9538SOL    HW240074   1.073   1.213   4.633 -0.1553 -0.2736  0.2344
 9539SOL     OW40075   3.447   4.057   8.692  0.1074  0.3815  0.1784
 9539SOL    HW140076   3.491   4.076   8.609  1.5672 -2.4963  0.2797
 9539SOL    HW240077   3.372   4.115   8.684  1.5495  2.7052  3.3016
 9540SOL     OW40078   1.198   0.276   6.774 -0.3081  0.5312  1.1998
 9540SOL    HW140079   1.157   0.230   6.701 -0.2323  1.6643  0.4473
 9540SOL    HW240080   1.197   0.212   6.846 -1.2550  1.2792  1.8408
 9541SOL     OW40081   3.517   0.333   8.156  0.0900  0.3336  0.3776
 9541SOL    HW140082   3.460   0.386   8.100 -2.0937 -0.9001  1.4569
 9541SOL    HW240083   3.559   0.278   8.089 -0.8094  1.1662 -0.8862
 9542SOL     OW40084   1.208   2.471   5.103  0.2262 -0.8210  0.4553
 9542SOL    HW140085   1.122   2.437   5.077  0.2564 -0.7439  0.2591
 9542SOL    HW240086   1.251   2.453   5.020  1.5386  0.5859  0.8229
 9543SOL     OW40087   2.968   0.445   4.000  0.7551 -0.6292  0.0353
 9543SOL    HW140088   2.876   0.419   3.992  0.1946  1.2322  0.4845
 9543SOL    HW240089   2.978   0.434   4.095 -0.3009 -1.3109  0.0767
 9544SOL     OW40090   2.898   1.363  13.387  0.4925  0.1504  0.0418
 9544SOL    HW140091   2.929   1.425  13.321  1.1553 -0.9926 -0.7148
 9544SOL    HW240092   2.902   1.421  13.463  0.4053  1.0727 -0.6589
 9545SOL     OW40093   0.697   3.315  12.389 -0.7497  0.3668  0.1609
 9545SOL    HW140094   0.685   3.399  12.433 -2.2749  0.1283  0.2201
 9545SOL    HW240095   0.739   3.357  12.314  0.0549 -0.8550 -0.0667
 9546SOL     OW40096   0.570   2.213   2.228 -0.0325 -0.2550 -0.0454
 9546SOL    HW140097   0.548   2.156   2.154 -1.5216  2.1394 -1.4361
 9546SOL    HW240098   0.600   2.287   2.176  1.5266 -1.4511 -0.8325
 9547SOL     OW40099   2.808   2.572   9.417  0.2573 -0.1535  0.0144
 9547SOL    HW140100   2.772   2.653   9.382  1.8489 -0.3263 -2.0767
 9547SOL    HW240101   2.895   2.581   9.378 -0.1983  1.2145 -0.6901
 9548SOL     OW40102   4.459   3.047   6.374  0.0594  0.3049  0.1949
 9548SOL    HW140103   4.442   2.955   6.393 -5.1083  0.9417 -1.2808
 9548SOL    HW240104   4.534   3.058   6.432  0.6644 -1.7963 -0.1937
 9549SOL     OW40105   1.110   3.540   4.124 -0.4736  0.7184  0.5329
 9549SOL    HW140106   1.105   3.562   4.031  0.7884 -2.9506 -0.4223
 9549SOL    HW240107   1.031   3.588   4.149 -2.4867 -2.2284 -0.1804
 9550SOL     OW40108   0.695   2.272   6.108  0.2789  0.3782 -0.0541
 9550SOL    HW140109   0.755   2.336   6.147 -0.0695  0.8022 -0.2158
 9550SOL    HW240110   0.722   2.188   6.143 -0.9167  0.5271  1.2560
 9551SOL     OW40111   3.418   3.299   5.425  0.1228 -0.2806 -0.1989
 9551SOL    HW140112   3.368   3.337   5.353 -0.3502  2.6565  1.6948
 9551SOL    HW240113   3.419   3.207   5.398 -1.8862 -0.3213 -0.1019
 9552SOL     OW40114   3.556   0.281   2.073 -0.2523 -0.2604 -0.0956
 9552SOL    HW140115   3.507   0.294   1.992  1.2316 -0.5107 -1.0306
 9552SOL    HW240116   3.500   0.334   2.129  0.0651  0.5632 -0.5473
 9553SOL     OW40117   3.689   3.737   4.326  0.2773  0.0279 -0.5042
 9553SOL    HW140118   3.608   3.745   4.378 -0.4031 -1.1563 -1.3903
 9553SOL    HW240119   3.743   3.807   4.362  0.9934 -0.5351 -0.5015
 9554SOL     OW40120   3.024   4.282   4.074 -0.6066 -0.4912  0.2107
 9554SOL    HW140121   3.001   4.193   4.050 -0.7660 -0.0463 -1.3141
 9554SOL    HW240122   2.974   4.299   4.153 -4.0070 -0.7656 -1.8758
 9555SOL     OW40123   0.365   0.043   5.816 -0.1605  0.2707 -0.5467
 9555SOL    HW140124   0.320   0.120   5.781  0.2666  0.5679 -0.4435
 9555SOL    HW240125   0.355   4.704   5.745 -0.6556 -0.8748  0.5355
 9556SOL     OW40126   4.579   1.623   5.149  0.2538 -0.7401  0.2073
 9556SOL    HW140127   4.592   1.542   5.199 -0.7318  1.5117  4.0950
 9556SOL    HW240128   4.485   1.621   5.131  0.0052 -0.2259  1.4872
 9557SOL     OW40129   2.285   2.150   1.758 -0.4006 -0.1822  0.1424
 9557SOL    HW140130   2.254   2.189   1.676 -2.0507  3.6928  2.5802
 9557SOL    HW240131   2.380   2.148   1.745 -0.1521  0.1476  1.8344
 9558SOL     OW40132   3.826   0.749   3.261 -0.1184  0.5890  0.2259
 9558SOL    HW140133   3.836   0.655   3.270  0.5410  0.8124  1.8743
 9558SOL    HW240134   3.754   0.742   3.198  0.8314 -0.3105 -0.7446
 9559SOL     OW40135   2.796   2.027   3.899 -0.9036 -0.2341  0.2146
 9559SOL    HW140136   2.719   2.074   3.867 -0.6113  0.9395  1.2548
 9559SOL    HW240137   2.766   1.937   3.913 -0.9050 -0.4974 -1.5126
 9560SOL     OW40138   1.447   0.348   0.944  0.2361  0.5975 -0.2160
 9560SOL    HW140139   1.468   0.403   0.868 -1.4010  0.7175 -0.5810
 9560SOL    HW240140   1.434   0.261   0.906  0.7500  0.7517 -0.7269
 9561SOL     OW40141   2.139   2.106   2.196 -0.3763  0.5861  0.2004
 9561SOL    HW140142   2.113   2.096   2.287 -2.3986  2.5102 -0.1594
 9561SOL    HW240143   2.225   2.149   2.197 -0.5384  0.8791  1.4975
 9562SOL     OW40144   2.778   0.589   4.620 -0.1784  0.0996 -0.0411
 9562SOL    HW140145   2.697   0.635   4.595  0.4736  0.4894 -1.4460
 9562SOL    HW240146   2.836   0.598   4.545 -0.6058  0.0787 -0.3726
 9563SOL     OW40147   1.152   1.585   5.173  0.4670 -0.4253  0.4780
 9563SOL    HW140148   1.104   1.525   5.230  0.5998 -1.0046 -0.0159
 9563SOL    HW240149   1.198   1.516   5.125  0.7931  1.7314 -2.2570
 9564SOL     OW40150   2.063   0.786  14.970 -0.2338  0.1183  0.5633
 9564SOL    HW140151   2.038   0.697  14.994 -0.3890  0.4703  1.6720
 9564SOL    HW240152   2.152   0.774  14.935 -0.2474  2.7416 -0.3803
 9565SOL     OW40153   2.389   0.973   0.927  0.0668 -0.3858  0.4993
 9565SOL    HW140154   2.370   0.969   1.020 -1.7856 -1.0104  0.0832
 9565SOL    HW240155   2.332   1.048   0.911 -0.0457 -0.6297 -0.2457
   4.72401   4.72401  17.69770
