Membrane in water
40155
    1TCq1    O1    1   4.617   1.246  10.974  0.1952 -0.2274 -0.2925
    1TCq1    C1    2   4.626   1.114  10.998 -0.2352 -0.1137  0.4292
    1TCq1    O2    3   4.526   1.047  10.997  0.6650 -0.4449 -0.1251
    1TCq1    C2    4   0.016   1.089  11.081  0.1119 -0.2536 -0.2402
    1TCq1    C3    5   0.135   1.141  11.048 -0.3917  0.4853  0.2827
    1TCq1    C4    6   0.248   1.069  11.075 -0.0733 -0.2074  0.0451
    1TCq1    C5    7   0.247   0.946  11.133  0.4080  0.0320  0.4738
    1TCq1    C6    8   0.127   0.893  11.161 -0.2024  0.4662  0.5116
    1TCq1    C7    9   0.015   0.965  11.143 -0.0710 -0.3352 -0.0955
    1TCq1    C8   10   0.118   0.753  11.195  0.1259  0.3470 -0.7323
    1TCq1    O4   11   0.012   0.711  11.241  0.0178 -0.0079  0.0251
    1TCq1    C9   12   0.370   1.106  11.007 -0.6440  0.2910 -0.4251
    1TCq1    O5   13   0.367   1.209  10.935  0.0302  0.3807 -0.1094
    1TCq1    O6   14   0.481   1.039  11.025  0.2693 -0.5454  0.4144
    1TCq1    H1   15   4.691   1.302  11.006 -1.5300  1.4089  0.7789
    1TCq1    H2   16   0.132   1.222  10.976  1.2160  0.5396  0.2818
    1TCq1    H3   17   0.342   0.896  11.147 -1.4694 -3.1718  1.7312
    1TCq1    H4   18   4.646   0.912  11.164 -1.7596  3.0536  1.0259
    2MPD2     C   19   0.309   0.286  11.219 -1.3723  0.3741 -0.3242
    2MPD2    C1   20   0.254   0.366  11.317 -0.3953 -0.1094  0.3315
    2MPD2    C2   21   0.223   0.499  11.285 -0.5723  0.1292  0.3598
    2MPD2    C3   22   0.240   0.546  11.158 -0.3898 -0.8279  0.0905
    2MPD2    C4   23   0.289   0.468  11.057  0.3095  0.4962  1.3797
    2MPD2    C5   24   0.325   0.343  11.092 -0.3490  0.1093  0.0681
    2MPD2     H   25   0.191   0.572  11.358 -2.3301 -0.4680  0.1986
    2MPD2    H1   26   0.298   0.517  10.961  0.4671 -1.4547  0.4094
    2MPD2    H2   27   0.336   0.183  11.236  0.3460  0.9984  0.7030
    2MPD2    H3   28   0.352   0.274  11.012  2.1207  0.8032  0.3319
    2MPD2     N   29   0.207   0.676  11.122 -0.8425 -0.0993 -0.0055
    2MPD2    H5   30   0.242   0.714  11.035  0.3445 -0.8591  0.1489
    2MPD2    N1   31   0.233   0.321  11.449 -0.0766  0.1022 -0.5407
    2MPD2    H7   32   0.198   0.389  11.516  0.2831  0.6826 -0.9439
    3TCq1    O1   33   4.514   1.642  10.304 -0.0945 -0.2375 -0.1276
    3TCq1    C1   34   4.567   1.520  10.277 -0.0239  0.3727 -0.3420
    3TCq1    O2   35   4.670   1.506  10.211 -0.3605 -0.4012 -0.3637
    3TCq1    C2   36   4.573   1.449  10.400  0.2205 -0.5842  0.0692
    3TCq1    C3   37   4.689   1.374  10.434 -0.5263  0.0575  0.2706
    3TCq1    C4   38   4.690   1.319  10.559  0.2800  0.1094 -0.0074
    3TCq1    C5   39   4.584   1.310  10.643  0.2392  0.3349 -0.7161
    3TCq1    C6   40   4.475   1.379  10.601  0.3132  0.3933 -0.1198
    3TCq1    C7   41   4.469   1.452  10.488  0.4951 -0.1523  0.2928
    3TCq1    C8   42   4.359   1.384  10.692 -0.5100  0.5216  0.9334
    3TCq1    O4   43   4.350   1.308  10.783  0.5824  0.2624  0.3007
    3TCq1    C9   44   0.084   1.253  10.609  0.0293 -0.2266  0.1191
    3TCq1    O5   45   0.194   1.268  10.547  0.2201 -0.5019  0.1178
    3TCq1    O6   46   0.074   1.210  10.726 -0.5310  0.5493 -0.2145
    3TCq1    H1   47   4.461   1.648  10.386  1.7686  0.3334  1.0263
    3TCq1    H2   48   0.053   1.361  10.370 -0.2017  1.5475  0.3962
    3TCq1    H3   49   4.589   1.257  10.737  3.3927 -1.8427 -2.1152
    3TCq1    H4   50   4.375   1.502  10.464  0.1786 -1.4951 -1.2334
    4MPD2     C   51   3.978   1.597  10.962  0.0857  0.5059  0.3414
    4MPD2    C1   52   4.057   1.697  10.904  0.1596 -0.5584 -0.0321
    4MPD2    C2   53   4.154   1.661  10.807  0.2684 -0.5358 -0.2809
    4MPD2    C3   54   4.187   1.529  10.787 -0.0773  0.0238 -0.1495
    4MPD2    C4   55   4.109   1.434  10.845  0.8012  0.2848  0.5218
    4MPD2    C5   56   4.009   1.469  10.934  0.5138 -0.0531 -1.2837
    4MPD2     H   57   4.216   1.738  10.761 -1.0923  0.0678 -1.0925
    4MPD2    H1   58   4.107   1.329  10.818 -0.5589  0.2676  0.7152
    4MPD2    H2   59   3.898   1.621  11.030 -0.9128 -3.0557  0.3897
    4MPD2    H3   60   3.943   1.395  10.978  0.3911  1.0792  0.4505
    4MPD2     N   61   4.274   1.494  10.674 -0.0978 -0.0518 -0.6906
    4MPD2    H5   62   4.305   1.563  10.607 -3.4048  2.3108  0.2333
    4MPD2    N1   63   4.044   1.836  10.927  0.8256 -0.2117 -0.0285
    4MPD2    H7   64   4.103   1.890  10.865 -0.8772  0.5109 -1.0240
    5TCq1    O1   65   0.177   3.540  11.375 -0.9054  0.3915 -0.0759
    5TCq1    C1   66   0.290   3.582  11.305 -0.6333  0.7135  0.1916
    5TCq1    O2   67   0.383   3.637  11.359  0.1694  0.2948 -0.0602
    5TCq1    C2   68   0.240   3.637  11.183  0.2519  0.0135 -1.5899
    5TCq1    C3   69   0.205   3.769  11.191 -0.0476 -0.3984 -0.9946
    5TCq1    C4   70   0.146   3.831  11.085  0.3011 -0.1698 -0.2272
    5TCq1    C5   71   0.098   3.757  10.983 -0.4954 -0.0922 -0.2476
    5TCq1    C6   72   0.116   3.619  10.991 -0.6097 -0.4816 -0.3806
    5TCq1    C7   73   0.184   3.556  11.089 -0.2768  0.0470  0.0828
    5TCq1    C8   74   0.044   3.521  10.910  0.1962 -0.6847  0.0292
    5TCq1    O4   75   0.035   3.403  10.946 -0.2185  0.5395  0.1705
    5TCq1    C9   76   0.128   3.976  11.091 -0.3179 -0.2783  0.1935
    5TCq1    O5   77   0.043   4.028  11.014 -0.2505 -0.1937  0.5885
    5TCq1    O6   78   0.194   4.037  11.184  0.4361  0.3878  0.2995
    5TCq1    H1   79   0.101   3.535  11.313 -0.1406 -0.5464 -0.9342
    5TCq1    H2   80   0.235   3.832  11.275 -3.4148 -1.7110  1.1757
    5TCq1    H3   81   0.052   3.811  10.901 -0.7372  1.1613  0.7169
    5TCq1    H4   82   0.210   3.451  11.081 -1.7400 -0.3871  0.9926
    6MPD2     C   83   4.463   3.609  10.747 -0.4636 -0.8992  0.1543
    6MPD2    C1   84   4.559   3.528  10.790 -0.3985  0.2609  0.5338
    6MPD2    C2   85   4.544   3.389  10.780 -0.3318 -0.2916  0.4055
    6MPD2    C3   86   4.434   3.336  10.718 -0.4298 -0.2861  0.7474
    6MPD2    C4   87   4.337   3.425  10.669  0.2781 -0.2848 -0.4707
    6MPD2    C5   88   4.351   3.559  10.683 -0.4567  0.5372  0.6107
    6MPD2     H   89   4.614   3.314  10.816  0.1567 -0.6438 -1.2935
    6MPD2    H1   90   4.251   3.395  10.611 -1.7322 -0.7035  2.7357
    6MPD2    H2   91   4.476   3.717  10.755 -0.1580 -0.8689 -0.7487
    6MPD2    H3   92   4.265   3.620  10.659  0.3343  1.9501  1.2892
    6MPD2     N   93   4.432   3.196  10.690  0.1377  0.0616  0.3206
    6MPD2    H5   94   4.511   3.140  10.721  0.9532  1.8824  1.5029
    6MPD2    N1   95   4.671   3.588  10.845 -0.0102 -0.6217 -0.8942
    6MPD2    H7   96   4.672   3.690  10.846  0.7816 -0.5963 -3.6421
    7TCq1    O1   97   2.200   2.874  13.647 -0.1257 -0.5674  0.3154
    7TCq1    C1   98   2.244   2.752  13.607 -0.4241  0.4275  0.5064
    7TCq1    O2   99   2.352   2.730  13.557  0.3175  0.0990 -0.4595
    7TCq1    C2  100   2.132   2.719  13.523  0.2917 -1.1874 -0.1051
    7TCq1    C3  101   2.075   2.806  13.440 -0.0606 -0.2151 -0.5222
    7TCq1    C4  102   1.982   2.764  13.355  0.0202 -0.6910 -0.6464
    7TCq1    C5  103   1.938   2.634  13.348 -0.0144 -0.1465 -0.2217
    7TCq1    C6  104   1.995   2.556  13.444  0.1423 -0.3337  0.0353
    7TCq1    C7  105   2.100   2.586  13.518 -0.6575  0.4198 -0.6881
    7TCq1    C8  106   1.960   2.420  13.432 -0.5237  0.0698 -0.1161
    7TCq1    O4  107   2.003   2.353  13.528 -0.0898 -0.0118 -0.5652
    7TCq1    C9  108   1.923   2.866  13.262 -1.1704  0.2063 -0.0787
    7TCq1    O5  109   1.804   2.839  13.221  0.8126 -0.2648  0.1250
    7TCq1    O6  110   1.985   2.974  13.241  0.1585 -0.3196  0.1537
    7TCq1    H1  111   2.108   2.867  13.681 -0.1656 -0.8376  0.1474
    7TCq1    H2  112   2.105   2.910  13.435 -0.6283 -0.0017  0.4729
    7TCq1    H3  113   1.852   2.613  13.284 -0.4271  1.0666 -0.0584
    7TCq1    H4  114   2.161   2.511  13.568 -1.7460  1.3077  1.9697
    8MPD2     C  115   1.750   1.991  13.245  0.2100  0.0278  0.2736
    8MPD2    C1  116   1.859   2.012  13.328 -0.2508 -0.2150 -0.2154
    8MPD2    C2  117   1.901   2.140  13.360 -0.7015 -0.2923  0.4100
    8MPD2    C3  118   1.838   2.249  13.303  0.2367 -0.1480  0.8609
    8MPD2    C4  119   1.730   2.227  13.218 -0.8982 -0.0533  0.0897
    8MPD2    C5  120   1.686   2.101  13.193 -0.0450 -0.5882  0.4307
    8MPD2     H  121   1.989   2.153  13.422  0.2379 -2.6568 -0.3944
    8MPD2    H1  122   1.694   2.312  13.163 -2.7913 -0.2005  1.1084
    8MPD2    H2  123   1.723   1.889  13.220 -0.6183  0.4708 -0.6474
    8MPD2    H3  124   1.611   2.073  13.119 -0.3882 -0.0209  0.5620
    8MPD2     N  125   1.885   2.384  13.319 -0.1453 -0.1597  0.1180
    8MPD2    H5  126   1.855   2.459  13.259  1.4763  1.9915  2.0065
    8MPD2    N1  127   1.921   1.895  13.374 -0.0618  0.2200  0.1503
    8MPD2    H7  128   1.889   1.806  13.338 -0.0219  0.4190 -0.3751
    9TCq1    O1  129   0.680   1.927  10.730 -0.5682  0.1874  0.1293
    9TCq1    C1  130   0.595   1.975  10.640 -0.2565  0.3544 -0.1039
    9TCq1    O2  131   0.575   2.092  10.618 -0.0266 -0.2987 -0.0227
    9TCq1    C2  132   0.495   1.880  10.680  0.2076  1.0230  0.0210
    9TCq1    C3  133   0.515   1.746  10.681 -0.2145  0.5644  0.2611
    9TCq1    C4  134   0.409   1.662  10.700  0.4984 -0.3730  1.0775
    9TCq1    C5  135   0.288   1.714  10.746 -0.1452  0.0445 -0.4833
    9TCq1    C6  136   0.267   1.855  10.743 -0.1216 -0.3641 -0.6051
    9TCq1    C7  137   0.375   1.934  10.699 -0.5184  0.3287  0.0119
    9TCq1    C8  138   0.193   1.913  10.853  0.8662  0.4060 -0.9203
    9TCq1    O4  139   0.182   2.031  10.871 -0.0995 -0.0666  0.0463
    9TCq1    C9  140   0.437   1.519  10.696 -0.4225 -0.8286 -0.3936
    9TCq1    O5  141   0.372   1.450  10.777 -0.3260 -0.5244  0.0717
    9TCq1    O6  142   0.553   1.488  10.649 -0.9690  0.2773  0.3215
    9TCq1    H1  143   0.646   1.844  10.769  0.9091 -0.3543  0.2609
    9TCq1    H2  144   0.610   1.701  10.655 -1.0071 -0.5405 -0.7012
    9TCq1    H3  145   0.220   1.636  10.778  1.0755  0.2838  2.6306
    9TCq1    H4  146   0.360   2.041  10.690  1.6476  0.4603 -2.0730
   10MPD2     C  147   0.036   1.949  11.112 -0.2202  0.3885  0.6349
   10MPD2    C1  148   0.082   1.830  11.061  0.4602 -0.8131 -0.6054
   10MPD2    C2  149   0.053   1.713  11.127 -0.9544 -0.1266  0.4608
   10MPD2    C3  150   4.705   1.718  11.242  0.0918 -0.4629  0.1264
   10MPD2    C4  151   4.648   1.835  11.283 -0.0478  0.3703  0.2073
   10MPD2    C5  152   4.678   1.948  11.223 -0.3586 -0.8479 -0.4553
   10MPD2     H  153   0.101   1.624  11.086  0.6738  0.9808 -0.0510
   10MPD2    H1  154   4.590   1.839  11.375 -0.9186 -3.8685 -0.1371
   10MPD2    H2  155   0.070   2.046  11.078 -0.0201  0.5239  1.2122
   10MPD2    H3  156   4.646   2.048  11.252 -0.8814 -0.8960 -0.8661
   10MPD2     N  157   4.687   1.605  11.316  1.0080 -0.1668  0.0470
   10MPD2    H5  158   4.642   1.622  11.405 -0.0895 -0.1227 -0.5291
   10MPD2    N1  159   0.150   1.813  10.942  0.0419 -0.3470 -0.0570
   10MPD2    H7  160   0.164   1.716  10.917  0.8004 -0.0307 -0.8750
   11TCq1    O1  161   1.654   1.462  13.957 -0.1146  0.4238  0.5722
   11TCq1    C1  162   1.602   1.360  14.022 -0.1504 -0.9560  0.8540
   11TCq1    O2  163   1.617   1.244  13.984 -0.3853  0.3755  0.2676
   11TCq1    C2  164   1.496   1.407  14.113  0.0688  0.0622 -0.2598
   11TCq1    C3  165   1.520   1.518  14.195  0.2649  0.1207  0.3055
   11TCq1    C4  166   1.411   1.579  14.250  0.3176  0.9878  0.2930
   11TCq1    C5  167   1.280   1.545  14.217 -0.2070 -0.1082  0.3250
   11TCq1    C6  168   1.267   1.431  14.136 -0.1112  0.6714 -0.5443
   11TCq1    C7  169   1.375   1.358  14.081 -0.2755 -0.1846 -0.1025
   11TCq1    C8  170   1.129   1.402  14.095  0.6918 -0.4893 -0.7830
   11TCq1    O4  171   1.040   1.485  14.122  0.3260  0.2476  0.0419
   11TCq1    C9  172   1.437   1.699  14.329  0.3898 -0.3988 -0.0459
   11TCq1    O5  173   1.555   1.745  14.322 -0.5722  0.1226 -0.0296
   11TCq1    O6  174   1.340   1.761  14.375  0.0216 -0.4014  0.2860
   11TCq1    H1  175   1.619   1.549  13.985 -0.2474  0.9608 -1.2666
   11TCq1    H2  176   1.618   1.552  14.226  1.2189 -0.8107 -1.6862
   11TCq1    H3  177   1.192   1.600  14.246  0.0777 -0.4085  1.7722
   11TCq1    H4  178   1.360   1.284  14.004 -1.2719 -0.9714  0.8382
   12MPD2     C  179   0.872   1.261  14.033  0.4622  0.5274 -0.0288
   12MPD2    C1  180   0.998   1.217  14.001  0.2962  1.4954 -0.4577
   12MPD2    C2  181   1.003   1.098  13.931 -0.1187 -0.4058 -0.7374
   12MPD2    C3  182   0.890   1.021  13.905  0.2882 -0.2115 -0.4923
   12MPD2    C4  183   0.770   1.066  13.937 -0.1543  0.3362  0.8828
   12MPD2    C5  184   0.760   1.188  14.001 -0.0259 -0.7046 -0.3760
   12MPD2     H  185   1.101   1.061  13.902  1.3809  1.1206  2.4164
   12MPD2    H1  186   0.680   1.014  13.906 -0.3891  1.1711  0.1616
   12MPD2    H2  187   0.853   1.356  14.083 -0.2012  0.1771  0.3767
   12MPD2    H3  188   0.665   1.237  14.022  0.3662  0.3789 -1.1415
   12MPD2     N  189   0.897   0.898  13.832 -0.1361 -0.4503 -0.4185
   12MPD2    H5  190   0.804   0.859  13.816 -1.0566  2.9738 -3.4918
   12MPD2    N1  191   1.115   1.276  14.036  0.4374  0.2193 -0.2139
   12MPD2    H7  192   1.203   1.231  14.011  0.6687  1.4868 -1.6807
   13TCq1    O1  193   0.289   1.088  10.390  0.2532 -0.1194  0.0314
   13TCq1    C1  194   0.264   1.116  10.261  0.1964  0.3736 -0.3499
   13TCq1    O2  195   0.346   1.090  10.170  0.0459 -0.3230 -0.0806
   13TCq1    C2  196   0.117   1.120  10.249  0.2125  0.1374 -0.0231
   13TCq1    C3  197   0.056   1.188  10.143  0.2633  0.2394  0.3798
   13TCq1    C4  198   4.643   1.186  10.133  0.5779 -0.6184 -0.7853
   13TCq1    C5  199   4.560   1.114  10.218  0.2603  0.8248 -0.3219
   13TCq1    C6  200   4.626   1.054  10.321  0.8722  0.0738  0.9542
   13TCq1    C7  201   0.034   1.057  10.338  0.3904  0.6026 -0.0516
   13TCq1    C8  202   4.554   1.006  10.439  0.0711  0.3047  0.2496
   13TCq1    O4  203   4.613   0.991  10.541 -0.5659 -0.0232  0.1175
   13TCq1    C9  204   4.580   1.248  10.022 -0.1196  0.1479  0.1741
   13TCq1    O5  205   4.453   1.243  10.021 -0.3577  0.0596 -0.3217
   13TCq1    O6  206   4.651   1.309   9.933 -0.5424  0.0587  0.2683
   13TCq1    H1  207   0.233   1.146  10.446  0.7167  0.8979 -0.5545
   13TCq1    H2  208   0.109   1.233  10.060  0.0318 -0.8287 -0.3487
   13TCq1    H3  209   4.453   1.130  10.214 -0.0732 -1.5401 -1.1036
   13TCq1    H4  210   0.079   0.997  10.417  2.0235 -0.6522 -1.9536
   14MPD2     C  211   4.196   0.941  10.483  0.3811  0.0303  0.2624
   14MPD2    C1  212   4.324   0.980  10.517 -0.5753  0.1188 -0.4909
   14MPD2    C2  213   4.345   1.015  10.651  0.7026 -0.7904 -0.5127
   14MPD2    C3  214   4.239   0.993  10.746  0.4477 -0.5019  0.3797
   14MPD2    C4  215   4.116   0.960  10.700 -0.1148  0.3319 -0.3531
   14MPD2    C5  216   4.092   0.943  10.569  0.1702 -0.1392 -0.2102
   14MPD2     H  217   4.439   1.055  10.687 -0.3191  1.4219 -0.3222
   14MPD2    H1  218   4.029   0.972  10.764 -0.2319  0.1769 -0.4844
   14MPD2    H2  219   4.171   0.915  10.381 -0.4215  1.4628  0.0989
   14MPD2    H3  220   3.993   0.901  10.551 -0.1056 -0.1020  1.2563
   14MPD2     N  221   4.264   1.004  10.883 -0.2310  0.1964 -0.7156
   14MPD2    H5  222   4.346   1.059  10.906 -1.3224  1.5655 -0.0505
   14MPD2    N1  223   4.422   0.991  10.416 -0.4332 -0.5146 -0.6380
   14MPD2    H7  224   4.383   0.978  10.324 -1.5034 -0.0667 -0.2456
   15TCq1    O1  225   1.647   4.612   1.821  0.1510  0.9526  0.0328
   15TCq1    C1  226   1.702   4.627   1.698 -0.5406  0.1500 -0.2470
   15TCq1    O2  227   1.638   4.623   1.596  0.4403 -0.2489 -0.0756
   15TCq1    C2  228   1.846   4.607   1.712  0.3110 -1.2002 -0.7471
   15TCq1    C3  229   1.904   4.625   1.840  0.2788 -0.0900  0.7581
   15TCq1    C4  230   2.017   4.557   1.871  0.4655  0.3728  0.5972
   15TCq1    C5  231   2.088   4.474   1.782 -0.4564  0.3362  0.4267
   15TCq1    C6  232   2.034   4.460   1.656 -0.0115  0.0484  1.2315
   15TCq1    C7  233   1.909   4.522   1.626  0.1284  0.2936 -0.2716
   15TCq1    C8  234   2.105   4.359   1.573  0.3324 -0.4650 -0.4574
   15TCq1    O4  235   2.208   4.312   1.617  0.0459  0.4670  0.3768
   15TCq1    C9  236   2.059   4.569   2.009  0.0807  0.7190  0.1959
   15TCq1    O5  237   2.180   4.548   2.031 -0.0838  0.7031 -0.1446
   15TCq1    O6  238   1.977   4.600   2.100 -0.1882 -0.1333  0.0664
   15TCq1    H1  239   1.716   4.589   1.887 -0.6046 -2.2857 -0.3014
   15TCq1    H2  240   1.863   4.699   1.907  1.4750 -0.6083  2.0609
   15TCq1    H3  241   2.174   4.418   1.820  1.2081  1.4463 -1.7244
   15TCq1    H4  242   1.859   4.514   1.530  0.8766  1.1803 -0.7362
   16MPD2     C  243   1.989   4.248   1.244 -0.0365  0.2447  0.2995
   16MPD2    C1  244   2.071   4.247   1.353  0.0966  0.4202 -0.5220
   16MPD2    C2  245   2.187   4.175   1.353  0.5609 -0.6193 -0.3129
   16MPD2    C3  246   2.213   4.110   1.233  0.3797 -0.2087 -0.1593
   16MPD2    C4  247   2.121   4.091   1.130 -0.2865  0.6393 -0.1152
   16MPD2    C5  248   2.010   4.166   1.139  0.2387  0.3700  0.2244
   16MPD2     H  249   2.262   4.181   1.430  1.3021  1.0174 -1.1762
   16MPD2    H1  250   2.143   4.025   1.047  0.1612  1.2553 -0.4943
   16MPD2    H2  251   1.894   4.299   1.245 -1.4594 -2.4017 -3.0706
   16MPD2    H3  252   1.934   4.170   1.063  0.4479 -0.3297 -0.0157
   16MPD2     N  253   2.348   4.059   1.226 -0.2778  0.2556 -0.6493
   16MPD2    H5  254   2.398   4.062   1.315 -1.0572 -2.1460 -0.1475
   16MPD2    N1  255   2.046   4.339   1.450 -0.3779 -0.5337 -0.2072
   16MPD2    H7  256   1.965   4.396   1.427  1.0833  1.3526 -0.6539
   17TCq1    O1  257   0.811   4.196  11.777 -0.0344  0.0221 -0.1134
   17TCq1    C1  258   0.835   4.116  11.671 -0.5211  0.5499  0.2749
   17TCq1    O2  259   0.896   4.011  11.675  0.8589  0.3469  0.9238
   17TCq1    C2  260   0.784   4.181  11.551 -0.2469  0.3942  0.6752
   17TCq1    C3  261   0.724   4.307  11.562  0.6387 -0.9080 -0.0520
   17TCq1    C4  262   0.700   4.369  11.445 -0.3562  0.8067 -0.2419
   17TCq1    C5  263   0.734   4.321  11.321 -0.2005  0.0667 -0.4257
   17TCq1    C6  264   0.799   4.200  11.326 -0.2553 -0.1730  0.4480
   17TCq1    C7  265   0.819   4.122  11.436  0.2892 -0.1244  0.2118
   17TCq1    C8  266   0.825   4.131  11.191  0.3568  0.4466 -0.3558
   17TCq1    O4  267   0.859   4.014  11.196  0.5352  0.1012  0.0706
   17TCq1    C9  268   0.650   4.504  11.443  0.2883  0.8080  0.3132
   17TCq1    O5  269   0.632   4.554  11.556 -0.4749 -0.0719  0.5189
   17TCq1    O6  270   0.620   4.565  11.336  0.1021 -0.1112  0.6693
   17TCq1    H1  271   0.845   4.168  11.864  2.3393  1.4714 -0.5686
   17TCq1    H2  272   0.704   4.361  11.654  4.1100  0.5064 -0.1149
   17TCq1    H3  273   0.718   4.381  11.232 -0.9692 -0.4555 -0.6458
   17TCq1    H4  274   0.875   4.029  11.432  0.1570 -0.1881 -0.1229
   18MPD2     C  275   0.903   4.054  10.917  0.2086 -0.1782 -0.0710
   18MPD2    C1  276   0.830   4.168  10.946 -0.1279 -0.3789 -0.5471
   18MPD2    C2  277   0.801   4.256  10.844 -0.6378  0.4403  0.1749
   18MPD2    C3  278   0.820   4.221  10.713  0.1799  0.2345  0.1571
   18MPD2    C4  279   0.880   4.106  10.690 -0.8020  0.1840 -0.4767
   18MPD2    C5  280   0.924   4.023  10.786  0.0623 -0.4837  0.0550
   18MPD2     H  281   0.754   4.349  10.876 -0.3676  1.0928 -1.2995
   18MPD2    H1  282   0.895   4.079  10.586  2.2596  2.7800 -0.7052
   18MPD2    H2  283   0.957   3.989  10.985  2.4940  0.7183 -1.0390
   18MPD2    H3  284   0.981   3.935  10.758  1.1355 -0.0373  0.7972
   18MPD2     N  285   0.802   4.302  10.599  0.3850 -0.5676 -0.0787
   18MPD2    H5  286   0.819   4.259  10.508  0.8223 -2.3878  0.8653
   18MPD2    N1  287   0.798   4.209  11.078 -0.5475 -0.6293 -0.0421
   18MPD2    H7  288   0.753   4.299  11.094 -0.1156 -0.1067 -1.7973
   19TMC2    C1  289   2.406   0.598  13.504 -0.0860  0.3162 -0.1764
   19TMC2    C2  290   2.370   0.709  13.433 -0.5236  0.0349  0.0661
   19TMC2    C3  291   2.239   0.738  13.422 -0.5271  0.3471  0.2574
   19TMC2    C4  292   2.307   0.535  13.578  0.5483 -0.1714  0.5719
   19TMC2    C5  293   2.178   0.588  13.581  0.3429 -0.1766 -0.2545
   19TMC2    C6  294   2.140   0.688  13.506  0.9199  0.2977  0.2168
   19TMC2     C  295   2.545   0.589  13.544 -0.0198 -0.2015 -0.0101
   19TMC2     O  296   2.624   0.641  13.463  0.1787 -0.2896  0.3260
   19TMC2     H  297   2.450   0.756  13.377 -1.8359  0.6950 -1.2633
   19TMC2    H1  298   2.324   0.445  13.635 -0.0622  0.1531  1.2727
   19TMC2    H2  299   2.038   0.716  13.480  0.3719 -1.8446  0.0743
   19TMC2    C7  300   2.092   0.519  13.673  0.3916 -0.8500 -0.3409
   19TMC2    C8  301   2.220   0.876  13.381 -0.8087  0.0075  0.8656
   19TMC2    O1  302   2.130   0.412  13.717 -0.5565 -0.2305  0.1759
   19TMC2    O2  303   2.283   0.902  13.279 -0.0141  0.4585  0.0450
   19TMC2    O5  304   2.192   0.954  13.489 -0.4653 -0.3560  0.2351
   19TMC2    H5  305   2.135   0.905  13.551 -3.2004  1.5935 -0.7450
   20MPD2     C  306   2.804   0.537  13.675 -0.2456  0.5394 -0.3459
   20MPD2    C1  307   2.681   0.499  13.735  0.1455 -0.5229 -0.1798
   20MPD2    C2  308   2.689   0.453  13.867  0.0815  0.3965 -0.9535
   20MPD2    C3  309   2.800   0.459  13.941  0.6331 -0.3181  0.5148
   20MPD2    C4  310   2.914   0.501  13.884  0.6405 -0.0612 -0.6283
   20MPD2    C5  311   2.918   0.536  13.751 -0.1148 -0.0698  0.5454
   20MPD2     H  312   2.595   0.424  13.914 -0.5951  2.1841 -1.2085
   20MPD2    H1  313   2.999   0.517  13.949 -0.8886 -1.5392  1.7345
   20MPD2    H2  314   2.819   0.556  13.569 -0.0384 -1.1050 -0.6012
   20MPD2    H3  315   3.009   0.579  13.711  0.2623 -0.4867  0.9612
   20MPD2     N  316   2.807   0.427  14.079 -0.3822 -0.1094  0.0589
   20MPD2    H5  317   2.890   0.453  14.130 -1.9219  1.9614  1.5335
   20MPD2    N1  318   2.562   0.511  13.656 -0.2340  0.1683 -0.1526
   20MPD2    H7  319   2.478   0.480  13.704  0.1020 -1.2569 -0.4783
   21MPD2     C  320   4.471   1.132  14.288  0.3490  0.2384  0.5324
   21MPD2    C1  321   4.461   0.996  14.300  0.3282  0.0089 -0.6118
   21MPD2    C2  322   4.353   0.945  14.368 -0.3449  0.7720 -0.1240
   21MPD2    C3  323   4.255   1.031  14.416 -0.5999 -0.4985  0.1150
   21MPD2    C4  324   4.277   1.162  14.400  0.4722  0.6929  0.3738
   21MPD2    C5  325   4.389   1.217  14.343  0.0553  0.7391 -0.6298
   21MPD2     H  326   4.338   0.838  14.361 -0.2981  0.7331  0.3447
   21MPD2    H1  327   4.201   1.226  14.443  1.7958  1.2266  1.8852
   21MPD2    H2  328   4.552   1.183  14.237  2.1026 -1.4108  1.6635
   21MPD2    H3  329   4.409   1.323  14.336  0.7839  0.4445 -2.9760
   21MPD2     N  330   4.142   0.985  14.491 -0.1210 -0.3582  0.5026
   21MPD2    H5  331   4.078   1.055  14.527  0.8404  1.5230 -1.4912
   21MPD2    N1  332   4.550   0.901  14.230  0.0177 -0.0002  0.5721
   21MPD2    H7  333   4.523   0.803  14.232 -0.4481  0.1042 -0.2792
   22TCq2    C1  334   4.104   0.852  14.516  0.5238 -0.4474  0.2624
   22TCq2    O2  335   4.159   0.748  14.482 -0.5045 -0.4058 -0.4438
   22TCq2    C2  336   3.989   0.844  14.605 -0.0977  0.0074  0.1309
   22TCq2    C3  337   3.978   0.733  14.689  0.2935 -0.0829 -0.2978
   22TCq2    C4  338   3.876   0.734  14.778  0.1126  0.4301  0.3697
   22TCq2    C5  339   3.786   0.832  14.791 -0.1671  0.1166 -0.0944
   22TCq2    C6  340   3.797   0.940  14.711  0.6040  0.0068 -0.8473
   22TCq2    C7  341   3.899   0.947  14.619 -0.6815 -0.0762  0.4873
   22TCq2    C8  342   3.725   1.055  14.757  0.3903 -0.3222  0.7092
   22TCq2    O4  343   3.708   1.057  14.880 -0.2456  0.5868 -0.2495
   22TCq2    C9  344   3.855   0.622  14.862 -0.2204 -0.9248  0.1108
   22TCq2    O5  345   3.955   0.555  14.893 -0.0376 -0.7765 -0.4506
   22TCq2    O6  346   3.752   0.624  14.928 -0.3974  0.1999  0.0840
   22TCq2    H2  347   4.040   0.645  14.675  1.0771  0.3941  0.1864
   22TCq2    H3  348   3.708   0.831  14.866  0.1715  0.4944  0.2674
   22TCq2    H4  349   3.904   1.038  14.561  1.3474 -1.1671 -1.0641
   23MPD2     C  350   0.963   2.348  14.616  0.0657  0.2972  0.2194
   23MPD2    C1  351   0.844   2.306  14.675 -0.1310  0.4790 -0.7543
   23MPD2    C2  352   0.731   2.368  14.626 -0.1039  0.1942 -0.0603
   23MPD2    C3  353   0.735   2.464  14.519 -0.2962 -0.2382  0.1265
   23MPD2    C4  354   0.860   2.484  14.459 -0.0099 -0.3782 -0.0779
   23MPD2    C5  355   0.974   2.428  14.508  0.5054  0.0838  0.6038
   23MPD2     H  356   0.641   2.354  14.685  0.3783  2.7889  1.2711
   23MPD2    H1  357   0.874   2.547  14.372 -1.8417  1.1208  0.7026
   23MPD2    H2  358   1.056   2.300  14.643  0.0671 -0.0014 -0.3199
   23MPD2    H3  359   1.072   2.453  14.469 -0.1634  2.2978  0.2981
   23MPD2     N  360   0.618   2.537  14.472 -0.0821  0.4672 -0.3143
   23MPD2    H5  361   0.630   2.604  14.397 -0.4405 -0.9498 -1.6091
   23MPD2    N1  362   0.820   2.212  14.776 -0.4213  0.0734 -0.5808
   23MPD2    H7  363   0.722   2.191  14.794 -0.1329  0.5197  1.5555
   24TCq2    C1  364   0.488   2.537  14.525  0.2096 -0.2495  0.6585
   24TCq2    O2  365   0.436   2.456  14.595  0.3862  0.2582  0.3747
   24TCq2    C2  366   0.408   2.622  14.451 -0.2194 -0.2098  0.5112
   24TCq2    C3  367   0.471   2.723  14.390 -0.7167  0.7555 -0.0458
   24TCq2    C4  368   0.401   2.792  14.296 -0.0824  0.2904 -0.3558
   24TCq2    C5  369   0.266   2.761  14.279 -0.1831 -0.3063 -0.2303
   24TCq2    C6  370   0.206   2.660  14.344  0.6281 -0.1885 -0.5743
   24TCq2    C7  371   0.270   2.586  14.443 -0.8858  0.4799 -0.2446
   24TCq2    C8  372   0.074   2.622  14.302 -0.6986 -0.5719 -0.1426
   24TCq2    O4  373   0.031   2.669  14.197  1.0801 -0.7270 -0.7277
   24TCq2    C9  374   0.463   2.900  14.215 -0.4548  0.1308  0.2735
   24TCq2    O5  375   0.586   2.893  14.202  0.4952 -0.4570  0.4737
   24TCq2    O6  376   0.388   2.991  14.168 -0.0118 -0.0302  0.3171
   24TCq2    H2  377   0.571   2.761  14.410  0.6338 -1.1500 -3.0864
   24TCq2    H3  378   0.199   2.817  14.215 -1.5573 -3.5327 -1.6005
   24TCq2    H4  379   0.227   2.492  14.474  0.9465 -0.4275 -0.3988
   25TMC2    C1  380   4.570   3.867  11.397  0.2440 -0.1092  0.6275
   25TMC2    C2  381   4.672   3.958  11.390 -0.2117  0.3745 -0.9370
   25TMC2    C3  382   0.024   3.978  11.504 -0.2559 -0.3416  0.2309
   25TMC2    C4  383   4.526   3.821  11.521  0.0582 -0.2407  0.0944
   25TMC2    C5  384   4.594   3.854  11.631 -0.2674  0.2386  0.5073
   25TMC2    C6  385   4.706   3.933  11.627 -0.0369 -0.3245 -0.4963
   25TMC2     C  386   4.497   3.852  11.271 -0.3658  0.4078  0.1952
   25TMC2     O  387   4.555   3.876  11.166 -0.4907  0.5164 -0.5144
   25TMC2     H  388   4.706   4.010  11.301  0.2938  0.8667 -0.4557
   25TMC2    H1  389   4.432   3.769  11.536 -0.6144  0.3966 -1.9505
   25TMC2    H2  390   0.038   3.957  11.717 -0.3358 -0.3317 -0.3105
   25TMC2    C7  391   4.561   3.797  11.757  0.6454  0.3694  0.3564
   25TMC2    C8  392   0.102   4.092  11.520 -0.4590 -0.2002 -0.4645
   25TMC2    O1  393   4.444   3.778  11.785  0.1503  0.5870  0.4083
   25TMC2    O2  394   0.115   4.146  11.629  0.0902  0.2982  0.1154
   25TMC2    O5  395   0.128   4.158  11.404  0.3802  0.2347 -0.2255
   25TMC2    H5  396   0.141   4.104  11.323 -3.7645  0.3486 -0.9609
   26MPD2     C  397   4.055   3.821  11.016 -0.2119  0.1619  0.1835
   26MPD2    C1  398   4.023   3.869  11.138 -0.7749 -0.0035  0.2589
   26MPD2    C2  399   4.123   3.881  11.230  0.1129 -0.8718 -0.7229
   26MPD2    C3  400   4.255   3.842  11.203  0.5542 -0.1797  0.5106
   26MPD2    C4  401   4.283   3.783  11.083 -0.6130 -0.2151 -0.7616
   26MPD2    C5  402   4.185   3.779  10.990 -0.7392  0.4986  0.0768
   26MPD2     H  403   4.106   3.929  11.326 -1.0769 -2.9953  0.1285
   26MPD2    H1  404   4.383   3.753  11.056 -0.1564 -0.0987  0.8228
   26MPD2    H2  405   3.994   3.824  10.926  0.3619 -0.3755 -0.2285
   26MPD2    H3  406   4.216   3.744  10.892  0.6757  1.3361  0.2335
   26MPD2     N  407   4.360   3.850  11.302  0.0389  0.0198 -0.0753
   26MPD2    H5  408   4.336   3.871  11.399  0.2658  0.9438 -0.2236
   26MPD2    N1  409   3.898   3.914  11.151 -0.3010  0.6297  0.6577
   26MPD2    H7  410   3.853   3.925  11.060 -0.5534  1.1649  0.8467
   27TMC2    C1  411   3.212   1.962  12.016 -0.1733  0.4494 -0.2229
   27TMC2    C2  412   3.225   2.043  11.908  0.3738  0.9280  0.3145
   27TMC2    C3  413   3.314   2.150  11.928 -0.1578 -0.5972 -0.1896
   27TMC2    C4  414   3.288   1.974  12.130 -0.0338  0.5306 -0.0229
   27TMC2    C5  415   3.369   2.083  12.143 -0.8194  0.1028 -0.2562
   27TMC2    C6  416   3.378   2.176  12.038  0.7750 -0.4384 -0.3550
   27TMC2     C  417   3.105   1.864  12.011 -0.3473 -0.1942  0.2488
   27TMC2     O  418   3.079   1.806  11.906 -0.4858 -0.6756  0.1727
   27TMC2     H  419   3.164   2.043  11.818 -0.5174  1.5780  0.9267
   27TMC2    H1  420   3.265   1.901  12.207  0.4138  0.9056  0.4658
   27TMC2    H2  421   3.415   2.275  12.062 -0.0141 -0.1727 -0.2361
   27TMC2    C7  422   3.368   2.117  12.285  0.2987 -0.2698  0.6175
   27TMC2    C8  423   3.303   2.252  11.831 -0.6611 -0.0175  0.9447
   27TMC2    O1  424   3.366   2.027  12.365 -0.2571 -0.3718 -0.2519
   27TMC2    O2  425   3.212   2.275  11.748 -0.2772 -0.2447 -0.2817
   27TMC2    O5  426   3.428   2.309  11.825 -0.4955 -0.0221  0.4029
   27TMC2    H5  427   3.490   2.245  11.864  1.5406  1.5227 -0.2797
   28MPD2     C  428   2.786   1.545  12.237 -0.3544  0.8788  0.4469
   28MPD2    C1  429   2.763   1.672  12.293 -0.1209 -0.2368  0.3002
   28MPD2    C2  430   2.862   1.763  12.269 -0.4393  0.1646  0.0244
   28MPD2    C3  431   2.954   1.747  12.162 -0.3316  0.0407 -0.5881
   28MPD2    C4  432   2.949   1.636  12.084 -0.6737 -0.6954 -0.3645
   28MPD2    C5  433   2.875   1.536  12.137  0.0471  0.6382  0.0063
   28MPD2     H  434   2.861   1.860  12.317  1.0176 -0.1679  0.7300
   28MPD2    H1  435   3.007   1.611  11.996  0.2943 -1.1063  0.3833
   28MPD2    H2  436   2.731   1.455  12.263  0.5408 -0.2346 -1.5665
   28MPD2    H3  437   2.886   1.435  12.099 -0.4412  0.2749  0.8308
   28MPD2     N  438   3.042   1.849  12.132 -0.5722  0.0068 -0.2854
   28MPD2    H5  439   3.057   1.917  12.206 -0.5883 -0.4229  0.1120
   28MPD2    N1  440   2.666   1.683  12.394 -0.2413 -0.0637  0.0777
   28MPD2    H7  441   2.610   1.601  12.413 -1.3905  0.5498 -0.6156
   29MPD2     C  442   2.590   3.820  13.715 -0.4913  0.2620  0.0463
   29MPD2    C1  443   2.710   3.771  13.754 -0.2223 -0.2450  0.5935
   29MPD2    C2  444   2.794   3.854  13.819 -0.2252  0.5046 -0.3021
   29MPD2    C3  445   2.776   3.993  13.839 -0.0168  0.7139 -0.1596
   29MPD2    C4  446   2.654   4.040  13.793  0.0634 -0.0402 -0.7776
   29MPD2    C5  447   2.564   3.952  13.733 -0.6874 -0.2759  0.2030
   29MPD2     H  448   2.882   3.806  13.859  0.1963  0.9727 -0.6691
   29MPD2    H1  449   2.642   4.147  13.799 -0.0429  0.0988 -3.6550
   29MPD2    H2  450   2.508   3.764  13.670 -0.4282 -0.2166  0.5213
   29MPD2    H3  451   2.470   3.980  13.686  0.3016 -0.8177 -2.1185
   29MPD2     N  452   2.875   4.079  13.901 -0.2795 -0.4307 -0.7439
   29MPD2    H5  453   2.847   4.176  13.900  0.9742 -0.0600 -0.7239
   29MPD2    N1  454   2.731   3.633  13.783 -0.2608  0.6612 -0.2494
   29MPD2    H7  455   2.806   3.606  13.845 -2.2901 -1.2233  1.3770
   30TCq2    C1  456   2.992   4.033  13.947  0.0921  0.1162 -0.3844
   30TCq2    O2  457   3.049   3.929  13.928 -0.5120 -0.3947 -0.0381
   30TCq2    C2  458   3.063   4.133  14.028  0.0032  0.3214  0.5870
   30TCq2    C3  459   3.194   4.115  14.056 -0.3507 -0.4553  0.2626
   30TCq2    C4  460   3.254   4.193  14.154 -0.5355 -0.0100  0.2289
   30TCq2    C5  461   3.197   4.295  14.217 -0.0681 -0.0576 -0.0552
   30TCq2    C6  462   3.065   4.317  14.187  0.5206  0.2698 -0.1655
   30TCq2    C7  463   2.998   4.239  14.092 -0.2258  0.2450 -1.0487
   30TCq2    C8  464   2.988   4.407  14.265 -0.7870 -0.0894  0.1124
   30TCq2    O4  465   2.873   4.381  14.292  0.0637 -0.2029  0.5867
   30TCq2    C9  466   3.391   4.169  14.187  0.0092  0.2441 -0.4015
   30TCq2    O5  467   3.455   4.089  14.121  0.5564  0.2860  0.1485
   30TCq2    O6  468   3.448   4.255  14.264  0.0439 -0.4442  0.4273
   30TCq2    H2  469   3.259   4.045  14.004  0.7052  0.6008  0.1694
   30TCq2    H3  470   3.254   4.340  14.298  0.4048 -2.2600  0.8621
   30TCq2    H4  471   2.891   4.247  14.080 -0.6560 -2.7871  0.8008
   31MPD2     C  472   0.881   2.914  15.026  0.0099  0.1913 -0.0802
   31MPD2    C1  473   0.766   2.993  15.011  0.0387 -0.4830 -0.1497
   31MPD2    C2  474   0.653   2.984  15.094 -0.2540  0.1458  0.2352
   31MPD2    C3  475   0.652   2.888  15.194 -0.0343 -0.7561  0.7650
   31MPD2    C4  476   0.760   2.805  15.195  0.1851 -0.5981 -0.4289
   31MPD2    C5  477   0.870   2.817  15.119  0.1065 -1.5960 -0.3617
   31MPD2     H  478   0.566   3.048  15.085 -0.6690 -0.6690 -1.5091
   31MPD2    H1  479   0.759   2.717  15.259 -1.1475 -1.0901 -1.1287
   31MPD2    H2  480   0.966   2.936  14.962  0.5214 -0.7104  0.2869
   31MPD2    H3  481   0.947   2.741  15.129  0.9636 -0.8271 -1.0656
   31MPD2     N  482   0.541   2.867  15.277  0.3402 -0.6561 -0.4736
   31MPD2    H5  483   0.557   2.786  15.336 -0.1196 -0.1529  0.3396
   31MPD2    N1  484   0.769   3.093  14.917 -0.1817  0.5295 -0.6513
   31MPD2    H7  485   0.861   3.110  14.878  0.6556  0.1898  1.1752
   32TCq2    C1  486   0.414   2.917  15.252 -0.3747 -0.4986 -0.4766
   32TCq2    O2  487   0.384   3.016  15.181 -0.1915 -0.2842  0.3049
   32TCq2    C2  488   0.313   2.855  15.344 -0.1655  0.2630 -0.3645
   32TCq2    C3  489   0.193   2.914  15.347  0.2093  0.3580  0.4850
   32TCq2    C4  490   0.101   2.859  15.431 -0.2616 -1.2079  0.6265
   32TCq2    C5  491   0.130   2.744  15.501  0.1610  0.0607  0.2482
   32TCq2    C6  492   0.256   2.680  15.489 -0.2256 -0.3292  0.1271
   32TCq2    C7  493   0.352   2.730  15.405 -0.0296 -0.9280  0.1191
   32TCq2    C8  494   0.309   2.609  15.607  0.7240  0.3762  0.2279
   32TCq2    O4  495   0.402   2.536  15.581 -0.1840  0.0323  0.1238
   32TCq2    C9  496   4.691   2.906  15.429  0.1950 -0.2287 -0.3062
   32TCq2    O5  497   4.596   2.832  15.459 -0.0555  0.1663 -0.2741
   32TCq2    O6  498   4.673   3.033  15.407  0.4014 -0.1232  0.1533
   32TCq2    H2  499   0.166   2.999  15.285 -2.3943  0.6100  1.9670
   32TCq2    H3  500   0.057   2.694  15.564 -2.1900  1.0851 -1.6895
   32TCq2    H4  501   0.435   2.665  15.380  1.7258  0.9742  0.9228
   33MPD2     C  502   0.659   0.354  10.286 -0.2488 -0.2170 -0.4564
   33MPD2    C1  503   0.549   0.269  10.308  0.1032  0.3126 -0.7301
   33MPD2    C2  504   0.426   0.335  10.295  0.2218  0.2311  0.1086
   33MPD2    C3  505   0.411   0.464  10.256  1.0047  0.0864  1.0898
   33MPD2    C4  506   0.516   0.542  10.237 -0.1822 -0.2563  0.3463
   33MPD2    C5  507   0.640   0.486  10.253 -0.0136 -0.3093 -0.7935
   33MPD2     H  508   0.342   0.267  10.304 -2.4743  3.6985  1.0449
   33MPD2    H1  509   0.517   0.643  10.197 -0.5716  1.3938  4.4817
   33MPD2    H2  510   0.755   0.308  10.304 -0.7752 -1.2908 -0.3868
   33MPD2    H3  511   0.729   0.546  10.242  0.1634 -0.1839  1.3274
   33MPD2     N  512   0.281   0.520  10.236 -0.0385  0.2904 -0.8517
   33MPD2    H5  513   0.284   0.610  10.189  0.4862  0.3991 -0.6133
   33MPD2    N1  514   0.561   0.128  10.329  0.4210 -0.1755 -0.2018
   33MPD2    H7  515   0.478   0.088  10.371  0.4213 -0.4304 -0.4458
   34TCq2    C1  516   0.159   0.467  10.256 -0.5210  0.4981 -0.9604
   34TCq2    O2  517   0.125   0.354  10.300  0.1525 -0.2487  0.0117
   34TCq2    C2  518   0.058   0.568  10.220 -0.7426 -0.3621  0.5419
   34TCq2    C3  519   4.653   0.566  10.276 -0.3150 -0.5952  0.4373
   34TCq2    C4  520   4.551   0.647  10.236 -0.0702 -0.9289 -0.6994
   34TCq2    C5  521   4.566   0.732  10.133  0.3877  0.6492  0.3397
   34TCq2    C6  522   4.689   0.731  10.072 -0.5712  0.2501  0.2447
   34TCq2    C7  523   0.069   0.647  10.109  0.6102  0.5103  0.1825
   34TCq2    C8  524   4.715   0.821   9.959  0.5392 -0.3481 -0.2589
   34TCq2    O4  525   4.618   0.860   9.898  0.1330  0.2603  0.7916
   34TCq2    C9  526   4.419   0.629  10.283  0.1977  1.0606  0.6627
   34TCq2    O5  527   4.340   0.725  10.251  0.0100  0.3474  0.0178
   34TCq2    O6  528   4.393   0.550  10.378 -0.3931  0.0628 -0.0192
   34TCq2    H2  529   4.639   0.490  10.353 -0.9854 -0.7772  0.1365
   34TCq2    H3  530   4.487   0.796  10.095 -0.6731 -2.4296 -2.6188
   34TCq2    H4  531   0.161   0.644  10.052 -0.1097 -0.7433 -0.9290
   35MPD2     C  532   2.325   2.320  11.624 -0.2151 -0.6780 -0.2086
   35MPD2    C1  533   2.255   2.221  11.690  0.4893 -0.1079  0.3089
   35MPD2    C2  534   2.155   2.152  11.618 -0.6111 -0.2720 -0.3254
   35MPD2    C3  535   2.115   2.195  11.490 -0.2617 -0.2672  0.4861
   35MPD2    C4  536   2.181   2.301  11.427  0.1319 -0.6812  0.3173
   35MPD2    C5  537   2.291   2.357  11.497 -0.0276 -0.5245  0.2763
   35MPD2     H  538   2.098   2.079  11.673  1.4879 -0.8677  1.0968
   35MPD2    H1  539   2.163   2.341  11.328  1.8906  0.4769  0.4604
   35MPD2    H2  540   2.415   2.362  11.667  0.8328 -2.1022 -1.0072
   35MPD2    H3  541   2.357   2.426  11.446  0.1244 -0.4109  0.6216
   35MPD2     N  542   2.004   2.136  11.441  0.1344  0.3548 -0.3200
   35MPD2    H5  543   1.958   2.064  11.495  2.0488 -2.0852 -1.9214
   35MPD2    N1  544   2.282   2.179  11.825  0.0797  0.2753  0.4623
   35MPD2    H7  545   2.243   2.091  11.858  0.4495  0.5414  1.6057
   36TCq2    C1  546   1.961   2.140  11.310 -0.8784 -0.0955 -0.6837
   36TCq2    O2  547   2.006   2.206  11.212 -0.2839 -0.1638  0.4019
   36TCq2    C2  548   1.860   2.040  11.277 -0.3194  0.2947  0.7585
   36TCq2    C3  549   1.740   2.093  11.260  0.8585 -0.7663  0.1941
   36TCq2    C4  550   1.631   2.036  11.323  0.3142  0.1368 -0.2853
   36TCq2    C5  551   1.643   1.936  11.405 -0.1763  0.2266  0.2967
   36TCq2    C6  552   1.768   1.879  11.421 -0.0588 -0.0813 -0.0553
   36TCq2    C7  553   1.880   1.927  11.357  0.5598 -0.8000  0.3886
   36TCq2    C8  554   1.781   1.755  11.496  0.1355  0.2701  0.4510
   36TCq2    O4  555   1.886   1.690  11.490  0.5553  0.6974 -0.2041
   36TCq2    C9  556   1.503   2.103  11.316  0.3213  0.3241 -0.3858
   36TCq2    O5  557   1.411   2.059  11.391 -0.2910 -0.2386 -0.3721
   36TCq2    O6  558   1.484   2.199  11.239 -0.2852 -0.6001 -0.0736
   36TCq2    H2  559   1.726   2.187  11.207 -3.9680 -0.9725  1.1296
   36TCq2    H3  560   1.554   1.886  11.440  1.3586 -1.5994  1.6406
   36TCq2    H4  561   1.979   1.894  11.385  0.2221 -0.4366  2.0225
   37TMC2    C1  562   4.044   2.496  11.278  0.1171  0.1137 -0.1316
   37TMC2    C2  563   4.057   2.596  11.183  0.5495  0.1006 -0.6745
   37TMC2    C3  564   4.170   2.589  11.105 -0.3471 -0.0520 -0.5365
   37TMC2    C4  565   4.152   2.409  11.297 -0.2778  0.3604 -0.3892
   37TMC2    C5  566   4.266   2.411  11.215  0.5340 -0.0443 -0.1147
   37TMC2    C6  567   4.271   2.501  11.114  0.2357 -0.4102 -0.8541
   37TMC2     C  568   3.942   2.513  11.381 -0.0357 -0.2617  0.4917
   37TMC2     O  569   3.853   2.592  11.363 -0.3657  0.1903 -0.0272
   37TMC2     H  570   3.985   2.674  11.163  1.2391  0.4866 -1.6503
   37TMC2    H1  571   4.154   2.341  11.381 -1.8601 -3.3146 -3.3302
   37TMC2    H2  572   4.364   2.524  11.063  0.3089  0.9637 -0.0999
   37TMC2    C7  573   4.391   2.346  11.265  0.3570  0.2465  0.3613
   37TMC2    C8  574   4.194   2.708  11.020  0.3571 -0.5960  0.6224
   37TMC2    O1  575   4.375   2.272  11.359  0.1660  0.0213 -0.2110
   37TMC2    O2  576   4.185   2.826  11.048 -0.2702  0.0111 -0.3145
   37TMC2    O5  577   4.190   2.654  10.899 -0.1438  0.4317  0.0779
   37TMC2    H5  578   4.186   2.556  10.899  0.1873  0.4133 -0.2685
   38MPD2     C  579   3.713   2.450  11.845 -0.3919  0.2097  0.4250
   38MPD2    C1  580   3.836   2.385  11.853  0.0032 -0.0202  0.8519
   38MPD2    C2  581   3.920   2.383  11.738 -0.2865  0.1772 -0.2608
   38MPD2    C3  582   3.880   2.446  11.615  0.0031  0.3212 -0.3868
   38MPD2    C4  583   3.764   2.522  11.626  0.0279 -0.1074 -0.6200
   38MPD2    C5  584   3.678   2.525  11.732 -0.1606  0.5201  0.3545
   38MPD2     H  585   4.016   2.333  11.742 -0.4877  0.0210  2.6635
   38MPD2    H1  586   3.726   2.576  11.540  0.3825  0.6899 -0.2767
   38MPD2    H2  587   3.651   2.467  11.932  0.0948 -1.6443  1.1259
   38MPD2    H3  588   3.599   2.599  11.734 -0.5961  0.1616 -2.8790
   38MPD2     N  589   3.968   2.443  11.498  0.1122 -0.2362  0.7408
   38MPD2    H5  590   4.040   2.371  11.493  0.7491  0.3981  0.8897
   38MPD2    N1  591   3.880   2.311  11.965  0.1144 -0.3112 -0.0415
   38MPD2    H7  592   3.976   2.279  11.965  0.2257  0.0231  0.4068
   39MPD2     C  593   3.132   3.568   1.315  0.2323  0.2630 -0.2256
   39MPD2    C1  594   3.052   3.622   1.411 -0.1847 -0.4197  0.3636
   39MPD2    C2  595   2.915   3.627   1.389 -0.1786 -0.1515  1.0866
   39MPD2    C3  596   2.861   3.568   1.273  0.0058 -0.3450  0.5235
   39MPD2    C4  597   2.944   3.524   1.170 -0.0998  0.2957  0.0982
   39MPD2    C5  598   3.082   3.526   1.196 -0.0279  0.6050 -0.4262
   39MPD2     H  599   2.852   3.684   1.456  0.6167  1.5545  0.3788
   39MPD2    H1  600   2.906   3.494   1.073  1.9988  0.1491 -0.6947
   39MPD2    H2  601   3.239   3.560   1.325  0.1170 -0.3368  0.5357
   39MPD2    H3  602   3.147   3.484   1.120 -0.6702 -1.0410 -0.0491
   39MPD2     N  603   2.727   3.572   1.241  0.0304 -0.3399  0.2224
   39MPD2    H5  604   2.707   3.508   1.165 -0.2472 -0.5781  0.4989
   39MPD2    N1  605   3.114   3.685   1.523  0.5281  0.1484 -0.0593
   39MPD2    H7  606   3.214   3.679   1.539  0.4328 -0.0059  0.4944
   40TCq2    C1  607   3.064   3.768   1.614 -0.0140 -0.6955  0.4212
   40TCq2    O2  608   2.948   3.805   1.636 -0.1605 -0.0882  0.0480
   40TCq2    C2  609   3.173   3.818   1.707 -0.0375 -0.0513 -0.2358
   40TCq2    C3  610   3.154   3.818   1.839 -0.4217  0.7260 -0.0173
   40TCq2    C4  611   3.245   3.867   1.922 -0.6660 -0.6891 -0.4102
   40TCq2    C5  612   3.363   3.918   1.877  0.4784 -0.1661 -0.5917
   40TCq2    C6  613   3.374   3.915   1.741  0.6024 -0.6883  0.2591
   40TCq2    C7  614   3.282   3.866   1.653  0.3827  0.4304 -0.8956
   40TCq2    C8  615   3.497   3.966   1.682 -0.1048 -0.3151 -0.1386
   40TCq2    O4  616   3.552   3.893   1.602  0.3965  0.1283 -0.0667
   40TCq2    C9  617   3.212   3.873   2.063  0.7413  0.5060 -0.2498
   40TCq2    O5  618   3.096   3.838   2.091 -0.1455  0.1165  0.1424
   40TCq2    O6  619   3.308   3.897   2.140 -0.4779 -0.3001  0.2459
   40TCq2    H2  620   3.068   3.768   1.881 -0.4330 -0.2661 -1.2086
   40TCq2    H3  621   3.439   3.964   1.940  1.3878 -3.0006  0.3932
   40TCq2    H4  622   3.310   3.863   1.548  0.1114 -1.1757 -0.9121
   41TMC2    C1  623   0.764   2.242  13.525 -0.3994 -0.0303 -0.2328
   41TMC2    C2  624   0.683   2.251  13.631  0.0796 -1.3692 -0.4448
   41TMC2    C3  625   0.555   2.297  13.609 -0.2577  0.1288 -0.4071
   41TMC2    C4  626   0.732   2.309  13.412  0.2065 -0.1585 -0.3445
   41TMC2    C5  627   0.601   2.340  13.389 -0.4055 -0.2918 -0.1155
   41TMC2    C6  628   0.506   2.333  13.488  0.3154 -0.0529  0.0048
   41TMC2     C  629   0.876   2.156  13.512  0.6069 -0.1122  0.0352
   41TMC2     O  630   0.916   2.123  13.403 -0.7473  0.1903  0.2374
   41TMC2     H  631   0.711   2.194  13.718  0.7142  0.2475  0.3941
   41TMC2    H1  632   0.806   2.319  13.333  0.3079  0.2765 -0.1942
   41TMC2    H2  633   0.402   2.361  13.474  0.8375  0.6255 -2.5032
   41TMC2    C7  634   0.553   2.314  13.253 -0.9681 -0.0778 -0.0918
   41TMC2    C8  635   0.448   2.247  13.687  0.8651  0.7260  0.4143
   41TMC2    O1  636   0.437   2.336  13.221 -0.2118 -0.4178  0.1110
   41TMC2    O2  637   0.341   2.202  13.646  0.2442 -0.2107  0.7792
   41TMC2    O5  638   0.495   2.222  13.809 -0.4458  0.6159 -0.1811
   41TMC2    H5  639   0.561   2.291  13.830  1.9865 -1.1106 -2.1881
   42MPD2     C  640   1.143   2.024  13.567 -0.1050  0.0310  0.0586
   42MPD2    C1  641   1.067   2.092  13.656  0.0068  0.0888 -0.3429
   42MPD2    C2  642   1.138   2.128  13.769  0.1568 -0.2513  0.1717
   42MPD2    C3  643   1.267   2.086  13.800  0.1187 -0.6444 -0.1129
   42MPD2    C4  644   1.336   2.011  13.710  0.9928 -0.4323  0.4637
   42MPD2    C5  645   1.276   1.994  13.588 -0.3615 -0.4119 -0.7895
   42MPD2     H  646   1.084   2.183  13.846  0.5421  0.9549 -0.4073
   42MPD2    H1  647   1.436   1.975  13.730  0.9635 -0.6038  0.3013
   42MPD2    H2  648   1.099   1.984  13.476 -1.4281 -0.3588  0.8624
   42MPD2    H3  649   1.321   1.929  13.513 -0.7139 -0.3226 -1.0799
   42MPD2     N  650   1.338   2.129  13.911 -0.0010 -0.5820  0.0482
   42MPD2    H5  651   1.419   2.077  13.941 -0.2250 -0.0310  1.6378
   42MPD2    N1  652   0.936   2.139  13.639 -0.2289 -0.4080  0.1944
   42MPD2    H7  653   0.898   2.193  13.716 -0.7493 -2.4292  1.3662
   43MPD2     C  654   2.938   0.035   0.468 -0.2991 -0.6380  0.1617
   43MPD2    C1  655   3.008   0.061   0.588  0.0272  1.0329  0.3614
   43MPD2    C2  656   2.936   0.112   0.696 -0.5472  0.3967 -0.4233
   43MPD2    C3  657   2.807   0.155   0.679 -0.1632  0.9105 -0.4666
   43MPD2    C4  658   2.739   0.120   0.570 -0.5449 -1.2596 -0.4952
   43MPD2    C5  659   2.804   0.055   0.466  0.1329 -0.2342  0.1384
   43MPD2     H  660   2.986   0.121   0.792 -1.6556 -1.0234  0.2822
   43MPD2    H1  661   2.633   0.143   0.565 -0.4293 -0.9057 -1.4535
   43MPD2    H2  662   2.984   0.000   0.376  2.0117  2.3234  0.1934
   43MPD2    H3  663   2.752   0.029   0.375  1.1038  0.2097 -0.5479
   43MPD2     N  664   2.741   0.230   0.776  0.0679 -0.0396  0.0091
   43MPD2    H5  665   2.645   0.249   0.751 -0.4490 -0.7569  1.4402
   43MPD2    N1  666   3.143   0.033   0.619  0.2934  0.0614  0.0405
   43MPD2    H7  667   3.173   0.048   0.715 -1.6585 -3.8732  1.2601
   44TCq2    C1  668   2.763   0.589   1.248 -0.1667 -0.6469  0.1083
   44TCq2    O2  669   2.743   0.708   1.220  0.1495  0.7846  0.3343
   44TCq2    C2  670   2.683   0.489   1.166  0.7362 -0.2584 -0.2872
   44TCq2    C3  671   2.556   0.521   1.133  0.1891 -0.2497 -0.3836
   44TCq2    C4  672   2.506   0.472   1.013  0.5377  0.2141 -0.2395
   44TCq2    C5  673   2.580   0.383   0.934  0.7872  0.0341  0.4832
   44TCq2    C6  674   2.708   0.358   0.978 -0.4120 -0.0511 -0.1102
   44TCq2    C7  675   2.760   0.414   1.092 -0.2482  0.1775  0.1733
   44TCq2    C8  676   2.791   0.267   0.900  0.1000  0.9003  0.4992
   44TCq2    O4  677   2.893   0.235   0.956 -0.1389  0.6215  0.2847
   44TCq2    C9  678   2.390   0.531   0.963  0.4399  0.2898  0.4422
   44TCq2    O5  679   2.358   0.499   0.847 -0.4061 -0.3768  0.6359
   44TCq2    O6  680   2.341   0.628   1.023  0.2813  0.0361  0.3747
   44TCq2    H2  681   2.492   0.576   1.201  0.8365  0.0865 -0.0528
   44TCq2    H3  682   2.536   0.362   0.837  0.6974 -0.0550  0.5433
   44TCq2    H4  683   2.861   0.385   1.118  0.7786  1.1525 -2.7027
   45TMC2    C1  684   3.605   3.331   9.159 -0.4219  0.3489 -0.3587
   45TMC2    C2  685   3.572   3.325   9.024  0.0325  0.7324 -0.1621
   45TMC2    C3  686   3.593   3.436   8.947  0.1494 -0.5125 -0.4156
   45TMC2    C4  687   3.654   3.444   9.217 -0.4327  0.0971 -0.0866
   45TMC2    C5  688   3.670   3.553   9.134  0.0935  0.0829  0.4316
   45TMC2    C6  689   3.640   3.551   9.001 -0.1504 -0.1174  1.5015
   45TMC2     C  690   3.576   3.216   9.245 -0.6085  0.1495  0.0711
   45TMC2     O  691   3.632   3.206   9.353 -0.1465 -0.1619 -0.5745
   45TMC2     H  692   3.562   3.232   8.969  1.2219 -0.4279  1.5887
   45TMC2    H1  693   3.692   3.433   9.318 -2.0087  1.1870  0.6314
   45TMC2    H2  694   3.663   3.641   8.945  0.1184 -0.3630  1.2114
   45TMC2    C7  695   3.758   3.663   9.185  0.7518 -0.3868  0.5369
   45TMC2    C8  696   3.606   3.423   8.804  0.0151  0.2187 -0.2669
   45TMC2    O1  697   3.826   3.723   9.100 -0.2499 -0.2854  0.3517
   45TMC2    O2  698   3.684   3.484   8.734  0.5903 -0.1766 -0.5555
   45TMC2    O5  699   3.518   3.321   8.765 -0.8360 -0.6731 -0.5558
   45TMC2    H5  700   3.461   3.314   8.844  0.8950  0.6095  0.8097
   46MPD2     C  701   3.514   2.937   9.327  0.2897 -0.3812  0.2448
   46MPD2    C1  702   3.448   3.004   9.222 -0.4725 -0.2454 -0.6876
   46MPD2    C2  703   3.351   2.946   9.144  0.2067  0.1730  0.3630
   46MPD2    C3  704   3.306   2.812   9.168 -0.4833  0.4552 -0.0075
   46MPD2    C4  705   3.387   2.745   9.257  0.3540 -0.1161  0.6698
   46MPD2    C5  706   3.488   2.802   9.330 -0.1480 -0.5240 -0.6325
   46MPD2     H  707   3.301   3.004   9.068  0.8594  0.5111  0.1916
   46MPD2    H1  708   3.370   2.641   9.282 -0.2790 -0.4288 -1.0821
   46MPD2    H2  709   3.602   2.972   9.379 -0.3496  1.6005  0.0097
   46MPD2    H3  710   3.550   2.744   9.397  1.1233  1.3872 -0.1550
   46MPD2     N  711   3.195   2.756   9.100  0.3845 -0.7206  0.4742
   46MPD2    H5  712   3.159   2.812   9.024  0.8431 -0.7709  0.2190
   46MPD2    N1  713   3.485   3.128   9.180  0.0904 -0.0999 -0.4625
   46MPD2    H7  714   3.438   3.152   9.094  0.2740 -0.8563 -0.7773
   47TMC2    C1  715   0.859   3.114   9.102 -0.0513 -0.0916  0.2994
   47TMC2    C2  716   0.873   3.032   8.992  0.4001  0.2261 -0.7337
   47TMC2    C3  717   0.861   3.095   8.867 -0.7985  0.0277  0.0444
   47TMC2    C4  718   0.812   3.242   9.088 -0.8223  0.7777 -0.2750
   47TMC2    C5  719   0.784   3.297   8.966  0.1453  0.3516  0.3079
   47TMC2    C6  720   0.827   3.227   8.850 -0.8016  0.7856 -0.0807
   47TMC2     C  721   0.899   3.071   9.240  0.0536  0.0376 -0.2793
   47TMC2     O  722   0.932   3.164   9.320 -0.1153  0.4243 -0.0325
   47TMC2     H  723   0.918   2.933   9.000 -1.1923 -0.4855 -0.5722
   47TMC2    H1  724   0.791   3.307   9.172 -1.5942  1.1536 -0.7561
   47TMC2    H2  725   0.804   3.255   8.748 -1.6743 -0.4249 -0.2213
   47TMC2    C7  726   0.692   3.413   8.959 -0.1589 -0.1272 -0.7190
   47TMC2    C8  727   0.930   3.040   8.752 -0.1208  0.4088 -0.2520
   47TMC2    O1  728   0.641   3.463   9.059  0.1606  0.5479 -0.3291
   47TMC2    O2  729   1.049   3.058   8.735 -0.4705 -0.7705 -0.0830
   47TMC2    O5  730   0.879   2.921   8.741  0.2135 -0.5885  0.0433
   47TMC2    H5  731   0.789   2.918   8.778 -0.0186 -1.3801 -0.5915
   48MPD2     C  732   0.987   2.903   9.476 -0.5233 -0.5068 -0.6925
   48MPD2    C1  733   0.986   2.865   9.341 -0.6984  0.6255 -0.1745
   48MPD2    C2  734   1.020   2.730   9.303  0.5591 -0.4850 -0.1230
   48MPD2    C3  735   1.060   2.642   9.399  0.3663 -0.0393  0.5239
   48MPD2    C4  736   1.041   2.676   9.532 -0.4622  0.0860 -0.0131
   48MPD2    C5  737   1.000   2.802   9.568  0.2872  0.0063  0.4535
   48MPD2     H  738   1.024   2.711   9.196  1.2668  0.0291 -0.1862
   48MPD2    H1  739   1.033   2.602   9.611  0.7740 -0.4448 -0.3808
   48MPD2    H2  740   0.958   3.001   9.510  0.1493 -0.9574  1.2054
   48MPD2    H3  741   0.980   2.825   9.672 -0.1791 -1.7442  0.7605
   48MPD2     N  742   1.119   2.512   9.357 -0.2895 -0.4239  0.2185
   48MPD2    H5  743   1.105   2.474   9.264 -0.9381  0.8739 -0.2122
   48MPD2    N1  744   0.942   2.943   9.235  0.7565  0.3410  0.5471
   48MPD2    H7  745   0.931   2.891   9.149  1.0710 -0.3335  0.9177
   49MPD2     C  746   3.613   0.340  10.047  0.3386  0.5382  0.2280
   49MPD2    C1  747   3.728   0.393   9.991 -0.5519  0.0542 -0.1066
   49MPD2    C2  748   3.742   0.528   9.991 -0.5580  0.8289  0.7522
   49MPD2    C3  749   3.642   0.614  10.035 -0.5106  0.4543  0.5483
   49MPD2    C4  750   3.518   0.558  10.072 -0.2683  0.0801  0.4967
   49MPD2    C5  751   3.510   0.420  10.074  0.4968  0.2510 -0.1821
   49MPD2     H  752   3.838   0.576   9.974 -0.7369  1.4375  1.4372
   49MPD2    H1  753   3.436   0.621  10.106  1.5079  1.1167  2.8498
   49MPD2    H2  754   3.601   0.233  10.057 -2.4304  0.6687 -1.6854
   49MPD2    H3  755   3.420   0.369  10.105  1.9813 -1.7891  0.7854
   49MPD2     N  756   3.658   0.755  10.050  0.4266 -0.6417 -0.3437
   49MPD2    H5  757   3.582   0.805  10.095  0.9922  1.3992 -1.6703
   49MPD2    N1  758   3.830   0.310   9.930 -0.1600  0.1200  0.0505
   49MPD2    H7  759   3.901   0.343   9.865  2.5502 -1.7601  2.0319
   50TCq2    C1  760   3.854   0.180   9.965 -0.0323 -0.0490 -0.4129
   50TCq2    O2  761   3.825   0.120  10.070 -0.1272  0.0251  0.0150
   50TCq2    C2  762   3.957   0.126   9.877 -0.0183  0.1791 -0.2241
   50TCq2    C3  763   3.989   0.192   9.764 -0.7357  0.2883 -0.1638
   50TCq2    C4  764   4.097   0.147   9.696 -0.0780  0.5340  0.2735
   50TCq2    C5  765   4.182   0.052   9.750 -0.1305 -0.4518  0.3732
   50TCq2    C6  766   4.154   0.002   9.873  0.6371 -0.9398 -0.4725
   50TCq2    C7  767   4.036   0.022   9.920  0.3298 -1.0235 -0.5360
   50TCq2    C8  768   4.241   4.629   9.934 -0.0249 -0.4565  0.6392
   50TCq2    O4  769   4.213   4.577  10.038  0.3653 -0.5364  0.7249
   50TCq2    C9  770   4.119   0.196   9.560 -0.0327 -0.2907 -0.1556
   50TCq2    O5  771   4.028   0.261   9.507  0.0143 -0.5445  0.1006
   50TCq2    O6  772   4.230   0.173   9.505  0.8902  0.0187 -0.2273
   50TCq2    H2  773   3.921   0.265   9.720  0.0160  0.7917 -0.4992
   50TCq2    H3  774   4.266   0.013   9.695 -0.1402 -0.0275  0.0539
   50TCq2    H4  775   4.008   4.692  10.010  2.8133  0.3820  1.0555
   51MPD2     C  776   3.833   3.730   0.401 -0.1460  0.3669  0.2045
   51MPD2    C1  777   3.967   3.692   0.420 -0.2708 -0.3383 -0.4609
   51MPD2    C2  778   4.062   3.790   0.436  0.1916  0.1738 -0.8567
   51MPD2    C3  779   4.026   3.924   0.440  0.9546 -0.3761 -0.2602
   51MPD2    C4  780   3.896   3.959   0.411  0.4126 -0.6252  0.1566
   51MPD2    C5  781   3.800   3.861   0.396 -0.1438  0.3883 -0.4790
   51MPD2     H  782   4.167   3.772   0.453  0.5483 -0.3117 -3.5906
   51MPD2    H1  783   3.868   4.063   0.401  0.5204 -0.7419 -1.4191
   51MPD2    H2  784   3.765   3.651   0.371 -3.9414  3.7102 -0.0079
   51MPD2    H3  785   3.699   3.893   0.374  0.4497  2.3637 -0.3270
   51MPD2     N  786   4.120   4.028   0.473 -0.5331 -0.0203  0.3219
   51MPD2    H5  787   4.093   4.126   0.482 -0.1418  0.0634  0.5536
   51MPD2    N1  788   3.994   3.554   0.430 -0.3570  0.6813 -0.4911
   51MPD2    H7  789   3.919   3.490   0.403  0.7596 -0.7387 -0.2536
   52TCq2    C1  790   4.243   4.003   0.529 -0.7285  0.3843 -0.0070
   52TCq2    O2  791   4.317   3.904   0.542 -0.1001 -0.1733 -0.1291
   52TCq2    C2  792   4.306   4.127   0.563  0.0297  0.7255 -0.8916
   52TCq2    C3  793   4.264   4.247   0.506 -0.0856 -0.3919  0.0389
   52TCq2    C4  794   4.343   4.359   0.531  0.3512  0.0622  0.0997
   52TCq2    C5  795   4.447   4.348   0.621 -0.9504  0.5665 -0.2770
   52TCq2    C6  796   4.490   4.231   0.668 -0.1519  0.3583 -0.5105
   52TCq2    C7  797   4.421   4.115   0.637 -0.2230 -0.3721 -0.0393
   52TCq2    C8  798   4.616   4.225   0.743 -0.6630  0.2752  0.4513
   52TCq2    O4  799   4.694   4.319   0.739  0.5822 -0.8139  0.4496
   52TCq2    C9  800   4.317   4.488   0.471 -0.0207  0.0869  0.4137
   52TCq2    O5  801   4.379   4.587   0.523  0.2490 -0.5920 -0.0624
   52TCq2    O6  802   4.230   4.491   0.381  0.8179  0.5109 -0.2731
   52TCq2    H2  803   4.189   4.257   0.428  0.3627  0.6418 -0.2631
   52TCq2    H3  804   4.487   4.443   0.655 -0.3602  0.0566  0.4565
   52TCq2    H4  805   4.458   4.019   0.670 -2.6338 -0.8044  1.4254
   53TMC2    C1  806   0.276   2.255  11.678  0.0333  0.2910 -0.0577
   53TMC2    C2  807   0.398   2.197  11.725  0.8738  0.1192 -0.2653
   53TMC2    C3  808   0.435   2.215  11.856  0.7240 -0.0164  0.1337
   53TMC2    C4  809   0.196   2.331  11.755  0.5409 -0.2114  0.0781
   53TMC2    C5  810   0.243   2.364  11.878  0.3644 -0.3359 -0.0849
   53TMC2    C6  811   0.364   2.313  11.922 -0.0089  0.7892 -0.0136
   53TMC2     C  812   0.260   2.255  11.531 -0.0965 -0.7396  0.3020
   53TMC2     O  813   0.358   2.216  11.468  0.9638  0.0402  0.8744
   53TMC2     H  814   0.454   2.130  11.661  1.4991  0.0248  0.3768
   53TMC2    H1  815   0.108   2.375  11.708 -1.2522 -1.6833  2.0478
   53TMC2    H2  816   0.409   2.347  12.015 -0.7754 -0.1282  0.6866
   53TMC2    C7  817   0.148   2.436  11.967  0.1421 -0.0768 -0.2151
   53TMC2    C8  818   0.564   2.175  11.909  0.2142 -0.9894 -0.2171
   53TMC2    O1  819   0.057   2.480  11.901 -0.9737 -0.6827  0.1354
   53TMC2    O2  820   0.637   2.246  11.983 -0.4172 -0.6139 -0.0815
   53TMC2    O5  821   0.616   2.063  11.847  0.0724 -0.2691 -0.0456
   53TMC2    H5  822   0.562   2.000  11.795  1.6651 -0.9916 -0.8239
   54MPD2     C  823   0.177   2.284  11.241  0.8759  0.2459 -0.1806
   54MPD2    C1  824   0.095   2.282  11.350  0.4497  0.0259  0.0655
   54MPD2    C2  825   4.681   2.296  11.329 -0.1876  0.3635  0.2923
   54MPD2    C3  826   4.636   2.322  11.200  0.1616  0.9722 -0.4890
   54MPD2    C4  827   4.721   2.340  11.093  0.1807 -0.3040 -0.1026
   54MPD2    C5  828   0.127   2.316  11.117 -0.3872 -0.1475  0.5249
   54MPD2     H  829   4.612   2.298  11.412 -0.7505  1.4067 -0.1964
   54MPD2    H1  830   4.686   2.364  10.994  1.5921 -1.1940 -0.8083
   54MPD2    H2  831   0.285   2.273  11.250  0.8100  1.2625  2.0046
   54MPD2    H3  832   0.202   2.318  11.039 -0.2794 -0.0467  0.6316
   54MPD2     N  833   4.499   2.355  11.179 -0.5068 -0.4313  0.3353
   54MPD2    H5  834   4.480   2.393  11.086  2.3002  1.6939  0.5950
   54MPD2    N1  835   0.129   2.270  11.485 -0.4412 -0.3433  0.4853
   54MPD2    H7  836   0.060   2.288  11.558 -1.1095  1.4022 -0.5740
   55MPD2     C  837   1.238   4.201  17.587 -0.2498  0.1222 -0.0645
   55MPD2    C1  838   1.148   4.123  17.654  0.2516 -0.4878 -0.4690
   55MPD2    C2  839   1.048   4.189   0.033  0.0385  0.2265  0.0279
   55MPD2    C3  840   1.025   4.323   0.023 -0.0458  0.2606 -0.7316
   55MPD2    C4  841   1.116   4.398  17.645 -0.0877  0.3663 -0.3546
   55MPD2    C5  842   1.223   4.335  17.581  0.2603  0.1502  1.0089
   55MPD2     H  843   0.988   4.126   0.098 -0.6550  1.0492  0.1821
   55MPD2    H1  844   1.103   4.505  17.634  0.7429  0.5726  0.7220
   55MPD2    H2  845   1.314   4.157  17.523 -0.2239 -1.0260  0.7529
   55MPD2    H3  846   1.305   4.387  17.533 -0.7159 -0.0006 -0.8275
   55MPD2     N  847   0.921   4.385   0.097  0.5117  0.6093 -0.3497
   55MPD2    H5  848   0.867   4.318   0.151  2.3437  0.2261  1.0048
   55MPD2    N1  849   1.165   3.983  17.644 -0.7972  0.7558  0.1015
   55MPD2    H7  850   1.236   3.957  17.576  0.4538  0.7401  1.4215
   56TCq2    C1  851   1.095   3.898   0.030 -0.1361 -0.0692  0.9674
   56TCq2    O2  852   1.042   3.917   0.133 -0.1825  0.4059  0.2038
   56TCq2    C2  853   1.128   3.757  17.691  0.3439  0.3415  0.3263
   56TCq2    C3  854   1.174   3.730  17.568 -0.1663  0.7839 -0.0952
   56TCq2    C4  855   1.192   3.598  17.535  0.1565  0.0373  0.2943
   56TCq2    C5  856   1.133   3.496  17.608 -0.1407 -0.2709 -0.7267
   56TCq2    C6  857   1.079   3.530   0.034 -0.5933 -0.2933 -0.7963
   56TCq2    C7  858   1.074   3.658   0.076  0.1100 -0.5943 -0.3148
   56TCq2    C8  859   1.003   3.423   0.097  0.0796 -0.1135  0.7945
   56TCq2    O4  860   1.021   3.314   0.049 -0.1891 -0.0437  0.0431
   56TCq2    C9  861   1.264   3.568  17.413 -0.1714  0.0718  0.1010
   56TCq2    O5  862   1.330   3.662  17.364 -0.7851 -0.7919 -0.3499
   56TCq2    O6  863   1.240   3.453  17.362  0.2334 -0.3170 -0.1528
   56TCq2    H2  864   1.199   3.804  17.493 -1.4091  0.3532 -0.9299
   56TCq2    H3  865   1.144   3.393  17.575 -0.4697 -0.9517  1.3233
   56TCq2    H4  866   1.028   3.685   0.170  0.4649 -2.2943  0.3568
   57TMC2    C1  867   0.286   1.188  13.533  0.3568  0.3407  0.4590
   57TMC2    C2  868   0.419   1.145  13.567  0.3603  0.7907  0.4465
   57TMC2    C3  869   0.529   1.161  13.486 -0.7957 -0.4567  1.0628
   57TMC2    C4  870   0.266   1.244  13.414  0.3467 -0.9118 -0.1558
   57TMC2    C5  871   0.380   1.257  13.334 -0.0103  0.2516  0.1979
   57TMC2    C6  872   0.502   1.211  13.360 -0.0957  0.1431 -0.4158
   57TMC2     C  873   0.169   1.160  13.617 -0.2538  0.2495  0.1356
   57TMC2     O  874   0.171   1.179  13.737 -0.0432  0.0924  0.2739
   57TMC2     H  875   0.425   1.085  13.658  0.1931  0.4526  0.2338
   57TMC2    H1  876   0.167   1.283  13.391  1.3530 -0.4713 -3.8152
   57TMC2    H2  877   0.580   1.243  13.292  1.1178 -0.4818  0.6834
   57TMC2    C7  878   0.348   1.264  13.194  0.0390  0.2062  0.4917
   57TMC2    C8  879   0.645   1.070  13.493  0.5350  1.0650 -0.0201
   57TMC2    O1  880   0.255   1.331  13.158  0.0952 -0.1613  0.1171
   57TMC2    O2  881   0.645   0.996  13.592  0.1255 -0.0776 -0.0291
   57TMC2    O5  882   0.657   1.035  13.367  0.2812  0.4240 -0.0862
   57TMC2    H5  883   0.699   0.946  13.364  0.5512  0.5102  1.0135
   58MPD2     C  884   4.377   1.083  13.633  0.2769 -0.0947 -0.6605
   58MPD2    C1  885   4.467   1.123  13.731 -0.5588  0.2453 -0.6298
   58MPD2    C2  886   4.601   1.129  13.702 -0.8159 -0.1506  0.7845
   58MPD2    C3  887   4.648   1.105  13.574 -0.2556 -0.4875  0.1372
   58MPD2    C4  888   4.559   1.068  13.477  0.6308 -0.2064  0.3885
   58MPD2    C5  889   4.421   1.059  13.508 -0.6840  0.2039 -0.4938
   58MPD2     H  890   4.672   1.152  13.782 -1.9961  2.2382  1.1367
   58MPD2    H1  891   4.582   1.041  13.374  0.2617  1.3495 -0.0936
   58MPD2    H2  892   4.270   1.077  13.648  0.4993  1.1913  1.4769
   58MPD2    H3  893   4.349   1.041  13.430 -0.5714 -1.0451 -0.3006
   58MPD2     N  894   0.061   1.116  13.540 -0.3654  0.2373 -0.0183
   58MPD2    H5  895   0.086   1.096  13.444  0.4850 -0.7923  0.4169
   58MPD2    N1  896   4.425   1.158  13.861 -0.1647  0.0675  0.6763
   58MPD2    H7  897   4.499   1.202  13.916 -0.3608  1.0854  0.1218
   59MPD2     C  898   2.277   1.187  13.087  0.6524  0.3207 -0.5690
   59MPD2    C1  899   2.364   1.226  12.988  0.1671 -0.0153  0.1374
   59MPD2    C2  900   2.477   1.299  13.020 -0.3542 -0.0437 -0.0240
   59MPD2    C3  901   2.503   1.334  13.151 -0.0281  0.2877 -0.1092
   59MPD2    C4  902   2.408   1.291  13.248  0.4494  0.2300  0.3315
   59MPD2    C5  903   2.295   1.223  13.223 -0.2882  0.3019 -0.4183
   59MPD2     H  904   2.538   1.333  12.937 -1.4941  1.3074 -0.3081
   59MPD2    H1  905   2.407   1.326  13.351 -0.3014  0.8296  0.1204
   59MPD2    H2  906   2.186   1.130  13.075  0.5612  0.0479  1.4623
   59MPD2    H3  907   2.218   1.192  13.292  0.7866  0.3461  0.7942
   59MPD2     N  908   2.618   1.408  13.198  0.5671 -0.3347  0.2410
   59MPD2    H5  909   2.620   1.436  13.296 -1.1766  0.1756  0.1286
   59MPD2    N1  910   2.349   1.168  12.854 -0.1159  0.0328 -0.3105
   59MPD2    H7  911   2.271   1.104  12.846 -0.1509 -0.1555  1.6445
   60TCq2    C1  912   2.429   1.183  12.739 -0.1206  1.0016 -0.5429
   60TCq2    O2  913   2.529   1.252  12.727 -0.6023 -0.4352 -0.8919
   60TCq2    C2  914   2.370   1.131  12.616 -0.0068 -0.0314  0.0932
   60TCq2    C3  915   2.286   1.021  12.621  0.0495 -0.0472 -0.8260
   60TCq2    C4  916   2.233   0.975  12.504  0.8092  0.0617  0.7968
   60TCq2    C5  917   2.263   1.035  12.386  0.3992 -0.4316 -0.3032
   60TCq2    C6  918   2.346   1.146  12.386  0.4752 -0.1557  0.2855
   60TCq2    C7  919   2.401   1.195  12.501 -0.5256  0.0655  0.0890
   60TCq2    C8  920   2.402   1.207  12.257 -0.6300 -0.3518 -0.4152
   60TCq2    O4  921   2.432   1.136  12.164 -0.5199 -0.1587 -0.0239
   60TCq2    C9  922   2.147   0.861  12.503 -0.1889  0.0285 -0.2793
   60TCq2    O5  923   2.094   0.830  12.617  0.1611  0.7098 -0.2991
   60TCq2    O6  924   2.120   0.798  12.392  0.3816  0.2115  0.0499
   60TCq2    H2  925   2.266   0.970  12.715  2.3960  2.7639  1.1891
   60TCq2    H3  926   2.236   0.981  12.295 -0.0803  0.7014 -0.8325
   60TCq2    H4  927   2.469   1.280  12.501 -1.2529  0.6353 -1.3040
   61MPD2     C  928   2.089   2.430  15.079 -0.3028  0.4721 -0.7077
   61MPD2    C1  929   2.111   2.570  15.087 -0.0070 -0.8878  0.0654
   61MPD2    C2  930   2.186   2.630  14.986  0.3532  0.1406 -0.6877
   61MPD2    C3  931   2.221   2.566  14.867  0.2458 -0.3027 -0.1026
   61MPD2    C4  932   2.188   2.430  14.855 -0.2720  1.0081 -0.1599
   61MPD2    C5  933   2.126   2.367  14.966  0.0108 -0.1570  0.3430
   61MPD2     H  934   2.206   2.736  14.981  0.3367  0.1206 -1.2289
   61MPD2    H1  935   2.206   2.381  14.760  0.2963  0.8872  0.0087
   61MPD2    H2  936   2.051   2.374  15.164  1.4198  1.0094  0.4254
   61MPD2    H3  937   2.090   2.268  14.941  0.7171 -0.0441 -1.0886
   61MPD2     N  938   2.269   2.636  14.756 -0.1526 -0.1806 -0.5457
   61MPD2    H5  939   2.272   2.597  14.662 -1.9856  0.0019 -0.6872
   61MPD2    N1  940   2.051   2.656  15.181  0.6586 -0.5743 -0.2222
   61MPD2    H7  941   2.075   2.754  15.165 -1.0619 -0.1173 -0.0709
   62TCq2    C1  942   1.974   2.626  15.292  1.2248  0.3270 -0.0188
   62TCq2    O2  943   1.945   2.519  15.343 -0.0771 -0.1789  0.0420
   62TCq2    C2  944   1.920   2.746  15.353 -0.1494 -0.1416 -0.0796
   62TCq2    C3  945   1.865   2.739  15.482 -0.2402 -0.2708 -0.1695
   62TCq2    C4  946   1.813   2.848  15.548  0.5197  0.4680 -0.4192
   62TCq2    C5  947   1.825   2.974  15.494 -1.0196 -0.1310 -0.2447
   62TCq2    C6  948   1.883   2.980  15.370  0.3864 -0.1944  0.2679
   62TCq2    C7  949   1.924   2.871  15.294 -0.2324  0.8274  0.1536
   62TCq2    C8  950   1.867   3.102  15.290 -0.0344  0.0488 -0.7887
   62TCq2    O4  951   1.919   3.203  15.329 -0.0495  0.2323  0.2985
   62TCq2    C9  952   1.746   2.837  15.674 -0.1901 -0.1354 -0.1013
   62TCq2    O5  953   1.772   2.738  15.744 -1.1043 -0.4967 -0.5635
   62TCq2    O6  954   1.706   2.945  15.723  0.2431  0.8058 -0.1083
   62TCq2    H2  955   1.866   2.640  15.526  0.2635  0.8858  2.4291
   62TCq2    H3  956   1.770   3.059  15.535  0.9529  0.7296  0.6334
   62TCq2    H4  957   1.947   2.882  15.189  1.5269 -2.0555  0.2311
   63TMC2    C1  958   0.411   3.240  10.305  0.5507  0.4078  0.0161
   63TMC2    C2  959   0.317   3.331  10.286  1.0643  0.1894 -0.9847
   63TMC2    C3  960   0.319   3.419  10.185 -0.1301 -0.1307 -0.3389
   63TMC2    C4  961   0.523   3.241  10.229 -0.2388 -0.0919  0.1688
   63TMC2    C5  962   0.523   3.336  10.127 -0.6108  0.2871  0.3063
   63TMC2    C6  963   0.416   3.420  10.094  0.0969  0.5368  0.0449
   63TMC2     C  964   0.369   3.110  10.361  0.6917  0.1210 -0.3580
   63TMC2     O  965   0.267   3.100  10.429 -0.1214  0.2173 -0.1482
   63TMC2     H  966   0.234   3.317  10.354  1.8284  0.4749  0.0097
   63TMC2    H1  967   0.614   3.187  10.252 -0.0277  0.9939  1.8787
   63TMC2    H2  968   0.417   3.487  10.009 -3.9802  0.2365 -0.2199
   63TMC2    C7  969   0.631   3.310  10.028  0.2922 -0.8371 -0.1135
   63TMC2    C8  970   0.201   3.475  10.131 -0.2960 -0.0882  0.1131
   63TMC2    O1  971   0.679   3.197  10.024  0.0178  0.2499 -0.1162
   63TMC2    O2  972   0.193   3.581  10.074 -0.0505  0.6616  0.5595
   63TMC2    O5  973   0.103   3.381  10.120  0.5990  0.0081 -0.0058
   63TMC2    H5  974   0.148   3.297  10.143 -0.0065 -0.0875  0.7972
   64MPD2     C  975   0.482   2.621  10.501  1.1639 -0.4111 -0.0003
   64MPD2    C1  976   0.567   2.655  10.398  0.3096  0.1898  0.3583
   64MPD2    C2  977   0.554   2.781  10.343  0.4759 -0.9283 -0.3644
   64MPD2    C3  978   0.459   2.876  10.386  0.2317  0.2753  0.5566
   64MPD2    C4  979   0.375   2.838  10.491  0.3248 -0.4348  0.2986
   64MPD2    C5  980   0.400   2.721  10.550 -0.2002 -0.0763  0.2621
   64MPD2     H  981   0.626   2.816  10.270 -0.3864  1.0813 -0.2595
   64MPD2    H1  982   0.304   2.900  10.545  1.6747  1.0704  0.3165
   64MPD2    H2  983   0.479   2.521  10.543  2.0172 -0.4297  0.0043
   64MPD2    H3  984   0.342   2.703  10.640  0.0095  1.1673  0.6498
   64MPD2     N  985   0.452   3.005  10.325  0.2400 -0.1592 -0.3497
   64MPD2    H5  986   0.514   3.019  10.246  2.6382  0.2251  1.6255
   64MPD2    N1  987   0.667   2.569  10.352 -0.2375 -0.1761  0.8472
   64MPD2    H7  988   0.655   2.470  10.371  0.6927 -0.0761  1.9894
   65MPD2     C  989   2.016   1.874  15.571  0.4819  0.1010 -0.2792
   65MPD2    C1  990   2.145   1.868  15.510  0.5353  0.1888 -0.5342
   65MPD2    C2  991   2.198   1.736  15.494  0.6887 -0.0836  0.7245
   65MPD2    C3  992   2.132   1.622  15.542 -0.3038 -0.5043 -0.4951
   65MPD2    C4  993   2.018   1.641  15.603  0.4094  0.1810  0.1519
   65MPD2    C5  994   1.958   1.764  15.615  0.8159  0.3208  0.3898
   65MPD2     H  995   2.297   1.730  15.448 -0.2271  2.3081 -1.5137
   65MPD2    H1  996   1.962   1.556  15.640 -0.4718  1.5937  2.0398
   65MPD2    H2  997   1.956   1.964  15.575 -0.2174 -0.2986 -1.8150
   65MPD2    H3  998   1.865   1.770  15.669  0.7808  0.7378  0.2813
   65MPD2     N  999   2.181   1.491  15.526 -0.1078 -0.3033  0.4556
   65MPD2    H5 1000   2.115   1.417  15.551  0.3089 -0.6077  0.6559
   65MPD2    N1 1001   2.214   1.980  15.461  0.0798 -0.2770 -0.2840
   65MPD2    H7 1002   2.308   1.962  15.427  0.6991  0.4349  1.0706
   66TCq2    C1 1003   2.175   2.106  15.454  0.2327 -0.1943 -0.7283
   66TCq2    O2 1004   2.093   2.172  15.515  0.2262  0.5196 -0.4380
   66TCq2    C2 1005   2.260   2.181  15.362 -0.3317  0.7327  0.4811
   66TCq2    C3 1006   2.350   2.114  15.279 -0.5292  0.0314 -0.1438
   66TCq2    C4 1007   2.452   2.184  15.220 -0.2370 -0.8065  0.0923
   66TCq2    C5 1008   2.461   2.321  15.225 -0.1107  0.0573  0.2181
   66TCq2    C6 1009   2.359   2.389  15.295  0.9715  0.3394  0.3837
   66TCq2    C7 1010   2.259   2.319  15.364  0.2240 -0.8145  0.3010
   66TCq2    C8 1011   2.371   2.527  15.286 -0.4957  0.4291  0.6685
   66TCq2    O4 1012   2.444   2.568  15.197 -0.2520  0.1960 -0.2572
   66TCq2    C9 1013   2.555   2.111  15.153 -0.0057 -0.1436 -0.5578
   66TCq2    O5 1014   2.554   1.985  15.147  0.4943 -0.1130 -0.1031
   66TCq2    O6 1015   2.654   2.179  15.105  0.0253  0.2381 -0.0455
   66TCq2    H2 1016   2.344   2.007  15.267 -2.6941 -0.0196  1.6022
   66TCq2    H3 1017   2.540   2.379  15.180  0.6214  0.2658  1.7725
   66TCq2    H4 1018   2.182   2.377  15.414  0.5218 -0.0461 -0.1333
   67MPD2     C 1019   2.667   1.382  14.274  0.0375  0.4986 -0.3282
   67MPD2    C1 1020   2.631   1.511  14.295  0.0868  0.2513  0.1334
   67MPD2    C2 1021   2.515   1.551  14.234 -0.2906 -0.8470  0.9432
   67MPD2    C3 1022   2.435   1.466  14.152 -0.0135  0.8298 -0.4204
   67MPD2    C4 1023   2.489   1.337  14.123 -0.1157 -0.6345 -0.0450
   67MPD2    C5 1024   2.606   1.305  14.184  0.2135  0.2519 -0.1261
   67MPD2     H 1025   2.479   1.650  14.258 -0.3296 -1.1125  2.0036
   67MPD2    H1 1026   2.456   1.267  14.047 -0.4228  0.3929 -0.8645
   67MPD2    H2 1027   2.760   1.345  14.317  0.0258 -1.7705 -2.2746
   67MPD2    H3 1028   2.644   1.206  14.164  3.5245  1.7308 -1.1710
   67MPD2     N 1029   2.309   1.498  14.111 -0.2923 -1.1653  0.1125
   67MPD2    H5 1030   2.273   1.588  14.143 -2.7964 -2.1039 -0.1110
   67MPD2    N1 1031   2.710   1.598  14.373 -0.5686  0.3542  0.1813
   67MPD2    H7 1032   2.680   1.693  14.389  1.8755  0.8385  1.8299
   68TCq2    C1 1033   2.822   1.563  14.445  0.0200 -0.2195  0.0916
   68TCq2    O2 1034   2.893   1.462  14.439  0.1950  0.4303 -0.4054
   68TCq2    C2 1035   2.872   1.667  14.540 -0.9767 -0.5193 -0.1755
   68TCq2    C3 1036   2.794   1.780  14.563 -0.5027 -0.0855 -0.1296
   68TCq2    C4 1037   2.816   1.865  14.668 -0.3285  0.3909  0.1039
   68TCq2    C5 1038   2.924   1.835  14.755  0.2511 -0.0356 -0.2656
   68TCq2    C6 1039   2.991   1.714  14.725 -0.2112 -0.6105 -0.3339
   68TCq2    C7 1040   2.971   1.630  14.624 -0.4795 -0.1025  0.2172
   68TCq2    C8 1041   3.091   1.665  14.825  0.1453  0.4559 -0.1351
   68TCq2    O4 1042   3.201   1.628  14.785 -0.2642  0.4690  0.2840
   68TCq2    C9 1043   2.727   1.981  14.689  0.1651  0.3874 -0.0159
   68TCq2    O5 1044   2.672   2.024  14.590  0.1257 -0.2893  0.4018
   68TCq2    O6 1045   2.728   2.042  14.797 -0.1967  0.7737  0.0020
   68TCq2    H2 1046   2.708   1.794  14.499 -1.2229  3.1616  1.5193
   68TCq2    H3 1047   2.959   1.895  14.839 -1.0417 -1.8446  1.5605
   68TCq2    H4 1048   3.039   1.546  14.611 -0.4610 -0.2196  1.0659
   69TMC2    C1 1049   3.870   3.388  12.466 -0.7300 -0.7348 -0.1384
   69TMC2    C2 1050   3.837   3.495  12.538  0.1896  0.2168 -0.1568
   69TMC2    C3 1051   3.818   3.609  12.458 -0.5500 -0.1937 -0.1548
   69TMC2    C4 1052   3.900   3.384  12.334 -0.3594  0.3912  0.3314
   69TMC2    C5 1053   3.868   3.493  12.260  0.1630  0.8526 -0.7121
   69TMC2    C6 1054   3.837   3.606  12.322 -0.2757  0.0216 -0.1034
   69TMC2     C 1055   3.913   3.275  12.545  0.2985 -0.4342 -0.1022
   69TMC2     O 1056   3.913   3.165  12.490  0.2084 -0.0060 -0.2515
   69TMC2     H 1057   3.805   3.493  12.641 -0.2825 -0.5088 -0.3166
   69TMC2    H1 1058   3.933   3.289  12.293  3.2196  1.7770  0.0537
   69TMC2    H2 1059   3.810   3.694  12.265 -1.7307 -1.6750 -2.0407
   69TMC2    C7 1060   3.884   3.497  12.116 -0.2100  0.0398  0.0076
   69TMC2    C8 1061   3.768   3.736  12.513  0.1795 -0.1565 -0.4784
   69TMC2    O1 1062   3.838   3.592  12.060  0.1755 -0.2687 -0.0023
   69TMC2    O2 1063   3.731   3.824  12.432 -0.2493 -0.7354 -0.0628
   69TMC2    O5 1064   3.812   3.762  12.636  0.2757 -0.5631  0.4221
   69TMC2    H5 1065   3.876   3.698  12.673 -0.2817 -1.3993 -0.0439
   70MPD2     C 1066   4.054   3.292  12.884 -0.4849  0.2083  0.8548
   70MPD2    C1 1067   4.008   3.234  12.769 -0.4930  0.4472 -0.1387
   70MPD2    C2 1068   4.018   3.098  12.753 -0.2786  0.2238  0.1339
   70MPD2    C3 1069   4.084   3.021  12.852  0.6786 -0.5087  0.2418
   70MPD2    C4 1070   4.122   3.079  12.969 -0.3298 -0.4331 -0.0685
   70MPD2    C5 1071   4.109   3.217  12.985  0.3551 -0.6303  0.4976
   70MPD2     H 1072   3.993   3.045  12.662 -1.7637 -1.2039  1.3572
   70MPD2    H1 1073   4.167   3.025  13.051  0.5899  0.0053 -0.2811
   70MPD2    H2 1074   4.032   3.398  12.896  0.3996  0.3663  1.0966
   70MPD2    H3 1075   4.135   3.269  13.076 -1.7526 -0.9448  1.2852
   70MPD2     N 1076   4.120   2.893  12.837 -0.1185 -0.0032  0.0664
   70MPD2    H5 1077   4.190   2.860  12.902  1.1292 -0.3330 -1.4307
   70MPD2    N1 1078   3.953   3.310  12.669  0.4867  0.3756 -0.1059
   70MPD2    H7 1079   3.934   3.407  12.693 -0.0773  0.5851 -1.4001
   71TMC2    C1 1080   3.302   2.873   1.195 -0.5774 -0.2178  0.2200
   71TMC2    C2 1081   3.382   2.762   1.222  0.0498  0.2462  0.6640
   71TMC2    C3 1082   3.409   2.744   1.356 -0.4676  0.3666 -0.7268
   71TMC2    C4 1083   3.250   2.943   1.296  0.1921 -0.4551 -0.0583
   71TMC2    C5 1084   3.288   2.917   1.424 -0.4176  0.2835  0.8932
   71TMC2    C6 1085   3.380   2.823   1.457  0.2271 -0.4005  0.1268
   71TMC2     C 1086   3.259   2.893   1.064 -0.5048 -0.5943  0.1539
   71TMC2     O 1087   3.166   2.972   1.051 -0.3142 -0.1260 -0.4780
   71TMC2     H 1088   3.387   2.673   1.160 -0.3453 -0.4993  1.7104
   71TMC2    H1 1089   3.188   3.031   1.280  1.6838  0.7354  0.6158
   71TMC2    H2 1090   3.416   2.795   1.555  0.4724 -1.5905 -0.2896
   71TMC2    C7 1091   3.205   2.953   1.537 -0.5195 -0.1335  0.1619
   71TMC2    C8 1092   3.499   2.638   1.390 -0.7469 -0.2307 -0.1445
   71TMC2    O1 1093   3.261   2.949   1.644 -0.0007  0.5793 -0.0668
   71TMC2    O2 1094   3.456   2.537   1.438 -0.4107  0.1222  0.2411
   71TMC2    O5 1095   3.593   2.640   1.296  0.2954  0.2380  0.1740
   71TMC2    H5 1096   3.608   2.731   1.263 -0.1924  0.6288  1.0424
   72MPD2     C 1097   3.211   2.784   0.564  0.1986 -0.3658 -0.3386
   72MPD2    C1 1098   3.142   2.871   0.645  0.3888 -0.0363 -0.2243
   72MPD2    C2 1099   3.175   2.886   0.779  0.0150  0.8070 -0.2552
   72MPD2    C3 1100   3.275   2.807   0.834 -0.2612  0.2547  0.5209
   72MPD2    C4 1101   3.339   2.714   0.760  0.2185  0.8490  0.2210
   72MPD2    C5 1102   3.306   2.704   0.622 -0.2625 -0.4953 -0.2765
   72MPD2     H 1103   3.117   2.957   0.838  1.0356  0.6284  0.9535
   72MPD2    H1 1104   3.417   2.646   0.796 -2.3106 -1.0850  2.0778
   72MPD2    H2 1105   3.191   2.765   0.459 -2.4699  0.1156  0.0951
   72MPD2    H3 1106   3.353   2.634   0.553 -1.0993  0.7987 -2.1703
   72MPD2     N 1107   3.312   2.804   0.969 -0.4014 -0.1642  0.3192
   72MPD2    H5 1108   3.384   2.739   0.999  0.3390  0.7996  0.6367
   72MPD2    N1 1109   3.029   2.946   0.602  0.7691 -0.3494 -0.7172
   72MPD2    H7 1110   2.984   3.003   0.673 -0.0093 -1.8129 -0.0400
   73TMC2    C1 1111   1.724   4.111  13.666 -0.1245 -0.5990 -0.1548
   73TMC2    C2 1112   1.669   3.997  13.717  0.3744 -0.2603 -0.7135
   73TMC2    C3 1113   1.755   3.901  13.766  0.0072  0.3262  0.0557
   73TMC2    C4 1114   1.866   4.136  13.668  0.3649 -0.3141  0.2146
   73TMC2    C5 1115   1.941   4.037  13.727 -0.4671 -0.4374  0.4043
   73TMC2    C6 1116   1.889   3.916  13.769 -0.0277 -0.4347 -0.5460
   73TMC2     C 1117   1.635   4.221  13.629  0.2824 -0.3185 -0.4747
   73TMC2     O 1118   1.534   4.183  13.573  0.4189 -0.0528 -0.4226
   73TMC2     H 1119   1.563   3.976  13.709 -0.1110  1.4784  1.0090
   73TMC2    H1 1120   1.906   4.232  13.637 -0.3493 -0.4905 -1.2584
   73TMC2    H2 1121   1.950   3.844  13.823  0.5845  0.1193 -0.5068
   73TMC2    C7 1122   2.081   4.060  13.745 -0.5864 -0.0280 -0.6122
   73TMC2    C8 1123   1.692   3.777  13.811  0.0867 -0.2383 -0.5339
   73TMC2    O1 1124   2.158   3.968  13.744 -0.3129  0.3436  0.2557
   73TMC2    O2 1125   1.575   3.769  13.844  0.0216  0.2917 -0.4200
   73TMC2    O5 1126   1.757   3.685  13.744 -0.2959  0.1398  0.7398
   73TMC2    H5 1127   1.838   3.723  13.704  0.8004 -0.0018  2.7992
   74MPD2     C 1128   1.678   4.679  13.406  0.1863 -0.0135 -0.7555
   74MPD2    C1 1129   1.757   4.674  13.524  0.3495 -0.0544  0.5094
   74MPD2    C2 1130   1.738   4.573  13.607  0.7508  0.4608 -0.4648
   74MPD2    C3 1131   1.657   4.463  13.581  0.4497 -0.5437 -0.0192
   74MPD2    C4 1132   1.583   4.468  13.470 -0.0434  0.4609  0.0230
   74MPD2    C5 1133   1.587   4.580  13.391  0.4127  0.0848  0.8085
   74MPD2     H 1134   1.797   4.583  13.697 -1.1561  3.5869  0.4598
   74MPD2    H1 1135   1.518   4.386  13.440  3.4413 -2.8238  1.5476
   74MPD2    H2 1136   1.701   0.035  13.337 -2.0600  1.9009  0.7008
   74MPD2    H3 1137   1.525   4.584  13.303  1.3425 -1.2453  0.0993
   74MPD2     N 1138   1.691   4.348  13.644 -0.4450  0.2384 -0.0908
   74MPD2    H5 1139   1.766   4.357  13.712 -0.6334  1.2169 -0.0236
   74MPD2    N1 1140   1.857   0.049  13.532 -0.2655 -0.1734  0.1205
   74MPD2    H7 1141   1.871   0.122  13.463 -1.3820 -0.1774 -0.1118
   75TCq2    C1 1142   2.223   1.429  14.029 -0.0711 -0.5674  0.2300
   75TCq2    O2 1143   2.242   1.331  13.953 -0.3942 -0.1865  0.2240
   75TCq2    C2 1144   2.105   1.503  14.018 -0.2814  0.1219 -0.3182
   75TCq2    C3 1145   2.070   1.583  14.129 -0.2479 -0.0743 -0.0206
   75TCq2    C4 1146   1.960   1.660  14.112 -1.2043  0.4158 -0.1863
   75TCq2    C5 1147   1.887   1.669  13.997  0.7614  0.5718  0.1586
   75TCq2    C6 1148   1.929   1.591  13.889 -0.4245 -0.8429  0.2424
   75TCq2    C7 1149   2.044   1.515  13.896 -0.3578  0.1665 -0.4130
   75TCq2    C8 1150   1.849   1.589  13.767  0.7102  0.0169  0.9734
   75TCq2    O4 1151   1.880   1.498  13.689  0.2177 -0.4016 -0.1139
   75TCq2    C9 1152   1.924   1.749  14.218 -0.0408  0.5281 -0.0460
   75TCq2    O5 1153   1.952   1.716  14.337  0.6325 -0.2402  0.6468
   75TCq2    O6 1154   1.840   1.843  14.195  0.3177  0.5117 -0.8676
   75TCq2    H2 1155   2.113   1.563  14.226 -1.7204 -0.6255  0.5166
   75TCq2    H3 1156   1.800   1.733  14.000 -1.1199 -2.0028  1.0303
   75TCq2    H4 1157   2.079   1.459  13.810  1.0690 -0.8391  0.8376
   76MPD2     C 1158   0.274   2.910  12.050  0.4213  0.4174  0.7859
   76MPD2    C1 1159   0.246   2.844  11.936  0.8772 -0.2687 -0.4243
   76MPD2    C2 1160   0.339   2.763  11.874 -0.0100  0.3182 -0.4189
   76MPD2    C3 1161   0.471   2.756  11.924  0.1037 -0.1426 -0.2862
   76MPD2    C4 1162   0.506   2.830  12.035  0.1716 -0.3364 -0.8549
   76MPD2    C5 1163   0.404   2.899  12.101  0.5301 -0.6320 -0.3428
   76MPD2     H 1164   0.317   2.714  11.780 -0.8635 -0.0306 -0.0379
   76MPD2    H1 1165   0.607   2.845  12.071 -1.1129 -0.0505  2.6054
   76MPD2    H2 1166   0.207   2.978  12.101 -2.3886  0.2342 -2.6393
   76MPD2    H3 1167   0.441   2.966  12.178  2.6171 -2.2819  0.1296
   76MPD2     N 1168   0.576   2.670  11.871  1.1139  0.3397 -0.3621
   76MPD2    H5 1169   0.663   2.675  11.924 -0.3955  1.3348  2.0318
   76MPD2    N1 1170   0.119   2.859  11.868 -0.1488 -0.5080  0.0427
   76MPD2    H7 1171   0.102   2.799  11.788  1.4351 -1.9513  0.7761
   77TCq2    C1 1172   0.570   2.593  11.761 -0.6118 -0.3703  0.9428
   77TCq2    O2 1173   0.483   2.578  11.676 -0.1753  0.1519  0.4643
   77TCq2    C2 1174   0.704   2.527  11.741 -0.4773  1.1354  1.0668
   77TCq2    C3 1175   0.701   2.419  11.654  0.5199  0.0516  0.6426
   77TCq2    C4 1176   0.810   2.337  11.650  0.1807 -0.1573 -0.1457
   77TCq2    C5 1177   0.907   2.345  11.749 -0.3162  0.3535  1.5997
   77TCq2    C6 1178   0.906   2.457  11.829  0.2800 -0.1664 -0.6432
   77TCq2    C7 1179   0.802   2.554  11.821 -0.4327  0.2665  0.3030
   77TCq2    C8 1180   1.032   2.503  11.893 -0.2470  0.0451 -0.1195
   77TCq2    O4 1181   1.047   2.624  11.911  0.4258 -0.3083 -0.6202
   77TCq2    C9 1182   0.813   2.228  11.551  0.4606  0.9967  0.2804
   77TCq2    O5 1183   0.871   2.122  11.580 -0.1236 -0.5200 -0.3867
   77TCq2    O6 1184   0.760   2.255  11.440  1.0101 -0.1376 -0.3918
   77TCq2    H2 1185   0.623   2.404  11.581  0.0546 -0.6825  1.2950
   77TCq2    H3 1186   0.991   2.277  11.753  1.0571  2.0069  0.8908
   77TCq2    H4 1187   0.823   2.652  11.860  1.7348 -0.1347  0.1442
   78MPD1     C 1188   1.184   2.462   1.741 -0.5646 -0.2282  0.2696
   78MPD1    C1 1189   1.269   2.538   1.661 -0.1763 -0.1233 -0.0762
   78MPD1    C2 1190   1.399   2.552   1.706  0.0558  0.0785 -0.6685
   78MPD1    C3 1191   1.438   2.508   1.837 -0.3328  0.1036  0.7811
   78MPD1    C4 1192   1.345   2.442   1.920 -0.0520  0.3751  0.1772
   78MPD1    C5 1193   1.216   2.425   1.868  0.7297  0.4831  0.2124
   78MPD1     H 1194   1.468   2.591   1.632  1.0767 -0.2542  0.1001
   78MPD1    H1 1195   1.361   2.401   2.019 -0.5478 -2.0570 -0.7455
   78MPD1    H2 1196   1.081   2.442   1.712 -0.6955 -0.4116  0.8567
   78MPD1    H3 1197   1.144   2.367   1.923  0.2956  0.0194 -0.8376
   78MPD1     N 1198   1.574   2.521   1.878  0.4184  0.0214 -0.6549
   78MPD1    H5 1199   1.598   2.457   1.953 -1.7964  2.6716  2.3281
   78MPD1    N1 1200   1.232   2.568   1.526 -0.3428  0.0359  0.1008
   78MPD1    H6 1201   1.136   2.602   1.528  0.6278  2.8365 -0.4993
   78MPD1    H7 1202   1.296   2.642   1.498 -1.4866  0.6169 -0.9937
   79TCq2    C1 1203   1.676   2.590   1.818 -0.0793  0.4236 -0.6334
   79TCq2    O2 1204   1.676   2.666   1.722 -0.1469  0.5023  0.1656
   79TCq2    C2 1205   1.803   2.578   1.888  0.6950 -0.5953 -0.7303
   79TCq2    C3 1206   1.817   2.523   2.009 -0.1633  0.1661  0.6275
   79TCq2    C4 1207   1.941   2.490   2.057 -0.2718 -0.5339  0.3715
   79TCq2    C5 1208   2.053   2.507   1.987 -0.8359 -0.2362  0.6662
   79TCq2    C6 1209   2.039   2.566   1.864  0.3044  0.1166  1.0909
   79TCq2    C7 1210   1.915   2.593   1.809 -0.0609 -0.3279  0.8213
   79TCq2    C8 1211   2.141   2.551   1.763  0.1390  0.8155 -0.2149
   79TCq2    O4 1212   2.253   2.541   1.813 -0.1858 -0.2361 -0.1824
   79TCq2    C9 1213   1.950   2.402   2.175 -0.6511 -0.6307 -0.1393
   79TCq2    O5 1214   2.062   2.345   2.182 -0.0001  0.2274  0.6173
   79TCq2    O6 1215   1.849   2.384   2.240  0.4837 -0.9274  0.0402
   79TCq2    H2 1216   1.735   2.496   2.074 -2.0759 -0.9652 -2.3063
   79TCq2    H3 1217   2.151   2.480   2.024 -0.5515 -2.0763 -1.4771
   79TCq2    H4 1218   1.906   2.644   1.714 -2.2397 -0.6745  0.8470
   80MPD2     C 1219   0.025   2.163  12.252  0.0281  0.2620 -0.6165
   80MPD2    C1 1220   4.666   2.144  12.145 -0.2521 -0.2831 -0.0169
   80MPD2    C2 1221   4.531   2.169  12.154  0.3595  0.5531 -0.3322
   80MPD2    C3 1222   4.473   2.191  12.275  0.3585  0.2773 -0.5050
   80MPD2    C4 1223   4.553   2.191  12.389 -0.0359  0.1522  0.0923
   80MPD2    C5 1224   4.693   2.184  12.374  0.3512  0.4683  0.5611
   80MPD2     H 1225   4.470   2.162  12.065  2.4831  0.7134 -1.8010
   80MPD2    H1 1226   4.502   2.217  12.481  1.3160  0.2214  0.8121
   80MPD2    H2 1227   0.133   2.163  12.248  0.0822 -1.5184  0.9923
   80MPD2    H3 1228   0.039   2.204  12.454 -1.8857 -0.7689  2.8035
   80MPD2     N 1229   4.332   2.208  12.296  0.4226  0.7488  0.2599
   80MPD2    H5 1230   4.308   2.194  12.393 -0.2523  0.3237  0.0268
   80MPD2    N1 1231   4.722   2.101  12.020 -0.5444  1.0612  0.2222
   80MPD2    H7 1232   4.655   2.086  11.945  1.5307 -0.4230 -1.3448
   81TCq2    C1 1233   0.127   2.051  12.007 -0.3422  0.0531 -0.8712
   81TCq2    O2 1234   0.226   2.069  12.076  0.2674  0.1877 -0.6229
   81TCq2    C2 1235   0.140   1.953  11.897 -0.1248 -0.4159  0.7073
   81TCq2    C3 1236   0.265   1.934  11.839 -0.0372 -0.4863 -0.1403
   81TCq2    C4 1237   0.268   1.850  11.732  0.4077  0.5624 -0.0896
   81TCq2    C5 1238   0.160   1.788  11.679 -0.3405 -0.0425  0.2098
   81TCq2    C6 1239   0.046   1.787  11.747 -0.2474 -1.1335 -0.6267
   81TCq2    C7 1240   0.033   1.873  11.855  0.0815 -0.1446 -0.2477
   81TCq2    C8 1241   4.653   1.714  11.689  0.1238 -0.0208  0.2365
   81TCq2    O4 1242   4.640   1.727  11.569 -0.6447 -0.4016  0.4771
   81TCq2    C9 1243   0.396   1.844  11.666 -0.1286 -0.6907  1.0953
   81TCq2    O5 1244   0.498   1.889  11.725 -0.3696 -0.8594 -0.0707
   81TCq2    O6 1245   0.387   1.818  11.544  0.7239  0.0193  0.0537
   81TCq2    H2 1246   0.359   1.970  11.879  0.6783 -0.7816 -1.5626
   81TCq2    H3 1247   0.175   1.732  11.588 -1.0520 -1.1541  0.7820
   81TCq2    H4 1248   4.656   1.885  11.893  1.0816 -0.6271  2.5704
   82MPD2     C 1249   2.271   1.176  10.282  0.7616  0.4227  0.1151
   82MPD2    C1 1250   2.383   1.255  10.278  0.9019 -0.7391  0.2953
   82MPD2    C2 1251   2.458   1.278  10.390 -0.4106  0.1017  0.3788
   82MPD2    C3 1252   2.450   1.191  10.495 -0.8621  0.1196  0.2372
   82MPD2    C4 1253   2.350   1.092  10.497  0.9378 -0.5656 -0.1796
   82MPD2    C5 1254   2.258   1.097  10.389 -0.5442 -0.3129 -0.8969
   82MPD2     H 1255   2.542   1.344  10.372  1.9298 -2.8329  0.6258
   82MPD2    H1 1256   2.341   1.026  10.582 -0.1544 -0.3080 -0.0971
   82MPD2    H2 1257   2.195   1.177  10.205  0.3515  0.7779  0.5251
   82MPD2    H3 1258   2.173   1.031  10.400 -0.4762 -0.2290  0.2200
   82MPD2     N 1259   2.537   1.204  10.606 -0.5125  0.1476  0.5631
   82MPD2    H5 1260   2.517   1.137  10.680 -1.0844 -0.9518 -0.5936
   82MPD2    N1 1261   2.416   1.332  10.157 -0.2044 -0.4271  0.0049
   82MPD2    H7 1262   2.488   1.403  10.156  1.8276 -2.4198  4.2289
   83TCq2    C1 1263   2.636   1.299  10.621  0.0107  0.2593  0.8789
   83TCq2    O2 1264   2.660   1.401  10.552  0.1909 -0.6454 -0.1660
   83TCq2    C2 1265   2.705   1.292  10.746 -0.2652 -0.3522 -0.0112
   83TCq2    C3 1266   2.783   1.396  10.788  0.3490 -0.0856  0.2801
   83TCq2    C4 1267   2.884   1.381  10.878 -0.2522  0.3802 -0.0634
   83TCq2    C5 1268   2.906   1.262  10.937  1.1314 -0.3137 -0.0720
   83TCq2    C6 1269   2.836   1.155  10.887 -0.4416 -0.5938 -0.0329
   83TCq2    C7 1270   2.734   1.168  10.796  0.1182  0.5082 -0.3142
   83TCq2    C8 1271   2.842   1.027  10.968 -0.6364  0.4961  0.3269
   83TCq2    O4 1272   2.737   0.966  10.981  0.1303  0.0820 -0.5409
   83TCq2    C9 1273   2.965   1.493  10.905 -0.6583  0.3151 -0.2556
   83TCq2    O5 1274   2.924   1.603  10.861  0.3129  0.3283  0.2175
   83TCq2    O6 1275   3.077   1.473  10.950 -0.0317 -0.7308 -0.3434
   83TCq2    H2 1276   2.760   1.497  10.754 -0.6559  0.5309  2.7908
   83TCq2    H3 1277   2.977   1.251  11.018  0.1593 -0.9377  0.6923
   83TCq2    H4 1278   2.689   1.080  10.751  0.2728 -0.7577  1.9706
   84TCq2    C1 1279   3.748   0.837   9.989 -0.3440 -0.9573 -0.2108
   84TCq2    O2 1280   3.832   0.804   9.907  0.1428 -0.0814 -0.3410
   84TCq2    C2 1281   3.767   0.964  10.052 -0.2137 -0.8883 -0.2561
   84TCq2    C3 1282   3.860   1.044   9.990  0.1599  0.0439 -0.5069
   84TCq2    C4 1283   3.948   1.110  10.068 -0.2636 -0.3467 -0.0217
   84TCq2    C5 1284   3.941   1.119  10.203  0.1460 -0.3009  1.2491
   84TCq2    C6 1285   3.832   1.057  10.263 -0.1176 -0.2245  0.4193
   84TCq2    C7 1286   3.749   0.976  10.189 -0.3227 -0.7648 -0.0340
   84TCq2    C8 1287   3.798   1.065  10.405  0.4913 -0.4171  0.2649
   84TCq2    O4 1288   3.775   0.964  10.472  0.3829  0.0032 -0.2332
   84TCq2    C9 1289   4.057   1.179  10.003  0.2426 -0.3045 -0.1960
   84TCq2    O5 1290   4.144   1.232  10.081  0.2932 -0.0975  0.3256
   84TCq2    O6 1291   4.090   1.142   9.887 -0.2817 -0.0584 -0.2322
   84TCq2    H2 1292   3.872   1.046   9.883  0.0764  0.8854 -0.5010
   84TCq2    H3 1293   3.996   1.196  10.257  1.0400 -0.1071  0.0817
   84TCq2    H4 1294   3.672   0.921  10.242 -0.0324 -0.9619  0.1880
   85MPD2     C 1295   4.235   2.862  16.028  0.0742  0.0558  0.5171
   85MPD2    C1 1296   4.348   2.816  16.096 -0.4409 -0.7266  0.7761
   85MPD2    C2 1297   4.444   2.901  16.139  0.3725  0.5790  0.2806
   85MPD2    C3 1298   4.443   3.028  16.090 -0.1213 -0.0343  0.3303
   85MPD2    C4 1299   4.340   3.072  16.010 -0.0141  0.5043 -0.0474
   85MPD2    C5 1300   4.235   2.995  15.983  0.3506 -0.2376 -0.0396
   85MPD2     H 1301   4.525   2.870  16.205  0.1223 -0.0824  0.2730
   85MPD2    H1 1302   4.329   3.169  15.964 -0.6047  0.2115 -0.5289
   85MPD2    H2 1303   4.156   2.793  16.002  2.0396 -1.5770 -1.1115
   85MPD2    H3 1304   4.148   3.049  15.947 -2.1227 -2.8413  2.0238
   85MPD2     N 1305   4.546   3.119  16.132 -0.2939  0.0064 -1.0351
   85MPD2    H5 1306   4.615   3.080  16.196 -1.0151  0.8332  0.2401
   85MPD2    N1 1307   4.350   2.677  16.128 -0.2237  0.0748  0.8305
   85MPD2    H7 1308   4.274   2.617  16.097  0.6444 -1.2214  1.2312
   86TCq2    C1 1309   4.581   3.237  16.068 -0.2497  0.0568  0.6586
   86TCq2    O2 1310   4.530   3.281  15.961 -0.2820  0.5964 -0.4518
   86TCq2    C2 1311   4.699   3.302  16.113  0.8730  0.5143  0.0953
   86TCq2    C3 1312   0.042   3.259  16.226 -0.2785 -0.0387 -0.1355
   86TCq2    C4 1313   0.138   3.333  16.281 -0.1823 -0.1370  0.0735
   86TCq2    C5 1314   0.186   3.443  16.219 -0.4354 -0.6576  0.2590
   86TCq2    C6 1315   0.115   3.491  16.113 -0.5796  0.7159 -0.0132
   86TCq2    C7 1316   0.004   3.425  16.064 -0.2122 -0.4328 -0.2858
   86TCq2    C8 1317   0.179   3.584  16.015  0.1975  0.0450  0.1707
   86TCq2    O4 1318   0.156   3.567  15.895  0.8502 -0.4311  0.0292
   86TCq2    C9 1319   0.205   3.275  16.399 -0.1251 -0.4573 -0.1206
   86TCq2    O5 1320   0.146   3.182  16.451 -0.1402  0.2432  0.2287
   86TCq2    O6 1321   0.322   3.319  16.430 -0.5313  0.1579 -0.9816
   86TCq2    H2 1322   0.036   3.158  16.265 -0.2195  0.2774  0.6794
   86TCq2    H3 1323   0.276   3.496  16.247 -0.5111 -0.8741  0.8985
   86TCq2    H4 1324   4.674   3.461  15.977 -0.7277  1.1830  0.7056
   87MPD2     C 1325   2.619   2.090   2.139  0.4557 -0.8764 -0.4509
   87MPD2    C1 1326   2.583   2.061   2.011  0.3722  0.0926 -1.0784
   87MPD2    C2 1327   2.457   2.090   1.968 -0.0754  0.2910 -0.7005
   87MPD2    C3 1328   2.370   2.163   2.059 -0.1440  0.6886  0.0269
   87MPD2    C4 1329   2.413   2.193   2.182  0.1099 -0.4295  0.5893
   87MPD2    C5 1330   2.538   2.163   2.223 -0.2945  0.3016  0.3692
   87MPD2     H 1331   2.424   2.082   1.865 -1.4843 -3.7244  0.0689
   87MPD2    H1 1332   2.348   2.246   2.251 -1.3100 -0.7413 -0.5260
   87MPD2    H2 1333   2.719   2.071   2.175  1.0063  0.4742 -1.2580
   87MPD2    H3 1334   2.572   2.176   2.325 -0.2044 -0.3950  0.4278
   87MPD2     N 1335   2.243   2.206   2.027 -0.1587  0.0847 -0.5446
   87MPD2    H5 1336   2.181   2.233   2.104  1.9395 -1.1454  1.5879
   87MPD2    N1 1337   2.669   1.990   1.926  0.1488 -0.4134 -1.2010
   87MPD2    H7 1338   2.764   1.979   1.959  0.1957 -0.1625 -1.2517
   88TCq2    C1 1339   2.644   1.932   1.802 -0.1718 -0.3911 -0.4886
   88TCq2    O2 1340   2.534   1.929   1.739 -0.1531  0.2215 -0.0756
   88TCq2    C2 1341   2.751   1.855   1.738  0.3332 -0.4335 -0.0667
   88TCq2    C3 1342   2.874   1.908   1.754  0.8858  0.4569  0.1426
   88TCq2    C4 1343   2.958   1.894   1.646 -0.0634 -0.3321 -1.0240
   88TCq2    C5 1344   2.928   1.816   1.536 -0.2654  1.0013 -0.1915
   88TCq2    C6 1345   2.803   1.762   1.534  0.8952  0.1467 -0.6565
   88TCq2    C7 1346   2.714   1.780   1.633  0.1470  0.5912  0.3413
   88TCq2    C8 1347   2.793   1.647   1.447  0.3321 -0.2132 -0.2460
   88TCq2    O4 1348   2.878   1.628   1.361  0.4074 -0.0945 -0.0778
   88TCq2    C9 1349   3.090   1.939   1.659 -0.1883 -0.1497 -0.3790
   88TCq2    O5 1350   3.162   1.955   1.558  1.0875 -0.6339  0.3468
   88TCq2    O6 1351   3.142   1.940   1.771  0.1918 -1.0053  0.2416
   88TCq2    H2 1352   2.897   1.976   1.835  0.7827 -1.6490  1.9309
   88TCq2    H3 1353   2.999   1.776   1.464 -0.2831  0.6966 -0.0378
   88TCq2    H4 1354   2.618   1.732   1.623  1.0199 -1.5009  2.1544
   89MPD2     C 1355   3.782   4.043   1.677 -0.1914 -0.5942  0.4280
   89MPD2    C1 1356   3.682   4.115   1.733 -0.0887  0.3467  0.1204
   89MPD2    C2 1357   3.707   4.245   1.766 -0.1075  0.3206 -0.8459
   89MPD2    C3 1358   3.829   4.301   1.741 -0.0495  0.1319  0.2213
   89MPD2    C4 1359   3.933   4.227   1.693  0.0356 -0.3758  0.6290
   89MPD2    C5 1360   3.915   4.091   1.669  0.4739  0.4947 -0.0898
   89MPD2     H 1361   3.636   4.317   1.805 -0.2984 -0.7620  0.7979
   89MPD2    H1 1362   4.034   4.266   1.686 -0.3354  0.4840 -0.0292
   89MPD2    H2 1363   3.766   3.940   1.646 -1.3285 -0.1715 -0.3795
   89MPD2    H3 1364   3.991   4.031   1.620 -1.3786 -0.6544 -1.5824
   89MPD2     N 1365   3.835   4.424   1.786 -0.1186  0.4409 -0.4629
   89MPD2    H5 1366   3.747   4.458   1.823 -0.9496 -0.5490 -1.5141
   89MPD2    N1 1367   3.547   4.077   1.749 -0.3760 -0.0133 -0.3634
   89MPD2    H7 1368   3.491   4.133   1.813 -0.5657 -0.8618  0.2146
   90TCq2    C1 1369   3.941   4.509   1.760 -0.3207  0.3082 -0.4875
   90TCq2    O2 1370   4.049   4.491   1.709  0.4928 -0.1516 -0.6567
   90TCq2    C2 1371   3.930   4.635   1.839  0.1342 -0.0767  0.1862
   90TCq2    C3 1372   3.852   4.626   1.957 -0.3222 -0.5793  0.3873
   90TCq2    C4 1373   3.859   4.723   2.047  0.1054  0.3186 -0.3483
   90TCq2    C5 1374   3.946   0.104   2.020  0.2039 -1.2129  0.0554
   90TCq2    C6 1375   4.026   0.105   1.910  0.0652 -0.0671  0.1285
   90TCq2    C7 1376   4.021   0.010   1.818  0.4809  0.0338  0.2229
   90TCq2    C8 1377   4.106   0.222   1.892 -0.0215 -0.2237 -0.4383
   90TCq2    O4 1378   4.127   0.300   1.985 -0.4605 -0.1437 -0.3251
   90TCq2    C9 1379   3.772   0.008   2.159  0.6311 -0.0448  0.3944
   90TCq2    O5 1380   3.679   4.647   2.171 -0.7698 -0.3368  0.2339
   90TCq2    O6 1381   3.786   0.112   2.227  0.0211 -0.4352 -0.1652
   90TCq2    H2 1382   3.783   4.546   1.980 -1.0734  0.1791  0.8094
   90TCq2    H3 1383   3.941   0.183   2.094  0.2539 -1.8851  0.7862
   90TCq2    H4 1384   4.104   4.711   1.751 -0.8743  0.6187 -1.6721
   91TMC2    C1 1385   0.386   3.983  16.869 -1.0113 -0.2012  0.5130
   91TMC2    C2 1386   0.468   3.941  16.971  0.5441 -0.2131  0.1192
   91TMC2    C3 1387   0.418   3.847  17.060 -0.1686 -0.6209 -0.3498
   91TMC2    C4 1388   0.249   3.948  16.875  0.0131  0.0352 -1.2700
   91TMC2    C5 1389   0.204   3.863  16.974  0.1847  0.3484  0.1851
   91TMC2    C6 1390   0.291   3.805  17.062  0.2437 -0.0904  0.1804
   91TMC2     C 1391   0.441   3.962  16.735 -0.0733 -0.4052 -0.0627
   91TMC2     O 1392   0.360   3.929  16.648  0.0791  0.5435  0.0467
   91TMC2     H 1393   0.574   3.967  16.975  0.1163  1.7798 -1.4887
   91TMC2    H1 1394   0.173   3.987  16.809 -0.8590  1.4090  0.5362
   91TMC2    H2 1395   0.249   3.754  17.147 -1.1769 -2.0018 -1.6753
   91TMC2    C7 1396   0.077   3.801  16.966 -0.1555 -0.3923 -0.2213
   91TMC2    C8 1397   0.496   3.838  17.183  0.1955  0.1582  0.1028
   91TMC2    O1 1398   0.056   3.720  17.053 -0.3957 -0.6125 -0.1820
   91TMC2    O2 1399   0.538   3.935  17.240  0.2872 -0.0296  0.0099
   91TMC2    O5 1400   0.469   3.715  17.230  0.3233  0.3143  1.0305
   91TMC2    H5 1401   0.421   3.661  17.164 -0.7487  0.8233  1.3914
   92MPD2     C 1402   0.596   3.855  16.523 -1.0188  0.1605 -0.1862
   92MPD2    C1 1403   0.637   3.972  16.598 -0.6900  0.4551 -0.4712
   92MPD2    C2 1404   0.757   4.027  16.565 -0.4154 -0.0006  0.5743
   92MPD2    C3 1405   0.838   3.970  16.466  0.2507  0.6103  0.4892
   92MPD2    C4 1406   0.788   3.865  16.388  0.0079  1.1106  0.2944
   92MPD2    C5 1407   0.675   3.801  16.430  0.0964  0.2109  0.5520
   92MPD2     H 1408   0.795   4.109  16.625 -1.9331  0.3425  1.0513
   92MPD2    H1 1409   0.846   3.823  16.307 -0.1987 -3.1028  2.3124
   92MPD2    H2 1410   0.513   3.794  16.557 -0.9378 -0.1436 -0.5361
   92MPD2    H3 1411   0.646   3.711  16.377 -1.3009  1.0801 -0.1501
   92MPD2     N 1412   0.961   4.034  16.434 -0.2676  0.4474 -0.2883
   92MPD2    H5 1413   0.977   4.121  16.484 -2.4167  1.2440 -0.9968
   92MPD2    N1 1414   0.564   4.018  16.713  0.2786  0.2299  0.0379
   92MPD2    H7 1415   0.617   4.074  16.779  1.4989  0.2478 -0.9495
   93MPD2     C 1416   2.089   3.911  14.149 -0.2182 -0.5196  0.3534
   93MPD2    C1 1417   2.047   4.041  14.144 -0.4303  0.1780  0.3257
   93MPD2    C2 1418   1.909   4.067  14.131  0.2467  0.6645 -0.0612
   93MPD2    C3 1419   1.823   3.961  14.109 -0.6518 -0.1211  0.1055
   93MPD2    C4 1420   1.863   3.831  14.120 -0.2781  0.1418  0.0059
   93MPD2    C5 1421   1.997   3.807  14.140 -0.2722 -0.5008 -0.7584
   93MPD2     H 1422   1.880   4.169  14.109 -0.6465  0.2377 -0.8583
   93MPD2    H1 1423   1.796   3.748  14.102 -1.0682  0.6414  0.6533
   93MPD2    H2 1424   2.192   3.880  14.156 -0.2337 -0.8552 -1.0466
   93MPD2    H3 1425   2.034   3.705  14.145 -1.9233 -0.9937  1.8226
   93MPD2     N 1426   1.678   3.975  14.101 -0.5297 -0.2268 -0.1109
   93MPD2    H5 1427   1.624   3.890  14.114  2.8298 -2.0310  2.3528
   93MPD2    N1 1428   2.144   4.146  14.140  0.2459 -0.0080  0.6229
   93MPD2    H7 1429   2.107   4.235  14.109  0.7313 -0.5801 -1.6497
   94TCq2    C1 1430   2.279   4.135  14.144 -0.5874 -0.5768  0.3718
   94TCq2    O2 1431   2.355   4.038  14.142 -0.2057 -0.3648  0.4174
   94TCq2    C2 1432   2.336   4.266  14.151 -0.0485 -0.5863  0.5189
   94TCq2    C3 1433   2.251   4.369  14.176 -0.3899 -1.3280  0.0862
   94TCq2    C4 1434   2.292   4.499  14.142  0.3831  0.2254 -0.4951
   94TCq2    C5 1435   2.415   4.514  14.095 -0.1004 -0.2899  0.1936
   94TCq2    C6 1436   2.499   4.405  14.067  0.3265 -0.5252 -0.3419
   94TCq2    C7 1437   2.462   4.282  14.102 -0.8606  0.7734  0.0100
   94TCq2    C8 1438   2.636   4.426  14.018 -0.5355 -0.4643  0.7509
   94TCq2    O4 1439   2.700   4.343  13.958  0.0934  0.3748 -0.2204
   94TCq2    C9 1440   2.207   4.616  14.171  0.3549 -0.4658  0.5786
   94TCq2    O5 1441   2.083   4.592  14.189  0.2299  0.3492 -0.1996
   94TCq2    O6 1442   2.265   0.008  14.174  1.0857  0.3252 -0.2508
   94TCq2    H2 1443   2.149   4.362  14.212 -0.5253 -1.8715 -0.4085
   94TCq2    H3 1444   2.439   4.615  14.065 -1.5254  1.0751  3.6619
   94TCq2    H4 1445   2.527   4.200  14.071 -2.5739 -0.8857  0.7894
   95TMC2    C1 1446   1.786   0.939  16.220  0.6799 -0.0904  0.1391
   95TMC2    C2 1447   1.788   0.927  16.355 -0.2392 -0.3152 -0.2621
   95TMC2    C3 1448   1.670   0.894  16.411 -0.1227 -0.1838  0.3657
   95TMC2    C4 1449   1.669   0.934  16.148 -0.2083  0.7990  0.1711
   95TMC2    C5 1450   1.548   0.916  16.208  0.2174  0.5980  0.4165
   95TMC2    C6 1451   1.547   0.896  16.346 -0.8299 -0.5419  0.5069
   95TMC2     C 1452   1.904   0.953  16.148  0.3368  0.2757  0.2691
   95TMC2     O 1453   1.897   1.013  16.043  0.1546 -0.0538  0.1713
   95TMC2     H 1454   1.872   0.952  16.419  0.9926 -0.7781 -1.6852
   95TMC2    H1 1455   1.667   0.942  16.040  0.2320  1.2588  0.1959
   95TMC2    H2 1456   1.454   0.878  16.399 -1.0549  2.5472  1.1487
   95TMC2    C7 1457   1.431   0.925  16.124  0.2327  0.1351 -0.0080
   95TMC2    C8 1458   1.667   0.931  16.552 -0.0077 -0.2179  0.0168
   95TMC2    O1 1459   1.445   0.907  16.008 -0.1795  0.2862 -0.5244
   95TMC2    O2 1460   1.760   0.909  16.633  0.5364  0.0796  0.0661
   95TMC2    O5 1461   1.555   1.003  16.571  0.1222 -0.1066  0.0096
   95TMC2    H5 1462   1.519   1.024  16.482 -0.8331  0.1373  0.4614
   96MPD2     C 1463   2.367   0.798  15.994  0.1129  0.5876 -0.7850
   96MPD2    C1 1464   2.295   0.907  15.952 -0.3340  0.1556 -0.5560
   96MPD2    C2 1465   2.178   0.934  16.020 -0.0831  0.2312 -0.0272
   96MPD2    C3 1466   2.130   0.860  16.123 -0.1600  0.6024 -0.2813
   96MPD2    C4 1467   2.203   0.753  16.156 -0.1137  0.2382 -0.4737
   96MPD2    C5 1468   2.323   0.724  16.098 -0.4603  0.3017 -0.1840
   96MPD2     H 1469   2.121   1.024  15.998  0.6935  0.8942  0.6952
   96MPD2    H1 1470   2.175   0.698  16.245  0.6128 -1.0068 -1.0191
   96MPD2    H2 1471   2.457   0.762  15.945 -0.6735  1.3584 -2.7670
   96MPD2    H3 1472   2.396   0.653  16.135  0.6297  1.5621  0.0974
   96MPD2     N 1473   2.010   0.880  16.195  0.3776  0.2679  0.1566
   96MPD2    H5 1474   1.991   0.813  16.269 -1.2629  0.3504 -0.1835
   96MPD2    N1 1475   2.344   0.986  15.851 -0.3068  0.0831  0.1844
   96MPD2    H7 1476   2.435   0.961  15.813 -0.9817 -0.7062 -0.8934
   97MPD2     C 1477   3.473   3.184   0.601  0.8523  1.0115  0.6070
   97MPD2    C1 1478   3.585   3.269   0.606 -0.5192 -0.4328  0.1600
   97MPD2    C2 1479   3.619   3.327   0.482  0.3742 -1.0919 -0.4521
   97MPD2    C3 1480   3.552   3.303   0.364 -0.7147 -0.0308 -0.1029
   97MPD2    C4 1481   3.440   3.225   0.369  0.9564 -0.0596 -0.2526
   97MPD2    C5 1482   3.398   3.176   0.489 -0.5753  0.3594 -0.2272
   97MPD2     H 1483   3.699   3.400   0.476  0.1671 -0.5721  3.1542
   97MPD2    H1 1484   3.373   3.213   0.285  0.7199  1.0468 -0.2295
   97MPD2    H2 1485   3.449   3.114   0.680  0.3150 -1.1067 -1.4323
   97MPD2    H3 1486   3.319   3.102   0.496 -0.1955  0.1630  1.8126
   97MPD2     N 1487   3.583   3.371   0.243  0.1726  0.0553  0.2485
   97MPD2    H5 1488   3.510   3.372   0.173 -1.7448 -1.4199  2.2528
   97MPD2    N1 1489   3.653   3.285   0.726 -0.1629  0.4178 -0.0224
   97MPD2    H7 1490   3.623   3.240   0.812 -0.9845 -0.2757 -0.6665
   98TCq2    C1 1491   3.703   3.435   0.213 -0.2052 -1.0367  0.7718
   98TCq2    O2 1492   3.800   3.429   0.285 -0.8357 -0.1843 -0.1583
   98TCq2    C2 1493   3.711   3.510   0.083  0.2841  0.2050 -0.4989
   98TCq2    C3 1494   3.621   3.481  17.675 -0.0883 -0.4153 -0.1222
   98TCq2    C4 1495   3.659   3.514  17.549 -0.5521 -0.1651 -0.1631
   98TCq2    C5 1496   3.768   3.597  17.528  0.3196  0.4816 -0.6560
   98TCq2    C6 1497   3.831   3.652  17.634  0.8138 -0.1983 -0.2582
   98TCq2    C7 1498   3.805   3.602   0.070 -0.0028 -0.0216  0.2175
   98TCq2    C8 1499   3.949   3.737  17.615 -0.6952  0.3684 -0.4674
   98TCq2    O4 1500   3.987   3.806   0.013  0.0743  0.3599  0.4394
   98TCq2    C9 1501   3.602   3.434  17.446 -0.5152  0.4477 -0.4611
   98TCq2    O5 1502   3.670   3.419  17.339 -0.0325 -0.6555  0.5574
   98TCq2    O6 1503   3.486   3.387  17.463 -0.2608  0.5974 -0.0175
   98TCq2    H2 1504   3.556   3.395  17.686 -0.5062 -0.0439  0.3421
   98TCq2    H3 1505   3.778   3.623  17.424 -0.5628  1.1487 -0.5737
   98TCq2    H4 1506   3.847   3.641   0.162 -1.7284  1.5739  0.3227
   99MPD2     C 1507   3.099   0.729   1.614 -0.2215  0.2210 -0.0290
   99MPD2    C1 1508   3.071   0.592   1.631  0.1419 -0.1695 -0.2468
   99MPD2    C2 1509   2.977   0.533   1.553  0.5695 -0.2389  0.5505
   99MPD2    C3 1510   2.910   0.604   1.452 -0.4974  0.2110 -0.6137
   99MPD2    C4 1511   2.944   0.736   1.436  0.0274 -0.0799  0.0111
   99MPD2    C5 1512   3.038   0.801   1.516  0.1492 -0.5800  0.2928
   99MPD2     H 1513   2.955   0.427   1.563  1.4519 -0.3823  1.0104
   99MPD2    H1 1514   2.900   0.809   1.369 -0.4705 -1.8751 -1.6241
   99MPD2    H2 1515   3.166   0.792   1.672  0.2760  0.2409 -0.6191
   99MPD2    H3 1516   3.057   0.908   1.515  1.5323 -0.8427 -1.6017
   99MPD2     N 1517   2.827   0.537   1.356 -0.8572  0.0533  0.1355
   99MPD2    H5 1518   2.801   0.443   1.384 -0.3249  0.6333  2.5777
   99MPD2    N1 1519   3.126   0.518   1.731  0.0725 -0.1623 -0.1826
   99MPD2    H7 1520   3.089   0.424   1.743  1.9699 -1.0763 -1.4275
  100TCq2    C1 1521   3.228   0.555   1.821  0.1240  0.3696 -0.2181
  100TCq2    O2 1522   3.310   0.647   1.814  0.0392 -0.9590  0.2016
  100TCq2    C2 1523   3.215   0.493   1.953  0.3593  0.1382  0.4233
  100TCq2    C3 1524   3.335   0.486   2.021  0.2554 -0.1352  0.3784
  100TCq2    C4 1525   3.338   0.427   2.143 -0.1718 -0.9501  0.0967
  100TCq2    C5 1526   3.226   0.363   2.197  0.1013  0.1524  0.4598
  100TCq2    C6 1527   3.111   0.374   2.124 -0.0495  0.6170  0.2338
  100TCq2    C7 1528   3.097   0.434   2.000  0.1161  0.5126 -0.2009
  100TCq2    C8 1529   3.014   0.275   2.164 -0.6135  0.2785  0.3654
  100TCq2    O4 1530   3.003   0.246   2.281  0.7636 -0.6001 -0.4881
  100TCq2    C9 1531   3.467   0.417   2.205  0.2480  0.5818 -0.6140
  100TCq2    O5 1532   3.568   0.438   2.132  0.4980  0.1340  0.0967
  100TCq2    O6 1533   3.469   0.369   2.317  0.3518 -0.0186  0.2333
  100TCq2    H2 1534   3.429   0.522   1.981  0.2490 -0.2628  0.2466
  100TCq2    H3 1535   3.237   0.303   2.287  1.2897 -0.3370 -0.0120
  100TCq2    H4 1536   3.007   0.442   1.941  1.5606  0.6489 -2.3659
  101MPD2     C 1537   3.431   2.069  12.909 -0.2984  0.1449  0.4891
  101MPD2    C1 1538   3.326   2.139  12.945  1.1835  0.2006 -0.6620
  101MPD2    C2 1539   3.223   2.076  13.018 -0.1339  0.5273  0.4812
  101MPD2    C3 1540   3.237   1.940  13.051 -0.4986 -0.0339  0.0785
  101MPD2    C4 1541   3.355   1.879  13.023 -0.1153 -0.6541  0.4063
  101MPD2    C5 1542   3.446   1.942  12.954  0.1327  0.4440 -0.5548
  101MPD2     H 1543   3.130   2.123  13.048  1.3359  1.4439  3.6982
  101MPD2    H1 1544   3.368   1.774  13.048  1.0736 -0.3340  1.1407
  101MPD2    H2 1545   3.508   2.115  12.849 -0.2110  0.4005  0.7954
  101MPD2    H3 1546   3.537   1.889  12.927 -0.3379 -0.0064 -1.2402
  101MPD2     N 1547   3.130   1.875  13.111 -0.3264  0.6490 -0.0860
  101MPD2    H5 1548   3.061   1.936  13.153 -2.0926  0.0641 -2.1620
  101MPD2    N1 1549   3.327   2.274  12.910  0.5871 -0.2427  0.2610
  101MPD2    H7 1550   3.389   2.298  12.833 -0.7019  0.3358 -0.5871
  102TCq2    C1 1551   3.430   2.608  12.589  0.5249 -0.2701  0.6547
  102TCq2    O2 1552   3.523   2.528  12.601 -0.2668 -0.2139 -0.2175
  102TCq2    C2 1553   3.342   2.608  12.698 -0.1619  0.0591  0.1701
  102TCq2    C3 1554   3.232   2.690  12.682 -0.7767 -0.2766  0.5272
  102TCq2    C4 1555   3.117   2.664  12.751  0.1957 -0.0465  0.7175
  102TCq2    C5 1556   3.124   2.567  12.851 -0.0437  0.3079  0.3814
  102TCq2    C6 1557   3.236   2.489  12.866 -0.4027  0.7089 -0.7158
  102TCq2    C7 1558   3.349   2.509  12.786 -0.3812  0.7048  0.2345
  102TCq2    C8 1559   3.226   2.367  12.950  0.2110 -0.1585  0.4359
  102TCq2    O4 1560   3.129   2.347  13.016 -0.3681 -0.0413 -0.1383
  102TCq2    C9 1561   3.006   2.752  12.731  0.7210  0.3271  0.3522
  102TCq2    O5 1562   2.935   2.758  12.832  0.1627  0.3001 -0.1424
  102TCq2    O6 1563   3.008   2.828  12.632 -0.6104  0.1138  0.8720
  102TCq2    H2 1564   3.238   2.772  12.612 -0.5587 -0.2355  0.5933
  102TCq2    H3 1565   3.040   2.536  12.912  0.1729  0.1399  0.5962
  102TCq2    H4 1566   3.433   2.441  12.789  0.5058  1.7972  0.3188
  103TMC2    C1 1567   1.222   2.097  12.546 -0.7770  0.2815  0.5849
  103TMC2    C2 1568   1.343   2.079  12.595 -0.6478 -0.1572 -0.3210
  103TMC2    C3 1569   1.359   2.077  12.735 -0.0949  0.2050  0.4268
  103TMC2    C4 1570   1.110   2.078  12.620 -0.2196  0.3278 -0.5088
  103TMC2    C5 1571   1.120   2.068  12.753  0.2340 -0.4105  0.0521
  103TMC2    C6 1572   1.247   2.073  12.807 -0.1429  0.0140 -0.2861
  103TMC2     C 1573   1.201   2.141  12.407  0.0452  1.0983  0.2058
  103TMC2     O 1574   1.087   2.149  12.374  0.1682 -0.3663 -0.3567
  103TMC2     H 1575   1.425   2.053  12.529 -1.1027  1.1890 -1.4131
  103TMC2    H1 1576   1.013   2.061  12.575  0.3998  0.3799 -1.8632
  103TMC2    H2 1577   1.247   2.064  12.916 -0.7537  1.5145 -0.1640
  103TMC2    C7 1578   1.001   2.071  12.840 -0.2128 -0.0341 -0.0295
  103TMC2    C8 1579   1.489   2.058  12.792 -0.5145 -0.2885 -0.0036
  103TMC2    O1 1580   1.035   2.065  12.958  0.1253  0.1984 -0.4673
  103TMC2    O2 1581   1.581   2.068  12.716 -0.6763  0.3994 -0.3245
  103TMC2    O5 1582   1.485   2.115  12.916  0.0196  0.0575 -0.0861
  103TMC2    H5 1583   1.436   2.059  12.979 -0.3072  0.0922 -0.3097
  104MPD2     C 1584   1.396   2.408  12.235  0.0461  0.6853  0.4805
  104MPD2    C1 1585   1.297   2.314  12.255  0.7716 -0.4442 -0.4073
  104MPD2    C2 1586   1.203   2.308  12.154 -0.7948  0.5641  0.2913
  104MPD2    C3 1587   1.189   2.405  12.056 -0.9003 -0.5363 -0.0922
  104MPD2    C4 1588   1.287   2.504  12.050  1.2376  0.4013  0.2605
  104MPD2    C5 1589   1.391   2.499  12.133 -0.4324  0.5423  0.4766
  104MPD2     H 1590   1.131   2.227  12.147  1.2662 -1.1892 -0.9370
  104MPD2    H1 1591   1.288   2.584  11.977 -0.0942  0.2012  0.0230
  104MPD2    H2 1592   1.474   2.415  12.310 -0.4784  1.7096  0.9197
  104MPD2    H3 1593   1.463   2.578  12.115  2.1175 -1.7086  0.7355
  104MPD2     N 1594   1.080   2.404  11.969 -0.4520  0.1237 -0.7219
  104MPD2    H5 1595   1.025   2.318  11.961  0.4260 -0.6930  2.0940
  104MPD2    N1 1596   1.302   2.222  12.365 -0.2012 -0.2928  0.2545
  104MPD2    H7 1597   1.385   2.234  12.422  0.8609 -1.5727 -1.0363
  105MPD2     C 1598   3.255   0.898   0.223 -0.7097  0.1132 -0.2226
  105MPD2    C1 1599   3.224   1.028   0.202 -0.1841  0.5906  0.2177
  105MPD2    C2 1600   3.140   1.093   0.289 -0.0692  0.4563 -0.4486
  105MPD2    C3 1601   3.090   1.034   0.402  0.2891 -0.1607 -0.2876
  105MPD2    C4 1602   3.116   0.894   0.418  0.1004 -0.5797 -0.0412
  105MPD2    C5 1603   3.206   0.834   0.333  0.1646  0.0301  0.0308
  105MPD2     H 1604   3.104   1.192   0.263  0.4210  0.3836 -1.4170
  105MPD2    H1 1605   3.070   0.840   0.499  3.4124 -1.1253  1.4671
  105MPD2    H2 1606   3.305   0.830   0.155  1.1518  0.9818  0.2488
  105MPD2    H3 1607   3.219   0.728   0.347  1.4312  0.1442 -0.2601
  105MPD2     N 1608   3.006   1.118   0.474  0.2807  0.0700 -0.5785
  105MPD2    H5 1609   2.991   1.209   0.433  0.5925  0.5653  0.4055
  105MPD2    N1 1610   3.264   1.100   0.082  0.2396 -0.1194 -0.4723
  105MPD2    H7 1611   3.258   1.201   0.088 -0.2108 -0.3032  2.0723
  106TCq2    C1 1612   2.932   1.072   0.580 -0.3392 -0.0843  0.4168
  106TCq2    O2 1613   2.947   0.972   0.650  0.0503  0.2412 -0.3093
  106TCq2    C2 1614   2.841   1.170   0.632 -0.7636  0.5248  0.0869
  106TCq2    C3 1615   2.838   1.295   0.588 -0.3969  0.3020  0.4686
  106TCq2    C4 1616   2.792   1.400   0.661 -0.2199 -0.3323 -0.8868
  106TCq2    C5 1617   2.741   1.375   0.785 -0.0698  0.4501 -0.6074
  106TCq2    C6 1618   2.744   1.246   0.838 -0.0193 -0.5436 -0.1693
  106TCq2    C7 1619   2.792   1.147   0.759  0.0170 -0.2343 -0.6923
  106TCq2    C8 1620   2.699   1.221   0.971 -0.1261 -0.1671 -0.8437
  106TCq2    O4 1621   2.668   1.103   0.990  0.2791  0.0017  0.1609
  106TCq2    C9 1622   2.788   1.530   0.605  0.0738 -0.1946 -0.4126
  106TCq2    O5 1623   2.718   1.609   0.670  0.5120 -1.0185  0.9870
  106TCq2    O6 1624   2.854   1.554   0.500 -0.2059 -0.2635 -0.3027
  106TCq2    H2 1625   2.875   1.317   0.489 -2.3031  0.8738 -0.1184
  106TCq2    H3 1626   2.715   1.460   0.847  1.4617 -1.3330  2.4698
  106TCq2    H4 1627   2.794   1.050   0.806 -0.1785  0.4557  0.7469
  107TMC2    C1 1628   3.800   0.997  11.379 -0.5550  0.0958  0.0659
  107TMC2    C2 1629   3.828   0.867  11.340  0.0592  0.4735 -0.4836
  107TMC2    C3 1630   3.845   0.845  11.207  0.5329 -0.5435  0.1196
  107TMC2    C4 1631   3.806   1.100  11.292 -0.6564  0.0323  0.1818
  107TMC2    C5 1632   3.802   1.069  11.159 -0.5158 -0.3642 -0.1127
  107TMC2    C6 1633   3.841   0.943  11.114  0.1261 -0.3834  0.2101
  107TMC2     C 1634   3.745   1.031  11.509 -0.0911 -0.0583 -0.2146
  107TMC2     O 1635   3.709   0.937  11.579 -0.1175  0.0499  0.0571
  107TMC2     H 1636   3.820   0.787  11.413 -0.1563  0.4158 -0.5691
  107TMC2    H1 1637   3.792   1.204  11.320 -0.2224 -0.0506  0.7075
  107TMC2    H2 1638   3.833   0.918  11.009 -1.3242 -1.4815  0.5863
  107TMC2    C7 1639   3.772   1.171  11.065 -0.0155  0.4774  0.4007
  107TMC2    C8 1640   3.857   0.701  11.172 -0.0601 -0.6576 -0.3445
  107TMC2    O1 1641   3.770   1.282  11.112 -0.5897  0.4007 -0.3021
  107TMC2    O2 1642   3.808   0.607  11.232 -0.0701 -0.1598 -0.1307
  107TMC2    O5 1643   3.932   0.698  11.059  0.1671  0.4782  0.1478
  107TMC2    H5 1644   3.974   0.781  11.027  0.0197  0.1354 -0.9339
  108MPD2     C 1645   3.688   1.373  11.625  0.0649 -0.4454  0.0088
  108MPD2    C1 1646   3.680   1.238  11.633  0.6335 -0.6755 -0.2476
  108MPD2    C2 1647   3.600   1.182  11.729 -0.2224 -0.1737  0.4396
  108MPD2    C3 1648   3.519   1.259  11.807 -0.3942 -0.2768  0.3171
  108MPD2    C4 1649   3.531   1.393  11.797  0.0200  0.7304  0.3404
  108MPD2    C5 1650   3.622   1.449  11.716 -0.5978  0.2267  0.8881
  108MPD2     H 1651   3.597   1.074  11.736 -1.5326 -0.0630  1.3847
  108MPD2    H1 1652   3.481   1.456  11.870 -0.5053 -0.0030  0.6080
  108MPD2    H2 1653   3.753   1.425  11.556  2.4748 -1.2633  1.6561
  108MPD2    H3 1654   3.639   1.555  11.704 -1.2282  0.2420  0.1578
  108MPD2     N 1655   3.431   1.206  11.904 -0.3289 -0.5429  0.1652
  108MPD2    H5 1656   3.379   1.269  11.965 -0.6712 -1.4387  0.7944
  108MPD2    N1 1657   3.755   1.165  11.538  0.2895  0.4128  0.6058
  108MPD2    H7 1658   3.810   1.216  11.469 -2.2499  1.3823 -0.7201
  109MPD2     C 1659   3.061   2.563   2.039  0.0391 -0.1429 -0.8063
  109MPD2    C1 1660   3.105   2.617   1.916 -0.6246  0.0062 -0.0465
  109MPD2    C2 1661   3.219   2.684   1.915 -0.7955 -0.6644  0.6119
  109MPD2    C3 1662   3.287   2.722   2.021 -0.7316  0.2949 -0.2809
  109MPD2    C4 1663   3.244   2.681   2.150  0.3372 -0.4093  0.0706
  109MPD2    C5 1664   3.130   2.599   2.154 -0.5993  0.3743  0.3308
  109MPD2     H 1665   3.241   2.738   1.823  3.0543 -1.2716  1.1868
  109MPD2    H1 1666   3.306   2.694   2.238  0.2398 -0.6123  0.1676
  109MPD2    H2 1667   2.978   2.495   2.045  0.3499 -0.5457 -1.0832
  109MPD2    H3 1668   3.089   2.566   2.249  0.5214 -0.5684  0.4784
  109MPD2     N 1669   3.391   2.814   2.003  0.2377 -0.0291  0.0336
  109MPD2    H5 1670   3.400   2.838   1.904  3.2927  1.4083  0.6557
  109MPD2    N1 1671   3.031   2.584   1.799  0.2655  0.7731  0.3208
  109MPD2    H7 1672   2.931   2.568   1.799  0.3807  0.0474  2.6951
  110TCq2    C1 1673   3.476   2.878   2.094  0.0875 -0.4795 -0.4755
  110TCq2    O2 1674   3.468   2.877   2.214  0.4839  0.1629  0.0013
  110TCq2    C2 1675   3.567   2.972   2.034 -0.1617  0.4936  0.1024
  110TCq2    C3 1676   3.667   3.017   2.119  0.7595  0.3040  0.1648
  110TCq2    C4 1677   3.774   3.082   2.059 -0.4000 -0.4863  0.6453
  110TCq2    C5 1678   3.772   3.109   1.928 -0.4934 -0.1081 -0.1961
  110TCq2    C6 1679   3.656   3.096   1.858  0.1800  0.3580 -0.4483
  110TCq2    C7 1680   3.555   3.019   1.904 -0.4073 -0.3346  0.6842
  110TCq2    C8 1681   3.646   3.154   1.717 -0.8637 -0.6098 -0.7984
  110TCq2    O4 1682   3.745   3.217   1.679 -0.9343  0.5436 -0.2516
  110TCq2    C9 1683   3.888   3.106   2.145 -0.1665  0.0197  0.0298
  110TCq2    O5 1684   3.992   3.134   2.081 -0.3987  0.7404 -0.4686
  110TCq2    O6 1685   3.869   3.099   2.271  0.3077  0.0522  0.4334
  110TCq2    H2 1686   3.676   2.979   2.220  0.6852 -1.9842 -0.6780
  110TCq2    H3 1687   3.850   3.163   1.875 -0.4739  1.0651  1.0146
  110TCq2    H4 1688   3.473   2.993   1.838 -0.8622  1.0832  0.6986
  111TMC2    C1 1689   3.893   3.128  11.118 -0.1524 -0.5557 -0.1628
  111TMC2    C2 1690   3.995   3.188  11.046  0.0243  0.5177 -0.0662
  111TMC2    C3 1691   4.122   3.173  11.102 -0.0614  0.5397  0.0958
  111TMC2    C4 1692   3.908   3.067  11.241  0.3479 -0.4055 -0.1884
  111TMC2    C5 1693   4.037   3.075  11.293 -0.0752  0.4296  0.4068
  111TMC2    C6 1694   4.150   3.118  11.222 -0.3285 -0.3156  0.1271
  111TMC2     C 1695   3.771   3.102  11.039  0.3565  0.3237 -0.2948
  111TMC2     O 1696   3.755   3.147  10.923  0.7397  1.2596 -0.2067
  111TMC2     H 1697   3.981   3.230  10.947  1.8411  1.8904  0.2397
  111TMC2    H1 1698   3.819   3.033  11.294  0.9527  0.2020  1.1895
  111TMC2    H2 1699   4.247   3.125  11.270 -0.7971 -0.9625  1.1706
  111TMC2    C7 1700   4.064   2.983  11.403  0.4915 -0.0965  0.0598
  111TMC2    C8 1701   4.229   3.185  11.014 -0.0771 -0.5801 -0.0634
  111TMC2    O1 1702   3.991   2.979  11.501 -0.0556  1.1630  0.0492
  111TMC2    O2 1703   4.330   3.127  11.045  0.0420  0.5289  0.5503
  111TMC2    O5 1704   4.236   3.314  10.987  0.0975 -1.0609  0.0087
  111TMC2    H5 1705   4.153   3.359  10.961 -0.0260 -1.7926 -0.8949
  112MPD2     C 1706   3.290   2.893  11.038 -0.0919  1.1687 -0.5808
  112MPD2    C1 1707   3.361   2.961  10.936  0.3732  0.1585 -0.5544
  112MPD2    C2 1708   3.498   2.993  10.960 -0.6058  0.2190 -0.1265
  112MPD2    C3 1709   3.555   2.983  11.083 -0.3678  0.0217  0.2154
  112MPD2    C4 1710   3.478   2.931  11.185 -0.5221 -0.4598 -0.1821
  112MPD2    C5 1711   3.358   2.868  11.158  0.1374  0.3249 -0.6646
  112MPD2     H 1712   3.555   3.040  10.881  0.1826  0.4680  0.5869
  112MPD2    H1 1713   3.518   2.932  11.285 -0.8139 -0.4057 -0.0673
  112MPD2    H2 1714   3.186   2.868  11.023  0.3928 -0.8047 -0.6045
  112MPD2    H3 1715   3.301   2.822  11.238  1.7076 -2.1706 -0.9904
  112MPD2     N 1716   3.685   3.027  11.116 -0.4654  0.4596  0.6352
  112MPD2    H5 1717   3.709   3.006  11.212 -0.0410 -0.3225  0.3557
  112MPD2    N1 1718   3.308   2.996  10.810 -0.4250  0.1837 -0.5363
  112MPD2    H7 1719   3.367   3.043  10.743 -1.2410  3.6701  1.1648
  113MPD2     C 1720   2.741   0.083   1.299 -0.4237 -0.5062 -0.0902
  113MPD2    C1 1721   2.606   0.126   1.316 -0.1311  0.1035 -0.6716
  113MPD2    C2 1722   2.519   0.084   1.220  0.1454  0.2489  0.4200
  113MPD2    C3 1723   2.552   4.722   1.116  0.1457 -0.3851 -0.2161
  113MPD2    C4 1724   2.681   4.672   1.106 -0.7151 -0.1764  0.1228
  113MPD2    C5 1725   2.769   4.714   1.206 -0.8313  0.4055  0.5951
  113MPD2     H 1726   2.421   0.130   1.220 -0.9517 -2.1223 -0.7523
  113MPD2    H1 1727   2.719   4.606   1.028 -1.0724  1.6147 -1.5478
  113MPD2    H2 1728   2.826   0.105   1.364 -2.3064  1.8886  1.5671
  113MPD2    H3 1729   2.876   4.695   1.200 -1.1606 -1.6306  1.3329
  113MPD2     N 1730   2.463   4.696   1.011 -0.3537 -0.3912  0.3507
  113MPD2    H5 1731   2.510   4.656   0.930 -2.0290 -1.2859 -0.1918
  113MPD2    N1 1732   2.560   0.213   1.415 -0.5572 -0.3725 -0.4110
  113MPD2    H7 1733   2.466   0.249   1.404 -0.2453  0.7380  0.5332
  114TCq2    C1 1734   2.334   0.016   0.993 -0.3449  0.1376  0.3950
  114TCq2    O2 1735   2.253   0.034   1.083 -1.1659  0.4052 -0.2038
  114TCq2    C2 1736   2.286   4.707   0.866  0.0858  0.2345  0.4569
  114TCq2    C3 1737   2.337   0.084   0.782 -0.9874 -0.4057  0.3091
  114TCq2    C4 1738   2.255   0.158   0.698  0.0778 -0.4064  0.0225
  114TCq2    C5 1739   2.120   0.132   0.691  0.1758  0.0921 -0.1591
  114TCq2    C6 1740   2.079   0.032   0.767 -0.1556 -0.4108 -0.5755
  114TCq2    C7 1741   2.153   4.682   0.852  0.0205 -0.3146  0.1626
  114TCq2    C8 1742   1.937   0.008   0.753  0.1937  0.1335  0.2153
  114TCq2    O4 1743   1.880   0.026   0.649  0.0135  0.3217 -0.2155
  114TCq2    C9 1744   2.308   0.279   0.626  0.3243  0.3824  0.4416
  114TCq2    O5 1745   2.232   0.377   0.608 -0.0354  0.1967 -0.2338
  114TCq2    O6 1746   2.431   0.295   0.625 -0.6401  0.3823 -0.6385
  114TCq2    H2 1747   2.441   0.112   0.797 -0.4305 -1.3561 -1.9162
  114TCq2    H3 1748   2.058   0.191   0.625 -0.1134 -0.4713 -0.3932
  114TCq2    H4 1749   2.119   4.588   0.896 -1.8999  1.3558  2.2167
  115TMC2    C1 1750   2.918   2.841   0.085  0.0583  0.0737  0.0446
  115TMC2    C2 1751   3.038   2.777   0.076  0.6506 -0.0271 -0.1089
  115TMC2    C3 1752   3.151   2.856   0.084 -1.0888 -0.4181  0.3665
  115TMC2    C4 1753   2.895   2.976   0.069 -0.1705  0.1209 -0.9477
  115TMC2    C5 1754   3.014   3.048   0.089 -0.1291  0.1216 -0.0958
  115TMC2    C6 1755   3.140   2.992   0.097 -0.0300  1.0552  0.2332
  115TMC2     C 1756   2.804   2.749   0.107 -0.1091 -0.4468 -0.1537
  115TMC2     O 1757   2.713   2.756   0.030 -0.3043 -0.3290 -0.2160
  115TMC2     H 1758   3.034   2.671   0.097  2.1569  0.5034  2.9570
  115TMC2    H1 1759   2.798   3.022   0.085  1.0215  1.9926  0.9686
  115TMC2    H2 1760   3.227   3.050   0.125  2.2896 -1.2193 -2.2187
  115TMC2    C7 1761   3.005   3.188   0.135  0.0399 -0.4854 -0.4885
  115TMC2    C8 1762   3.255   2.777   0.144 -0.4540 -0.0945  0.2885
  115TMC2    O1 1763   3.076   3.224   0.230  0.2033 -0.6259  0.5118
  115TMC2    O2 1764   3.344   2.817   0.222  0.5736 -0.3156  0.0280
  115TMC2    O5 1765   3.261   2.660   0.079  0.2367 -0.1363 -1.1407
  115TMC2    H5 1766   3.201   2.651   0.002  1.0175 -0.3924 -1.7118
  116MPD2     C 1767   2.528   2.494   0.450 -0.1255 -0.0614  0.1484
  116MPD2    C1 1768   2.498   2.512   0.316  0.5831  0.0898 -0.7106
  116MPD2    C2 1769   2.591   2.582   0.236  0.0704  0.1451  0.6144
  116MPD2    C3 1770   2.712   2.633   0.300  1.1225  0.1550 -0.1859
  116MPD2    C4 1771   2.730   2.615   0.437  0.2130 -0.0899  0.0078
  116MPD2    C5 1772   2.638   2.544   0.503 -0.1369 -0.1446 -0.1559
  116MPD2     H 1773   2.587   2.602   0.129  0.3823  0.2067  0.6159
  116MPD2    H1 1774   2.821   2.656   0.478  0.2537 -1.8118  1.6388
  116MPD2    H2 1775   2.468   2.433   0.517  0.1130  0.0512  0.4650
  116MPD2    H3 1776   2.655   2.535   0.610 -1.3089  1.0324  0.1406
  116MPD2     N 1777   2.813   2.695   0.232  0.7140 -0.5706  0.2508
  116MPD2    H5 1778   2.896   2.720   0.286  0.0255 -0.2471  1.1600
  116MPD2    N1 1779   2.379   2.446   0.268  0.1651 -0.2451  0.1501
  116MPD2    H7 1780   2.323   2.390   0.332 -1.5826  0.3284 -0.8667
  117TMC2    C1 1781   1.573   4.627  13.938  0.2024 -0.4291 -0.2685
  117TMC2    C2 1782   1.651   4.518  13.951  0.5604  0.1132  0.0034
  117TMC2    C3 1783   1.782   4.543  13.991  0.1758  0.6230  0.3522
  117TMC2    C4 1784   1.617   0.033  13.959 -0.5197  1.0760  0.4789
  117TMC2    C5 1785   1.743   0.045  13.996 -0.7081  0.6962 -1.0795
  117TMC2    C6 1786   1.831   4.669  14.011  0.6001 -0.4465  0.0042
  117TMC2     C 1787   1.439   4.600  13.878  0.1516 -0.7675 -0.7414
  117TMC2     O 1788   1.387   4.488  13.890 -0.0965 -0.2559 -0.4389
  117TMC2     H 1789   1.613   4.419  13.931  1.0495 -0.2865  1.1182
  117TMC2    H1 1790   1.549   0.116  13.946  0.8943  2.0399 -0.7352
  117TMC2    H2 1791   1.935   4.680  14.040  1.1937 -2.6346 -1.2502
  117TMC2    C7 1792   1.805   0.170  13.983  0.0121 -0.0694  0.5827
  117TMC2    C8 1793   1.889   4.447  13.944  0.0524 -0.6212  0.9249
  117TMC2    O1 1794   1.930   0.182  13.983  0.2708 -0.2309  0.1138
  117TMC2    O2 1795   1.864   4.364  13.853  0.3283 -0.3254  0.3918
  117TMC2    O5 1796   1.967   4.416  14.047 -0.3521  0.6413  0.4382
  117TMC2    H5 1797   1.987   4.487  14.112  0.7691  1.8059 -1.1862
  118MPD2     C 1798   1.644   0.485  13.921 -0.0876 -0.4947 -0.1732
  118MPD2    C1 1799   1.747   0.400  13.916 -0.9519  0.6139  0.2152
  118MPD2    C2 1800   1.857   0.434  13.837 -0.7555  0.2729 -0.4668
  118MPD2    C3 1801   1.860   0.550  13.768 -0.2474 -0.4509  0.4815
  118MPD2    C4 1802   1.754   0.635  13.778 -0.0816  0.0671 -0.4000
  118MPD2    C5 1803   1.645   0.604  13.858  0.6783  0.0665 -0.3305
  118MPD2     H 1804   1.935   0.360  13.825  0.1935  1.6621 -2.8058
  118MPD2    H1 1805   1.748   0.726  13.720  0.9236 -0.8294 -1.8916
  118MPD2    H2 1806   1.555   0.461  13.978  0.4067 -0.7192  0.4975
  118MPD2    H3 1807   1.555   0.664  13.858  0.7715  0.2071 -1.0230
  118MPD2     N 1808   1.977   0.591  13.692  0.0627  0.2353  0.1743
  118MPD2    H5 1809   1.982   0.681  13.647 -0.6563 -0.2585 -0.8955
  118MPD2    N1 1810   1.721   0.278  13.980 -0.2522 -0.0445  0.0022
  118MPD2    H7 1811   1.630   0.254  14.018  0.1940 -0.4982  0.7963
  119MPD2     C 1812   4.692   1.498  13.862 -0.2037 -0.4161 -0.4625
  119MPD2    C1 1813   4.564   1.531  13.904 -0.1858  0.6939  0.4213
  119MPD2    C2 1814   4.467   1.548  13.808  0.3276 -0.0005 -0.6365
  119MPD2    C3 1815   4.500   1.534  13.675  0.4394  0.0388 -0.4334
  119MPD2    C4 1816   4.625   1.482  13.641  0.3835 -0.6333 -0.0282
  119MPD2    C5 1817   4.722   1.472  13.735 -0.1962  0.3611 -0.6623
  119MPD2     H 1818   4.364   1.582  13.820  0.3778  0.8099 -2.4365
  119MPD2    H1 1819   4.641   1.453  13.538 -0.5038 -0.5859 -0.1848
  119MPD2    H2 1820   0.049   1.488  13.934 -1.0407  0.2036  0.5626
  119MPD2    H3 1821   0.101   1.453  13.704 -0.2015 -1.7678  0.6426
  119MPD2     N 1822   4.413   1.565  13.565  0.2684  0.3443  0.5378
  119MPD2    H5 1823   4.453   1.530  13.479  0.7494  0.8967  0.5404
  119MPD2    N1 1824   4.552   1.564  14.038  0.3801  0.3717  0.3464
  119MPD2    H7 1825   4.636   1.567  14.094  0.8426 -0.6469 -0.3119
  120TCq2    C1 1826   4.293   1.626  13.569  0.2453 -0.6770  0.0348
  120TCq2    O2 1827   4.218   1.636  13.664  0.4344  0.5648 -0.0987
  120TCq2    C2 1828   4.236   1.644  13.438  0.3085 -0.6820  0.1032
  120TCq2    C3 1829   4.309   1.633  13.331  0.4875 -0.1002 -0.2717
  120TCq2    C4 1830   4.245   1.579  13.220  0.6365  0.2390 -0.3201
  120TCq2    C5 1831   4.109   1.563  13.207  0.5993 -0.3803 -0.4378
  120TCq2    C6 1832   4.039   1.596  13.319 -0.4934  0.4752 -1.0952
  120TCq2    C7 1833   4.101   1.629  13.436 -0.5537 -0.6984 -0.0137
  120TCq2    C8 1834   3.911   1.527  13.336  0.4083 -0.7321 -0.0153
  120TCq2    O4 1835   3.845   1.497  13.236 -0.4135  0.0962  0.0733
  120TCq2    C9 1836   4.322   1.576  13.099 -0.4851  0.3004  0.3988
  120TCq2    O5 1837   4.263   1.560  12.986 -0.6644 -0.1414  0.4777
  120TCq2    O6 1838   4.448   1.575  13.114  0.0337 -0.6752  0.0962
  120TCq2    H2 1839   4.413   1.664  13.335  1.2515 -2.3795 -2.0218
  120TCq2    H3 1840   4.065   1.528  13.114 -0.0143 -0.1301 -0.2441
  120TCq2    H4 1841   4.044   1.652  13.525  0.0782 -0.2943  0.2845
  121TMC2    C1 1842   0.602   3.101  14.484  0.0482 -0.5884 -0.3844
  121TMC2    C2 1843   0.584   3.019  14.592 -0.5878  0.3813  0.2292
  121TMC2    C3 1844   0.455   2.986  14.628  0.0728 -0.0858  0.1403
  121TMC2    C4 1845   0.496   3.150  14.414  0.2601  0.0133  0.0216
  121TMC2    C5 1846   0.371   3.113  14.450 -0.3516 -0.4607 -0.9758
  121TMC2    C6 1847   0.350   3.022  14.555  0.5418 -0.5231  0.4408
  121TMC2     C 1848   0.737   3.158  14.459  0.0107  0.2501 -0.1895
  121TMC2     O 1849   0.823   3.141  14.549 -0.2257  0.7076  0.0992
  121TMC2     H 1850   0.664   2.986  14.657 -0.0355  0.6459 -0.3225
  121TMC2    H1 1851   0.510   3.216  14.329  0.8627 -0.3508 -0.1660
  121TMC2    H2 1852   0.254   2.976  14.578  1.2812 -1.0707  2.3955
  121TMC2    C7 1853   0.268   3.187  14.392 -1.1412  0.6148 -0.6451
  121TMC2    C8 1854   0.433   2.874  14.724  0.1978 -0.3053 -0.5356
  121TMC2    O1 1855   0.298   3.293  14.342 -0.0951  0.1773  0.6370
  121TMC2    O2 1856   0.513   2.785  14.746 -0.3812 -0.1719  1.1630
  121TMC2    O5 1857   0.318   2.896  14.788  0.3411 -0.0561 -0.0199
  121TMC2    H5 1858   0.295   2.991  14.781  1.9242  0.4257  1.1382
  122MPD2     C 1859   0.980   3.285  14.345 -0.7432 -0.6343  0.1638
  122MPD2    C1 1860   0.869   3.248  14.273 -0.0503  0.0309  0.2730
  122MPD2    C2 1861   0.883   3.252  14.129  0.0694  0.4006  0.2017
  122MPD2    C3 1862   0.997   3.303  14.063  0.1829  0.0582 -0.6330
  122MPD2    C4 1863   1.105   3.342  14.136  0.4595 -0.2004  0.2880
  122MPD2    C5 1864   1.090   3.344  14.279  0.6325  0.7012 -0.5936
  122MPD2     H 1865   0.805   3.214  14.063 -0.0661  1.9074 -0.5059
  122MPD2    H1 1866   1.192   3.389  14.092  0.7699  2.1707  3.4559
  122MPD2    H2 1867   0.985   3.285  14.453 -0.0673  1.6092  0.1187
  122MPD2    H3 1868   1.179   3.369  14.336 -0.4784  1.2302  0.8865
  122MPD2     N 1869   1.012   3.323  13.927  0.3361 -0.0493 -0.4034
  122MPD2    H5 1870   1.097   3.374  13.906  1.2727 -1.0207  1.0808
  122MPD2    N1 1871   0.753   3.205  14.331 -0.1610  0.1919  0.0636
  122MPD2    H7 1872   0.677   3.177  14.269 -1.5677 -1.4432  2.5077
  123MPD2     C 1873   2.673   1.463   9.014  0.4092  0.5729 -0.5667
  123MPD2    C1 1874   2.678   1.565   9.103  0.3600  0.6808 -0.1660
  123MPD2    C2 1875   2.793   1.584   9.172  0.4623 -0.4108 -0.1855
  123MPD2    C3 1876   2.897   1.497   9.163 -0.9476 -0.3269  0.5804
  123MPD2    C4 1877   2.888   1.389   9.078 -0.7858  0.3980 -0.1538
  123MPD2    C5 1878   2.778   1.373   9.001 -0.2783 -0.0271 -0.6828
  123MPD2     H 1879   2.805   1.680   9.221  2.2209 -0.5225 -0.3861
  123MPD2    H1 1880   2.974   1.325   9.066 -1.1561 -0.1891  0.3366
  123MPD2    H2 1881   2.584   1.443   8.955 -1.4206  3.3729  1.2798
  123MPD2    H3 1882   2.775   1.288   8.934 -2.6400 -0.7741  0.3731
  123MPD2     N 1883   3.019   1.522   9.223  0.0595 -0.9338  0.4021
  123MPD2    H5 1884   3.036   1.613   9.266 -3.1555 -0.4277  0.5826
  123MPD2    N1 1885   2.575   1.661   9.096  0.4464 -0.0900 -0.1045
  123MPD2    H7 1886   2.509   1.643   9.022  0.7128  0.6163 -0.5143
  124TCq2    C1 1887   3.134   1.445   9.225 -0.7747  0.5203 -0.4798
  124TCq2    O2 1888   3.132   1.326   9.205 -0.2716  0.4693 -0.0253
  124TCq2    C2 1889   3.246   1.519   9.285  0.3082  0.8551  0.2108
  124TCq2    C3 1890   3.261   1.655   9.280 -0.3309 -0.4592 -0.1869
  124TCq2    C4 1891   3.356   1.714   9.362 -0.4563  0.0271 -0.1660
  124TCq2    C5 1892   3.445   1.632   9.429 -0.0396 -0.0649  0.1059
  124TCq2    C6 1893   3.431   1.498   9.430  0.0126 -0.6451 -0.4681
  124TCq2    C7 1894   3.331   1.439   9.359  0.8352 -0.7330 -0.4634
  124TCq2    C8 1895   3.535   1.418   9.495 -0.1235 -0.4159  0.3226
  124TCq2    O4 1896   3.636   1.469   9.535  0.7701  0.0231 -0.0728
  124TCq2    C9 1897   3.369   1.858   9.373 -0.2161  0.1427 -0.2157
  124TCq2    O5 1898   3.461   1.907   9.445 -0.0626  0.1130 -0.5219
  124TCq2    O6 1899   3.309   1.923   9.285 -0.4719  0.5238  0.3891
  124TCq2    H2 1900   3.209   1.720   9.211  0.1150  0.5598  0.4268
  124TCq2    H3 1901   3.522   1.684   9.483  1.4992 -2.0968 -0.1360
  124TCq2    H4 1902   3.309   1.334   9.372  0.5002 -0.7263 -0.9978
  125TMC2    C1 1903   4.655   3.802   9.145 -0.3428  0.1551  0.7479
  125TMC2    C2 1904   4.591   3.925   9.139  0.3250  0.1111  0.0262
  125TMC2    C3 1905   4.639   4.020   9.058  0.3983  0.5431 -0.3675
  125TMC2    C4 1906   0.048   3.777   9.073 -0.0738 -0.0508  0.5284
  125TMC2    C5 1907   0.099   3.885   9.001  0.4095 -0.4809 -0.1710
  125TMC2    C6 1908   0.027   4.003   8.983 -0.9549 -0.3265 -0.1482
  125TMC2     C 1909   4.600   3.689   9.217 -0.6854 -0.2175 -0.4865
  125TMC2     O 1910   4.689   3.602   9.242 -0.2382  0.8419  0.0800
  125TMC2     H 1911   4.522   3.951   9.219  1.2535  2.8778 -0.0646
  125TMC2    H1 1912   0.101   3.683   9.065  2.6145  1.3687  1.8777
  125TMC2    H2 1913   0.075   4.084   8.929  0.5465 -0.0027  1.6499
  125TMC2    C7 1914   0.209   3.865   8.910 -0.3116 -0.2565 -0.1834
  125TMC2    C8 1915   4.557   4.142   9.039  0.2521  0.7028  0.4903
  125TMC2    O1 1916   0.219   3.946   8.816 -0.5890  0.3091  0.2073
  125TMC2    O2 1917   4.606   4.253   9.026 -0.1254 -0.9839  0.3693
  125TMC2    O5 1918   4.435   4.102   8.997 -0.6645 -0.1675  0.2376
  125TMC2    H5 1919   4.431   4.009   9.028  0.2064  0.1493  1.3372
  126MPD1     C 1920   4.232   3.418   9.447  0.2047 -0.1400  0.5551
  126MPD1    C1 1921   4.173   3.534   9.399  0.2739 -0.3737 -0.3020
  126MPD1    C2 1922   4.256   3.632   9.359  0.1837 -0.0130  0.3990
  126MPD1    C3 1923   4.393   3.609   9.342 -0.3158 -0.5057 -0.2560
  126MPD1    C4 1924   4.448   3.490   9.383  0.5546 -0.3275  0.3324
  126MPD1    C5 1925   4.364   3.394   9.426 -0.2634 -0.3890 -0.1730
  126MPD1     H 1926   4.217   3.729   9.330  2.0586  0.7326  0.3217
  126MPD1    H1 1927   4.549   3.459   9.358 -0.4757 -1.4896 -2.4305
  126MPD1    H2 1928   4.179   3.341   9.502  1.5989 -1.3938  0.1615
  126MPD1    H3 1929   4.413   3.301   9.454  0.8638  0.0112 -0.8099
  126MPD1     N 1930   4.469   3.708   9.268  0.0007  0.0383 -1.3107
  126MPD1    H5 1931   4.415   3.788   9.238 -1.5261 -0.9231 -1.1239
  126MPD1    N1 1932   4.042   3.560   9.436 -0.0483 -0.0779  0.3660
  126MPD1    H6 1933   3.996   3.638   9.390 -0.7037 -0.5474  0.2170
  126MPD1    H7 1934   3.985   3.476   9.427  0.0206 -0.1710  0.7800
  127MPD2     C 1935   1.286   1.534   9.655  0.2702  0.1514  0.0917
  127MPD2    C1 1936   1.161   1.588   9.661 -0.0691  0.4763  0.6884
  127MPD2    C2 1937   1.139   1.713   9.612  0.3391  0.0693 -0.4498
  127MPD2    C3 1938   1.234   1.774   9.535  0.3540 -0.1587  0.2789
  127MPD2    C4 1939   1.359   1.723   9.537 -0.3042  0.5687 -0.5161
  127MPD2    C5 1940   1.391   1.605   9.601 -0.4298  0.4918 -0.0318
  127MPD2     H 1941   1.040   1.755   9.622  1.8659  3.3681  1.0659
  127MPD2    H1 1942   1.439   1.780   9.492  0.6538  0.4299  0.9920
  127MPD2    H2 1943   1.312   1.432   9.683  1.6902  0.6380  0.5242
  127MPD2    H3 1944   1.488   1.556   9.597 -1.6961 -1.9867  0.0790
  127MPD2     N 1945   1.208   1.899   9.461  0.3164  0.3328 -0.8383
  127MPD2    H5 1946   1.122   1.951   9.475  0.2724 -0.3383  1.2743
  127MPD2    N1 1947   1.067   1.501   9.715 -0.0737 -0.1533 -0.0189
  127MPD2    H7 1948   1.108   1.412   9.742 -0.3945 -0.7445 -1.4348
  128TCq2    C1 1949   0.929   1.511   9.709  0.2544 -0.0591 -0.0127
  128TCq2    O2 1950   0.866   1.611   9.667 -0.8540  0.4978 -0.0446
  128TCq2    C2 1951   0.854   1.404   9.768 -0.1580  0.0641 -0.3984
  128TCq2    C3 1952   0.880   1.376   9.900  0.7305 -0.2290  0.2425
  128TCq2    C4 1953   0.781   1.310   9.973  0.1332 -0.3695 -0.3904
  128TCq2    C5 1954   0.666   1.278   9.907 -0.2404  0.1258  0.2623
  128TCq2    C6 1955   0.646   1.298   9.771  0.2250 -0.0941  0.3105
  128TCq2    C7 1956   0.743   1.360   9.696  0.3096  0.0720 -0.1179
  128TCq2    C8 1957   0.525   1.254   9.698  0.0495 -0.0428  0.3967
  128TCq2    O4 1958   0.501   1.290   9.582  0.0669  0.3991  0.1672
  128TCq2    C9 1959   0.801   1.297  10.119 -0.6237  0.6596  0.9818
  128TCq2    O5 1960   0.911   1.334  10.172  0.8277 -0.4104  0.5714
  128TCq2    O6 1961   0.702   1.261  10.186  0.0958  0.4473  0.6388
  128TCq2    H2 1962   0.964   1.423   9.950  0.9033 -1.3976  1.0534
  128TCq2    H3 1963   0.595   1.235   9.978 -0.8989  1.9554  0.7113
  128TCq2    H4 1964   0.726   1.379   9.590 -1.8670  2.8429  0.7316
  129MPD2     C 1965   3.693   2.908   0.911 -0.2417 -0.0937 -0.2009
  129MPD2    C1 1966   3.797   2.984   0.953 -0.5057 -0.1975  0.0657
  129MPD2    C2 1967   3.875   3.035   0.854  0.2849 -0.1361  0.0780
  129MPD2    C3 1968   3.847   3.016   0.717 -0.2378 -0.0445 -0.0586
  129MPD2    C4 1969   3.739   2.947   0.679  0.4304  0.0829 -0.2870
  129MPD2    C5 1970   3.656   2.898   0.779 -0.0231 -0.0155 -0.0726
  129MPD2     H 1971   3.957   3.100   0.885  0.7914  0.3085 -2.2202
  129MPD2    H1 1972   3.711   2.937   0.575 -1.1458 -1.4853  0.2877
  129MPD2    H2 1973   3.626   2.864   0.983  0.3569  2.7830  2.0950
  129MPD2    H3 1974   3.560   2.852   0.758  0.5759 -1.6670  0.7803
  129MPD2     N 1975   3.934   3.073   0.624 -0.0218 -0.2548  0.7533
  129MPD2    H5 1976   3.992   3.149   0.660  1.8400 -0.8774 -0.9410
  129MPD2    N1 1977   3.835   2.992   1.092 -0.2816 -0.2075  0.1001
  129MPD2    H7 1978   3.919   3.039   1.122 -0.6188  0.4615  0.0053
  130TCq2    C1 1979   3.768   2.936   1.202 -0.3523 -0.0276 -1.0618
  130TCq2    O2 1980   3.655   2.887   1.210  0.3766  0.3910  0.6001
  130TCq2    C2 1981   3.844   2.947   1.329  0.2749 -0.8480  0.2066
  130TCq2    C3 1982   3.983   2.945   1.328  0.5170 -0.1850  0.0513
  130TCq2    C4 1983   4.034   2.901   1.444  0.1415 -0.3412 -0.5934
  130TCq2    C5 1984   3.964   2.864   1.557  0.1060  0.1538 -0.0136
  130TCq2    C6 1985   3.825   2.878   1.556 -0.2745  0.2002  0.6454
  130TCq2    C7 1986   3.769   2.919   1.439  0.0757 -0.3070  0.9275
  130TCq2    C8 1987   3.748   2.809   1.658 -0.2654  0.0594 -0.3575
  130TCq2    O4 1988   3.650   2.750   1.614 -0.6976 -0.0323  0.2251
  130TCq2    C9 1989   4.181   2.909   1.463  0.3166 -0.2959  0.1827
  130TCq2    O5 1990   4.225   2.851   1.568  0.5540  0.2341  0.2755
  130TCq2    O6 1991   4.245   2.982   1.384 -0.7970  0.3988 -0.1521
  130TCq2    H2 1992   4.046   2.948   1.240  1.4975  1.5648  0.8121
  130TCq2    H3 1993   4.025   2.826   1.639  0.9013  2.6913  0.5860
  130TCq2    H4 1994   3.661   2.910   1.433  0.1077  0.1474 -0.3257
  131MPD2     C 1995   2.831   2.310   8.611  0.1623 -0.1680 -0.1785
  131MPD2    C1 1996   2.880   2.287   8.745 -0.1595  0.3142 -1.4200
  131MPD2    C2 1997   2.796   2.222   8.831 -0.0236  0.3422 -0.0895
  131MPD2    C3 1998   2.670   2.191   8.789 -0.0978  0.1408  0.3763
  131MPD2    C4 1999   2.612   2.226   8.666 -0.1556  0.1962 -0.0399
  131MPD2    C5 2000   2.699   2.286   8.579 -0.8142 -0.0733  0.6552
  131MPD2     H 2001   2.829   2.195   8.931 -2.1785 -0.3380  0.4390
  131MPD2    H1 2002   2.515   2.188   8.637 -0.5403  1.3226 -0.2354
  131MPD2    H2 2003   2.906   2.350   8.543 -0.2706 -3.7722 -2.7886
  131MPD2    H3 2004   2.669   2.298   8.475  0.2342 -0.2087  0.3371
  131MPD2     N 2005   2.590   2.125   8.888  0.6192 -0.0019 -0.8010
  131MPD2    H5 2006   2.635   2.100   8.976 -0.6741  1.6812  0.3571
  131MPD2    N1 2007   3.012   2.314   8.776 -0.2628 -0.2733  0.0673
  131MPD2    H7 2008   3.063   2.363   8.704  0.7959  1.6512  2.1027
  132TCq2    C1 2009   3.398   2.650   8.838 -0.7504  0.1548 -0.0834
  132TCq2    O2 2010   3.334   2.680   8.739  0.2000 -0.5030 -0.4591
  132TCq2    C2 2011   3.357   2.522   8.896 -0.1457  0.1054 -0.5895
  132TCq2    C3 2012   3.446   2.455   8.979 -0.0201  0.5327 -0.2211
  132TCq2    C4 2013   3.411   2.330   9.024 -0.1549  0.2015 -1.0132
  132TCq2    C5 2014   3.296   2.264   8.979 -0.9326 -0.4825  0.0472
  132TCq2    C6 2015   3.206   2.338   8.901  0.3853  0.4187 -0.2397
  132TCq2    C7 2016   3.238   2.461   8.858  0.6280  0.2947 -0.3759
  132TCq2    C8 2017   3.076   2.280   8.891 -0.2858 -0.1063  0.5448
  132TCq2    O4 2018   3.043   2.215   8.988  0.5755 -0.1653  1.0756
  132TCq2    C9 2019   3.505   2.264   9.115 -0.3172 -0.1371 -0.3064
  132TCq2    O5 2020   3.624   2.308   9.098  0.1362  0.1233  0.0331
  132TCq2    O6 2021   3.466   2.164   9.178 -0.0899 -0.0388  0.2020
  132TCq2    H2 2022   3.543   2.497   9.004  0.2298 -1.1137  1.5485
  132TCq2    H3 2023   3.274   2.163   9.011 -2.8903  0.4856  1.7270
  132TCq2    H4 2024   3.165   2.511   8.795 -0.5564 -1.4862 -0.4038
  133MPD2     C 2025   2.670   2.644   8.274  0.0819 -0.0682  0.6493
  133MPD2    C1 2026   2.578   2.583   8.358  0.0983 -0.5136  0.2910
  133MPD2    C2 2027   2.601   2.592   8.492 -0.1137  0.0208  0.6600
  133MPD2    C3 2028   2.711   2.649   8.546 -0.3183 -0.0596  0.1512
  133MPD2    C4 2029   2.795   2.714   8.466  0.5707  0.0650 -0.2471
  133MPD2    C5 2030   2.775   2.714   8.330  0.4447  0.4525  0.1405
  133MPD2     H 2031   2.545   2.546   8.571 -2.0856 -1.5869 -1.6922
  133MPD2    H1 2032   2.878   2.771   8.505  1.6785 -2.2673  0.7812
  133MPD2    H2 2033   2.660   2.638   8.166  0.1829 -0.8291  0.6825
  133MPD2    H3 2034   2.839   2.776   8.269  1.1030 -0.5056 -0.1454
  133MPD2     N 2035   2.736   2.644   8.691  0.1060  0.2264 -0.1530
  133MPD2    H5 2036   2.664   2.600   8.747  0.2434  0.1378 -0.0450
  133MPD2    N1 2037   2.479   2.499   8.307  0.2963  0.1674 -0.1681
  133MPD2    H7 2038   2.486   2.490   8.206 -0.5147  1.2777 -0.3191
  134TCq2    C1 2039   2.367   2.453   8.381  0.2888  0.3428  0.4224
  134TCq2    O2 2040   2.346   2.467   8.502  0.0424 -0.5115 -0.7469
  134TCq2    C2 2041   2.270   2.373   8.302 -0.1477  0.4380 -0.8109
  134TCq2    C3 2042   2.318   2.300   8.195 -0.3340 -0.2576 -0.0565
  134TCq2    C4 2043   2.222   2.225   8.126 -0.2460  0.7312 -0.5270
  134TCq2    C5 2044   2.088   2.224   8.158 -0.1154 -0.1596 -0.2672
  134TCq2    C6 2045   2.052   2.283   8.275  0.4527  0.1594  0.4256
  134TCq2    C7 2046   2.142   2.350   8.351  1.0807 -0.2649  0.4229
  134TCq2    C8 2047   1.943   2.213   8.337  0.4044 -0.0698 -0.0569
  134TCq2    O4 2048   1.843   2.190   8.268  0.6888 -0.5534  0.6287
  134TCq2    C9 2049   2.263   2.152   8.009  0.0544  0.2056 -0.3991
  134TCq2    O5 2050   2.387   2.147   7.984 -0.2052  0.1719  0.2057
  134TCq2    O6 2051   2.185   2.067   7.960 -0.1107 -0.2125 -0.3232
  134TCq2    H2 2052   2.422   2.291   8.166 -1.1616  0.2132 -3.2414
  134TCq2    H3 2053   2.021   2.162   8.099  0.5809  0.6369 -1.9062
  134TCq2    H4 2054   2.115   2.395   8.446 -1.4048 -3.2779  1.1405
  135MPD2     C 2055   0.106   4.094   9.382  0.7595 -0.3464 -0.9694
  135MPD2    C1 2056   0.179   3.983   9.366  0.3576  0.5439 -0.1130
  135MPD2    C2 2057   0.281   3.980   9.274 -0.6011  0.2006 -0.1712
  135MPD2    C3 2058   0.318   4.091   9.202 -0.2045 -0.3422  0.5256
  135MPD2    C4 2059   0.242   4.209   9.213 -0.4319  0.1792  0.3404
  135MPD2    C5 2060   0.132   4.199   9.297 -0.2137  0.2416  0.3262
  135MPD2     H 2061   0.331   3.884   9.268  2.6058  1.7784  0.8032
  135MPD2    H1 2062   0.259   4.292   9.146  1.3856  2.0269  3.1236
  135MPD2    H2 2063   0.024   4.095   9.454  1.9831 -1.4544  0.4535
  135MPD2    H3 2064   0.071   4.288   9.282 -1.1520 -0.4947 -0.2072
  135MPD2     N 2065   0.426   4.084   9.107 -0.2833  0.2234 -0.3550
  135MPD2    H5 2066   0.428   4.156   9.036 -0.5352 -0.1331 -0.7257
  135MPD2    N1 2067   0.155   3.857   9.430  0.7535 -0.4458 -0.5773
  135MPD2    H7 2068   0.219   3.782   9.404 -0.9760 -2.6918  1.6045
  136TCq2    C1 2069   0.057   3.841   9.524 -0.4043  0.3600 -0.4145
  136TCq2    O2 2070   4.690   3.911   9.560  0.2850  0.4570 -0.7159
  136TCq2    C2 2071   0.061   3.708   9.580  0.2690  0.5438  0.2473
  136TCq2    C3 2072   4.669   3.680   9.650  0.3235 -0.9279 -0.1527
  136TCq2    C4 2073   4.625   3.549   9.655 -0.3717  0.2006  0.0653
  136TCq2    C5 2074   4.692   3.456   9.576  1.0352 -0.3006  0.1189
  136TCq2    C6 2075   0.086   3.485   9.514  0.0469 -0.4369  0.2141
  136TCq2    C7 2076   0.135   3.614   9.516 -0.1769  0.3972 -0.3368
  136TCq2    C8 2077   0.175   3.386   9.455  0.3502 -0.4541 -0.7644
  136TCq2    O4 2078   0.278   3.420   9.398  0.1171  0.3211 -0.3229
  136TCq2    C9 2079   4.512   3.506   9.737 -0.3084 -0.4094  0.7986
  136TCq2    O5 2080   4.517   3.387   9.774 -0.1067  0.1082  0.1111
  136TCq2    O6 2081   4.455   3.603   9.799 -0.1757 -0.0595 -0.0574
  136TCq2    H2 2082   4.620   3.762   9.701 -1.1126 -1.0354 -1.3803
  136TCq2    H3 2083   4.638   3.364   9.559 -0.6272  0.7871 -0.4343
  136TCq2    H4 2084   0.231   3.642   9.475 -0.8252 -0.6177 -2.5420
  137MPD2     C 2085   0.531   2.238   9.064 -0.2197  0.4311  0.2150
  137MPD2    C1 2086   0.479   2.330   9.155 -0.0286  0.1990  0.6899
  137MPD2    C2 2087   0.482   2.299   9.291 -0.4585 -0.4391 -0.0510
  137MPD2    C3 2088   0.526   2.173   9.335 -0.5185 -0.2403 -0.1483
  137MPD2    C4 2089   0.572   2.083   9.242 -0.0774  0.0781  0.2228
  137MPD2    C5 2090   0.568   2.123   9.107  0.5521  0.0076 -0.3617
  137MPD2     H 2091   0.457   2.380   9.359 -0.4236 -0.6482  0.2095
  137MPD2    H1 2092   0.619   1.988   9.267  0.9493  0.1395 -1.5696
  137MPD2    H2 2093   0.540   2.269   8.961  0.9570  1.3169  0.5818
  137MPD2    H3 2094   0.610   2.055   9.035 -0.1804 -0.0741 -0.7070
  137MPD2     N 2095   0.513   2.148   9.474 -0.0978  0.1930 -0.0315
  137MPD2    H5 2096   0.512   2.232   9.531  1.1458  0.5108 -0.4674
  137MPD2    N1 2097   0.457   2.465   9.111  0.0130 -0.1934 -1.3087
  137MPD2    H7 2098   0.476   2.488   9.014  2.3848  0.0719 -0.7676
  138TCq2    C1 2099   0.374   2.559   9.173  0.4403  0.5064  0.3064
  138TCq2    O2 2100   0.325   2.541   9.282  0.6778 -0.2139 -0.3165
  138TCq2    C2 2101   0.351   2.674   9.090 -0.3808  0.4736 -0.0716
  138TCq2    C3 2102   0.448   2.725   9.004 -0.0762  0.5944 -0.5765
  138TCq2    C4 2103   0.420   2.852   8.947  1.0049  0.5151 -0.4892
  138TCq2    C5 2104   0.296   2.914   8.966 -0.0311 -0.0225  0.2168
  138TCq2    C6 2105   0.200   2.853   9.043  0.6604  0.3057  0.2321
  138TCq2    C7 2106   0.230   2.741   9.111  0.6344 -0.4524 -0.0428
  138TCq2    C8 2107   0.078   2.924   9.067  0.1795  0.2647  0.0042
  138TCq2    O4 2108   0.018   2.891   9.166  0.0593 -0.2434  0.2881
  138TCq2    C9 2109   0.526   2.914   8.859  1.3830  0.0375 -0.7210
  138TCq2    O5 2110   0.639   2.864   8.850  0.0873  0.4736 -0.1027
  138TCq2    O6 2111   0.496   3.018   8.794  1.0888 -0.3275  0.0076
  138TCq2    H2 2112   0.542   2.673   8.990  0.2787  1.4121 -1.2328
  138TCq2    H3 2113   0.267   2.997   8.902  2.3972  1.5436  1.1658
  138TCq2    H4 2114   0.155   2.700   9.177 -1.3374  1.8212 -0.8699
  139TMC2    C1 2115   0.988   0.980  13.168  0.4147  0.2358  0.5310
  139TMC2    C2 2116   0.946   0.977  13.039 -0.2218 -0.1159  0.2354
  139TMC2    C3 2117   0.888   1.096  12.998  0.3841  0.5909  0.4998
  139TMC2    C4 2118   0.980   1.085  13.262  0.5960  0.2924  0.1779
  139TMC2    C5 2119   0.922   1.199  13.210  0.3118 -0.1011  0.0957
  139TMC2    C6 2120   0.873   1.208  13.079  0.6565 -0.1286 -0.2639
  139TMC2     C 2121   1.061   0.871  13.204 -0.2866  0.0708  0.4253
  139TMC2     O 2122   1.052   0.763  13.143  0.1271 -0.0159  0.2783
  139TMC2     H 2123   0.966   0.882  12.991 -0.7969  0.2476 -0.7209
  139TMC2    H1 2124   1.003   1.084  13.368  1.4812  0.9671 -0.0071
  139TMC2    H2 2125   0.822   1.298  13.047  1.7258  0.8298  0.7332
  139TMC2    C7 2126   0.876   1.298  13.299 -0.1169 -0.7323 -0.1897
  139TMC2    C8 2127   0.833   1.097  12.865 -0.2472  0.0515  0.0053
  139TMC2    O1 2128   0.808   1.393  13.257  0.5396  0.6249  0.9495
  139TMC2    O2 2129   0.760   1.186  12.826  0.8192  0.1570 -0.1985
  139TMC2    O5 2130   0.925   1.041  12.794 -0.2865 -0.0989 -0.0565
  139TMC2    H5 2131   0.998   1.011  12.852 -0.3670  1.9688  1.1298
  140MPD2     C 2132   1.287   0.851  13.492 -0.1016  0.5391  0.3714
  140MPD2    C1 2133   1.220   0.804  13.384  0.4391 -0.0466 -0.2857
  140MPD2    C2 2134   1.233   0.669  13.351 -0.6938 -0.2078 -0.2698
  140MPD2    C3 2135   1.320   0.586  13.425 -0.8044  0.0631 -0.1187
  140MPD2    C4 2136   1.393   0.637  13.524 -0.7029  0.1865  0.1736
  140MPD2    C5 2137   1.367   0.770  13.558 -0.4804  0.1865 -0.0109
  140MPD2     H 2138   1.174   0.626  13.271 -0.5853 -0.3747 -0.2592
  140MPD2    H1 2139   1.475   0.581  13.567  1.0839  1.2190 -1.9042
  140MPD2    H2 2140   1.267   0.949  13.535 -0.6749  0.5497  0.0878
  140MPD2    H3 2141   1.429   0.816  13.634 -0.0203  1.5110 -1.1838
  140MPD2     N 2142   1.328   0.454  13.380 -0.0675  0.4587 -0.8702
  140MPD2    H5 2143   1.258   0.423  13.314  2.0078 -1.3801 -2.2064
  140MPD2    N1 2144   1.136   0.892  13.315  0.4094  0.1489  0.5516
  140MPD2    H7 2145   1.124   0.985  13.355  3.6618  0.3399  1.0794
  141TCq2    C1 2146   1.325   2.255  13.962  0.4397  0.0155 -0.6422
  141TCq2    O2 2147   1.250   2.341  13.926 -0.4088 -0.0246 -0.3458
  141TCq2    C2 2148   1.434   2.283  14.056 -0.1556  0.3385  0.3852
  141TCq2    C3 2149   1.506   2.183  14.123 -0.9521  0.2441  0.1386
  141TCq2    C4 2150   1.607   2.223  14.202  0.2700 -0.5695  0.2858
  141TCq2    C5 2151   1.643   2.356  14.213 -0.0830  0.7400 -0.2893
  141TCq2    C6 2152   1.559   2.451  14.155  0.3689 -0.9565 -0.3128
  141TCq2    C7 2153   1.459   2.415  14.072  0.1453  0.5538 -0.6264
  141TCq2    C8 2154   1.608   2.589  14.139 -0.3981 -0.4236 -0.6745
  141TCq2    O4 2155   1.545   2.658  14.056  0.0795 -0.6057 -0.3859
  141TCq2    C9 2156   1.669   2.129  14.286 -0.0151 -0.2732 -0.2247
  141TCq2    O5 2157   1.747   2.169  14.377 -0.2349  0.5462  0.2380
  141TCq2    O6 2158   1.625   2.006  14.276  0.0631  0.1355  0.0000
  141TCq2    H2 2159   1.467   2.082  14.127 -2.0028  0.6366 -0.2314
  141TCq2    H3 2160   1.711   2.383  14.293 -1.0412 -0.8720  1.0765
  141TCq2    H4 2161   1.400   2.491  14.022 -0.3034  0.7074  0.1302
  142MPD2     C 2162   2.684   0.304   9.616 -0.1523  0.4708 -0.4607
  142MPD2    C1 2163   2.778   0.235   9.684 -0.6347  0.3150  0.2628
  142MPD2    C2 2164   2.913   0.267   9.670 -0.6550 -0.0650 -0.0975
  142MPD2    C3 2165   2.947   0.392   9.631  0.1174  0.5353 -0.2811
  142MPD2    C4 2166   2.845   0.479   9.591  0.0520 -0.0467 -0.4941
  142MPD2    C5 2167   2.712   0.434   9.576  0.3265  0.0798 -0.6456
  142MPD2     H 2168   2.987   0.204   9.718 -0.6339 -1.0876 -1.4574
  142MPD2    H1 2169   2.859   0.586   9.585  0.0147  0.0289  0.8753
  142MPD2    H2 2170   2.582   0.268   9.609  0.7036 -1.4899 -2.8208
  142MPD2    H3 2171   2.634   0.499   9.538  0.3252  0.5833  0.2238
  142MPD2     N 2172   3.079   0.439   9.642 -0.0701  0.4133  0.6020
  142MPD2    H5 2173   3.085   0.537   9.615  1.3248  0.6492  1.7154
  142MPD2    N1 2174   2.728   0.122   9.756 -0.6365  0.2517  0.0309
  142MPD2    H7 2175   2.629   0.103   9.749 -0.3484 -0.3317 -2.2886
  143TCq2    C1 2176   3.194   0.370   9.680 -0.2977  0.4092 -0.1987
  143TCq2    O2 2177   3.201   0.250   9.705  0.1974  0.0218  0.4081
  143TCq2    C2 2178   3.309   0.455   9.682 -1.0097 -0.1352 -0.1468
  143TCq2    C3 2179   3.420   0.385   9.651 -0.2220 -0.1272 -0.2001
  143TCq2    C4 2180   3.537   0.451   9.670 -0.5088 -0.2008 -0.4231
  143TCq2    C5 2181   3.546   0.581   9.705  0.1502 -0.0666  0.3013
  143TCq2    C6 2182   3.428   0.650   9.720 -0.4553  0.5501  0.2699
  143TCq2    C7 2183   3.304   0.593   9.709  0.0074 -0.5833 -0.5230
  143TCq2    C8 2184   3.440   0.793   9.700  0.9681 -0.6349 -0.3672
  143TCq2    O4 2185   3.336   0.859   9.695  0.3879 -0.3645 -0.4746
  143TCq2    C9 2186   3.659   0.377   9.645  0.3645  0.4559  0.4471
  143TCq2    O5 2187   3.646   0.265   9.594 -0.1642  0.8081 -0.5828
  143TCq2    O6 2188   3.763   0.441   9.635 -0.3530  0.5085  0.2649
  143TCq2    H2 2189   3.419   0.278   9.634  1.5913 -0.2797  0.6779
  143TCq2    H3 2190   3.643   0.612   9.743 -0.8310  1.0822  1.9159
  143TCq2    H4 2191   3.213   0.649   9.724  1.1293  1.7044 -2.2786
  144MPD2     C 2192   1.906   4.257   0.752  0.0540 -0.2596  0.1859
  144MPD2    C1 2193   1.918   4.162   0.649  0.1942 -0.4628 -0.4198
  144MPD2    C2 2194   2.041   4.101   0.637 -0.3787  0.3800 -0.2950
  144MPD2    C3 2195   2.150   4.134   0.716  0.2428  0.0496 -0.1340
  144MPD2    C4 2196   2.132   4.222   0.816  0.3823 -0.5214 -0.1421
  144MPD2    C5 2197   2.015   4.291   0.840 -0.2559  0.5243  0.1784
  144MPD2     H 2198   2.059   4.036   0.552  1.5671  2.4295 -1.4539
  144MPD2    H1 2199   2.198   4.253   0.897 -1.5116 -0.2189  1.2818
  144MPD2    H2 2200   1.814   4.310   0.770 -0.1008 -0.0442 -1.2860
  144MPD2    H3 2201   2.009   4.365   0.918  0.0853 -1.3271  1.9601
  144MPD2     N 2202   2.286   4.094   0.698  0.2243 -0.3655 -0.0816
  144MPD2    H5 2203   2.351   4.142   0.759 -1.4520  2.4199 -0.4856
  144MPD2    N1 2204   1.809   4.139   0.556 -0.1796 -0.3236  0.2447
  144MPD2    H7 2205   1.831   4.073   0.483 -0.8187 -0.8280  0.5037
  145TCq2    C1 2206   2.332   3.993   0.608  0.3924 -0.3447  0.1625
  145TCq2    O2 2207   2.265   3.927   0.528 -1.0648 -0.1080 -0.0908
  145TCq2    C2 2208   2.474   3.974   0.608 -0.4553  0.3283  0.9241
  145TCq2    C3 2209   2.530   3.932   0.490  0.1300  0.9441 -0.4544
  145TCq2    C4 2210   2.664   3.942   0.460  0.4944  0.5198  0.4312
  145TCq2    C5 2211   2.751   3.986   0.559 -0.1863 -0.5353  0.0128
  145TCq2    C6 2212   2.692   4.032   0.676  0.0418 -0.2767 -0.4993
  145TCq2    C7 2213   2.557   4.023   0.702  0.2754  0.6333  0.2482
  145TCq2    C8 2214   2.780   4.107   0.758  0.0494 -0.1077 -0.0977
  145TCq2    O4 2215   2.895   4.095   0.718  0.1780 -0.4528  0.0134
  145TCq2    C9 2216   2.703   3.922   0.323  0.8592  0.3303  0.8275
  145TCq2    O5 2217   2.621   3.877   0.243  0.3878  0.4277 -0.2040
  145TCq2    O6 2218   2.804   3.982   0.289 -0.2878  0.0052 -0.7810
  145TCq2    H2 2219   2.461   3.881   0.423  0.0667  0.7448 -0.2385
  145TCq2    H3 2220   2.853   3.986   0.524 -0.8700  0.5246 -2.0121
  145TCq2    H4 2221   2.524   4.051   0.801  2.0819  0.7337  0.8245
  146TMC2    C1 2222   3.156   3.431  12.314 -0.2387  0.7100 -0.2851
  146TMC2    C2 2223   3.112   3.484  12.199 -0.0769 -0.2806  0.9970
  146TMC2    C3 2224   3.143   3.411  12.087 -0.2849  0.2581 -0.2026
  146TMC2    C4 2225   3.215   3.310  12.327 -0.1665  0.1754 -0.2629
  146TMC2    C5 2226   3.246   3.231  12.212 -0.4431  0.1572 -0.0203
  146TMC2    C6 2227   3.216   3.286  12.090  0.2553  0.0228  0.6482
  146TMC2     C 2228   3.126   3.515  12.429  0.6788  0.0348  0.3799
  146TMC2     O 2229   3.101   3.630  12.402 -0.5464  0.5437  0.2230
  146TMC2     H 2230   3.056   3.576  12.194 -1.3050 -1.0784 -0.1006
  146TMC2    H1 2231   3.245   3.280  12.427  0.4766  3.5133  0.5717
  146TMC2    H2 2232   3.232   3.240  11.993 -2.8685  1.7648 -0.7194
  146TMC2    C7 2233   3.343   3.128  12.208  0.3329  0.3008 -0.4418
  146TMC2    C8 2234   3.142   3.485  11.959 -0.4828  0.1591  0.5362
  146TMC2    O1 2235   3.407   3.121  12.109 -0.0352 -0.2254  0.1348
  146TMC2    O2 2236   3.188   3.434  11.859  0.0710  0.1811 -0.1064
  146TMC2    O5 2237   3.052   3.584  11.961 -0.6353 -0.0436 -0.0041
  146TMC2    H5 2238   3.019   3.615  12.048 -0.0474  3.5289 -1.0403
  147MPD2     C 2239   3.724   2.942  12.486  0.1551 -0.7468 -0.2768
  147MPD2    C1 2240   3.608   2.943  12.562 -0.1594  0.3255 -0.8793
  147MPD2    C2 2241   3.496   2.978  12.503  0.8872 -0.7553  0.7251
  147MPD2    C3 2242   3.487   3.015  12.373 -0.6568 -0.0704 -0.1125
  147MPD2    C4 2243   3.604   3.006  12.291  0.1647  0.5241 -0.1195
  147MPD2    C5 2244   3.716   2.966  12.354  0.1684  0.3837 -0.5077
  147MPD2     H 2245   3.402   2.974  12.558 -0.6341 -3.3951 -2.0369
  147MPD2    H1 2246   3.612   3.040  12.189 -0.4020 -0.0579 -0.3608
  147MPD2    H2 2247   3.826   2.919  12.516 -0.6918 -0.5750  2.7178
  147MPD2    H3 2248   3.801   2.957  12.288  2.1958  1.8220  1.8928
  147MPD2     N 2249   3.361   3.067  12.331  0.1229 -0.4306  0.0919
  147MPD2    H5 2250   3.296   3.082  12.408  1.9083 -0.3939  1.5869
  147MPD2    N1 2251   3.624   2.899  12.698  0.5667  0.0833  0.3832
  147MPD2    H7 2252   3.719   2.880  12.727  1.6971  1.7336 -2.2065
  148MPD2     C 2253   3.541   1.909  10.773 -1.0248  0.7180 -0.2949
  148MPD2    C1 2254   3.539   1.838  10.649 -0.1200  0.1320 -0.1615
  148MPD2    C2 2255   3.420   1.816  10.584 -0.4539 -0.7383 -0.8919
  148MPD2    C3 2256   3.300   1.856  10.635  0.0777 -0.0571  0.0941
  148MPD2    C4 2257   3.303   1.926  10.753 -0.6772  0.0713  0.0197
  148MPD2    C5 2258   3.421   1.952  10.821  0.4481  0.3703 -0.5430
  148MPD2     H 2259   3.426   1.765  10.488 -1.2769 -0.5517 -1.0443
  148MPD2    H1 2260   3.212   1.965  10.799 -1.8598  0.3860 -2.5771
  148MPD2    H2 2261   3.628   1.944  10.826 -0.8897 -0.8121  0.4885
  148MPD2    H3 2262   3.419   2.012  10.911  0.6496  0.3464 -0.5216
  148MPD2     N 2263   3.176   1.839  10.572  0.1928  0.1978 -0.2468
  148MPD2    H5 2264   3.092   1.878  10.615  1.1112 -1.1425  2.7964
  148MPD2    N1 2265   3.658   1.788  10.584  0.5287  0.1781  0.1330
  148MPD2    H7 2266   3.643   1.752  10.490  0.2573 -3.0618  1.3928
  149TCq2    C1 2267   3.783   1.812  10.628 -0.0155  0.3214  0.1029
  149TCq2    O2 2268   3.822   1.876  10.723  0.2119 -0.0592 -0.0459
  149TCq2    C2 2269   3.897   1.756  10.539 -0.2515  0.3711 -0.9916
  149TCq2    C3 2270   4.020   1.810  10.549 -0.1876 -0.1312  0.3593
  149TCq2    C4 2271   4.130   1.775  10.467  0.6283 -0.2313  0.3089
  149TCq2    C5 2272   4.110   1.655  10.397 -0.5518 -0.2756  0.3862
  149TCq2    C6 2273   3.981   1.616  10.380  0.8508  0.7948  0.3159
  149TCq2    C7 2274   3.872   1.669  10.441  0.7828  0.2925  0.6014
  149TCq2    C8 2275   3.947   1.539  10.267  0.0590 -0.5306  0.0765
  149TCq2    O4 2276   3.850   1.461  10.278 -0.6629 -0.0086  0.3145
  149TCq2    C9 2277   4.264   1.803  10.512  0.4522 -0.9740 -0.2576
  149TCq2    O5 2278   4.348   1.726  10.468 -0.1540  0.4739  0.0335
  149TCq2    O6 2279   4.278   1.916  10.566 -0.2154 -0.0251 -0.0673
  149TCq2    H2 2280   4.046   1.874  10.633 -0.5116 -0.1664  0.4858
  149TCq2    H3 2281   4.201   1.607  10.362 -0.6993 -0.6202  0.4709
  149TCq2    H4 2282   3.773   1.628  10.425  0.6466  0.5357  0.8156
  150MPD2     C 2283   0.360   1.057  11.806 -0.2031  0.3842  0.6045
  150MPD2    C1 2284   0.311   1.185  11.799 -0.0737 -0.6989  0.2982
  150MPD2    C2 2285   0.370   1.276  11.886  0.1660 -0.1094  0.0064
  150MPD2    C3 2286   0.473   1.252  11.969  0.0988  0.5823 -0.5406
  150MPD2    C4 2287   0.516   1.122  11.981  0.4222 -0.0790  0.3897
  150MPD2    C5 2288   0.460   1.029  11.897 -0.3642  0.4738  0.5908
  150MPD2     H 2289   0.327   1.375  11.889 -0.5914 -0.4928  1.7693
  150MPD2    H1 2290   0.589   1.094  12.056 -0.3584  0.2602  1.2689
  150MPD2    H2 2291   0.328   0.974  11.744 -1.3483  1.2228  0.0676
  150MPD2    H3 2292   0.498   0.928  11.903 -3.1800 -0.6041  0.0589
  150MPD2     N 2293   0.521   1.366  12.041 -0.4169 -0.0657 -0.3898
  150MPD2    H5 2294   0.480   1.458  12.025  0.8544  0.0418 -3.1078
  150MPD2    N1 2295   0.199   1.207  11.715  0.5800  0.0248  0.6739
  150MPD2    H7 2296   0.153   1.138  11.657 -0.3202 -1.1877  2.8028
  151TCq2    C1 2297   0.636   1.370  12.121  0.2345 -0.5801  0.0994
  151TCq2    O2 2298   0.707   1.277  12.162 -0.0758 -0.1910  0.2954
  151TCq2    C2 2299   0.647   1.498  12.191 -0.3437  0.1526 -0.0508
  151TCq2    C3 2300   0.527   1.557  12.215  0.1953 -0.3659 -0.7968
  151TCq2    C4 2301   0.535   1.683  12.277  0.0420 -0.5374 -1.1702
  151TCq2    C5 2302   0.655   1.745  12.305  0.4425 -0.0234  0.0454
  151TCq2    C6 2303   0.769   1.672  12.276  0.7283  0.0546  0.0042
  151TCq2    C7 2304   0.766   1.544  12.228  0.0620  0.9792 -0.4607
  151TCq2    C8 2305   0.881   1.698  12.370 -0.7051  0.1183 -0.0764
  151TCq2    O4 2306   0.898   1.810  12.408  0.2100 -0.0194 -0.0747
  151TCq2    C9 2307   0.409   1.748  12.305  0.1538  0.0571 -0.7257
  151TCq2    O5 2308   0.304   1.676  12.292  0.2185 -0.7767  0.4142
  151TCq2    O6 2309   0.412   1.856  12.370 -0.1922  0.0490 -0.4865
  151TCq2    H2 2310   0.431   1.507  12.205  0.5238 -0.7947 -1.7999
  151TCq2    H3 2311   0.656   1.844  12.349  2.2292 -0.0122 -0.0251
  151TCq2    H4 2312   0.854   1.492  12.192  0.0719 -0.4880  1.7051
  152MPD2     C 2313   0.165   0.794  12.438  0.6682  0.6448  0.5059
  152MPD2    C1 2314   0.157   0.918  12.387  0.0478 -0.0541 -0.4532
  152MPD2    C2 2315   0.032   0.969  12.348 -0.3776  0.6651  0.1304
  152MPD2    C3 2316   4.637   0.903  12.372 -0.5855  0.4627  0.3795
  152MPD2    C4 2317   4.643   0.778  12.432 -0.6273 -0.2038 -0.1464
  152MPD2    C5 2318   0.047   0.724  12.453 -0.3554 -0.1585  0.6773
  152MPD2     H 2319   0.033   1.074  12.319  0.4429  1.2135  2.1716
  152MPD2    H1 2320   4.555   0.718  12.451 -1.2765  0.0647 -2.3823
  152MPD2    H2 2321   0.259   0.748  12.466  0.5597  0.2769  0.2600
  152MPD2    H3 2322   0.058   0.629  12.502  0.8877  0.1757  1.0352
  152MPD2     N 2323   4.512   0.962  12.342  0.6078 -0.4872 -0.4820
  152MPD2    H5 2324   4.518   1.049  12.290 -4.1624  0.3700  0.4571
  152MPD2    N1 2325   0.285   0.984  12.380  0.5361 -0.2586 -0.2151
  152MPD2    H7 2326   0.366   0.935  12.418 -0.1866 -2.5019 -1.5341
  153TCq2    C1 2327   0.308   1.118  12.354  1.0451 -0.0222  0.0393
  153TCq2    O2 2328   0.219   1.205  12.341 -0.3459  0.5881  0.3746
  153TCq2    C2 2329   0.452   1.149  12.362  1.5654 -0.1321  0.5217
  153TCq2    C3 2330   0.540   1.048  12.363 -0.3977  0.1359 -0.4850
  153TCq2    C4 2331   0.660   1.070  12.410 -0.3963  0.4561  0.3660
  153TCq2    C5 2332   0.694   1.189  12.467  0.0210  0.3573  0.0062
  153TCq2    C6 2333   0.603   1.287  12.471 -0.2422  0.4558  0.5955
  153TCq2    C7 2334   0.477   1.269  12.423  0.1186  0.6631  0.1009
  153TCq2    C8 2335   0.630   1.406  12.552  0.3958 -0.2914  0.9275
  153TCq2    O4 2336   0.559   1.504  12.549  0.2564  0.1425 -0.3356
  153TCq2    C9 2337   0.759   0.967  12.420 -0.4301  0.0191 -0.1891
  153TCq2    O5 2338   0.877   1.002  12.440 -0.4886 -0.3476  0.1789
  153TCq2    O6 2339   0.719   0.852  12.396  0.2613  0.2960 -0.0507
  153TCq2    H2 2340   0.523   0.954  12.312 -4.1749 -0.2217  1.4343
  153TCq2    H3 2341   0.791   1.198  12.514 -1.6975  4.9454  2.6383
  153TCq2    H4 2342   0.396   1.342  12.422 -1.5886 -1.2758 -1.7035
  154MPD2     C 2343   2.343   1.434   1.083  0.2990 -0.5779  0.1402
  154MPD2    C1 2344   2.294   1.304   1.079  0.2992  0.4115  0.9584
  154MPD2    C2 2345   2.260   1.244   1.203  0.3789 -0.2422 -0.8032
  154MPD2    C3 2346   2.244   1.324   1.316  0.4822 -0.3829 -0.9803
  154MPD2    C4 2347   2.280   1.455   1.310 -0.4871  0.6848 -0.3625
  154MPD2    C5 2348   2.340   1.514   1.200 -0.1191 -0.1690 -0.1576
  154MPD2     H 2349   2.229   1.141   1.210 -0.3400 -0.0576 -1.2184
  154MPD2    H1 2350   2.281   1.513   1.402  0.3442 -2.1856  1.4663
  154MPD2    H2 2351   2.378   1.473   0.988 -0.8817 -3.0485 -1.3134
  154MPD2    H3 2352   2.389   1.610   1.208  0.8877 -0.6256 -0.8648
  154MPD2     N 2353   2.175   1.273   1.421  0.1214 -0.0698  0.1777
  154MPD2    H5 2354   2.157   1.174   1.408  1.7964 -0.3184 -0.1980
  154MPD2    N1 2355   2.306   1.238   0.952 -0.1552 -0.1335  0.1065
  154MPD2    H7 2356   2.353   1.286   0.876 -0.5255 -0.6651 -0.4523
  155TCq2    C1 2357   2.288   1.100   0.937 -0.1006 -0.9080  0.8085
  155TCq2    O2 2358   2.248   1.026   1.020  0.7344 -0.1829  0.2024
  155TCq2    C2 2359   2.305   1.052   0.802  0.8826 -0.2797  0.2514
  155TCq2    C3 2360   2.271   0.924   0.783 -0.6626  0.1807  0.3049
  155TCq2    C4 2361   2.313   0.857   0.672  0.0558  1.3634  0.2267
  155TCq2    C5 2362   2.382   0.924   0.579  0.2418  0.2003 -0.2904
  155TCq2    C6 2363   2.425   1.051   0.600  0.1484 -0.3540 -0.5663
  155TCq2    C7 2364   2.380   1.116   0.709  0.2988  0.0945  0.7050
  155TCq2    C8 2365   2.518   1.110   0.513  0.5578 -0.3540  0.4139
  155TCq2    O4 2366   2.517   1.232   0.505  0.0801 -0.1221 -0.2827
  155TCq2    C9 2367   2.262   0.725   0.631 -0.1188  0.8620  0.1234
  155TCq2    O5 2368   2.166   0.682   0.704  0.1270 -0.4125  0.1489
  155TCq2    O6 2369   2.332   0.654   0.553  0.0066 -0.0155  0.2086
  155TCq2    H2 2370   2.211   0.873   0.857 -0.5542 -0.5608 -0.1185
  155TCq2    H3 2371   2.396   0.872   0.485 -1.3446 -0.5743 -0.1038
  155TCq2    H4 2372   2.419   1.214   0.734  1.0681 -0.3501  1.2306
  156MPD2     C 2373   1.229   3.649  11.688 -0.0171  0.4348 -0.4669
  156MPD2    C1 2374   1.213   3.521  11.723  0.8768  0.5052  0.1414
  156MPD2    C2 2375   1.150   3.484  11.841 -0.8980 -0.2692 -0.0294
  156MPD2    C3 2376   1.106   3.586  11.925  0.1075  1.0518 -0.1539
  156MPD2    C4 2377   1.123   3.718  11.893 -0.6335 -0.0707  0.4039
  156MPD2    C5 2378   1.187   3.748  11.775  0.6624 -1.1093 -0.0265
  156MPD2     H 2379   1.122   3.382  11.863  0.8495 -0.0612  3.1944
  156MPD2    H1 2380   1.092   3.799  11.957 -1.6858 -1.8382  2.1253
  156MPD2    H2 2381   1.253   3.676  11.586  0.8096 -2.6271 -1.1028
  156MPD2    H3 2382   1.188   3.851  11.741 -0.1070 -2.2914 -3.6287
  156MPD2     N 2383   1.025   3.552  12.036 -0.2988 -0.0614 -0.1418
  156MPD2    H5 2384   0.997   3.455  12.051  2.0418 -0.6281  0.5327
  156MPD2    N1 2385   1.248   3.424  11.624 -0.3711  0.2490  0.1241
  156MPD2    H7 2386   1.258   3.457  11.529  0.7348 -0.5712 -0.0509
  157TCq2    C1 2387   1.274   3.290  11.647  0.1254  0.8469 -0.7348
  157TCq2    O2 2388   1.265   3.235  11.754  0.2715  0.3941  0.6689
  157TCq2    C2 2389   1.299   3.208  11.533  0.6933 -0.4072  0.5579
  157TCq2    C3 2390   1.291   3.074  11.550  0.3416 -0.3891  0.6280
  157TCq2    C4 2391   1.243   2.987  11.452 -0.0827  0.8667 -0.2554
  157TCq2    C5 2392   1.194   3.041  11.334 -0.8924 -0.4244  0.0862
  157TCq2    C6 2393   1.197   3.180  11.312  1.1388 -0.5699 -0.6225
  157TCq2    C7 2394   1.258   3.259  11.410 -0.5970  0.1829  0.3015
  157TCq2    C8 2395   1.120   3.249  11.214 -0.0152  0.3093 -0.1546
  157TCq2    O4 2396   1.137   3.370  11.202 -0.4365 -0.3925  0.3250
  157TCq2    C9 2397   1.223   2.846  11.468  0.7977  0.6341 -0.1633
  157TCq2    O5 2398   1.153   2.792  11.379  0.5209  0.0782  0.3819
  157TCq2    O6 2399   1.240   2.794  11.584  0.2502  0.7041  0.2420
  157TCq2    H2 2400   1.312   3.028  11.646  0.6998  1.4137  1.4145
  157TCq2    H3 2401   1.157   2.974  11.257  2.0875 -1.2435 -0.6478
  157TCq2    H4 2402   1.245   3.365  11.390  0.5184 -0.3502 -3.2829
  158TMC2    C1 2403   4.719   2.599  13.246  0.7846  0.5823  1.0104
  158TMC2    C2 2404   4.636   2.699  13.210  0.0015 -0.7723  0.0756
  158TMC2    C3 2405   4.517   2.669  13.148 -0.3117 -0.0315  0.2488
  158TMC2    C4 2406   4.681   2.468  13.227  0.2149 -0.7539 -0.2318
  158TMC2    C5 2407   4.568   2.448  13.155  0.1737 -0.1168  0.4602
  158TMC2    C6 2408   4.479   2.547  13.110 -0.8769  0.7101  0.7595
  158TMC2     C 2409   0.107   2.648  13.326 -0.1235  0.2716  0.0394
  158TMC2     O 2410   0.141   2.761  13.303  1.1901  0.3932  0.5158
  158TMC2     H 2411   4.666   2.803  13.217 -0.1513 -0.7279  0.0661
  158TMC2    H1 2412   0.034   2.395  13.252  0.8786 -0.1142 -0.3845
  158TMC2    H2 2413   4.381   2.515  13.078  0.4177 -0.0392 -2.4377
  158TMC2    C7 2414   4.538   2.311  13.110 -0.4950 -0.3569 -0.2226
  158TMC2    C8 2415   4.417   2.768  13.149  0.1650 -0.1978  0.1789
  158TMC2    O1 2416   4.475   2.288  13.005 -0.0441 -0.0188  0.0313
  158TMC2    O2 2417   4.316   2.767  13.074 -0.4756 -0.1595 -0.1117
  158TMC2    O5 2418   4.427   2.835  13.265 -0.0348 -0.3672 -0.0054
  158TMC2    H5 2419   4.489   2.798  13.331  0.5208  0.2768 -0.1638
  159MPD2     C 2420   0.440   2.615  13.713  0.2451  0.0271  0.7503
  159MPD2    C1 2421   0.315   2.557  13.745  0.1301 -0.0542  0.0732
  159MPD2    C2 2422   0.212   2.547  13.659 -0.0933 -0.0612  0.3732
  159MPD2    C3 2423   0.225   2.594  13.531 -0.2552 -0.2978 -0.2680
  159MPD2    C4 2424   0.345   2.651  13.492  0.6761 -0.2992  0.0945
  159MPD2    C5 2425   0.447   2.663  13.583 -0.3224  0.3165  0.1676
  159MPD2     H 2426   0.124   2.489  13.685 -0.5466  0.5467  0.1987
  159MPD2    H1 2427   0.367   2.678  13.390 -1.2255  0.3997 -0.1248
  159MPD2    H2 2428   0.517   2.635  13.786 -0.1968 -0.5627  1.3755
  159MPD2    H3 2429   0.539   2.707  13.544  0.5822 -1.4434  0.3104
  159MPD2     N 2430   0.131   2.563  13.428 -0.5763  0.0610  0.1571
  159MPD2    H5 2431   0.061   2.495  13.457 -1.6000  1.3834  0.7914
  159MPD2    N1 2432   0.310   2.506  13.877 -0.1157  0.3185  0.5558
  159MPD2    H7 2433   0.387   2.538  13.935  0.0557 -1.0207  1.0631
  160TMC2    C1 2434   0.783   0.056   1.773  0.4990  0.1351 -0.2795
  160TMC2    C2 2435   0.898   0.040   1.844 -0.2521 -0.1975 -0.7240
  160TMC2    C3 2436   1.016   0.004   1.776  0.2890  0.2984  1.0101
  160TMC2    C4 2437   0.781   0.040   1.634  0.2875 -0.0269 -0.0734
  160TMC2    C5 2438   0.904   0.006   1.573  0.3380 -0.5106  0.0137
  160TMC2    C6 2439   1.023   4.710   1.643 -0.3559  0.3654 -0.0611
  160TMC2     C 2440   0.662   0.098   1.838 -0.3565  0.3451  0.3364
  160TMC2     O 2441   0.641   0.059   1.951 -0.0169  0.1496 -0.1707
  160TMC2     H 2442   0.895   0.067   1.949 -1.6524 -0.8564 -0.5978
  160TMC2    H1 2443   0.697   0.055   1.568 -0.2815  3.6284  1.5045
  160TMC2    H2 2444   1.114   4.676   1.597 -0.5969 -0.4550  0.0587
  160TMC2    C7 2445   0.906   4.711   1.426  0.6742  0.3238  0.5493
  160TMC2    C8 2446   1.135   4.694   1.849  0.1755 -0.1262  0.8653
  160TMC2    O1 2447   0.803   0.001   1.362 -0.3831  0.6125 -0.0041
  160TMC2    O2 2448   1.241   4.682   1.783  0.6028  0.3588  0.6139
  160TMC2    O5 2449   1.092   4.598   1.938  0.1605 -0.6401 -0.1265
  160TMC2    H5 2450   0.999   4.598   1.969  0.1721 -2.7189 -0.1290
  161MPD2     C 2451   0.372   0.170   1.902  0.1812  0.6701 -0.2647
  161MPD2    C1 2452   0.444   0.205   1.789 -0.3113 -0.1852  0.8817
  161MPD2    C2 2453   0.390   0.305   1.704  0.1331  0.5706 -0.3440
  161MPD2    C3 2454   0.259   0.348   1.727 -0.1153 -0.3321  0.3658
  161MPD2    C4 2455   0.191   0.314   1.839  0.0644 -0.3817 -0.0628
  161MPD2    C5 2456   0.244   0.217   1.925 -0.1920  0.0040 -0.3227
  161MPD2     H 2457   0.442   0.328   1.611 -2.9780 -0.6275 -2.3640
  161MPD2    H1 2458   0.092   0.352   1.864  0.8711  1.9422 -0.4075
  161MPD2    H2 2459   0.410   0.088   1.962 -0.9498 -0.1585 -0.6939
  161MPD2    H3 2460   0.183   0.182   2.008  2.2873 -1.9210  0.6854
  161MPD2     N 2461   0.194   0.449   1.651  0.4431 -0.1585  0.3471
  161MPD2    H5 2462   0.113   0.492   1.694 -0.1776 -0.5991 -0.3737
  161MPD2    N1 2463   0.579   0.167   1.753  0.3676 -0.1100  0.3114
  161MPD2    H7 2464   0.610   0.202   1.663  1.9919 -0.6925  0.6627
  162TMC2    C1 2465   3.056   2.107   0.936 -0.4031  0.7329  0.9481
  162TMC2    C2 2466   3.009   2.169   0.820  0.2583 -0.2195  0.1727
  162TMC2    C3 2467   2.908   2.259   0.836 -0.0815 -0.0001 -0.6620
  162TMC2    C4 2468   2.997   2.136   1.060  0.1835  0.2865 -0.1404
  162TMC2    C5 2469   2.904   2.233   1.073  0.1188 -0.3021  0.5639
  162TMC2    C6 2470   2.854   2.293   0.957 -0.0251 -0.1231 -0.2766
  162TMC2     C 2471   3.167   2.015   0.925 -0.3443 -0.2578  0.1372
  162TMC2     O 2472   3.241   2.022   0.829 -0.3191  0.2328  0.3290
  162TMC2     H 2473   3.064   2.156   0.727  0.7940 -0.0128  0.4600
  162TMC2    H1 2474   3.029   2.086   1.151  1.5976  0.6087 -0.4686
  162TMC2    H2 2475   2.778   2.370   0.957  0.0540 -0.0532  0.3992
  162TMC2    C7 2476   2.823   2.241   1.194  0.1299  0.4898 -0.4432
  162TMC2    C8 2477   2.887   2.350   0.730  0.1103 -0.2172 -0.2976
  162TMC2    O1 2478   2.721   2.300   1.175  0.6530  0.5736  0.0612
  162TMC2    O2 2479   2.886   2.474   0.746 -0.1651 -0.2532 -0.2382
  162TMC2    O5 2480   2.875   2.285   0.614  0.1484 -0.2564  0.3684
  162TMC2    H5 2481   2.888   2.188   0.623 -0.8933 -0.6113 -1.9020
  163MPD2     C 2482   3.387   1.585   1.052 -0.3469 -0.1990 -0.7448
  163MPD2    C1 2483   3.385   1.651   0.934 -0.0856  0.0776  0.1750
  163MPD2    C2 2484   3.304   1.761   0.924  0.5385 -0.3675 -0.4052
  163MPD2    C3 2485   3.241   1.811   1.035  0.1657 -0.9514  0.6230
  163MPD2    C4 2486   3.260   1.752   1.158 -0.0369 -0.5528  0.5947
  163MPD2    C5 2487   3.325   1.630   1.160  0.4317 -1.0985 -0.5818
  163MPD2     H 2488   3.267   1.789   0.826 -1.2152 -2.8978 -0.4822
  163MPD2    H1 2489   3.221   1.786   1.254 -0.9839 -0.2262  0.0914
  163MPD2    H2 2490   3.434   1.488   1.056 -1.4227 -0.6944 -0.0402
  163MPD2    H3 2491   3.336   1.578   1.254 -0.4098  3.4234  2.0238
  163MPD2     N 2492   3.170   1.931   1.040 -0.4927 -0.1185  0.3603
  163MPD2    H5 2493   3.104   1.942   1.116 -1.4286  0.4990 -0.5290
  163MPD2    N1 2494   3.456   1.592   0.823 -0.1030 -0.1145  0.9460
  163MPD2    H7 2495   3.482   1.495   0.832  3.4245  0.7324  0.1390
  164TCq2    C1 2496   3.952   1.899  11.005 -0.1759 -0.0151 -0.0069
  164TCq2    O2 2497   3.875   1.855  11.093  0.1002  0.3153 -0.2022
  164TCq2    C2 2498   3.954   2.042  10.985 -0.5308  0.9741  0.3354
  164TCq2    C3 2499   4.057   2.099  10.915 -0.0113 -1.0360 -0.3545
  164TCq2    C4 2500   4.056   2.235  10.891 -0.0393  0.4919 -0.3527
  164TCq2    C5 2501   3.958   2.308  10.940  0.0189 -0.0526  0.1689
  164TCq2    C6 2502   3.854   2.249  11.011 -0.2717  0.1582 -0.0659
  164TCq2    C7 2503   3.849   2.118  11.028 -0.2303  0.4106  0.5918
  164TCq2    C8 2504   3.737   2.331  11.043 -0.8724 -0.1893  0.5675
  164TCq2    O4 2505   3.696   2.415  10.959 -0.1413  0.8590  0.0945
  164TCq2    C9 2506   4.174   2.283  10.820 -0.5901  0.3475 -0.3733
  164TCq2    O5 2507   4.201   2.406  10.836  0.3981 -0.7229  0.2798
  164TCq2    O6 2508   4.245   2.199  10.763 -0.1960 -0.1886 -0.4053
  164TCq2    H2 2509   4.148   2.048  10.886 -0.8328 -2.5520 -0.2752
  164TCq2    H3 2510   3.956   2.416  10.932  0.8252 -0.0654 -0.2820
  164TCq2    H4 2511   3.762   2.069  11.071  0.6191 -1.1483  0.5235
  165MPD2     C 2512   0.035   3.945   0.923  0.1697  0.3499  0.6637
  165MPD2    C1 2513   0.029   4.073   0.874 -0.2331 -0.2594  0.3678
  165MPD2    C2 2514   0.136   4.156   0.902  0.2495  0.3914  0.1300
  165MPD2    C3 2515   0.254   4.104   0.960 -0.0985  0.3490  0.3565
  165MPD2    C4 2516   0.252   3.971   1.007  0.5866 -0.1263  0.1981
  165MPD2    C5 2517   0.142   3.891   0.977 -0.1576 -0.0313  0.1607
  165MPD2     H 2518   0.126   4.259   0.871  1.7017  1.0323  1.7490
  165MPD2    H1 2519   0.338   3.913   1.039  0.4177  1.0836  2.7831
  165MPD2    H2 2520   4.674   3.883   0.897 -0.6034  0.6925  2.3597
  165MPD2    H3 2521   0.145   3.782   0.983 -0.2084 -0.0540 -0.2454
  165MPD2     N 2522   0.370   4.188   0.969  0.2467 -0.2391  0.0505
  165MPD2    H5 2523   0.352   4.277   0.924 -2.2118 -0.2699  0.9780
  165MPD2    N1 2524   4.633   4.110   0.811  0.2041 -0.3674 -0.5253
  165MPD2    H7 2525   4.560   4.040   0.806 -1.2416  1.0482  0.5328
  166TCq2    C1 2526   0.490   4.156   1.021  0.2136 -0.0186 -0.4876
  166TCq2    O2 2527   0.519   4.064   1.101 -0.0622 -0.0420 -0.4472
  166TCq2    C2 2528   0.588   4.259   0.997 -0.6706 -0.0478 -0.2893
  166TCq2    C3 2529   0.572   4.349   0.898 -0.9692  0.4861 -0.1913
  166TCq2    C4 2530   0.678   4.436   0.882 -0.4191 -0.4206 -0.0327
  166TCq2    C5 2531   0.782   4.452   0.968 -0.0935  0.0758 -0.2561
  166TCq2    C6 2532   0.770   4.369   1.075  0.1264 -0.1470  0.3281
  166TCq2    C7 2533   0.687   4.267   1.091 -0.5255 -0.2828 -0.3435
  166TCq2    C8 2534   0.875   4.386   1.177  0.4228  0.5932  0.3666
  166TCq2    O4 2535   0.988   4.399   1.141  0.2882 -0.5837 -0.2466
  166TCq2    C9 2536   0.671   4.544   0.785  0.1715 -0.7710  0.0398
  166TCq2    O5 2537   0.786   4.584   0.742 -0.0902 -0.2012  0.0865
  166TCq2    O6 2538   0.561   4.582   0.743  0.8234 -0.4933  0.4390
  166TCq2    H2 2539   0.492   4.353   0.825 -0.0042 -1.5492 -1.3629
  166TCq2    H3 2540   0.837   4.546   0.969 -1.7674  1.0676 -0.9316
  166TCq2    H4 2541   0.683   4.206   1.180  0.9217 -0.6262 -0.5225
  167TMC2    C1 2542   2.901   2.036  12.796  0.3092 -0.3096  0.5233
  167TMC2    C2 2543   2.803   2.039  12.887  0.3762 -0.1474 -0.3378
  167TMC2    C3 2544   2.739   1.923  12.922  0.0101 -0.0922 -0.4803
  167TMC2    C4 2545   2.933   1.922  12.728 -0.1396 -0.0349 -0.0315
  167TMC2    C5 2546   2.873   1.807  12.766  1.4134  0.1296 -0.1207
  167TMC2    C6 2547   2.776   1.799  12.861 -0.0027 -0.5824  0.3506
  167TMC2     C 2548   2.943   2.165  12.740  0.3045 -0.1381 -0.2167
  167TMC2     O 2549   2.861   2.255  12.742  0.1010  0.2855 -0.0445
  167TMC2     H 2550   2.780   2.133  12.936 -0.1604  0.8299 -2.4571
  167TMC2    H1 2551   3.003   1.926  12.646  0.3467  1.1580  0.4396
  167TMC2    H2 2552   2.731   1.708  12.900 -1.1724 -0.6024 -1.0489
  167TMC2    C7 2553   2.892   1.684  12.693  0.1133  0.1258  0.2786
  167TMC2    C8 2554   2.641   1.922  13.028  0.2391  0.7344 -0.1753
  167TMC2    O1 2555   2.811   1.595  12.702 -0.0548  0.1406  0.5174
  167TMC2    O2 2556   2.626   2.016  13.100 -0.0653 -0.2737  0.3274
  167TMC2    O5 2557   2.549   1.824  13.032 -0.1054  0.3709 -0.0698
  167TMC2    H5 2558   2.572   1.766  12.956  0.1081 -0.2529  0.4779
  168MPD2     C 2559   3.043   2.377  12.559 -0.6281  0.5248  0.0304
  168MPD2    C1 2560   3.115   2.259  12.586  0.2019  0.1526 -0.6347
  168MPD2    C2 2561   3.227   2.232  12.515 -0.8542  0.5373  0.4147
  168MPD2    C3 2562   3.253   2.299  12.399  0.1097  0.3598  0.1086
  168MPD2    C4 2563   3.185   2.412  12.363  0.2602  0.7817 -0.1595
  168MPD2    C5 2564   3.082   2.453  12.447  0.1962  0.7902 -0.4965
  168MPD2     H 2565   3.274   2.137  12.536 -1.5293 -0.2005 -1.3530
  168MPD2    H1 2566   3.218   2.469  12.277 -1.6679  0.4822 -1.1109
  168MPD2    H2 2567   2.952   2.417  12.602 -1.3284 -1.2297  0.1977
  168MPD2    H3 2568   3.020   2.540  12.427  1.6439  1.4986 -1.9591
  168MPD2     N 2569   3.340   2.247  12.296 -0.7006 -0.4242  0.5274
  168MPD2    H5 2570   3.355   2.309  12.218 -0.6781  0.0223  0.8849
  168MPD2    N1 2571   3.065   2.156  12.674 -0.1234 -0.7873  0.4923
  168MPD2    H7 2572   3.131   2.080  12.689 -0.2935 -0.9761  0.3027
  169MPD1     C 2573   0.125   1.639   8.679  0.1491  0.8887  0.4221
  169MPD1    C1 2574   0.253   1.664   8.624 -0.3726  0.5011  0.1908
  169MPD1    C2 2575   0.359   1.627   8.700  0.2001  0.0640  0.9610
  169MPD1    C3 2576   0.343   1.572   8.822 -0.4148  0.4439  0.7949
  169MPD1    C4 2577   0.215   1.542   8.871 -0.5955  0.0330 -0.2701
  169MPD1    C5 2578   0.107   1.566   8.796 -0.7548 -0.1085  0.5869
  169MPD1     H 2579   0.458   1.656   8.664 -1.1162  3.3498  0.0033
  169MPD1    H1 2580   0.199   1.507   8.972  0.4420  2.1564  0.6297
  169MPD1    H2 2581   0.033   1.677   8.635 -0.1942  1.0676  1.2876
  169MPD1    H3 2582   0.012   1.558   8.847 -1.2554  2.6078  0.1034
  169MPD1     N 2583   0.469   1.544   8.886 -0.0988  0.0573  0.6142
  169MPD1    H5 2584   0.553   1.551   8.830  0.1860 -1.8987  0.7968
  169MPD1    N1 2585   0.267   1.711   8.489 -0.5308  0.1767 -0.2439
  169MPD1    H6 2586   0.359   1.750   8.470 -0.6599 -1.8720 -5.0426
  169MPD1    H7 2587   0.197   1.770   8.446 -0.2796 -0.4335 -1.5030
  170MPD1     C 2588   4.286   3.862  13.022  0.4209 -0.0838 -0.2480
  170MPD1    C1 2589   4.239   3.873  13.149  1.0111  0.0431  0.5874
  170MPD1    C2 2590   4.292   3.978  13.226 -0.4037 -0.2086 -0.4514
  170MPD1    C3 2591   4.407   4.043  13.204 -0.4547  0.3615  0.0863
  170MPD1    C4 2592   4.463   4.016  13.083  0.2511 -0.7241  0.4391
  170MPD1    C5 2593   4.404   3.931  12.993  0.1735 -0.2922  0.5754
  170MPD1     H 2594   4.243   3.987  13.323 -2.2195 -0.2360 -1.3586
  170MPD1    H1 2595   4.564   4.053  13.066 -1.0328  2.5383 -0.0954
  170MPD1    H2 2596   4.245   3.794  12.948  1.2436 -1.5937  0.6847
  170MPD1    H3 2597   4.452   3.912  12.897  0.1291  0.1086  0.4770
  170MPD1     N 2598   4.459   4.138  13.295 -0.5048  0.0222  1.1387
  170MPD1    H5 2599   4.414   4.134  13.386 -0.1045  1.3357  1.4036
  170MPD1    N1 2600   4.125   3.808  13.191  0.4418 -0.7680 -0.0718
  170MPD1    H6 2601   4.087   3.824  13.284  0.8105 -0.1804 -0.0272
  170MPD1    H7 2602   4.136   3.708  13.171 -2.4722 -1.3454  1.1364
  171MPD1     C 2603   3.040   0.797  15.205 -0.2775  0.5583 -0.1812
  171MPD1    C1 2604   2.982   0.670  15.189 -0.6386 -0.5375  0.1245
  171MPD1    C2 2605   3.023   0.564  15.273  0.6330  0.3360 -0.1924
  171MPD1    C3 2606   3.115   0.584  15.377 -0.5276 -0.3229  0.0676
  171MPD1    C4 2607   3.159   0.711  15.401  0.0122 -0.1370  0.6891
  171MPD1    C5 2608   3.118   0.815  15.322  0.2874 -0.1175 -0.4777
  171MPD1     H 2609   3.004   0.464  15.237  4.5082 -0.7789  0.8427
  171MPD1    H1 2610   3.218   0.729  15.491  0.1937 -0.0399  0.5511
  171MPD1    H2 2611   3.019   0.889  15.151 -0.5150 -0.5166 -1.9109
  171MPD1    H3 2612   3.136   0.916  15.357  1.1397  0.3752 -2.3613
  171MPD1     N 2613   3.173   0.485  15.457 -0.0398  0.2586  0.4239
  171MPD1    H5 2614   3.241   0.508  15.529  0.3426 -0.4680  0.2912
  171MPD1    N1 2615   2.903   0.648  15.074 -0.0644  0.5071  0.4329
  171MPD1    H6 2616   2.839   0.727  15.062 -0.4645  0.0623 -0.3977
  171MPD1    H7 2617   2.839   0.570  15.083 -0.2614  0.6041 -0.1229
  172MPD1     C 2618   1.763   4.537  17.554 -0.1418 -0.2197 -0.8717
  172MPD1    C1 2619   1.710   4.439  17.631 -0.0489  0.6647 -0.0655
  172MPD1    C2 2620   1.798   4.381   0.028  0.0542 -0.2369  0.2277
  172MPD1    C3 2621   1.932   4.414   0.037 -0.0152 -0.6505 -0.2322
  172MPD1    C4 2622   1.991   4.498  17.643 -0.5861  0.0327  0.4686
  172MPD1    C5 2623   1.897   4.562  17.560  0.5696 -0.0247  0.0958
  172MPD1     H 2624   1.757   4.308   0.097 -0.8218 -0.1501 -0.1972
  172MPD1    H1 2625   2.098   4.518  17.640 -0.3086 -1.3775  0.9792
  172MPD1    H2 2626   1.701   4.586  17.481  1.2081  0.5527 -1.4873
  172MPD1    H3 2627   1.930   4.634  17.486  1.1690 -0.2319  0.1624
  172MPD1     N 2628   2.014   4.332   0.117 -0.0345 -0.2354 -0.3410
  172MPD1    H5 2629   2.112   4.346   0.097 -0.3723  0.5822 -1.4896
  172MPD1    N1 2630   1.572   4.418  17.633 -0.3828 -0.2111 -0.4419
  172MPD1    H6 2631   1.537   4.423  17.537  0.8481 -0.2564 -0.8851
  172MPD1    H7 2632   1.541   4.329  17.671 -3.5032  0.7995 -0.5519
  173MPD1     C 2633   3.918   4.399  13.588 -0.3185 -0.3234  1.2075
  173MPD1    C1 2634   4.036   4.365  13.638 -0.9101  0.4805  0.6283
  173MPD1    C2 2635   4.055   4.344  13.775  0.7066 -0.6203 -0.2565
  173MPD1    C3 2636   3.947   4.370  13.863  0.3217 -0.0898 -0.4097
  173MPD1    C4 2637   3.832   4.416  13.809 -0.8495 -0.5130  0.0033
  173MPD1    C5 2638   3.819   4.431  13.675  0.1525  0.7287 -0.0864
  173MPD1     H 2639   4.156   4.328  13.811  0.6642 -1.3548 -0.4558
  173MPD1    H1 2640   3.746   4.431  13.873  1.3157  2.2332  2.2623
  173MPD1    H2 2641   3.903   4.408  13.481  0.1711 -0.9555  1.0829
  173MPD1    H3 2642   3.722   4.464  13.641 -0.5392  0.3418  1.5282
  173MPD1     N 2643   3.968   4.377  14.002  0.0673  0.3033 -0.2284
  173MPD1    H5 2644   4.062   4.360  14.036 -0.5774  0.6481  1.7124
  173MPD1    N1 2645   4.149   4.361  13.558 -0.8605 -0.4695  0.1702
  173MPD1    H6 2646   4.228   4.404  13.605  0.6702  0.7794 -3.6073
  173MPD1    H7 2647   4.125   4.407  13.471 -0.0685 -1.1955 -0.4242
  174MPD1     C 2648   4.302   3.640  14.460  0.3746  0.9273  0.3132
  174MPD1    C1 2649   4.365   3.753  14.406 -0.5631  0.2069  0.2981
  174MPD1    C2 2650   4.287   3.868  14.401  0.6194 -0.3326 -0.1269
  174MPD1    C3 2651   4.151   3.874  14.442 -0.5259 -0.2435 -0.1291
  174MPD1    C4 2652   4.095   3.761  14.497  0.7207  0.0370 -0.1874
  174MPD1    C5 2653   4.171   3.651  14.513 -0.8669  0.9158 -0.6940
  174MPD1     H 2654   4.336   3.955  14.359 -2.1731  1.7800  0.9404
  174MPD1    H1 2655   3.990   3.765  14.524  0.1961 -0.1134 -2.1750
  174MPD1    H2 2656   4.347   3.542  14.448 -1.8312 -0.0812  0.4428
  174MPD1    H3 2657   4.121   3.565  14.555 -0.8629  1.2878  0.0615
  174MPD1     N 2658   4.073   3.999  14.440  0.3178  0.6528 -0.4964
  174MPD1    H5 2659   3.975   3.970  14.440 -0.0599  1.8957  3.1985
  174MPD1    N1 2660   4.489   3.746  14.341  0.5587 -0.1343  0.1959
  174MPD1    H6 2661   4.540   3.833  14.351 -1.4911  1.0518  0.1470
  174MPD1    H7 2662   4.547   3.674  14.383  1.7035  1.3924  1.1955
  175MPD1     C 2663   2.042   0.906  15.332  0.5840 -0.2328 -0.1607
  175MPD1    C1 2664   1.963   0.957  15.434 -0.7990 -0.1529  0.5972
  175MPD1    C2 2665   1.974   0.889  15.559 -0.6476 -0.4014 -0.9780
  175MPD1    C3 2666   2.039   0.764  15.562  1.3657 -0.0060  0.1568
  175MPD1    C4 2667   2.095   0.706  15.452 -0.1706  0.1256  0.0076
  175MPD1    C5 2668   2.094   0.783  15.340 -0.8904  0.4248 -1.1324
  175MPD1     H 2669   1.921   0.933  15.642 -1.8416  0.2462 -2.0748
  175MPD1    H1 2670   2.135   0.605  15.452 -2.5768 -0.8393  1.1023
  175MPD1    H2 2671   2.054   0.956  15.236  0.9774 -2.7320 -1.4130
  175MPD1    H3 2672   2.144   0.743  15.253  1.3368  1.0873 -0.1358
  175MPD1     N 2673   2.030   0.678  15.672  0.0413  0.1281  0.4809
  175MPD1    H5 2674   2.084   0.592  15.673 -0.1368  0.0240  1.8592
  175MPD1    N1 2675   1.888   1.079  15.428 -0.5154 -0.3132  0.0523
  175MPD1    H6 2676   1.796   1.071  15.471  0.0214  0.3328  1.3159
  175MPD1    H7 2677   1.873   1.102  15.330  2.6744  0.3490 -0.3031
  176MPD1     C 2678   3.489   1.560  17.484  0.5217  0.1598  0.0091
  176MPD1    C1 2679   3.389   1.643  17.511 -0.3458 -0.3583  0.5769
  176MPD1    C2 2680   3.318   1.697  17.403  0.2865  0.5705 -0.1020
  176MPD1    C3 2681   3.357   1.679  17.276  0.3724  0.8081  0.6199
  176MPD1    C4 2682   3.462   1.588  17.253  0.1135  0.5804  0.0439
  176MPD1    C5 2683   3.522   1.524  17.357  0.4561  0.2220  0.1116
  176MPD1     H 2684   3.225   1.747  17.425  0.1327  0.8707 -1.4761
  176MPD1    H1 2685   3.493   1.559  17.154  0.3231 -0.3678  0.3921
  176MPD1    H2 2686   3.541   1.506  17.563 -0.3767 -0.7279 -0.0037
  176MPD1    H3 2687   3.600   1.451  17.340  0.5760  0.4724 -0.4144
  176MPD1     N 2688   3.296   1.754  17.174  0.7899  0.6926 -0.1775
  176MPD1    H5 2689   3.222   1.817  17.202 -0.9542 -1.5346  0.2604
  176MPD1    N1 2690   3.337   1.633  17.641 -0.2246 -0.3567  0.3380
  176MPD1    H6 2691   3.422   1.637   0.003 -0.3301  0.3475  0.4480
  176MPD1    H7 2692   3.288   1.721  17.655  1.6453  0.1949  3.4780
  177MPD1     C 2693   1.372   2.528   8.568  0.2312 -0.0617 -0.2632
  177MPD1    C1 2694   1.236   2.534   8.606 -0.1249  0.5554  0.3078
  177MPD1    C2 2695   1.205   2.471   8.719 -0.3653  1.3217 -0.1116
  177MPD1    C3 2696   1.293   2.398   8.797 -0.1491 -0.6039  0.1558
  177MPD1    C4 2697   1.422   2.385   8.753 -0.4876 -0.2271  0.3918
  177MPD1    C5 2698   1.464   2.462   8.646  0.2447  0.3264 -0.5398
  177MPD1     H 2699   1.106   2.485   8.763 -0.2408  4.5913 -0.8569
  177MPD1    H1 2700   1.492   2.323   8.807  1.2527  1.2744 -0.1022
  177MPD1    H2 2701   1.414   2.577   8.480 -0.1004  1.5011  0.4461
  177MPD1    H3 2702   1.569   2.466   8.621  1.0969 -1.7896  2.7449
  177MPD1     N 2703   1.250   2.347   8.920 -0.0443 -0.3618  0.0727
  177MPD1    H5 2704   1.161   2.378   8.957  0.5737  0.1275  1.1760
  177MPD1    N1 2705   1.152   2.614   8.543  0.1125  0.3997 -0.6479
  177MPD1    H6 2706   1.059   2.574   8.555 -0.7661  2.2462 -1.2703
  177MPD1    H7 2707   1.179   2.626   8.445  0.3510 -0.0567 -0.6363
  178MPD1     C 2708   4.089   3.407   0.051 -0.2703 -0.6077  0.7978
  178MPD1    C1 2709   4.195   3.428  17.660 -0.0678 -0.0134  0.2107
  178MPD1    C2 2710   4.204   3.340  17.546 -0.3370  0.4437  0.2035
  178MPD1    C3 2711   4.095   3.261  17.516  0.0106  0.3658  0.0326
  178MPD1    C4 2712   3.991   3.253  17.606  0.8374 -0.4181 -0.2382
  178MPD1    C5 2713   3.988   3.328   0.018 -0.0158 -0.5778 -0.0037
  178MPD1     H 2714   4.295   3.343  17.488 -1.0543  1.1845 -0.8928
  178MPD1    H1 2715   3.903   3.193  17.584  0.2567  1.2777 -2.4799
  178MPD1    H2 2716   4.087   3.454   0.149 -0.0317 -2.7104  1.8192
  178MPD1    H3 2717   3.904   3.309   0.084 -0.3109 -0.1715 -0.2598
  178MPD1     N 2718   4.092   3.181  17.400 -0.7838  0.3114  0.5465
  178MPD1    H5 2719   4.016   3.114  17.396 -0.2213 -0.2355 -1.1484
  178MPD1    N1 2720   4.309   3.496   0.016 -0.2083 -0.8667  0.3352
  178MPD1    H6 2721   4.370   3.516  17.632 -1.1003  1.3704  0.2042
  178MPD1    H7 2722   4.279   3.580   0.065 -0.3842 -0.7939  0.1041
  179MPD1     C 2723   3.619   1.568  15.237  0.0792 -0.4727 -0.3459
  179MPD1    C1 2724   3.712   1.464  15.234 -0.2090 -0.3567  0.0982
  179MPD1    C2 2725   3.713   1.386  15.350 -0.3206  0.2745 -0.2227
  179MPD1    C3 2726   3.622   1.397  15.453  0.3723 -0.0684  0.0319
  179MPD1    C4 2727   3.529   1.498  15.450 -0.4165  0.0155 -0.6866
  179MPD1    C5 2728   3.531   1.584  15.343 -0.1011 -0.4752 -1.1372
  179MPD1     H 2729   3.783   1.303  15.340  0.3690  0.5855  1.9715
  179MPD1    H1 2730   3.459   1.501  15.533 -0.5763 -1.4429 -0.7596
  179MPD1    H2 2731   3.604   1.629  15.148 -0.9566 -1.4611 -0.8597
  179MPD1    H3 2732   3.468   1.672  15.336  1.9906  0.9919 -1.4561
  179MPD1     N 2733   3.623   1.314  15.574 -0.4315  0.3345  0.4512
  179MPD1    H5 2734   3.559   1.340  15.648 -2.1681 -0.3415 -0.8222
  179MPD1    N1 2735   3.806   1.458  15.131 -0.1214 -0.5610  0.2371
  179MPD1    H6 2736   3.762   1.476  15.041 -1.5567 -3.7233  0.2979
  179MPD1    H7 2737   3.855   1.369  15.137  1.5689  0.2744 -0.9571
  180MPD1     C 2738   3.919   2.774  15.344  0.1337  0.3652 -0.5237
  180MPD1    C1 2739   3.995   2.787  15.231 -0.4420  0.0394  0.1273
  180MPD1    C2 2740   3.945   2.761  15.101 -0.0845  0.4688 -0.0588
  180MPD1    C3 2741   3.819   2.716  15.092  0.0750 -0.5315 -0.7180
  180MPD1    C4 2742   3.736   2.715  15.200 -0.4391 -0.3635 -0.0488
  180MPD1    C5 2743   3.787   2.743  15.324  0.1859  0.1641 -0.0318
  180MPD1     H 2744   4.008   2.786  15.016 -1.0308 -1.7082 -1.4119
  180MPD1    H1 2745   3.629   2.695  15.199 -0.2210 -1.4823 -0.5237
  180MPD1    H2 2746   3.944   2.799  15.446 -0.1898 -1.1646 -0.0678
  180MPD1    H3 2747   3.715   2.734  15.404 -1.5040  2.5450 -1.2623
  180MPD1     N 2748   3.767   2.694  14.958 -0.2678  0.2892  0.4105
  180MPD1    H5 2749   3.824   2.722  14.879 -2.5222  1.8212 -0.6569
  180MPD1    N1 2750   4.128   2.837  15.247  0.0469  0.2046  0.1549
  180MPD1    H6 2751   4.172   2.888  15.170  0.1217 -0.8916 -0.5336
  180MPD1    H7 2752   4.178   2.834  15.335  0.2524  0.1191  0.0370
  181MPD1     C 2753   4.450   4.445  10.467  0.5259 -0.1821 -0.3030
  181MPD1    C1 2754   4.421   4.502  10.344 -1.1094 -0.0728 -0.7434
  181MPD1    C2 2755   4.522   4.577  10.282  0.5204  0.1046 -0.7075
  181MPD1    C3 2756   4.648   4.578  10.340 -0.2895 -0.6112  0.0917
  181MPD1    C4 2757   4.673   4.513  10.458  0.0674 -0.4804 -0.1128
  181MPD1    C5 2758   4.576   4.448  10.529 -0.0945 -0.2740  0.3187
  181MPD1     H 2759   4.502   4.627  10.188 -1.2673  0.6392 -0.0595
  181MPD1    H1 2760   0.054   4.510  10.489 -0.4286 -4.6007  1.2142
  181MPD1    H2 2761   4.381   4.379  10.519  0.4309 -1.3255 -1.8807
  181MPD1    H3 2762   4.591   4.410  10.629  0.1675  2.6664  1.4157
  181MPD1     N 2763   0.030   4.624  10.271  0.3798  0.5509  0.2137
  181MPD1    H5 2764   0.122   4.584  10.285  0.3032 -0.2565 -1.6352
  181MPD1    N1 2765   4.305   4.466  10.278  0.1500 -0.5906 -0.2104
  181MPD1    H6 2766   4.231   4.448  10.345  2.8296  0.3468  3.0079
  181MPD1    H7 2767   4.274   4.533  10.208  0.1701  0.3065  0.6429
  182MPD1     C 2768   2.392   3.234   1.361 -0.3165  0.2738 -0.4476
  182MPD1    C1 2769   2.387   3.178   1.241 -0.3782  0.5983 -0.1493
  182MPD1    C2 2770   2.265   3.187   1.176 -0.2815 -0.0739  0.0049
  182MPD1    C3 2771   2.152   3.215   1.247 -0.4543 -0.1848  0.2593
  182MPD1    C4 2772   2.159   3.272   1.370 -0.1357  0.2744 -0.2249
  182MPD1    C5 2773   2.281   3.279   1.429 -0.0520 -0.2097  0.2253
  182MPD1     H 2774   2.250   3.147   1.077  0.7055 -0.6317  0.0782
  182MPD1    H1 2775   2.072   3.309   1.423  0.1182  0.1955  0.2409
  182MPD1    H2 2776   2.485   3.232   1.417 -0.8537  2.3564  0.5237
  182MPD1    H3 2777   2.285   3.324   1.527 -0.0496  0.8444 -0.2576
  182MPD1     N 2778   2.021   3.190   1.204 -0.1281 -0.2426  0.2523
  182MPD1    H5 2779   1.953   3.201   1.279  0.3986  0.0632  0.6858
  182MPD1    N1 2780   2.509   3.149   1.178  0.8366 -0.1359 -0.1801
  182MPD1    H6 2781   2.493   3.074   1.111  2.1559 -0.1845 -0.4585
  182MPD1    H7 2782   2.584   3.124   1.242  0.2525 -2.2766 -0.3292
  183MPD1     C 2783   2.058   4.688   9.120  0.0795  0.1174 -0.0646
  183MPD1    C1 2784   2.013   0.053   9.214  0.7464 -0.7398 -0.5009
  183MPD1    C2 2785   1.904   0.030   9.293 -0.0419  0.4976  0.1596
  183MPD1    C3 2786   1.849   4.623   9.305  0.3090 -0.0231  0.3647
  183MPD1    C4 2787   1.893   4.520   9.219  0.5560 -0.2334 -0.3889
  183MPD1    C5 2788   1.994   4.560   9.128  0.1725  0.4007  0.6612
  183MPD1     H 2789   1.858   0.110   9.350  1.5194  0.7664  1.0389
  183MPD1    H1 2790   1.864   4.416   9.228  0.1687  0.0690  2.0319
  183MPD1    H2 2791   2.134   4.697   9.044  0.6681  0.3096  0.5499
  183MPD1    H3 2792   2.018   4.479   9.059 -1.2311 -0.5807  1.3458
  183MPD1     N 2793   1.742   4.606   9.397 -0.1715 -0.2004 -0.1795
  183MPD1    H5 2794   1.704   4.690   9.440 -1.0139  0.0334 -1.3767
  183MPD1    N1 2795   2.059   0.187   9.203 -0.6401 -0.2272  0.1718
  183MPD1    H6 2796   2.158   0.195   9.180 -0.5157 -0.1946  0.7129
  183MPD1    H7 2797   2.053   0.230   9.296  0.4265 -0.5483  0.3901
  184MPD1     C 2798   1.310   1.686  10.193 -0.5183  0.1057  0.0280
  184MPD1    C1 2799   1.333   1.822  10.214  0.5195 -0.2198  0.6195
  184MPD1    C2 2800   1.254   1.907  10.136 -1.2348  1.2039  0.7212
  184MPD1    C3 2801   1.160   1.861  10.047  0.1858  0.3454 -0.2967
  184MPD1    C4 2802   1.139   1.729  10.035 -0.2695  0.0146  0.2292
  184MPD1    C5 2803   1.216   1.643  10.110  0.2851  1.2598 -0.3199
  184MPD1     H 2804   1.255   2.012  10.163 -0.2793  2.3076 -3.6698
  184MPD1    H1 2805   1.058   1.685   9.977 -2.2275 -0.0611  3.0401
  184MPD1    H2 2806   1.362   1.607  10.244  0.1039 -0.2968 -1.2183
  184MPD1    H3 2807   1.197   1.536  10.104 -0.7406  1.6084 -3.5704
  184MPD1     N 2808   1.079   1.945   9.970  0.1204  0.0507 -0.1754
  184MPD1    H5 2809   1.017   1.904   9.901  0.7074  2.9519 -2.4268
  184MPD1    N1 2810   1.401   1.872  10.321  0.1207 -0.3820  0.6226
  184MPD1    H6 2811   1.435   1.967  10.313  0.8104 -0.5749  1.2486
  184MPD1    H7 2812   1.465   1.807  10.367  1.2935  0.4935  0.2244
  185MPD1     C 2813   0.921   2.093   9.005 -0.0508  0.4114  0.2657
  185MPD1    C1 2814   0.967   1.999   9.089 -0.4326 -0.5146  0.0598
  185MPD1    C2 2815   0.944   2.023   9.224 -0.1875 -0.1073  0.5077
  185MPD1    C3 2816   0.897   2.150   9.278  0.7374 -0.5177  0.2873
  185MPD1    C4 2817   0.863   2.245   9.188 -0.4574 -0.8774 -0.2164
  185MPD1    C5 2818   0.883   2.213   9.055  0.4251  0.0505  0.3283
  185MPD1     H 2819   0.959   1.945   9.298  1.1137  0.9526  1.3585
  185MPD1    H1 2820   0.830   2.345   9.216  2.2242 -0.1516  0.3765
  185MPD1    H2 2821   0.912   2.076   8.899  0.6213  2.2307 -0.0647
  185MPD1    H3 2822   0.852   2.297   8.993 -1.8104  0.5749  2.1694
  185MPD1     N 2823   0.881   2.179   9.419 -0.2179  0.3776 -0.4383
  185MPD1    H5 2824   0.844   2.271   9.441  0.7810  0.0380  2.6043
  185MPD1    N1 2825   0.997   1.870   9.045 -0.3322 -0.5710 -0.2785
  185MPD1    H6 2826   1.063   1.825   9.108  1.0230 -1.0509 -2.0489
  185MPD1    H7 2827   1.049   1.880   8.958 -0.3887 -1.3265 -0.3931
  186MPD1     C 2828   4.187   1.827  15.480 -0.0112  0.3350 -0.4702
  186MPD1    C1 2829   4.067   1.806  15.549 -0.4402 -0.1629  0.8961
  186MPD1    C2 2830   4.071   1.784  15.684 -0.0079 -0.5271  0.1287
  186MPD1    C3 2831   4.193   1.779  15.749  0.1725  0.1251  0.1008
  186MPD1    C4 2832   4.312   1.783  15.676  0.4379 -0.3347 -0.1048
  186MPD1    C5 2833   4.309   1.813  15.539 -0.3206  0.3278 -0.1399
  186MPD1     H 2834   3.977   1.794  15.736  0.9724  1.3913  1.5353
  186MPD1    H1 2835   4.407   1.771  15.726 -0.2915  0.6219  1.5318
  186MPD1    H2 2836   4.195   1.856  15.376  3.2342 -1.8927 -0.8432
  186MPD1    H3 2837   4.404   1.825  15.488 -0.1768 -1.2479 -0.2430
  186MPD1     N 2838   4.203   1.768  15.892  0.3744  0.0856 -0.4786
  186MPD1    H5 2839   4.294   1.769  15.937 -0.0684  0.6228  0.4207
  186MPD1    N1 2840   3.948   1.813  15.479  0.3234  0.2036  0.3232
  186MPD1    H6 2841   3.889   1.751  15.534  0.8375 -1.3176 -0.8507
  186MPD1    H7 2842   3.956   1.786  15.381  1.7061  3.5206 -0.4835
  187MPD1     C 2843   3.489   3.824   0.575 -0.1712  0.8807  0.5169
  187MPD1    C1 2844   3.477   3.702   0.539  1.1653  0.6376 -0.4548
  187MPD1    C2 2845   3.410   3.668   0.427  0.3870 -0.1162  0.0916
  187MPD1    C3 2846   3.364   3.765   0.341  0.2965  0.3218 -0.0673
  187MPD1    C4 2847   3.375   3.897   0.374 -0.3828  0.5405  0.3246
  187MPD1    C5 2848   3.440   3.924   0.492 -1.1448  0.9420  0.3203
  187MPD1     H 2849   3.401   3.563   0.402 -1.6314  0.8508 -3.3117
  187MPD1    H1 2850   3.348   3.977   0.306 -0.0135 -0.2149 -0.7007
  187MPD1    H2 2851   3.542   3.856   0.664 -0.4653  1.6328  0.4200
  187MPD1    H3 2852   3.450   4.029   0.519 -0.5894  0.4469  2.0507
  187MPD1     N 2853   3.310   3.736   0.217  0.0364  0.1744  0.3026
  187MPD1    H5 2854   3.280   3.814   0.159 -0.3542  1.9282  2.9013
  187MPD1    N1 2855   3.513   3.607   0.635 -0.1484 -0.0718  0.7205
  187MPD1    H6 2856   3.519   3.509   0.607  0.3657  0.5434 -1.2992
  187MPD1    H7 2857   3.606   3.631   0.668  0.0952  1.2197 -0.8966
  188MPD1     C 2858   3.220   3.848   9.057  0.3172 -0.6813 -0.6130
  188MPD1    C1 2859   3.342   3.849   9.118  0.3028 -0.1178 -0.5949
  188MPD1    C2 2860   3.362   3.756   9.219 -0.3547  0.3204  0.1407
  188MPD1    C3 2861   3.254   3.681   9.259 -0.4643 -0.1270  0.4350
  188MPD1    C4 2862   3.126   3.691   9.199  0.6968  0.3111 -0.3316
  188MPD1    C5 2863   3.116   3.763   9.081 -0.8457  0.0973 -0.2842
  188MPD1     H 2864   3.459   3.733   9.262 -1.8196 -0.9035  2.7531
  188MPD1    H1 2865   3.051   3.618   9.230  2.0111 -1.1891 -0.6855
  188MPD1    H2 2866   3.221   3.902   8.963  0.9942 -1.2898 -0.9500
  188MPD1    H3 2867   3.026   3.762   9.021 -0.2103  0.9673 -1.2397
  188MPD1     N 2868   3.263   3.596   9.376 -0.9266 -0.8839 -0.3445
  188MPD1    H5 2869   3.183   3.537   9.395  0.2193 -1.7113  1.8410
  188MPD1    N1 2870   3.449   3.912   9.050 -0.0149 -0.0260  0.0630
  188MPD1    H6 2871   3.519   3.944   9.117  0.4146  1.1651 -0.9576
  188MPD1    H7 2872   3.421   3.999   9.006 -0.8685  0.1091  0.8736
  189MPD1     C 2873   0.417   3.702   0.295  0.5040 -0.6778 -1.0069
  189MPD1    C1 2874   0.446   3.828   0.248  1.0899 -0.6135 -0.1556
  189MPD1    C2 2875   0.347   3.906   0.187  0.4607  0.2168  0.5103
  189MPD1    C3 2876   0.228   3.847   0.145  0.0636  0.4938 -0.8951
  189MPD1    C4 2877   0.204   3.716   0.186 -0.1490 -0.3848 -0.2800
  189MPD1    C5 2878   0.299   3.643   0.263  0.1058 -0.3828  0.5059
  189MPD1     H 2879   0.368   4.012   0.177 -0.2700  0.4620  1.5631
  189MPD1    H1 2880   0.107   3.674   0.162  0.2936 -2.6217  1.8333
  189MPD1    H2 2881   0.501   3.642   0.328  2.4732  0.1884 -4.4584
  189MPD1    H3 2882   0.295   3.537   0.289  2.5784 -0.6116 -0.0387
  189MPD1     N 2883   0.123   3.909   0.074  0.4381 -0.4728  0.3106
  189MPD1    H5 2884   0.040   3.851   0.069 -1.4559  2.2002  0.8861
  189MPD1    N1 2885   0.560   3.886   0.308  0.2535 -0.1442  0.5082
  189MPD1    H6 2886   0.626   3.812   0.330 -0.0751 -0.8610 -0.9050
  189MPD1    H7 2887   0.605   3.952   0.246  0.0185  1.0602  1.6256
  190MPD1     C 2888   3.359   2.497  15.372 -0.2517  0.0728  0.0660
  190MPD1    C1 2889   3.374   2.540  15.498 -0.2695 -0.5454 -0.1275
  190MPD1    C2 2890   3.494   2.515  15.564  0.0592 -0.0825  0.0966
  190MPD1    C3 2891   3.601   2.466  15.499 -0.0064  0.0049 -0.4640
  190MPD1    C4 2892   3.579   2.425  15.367 -0.6145 -0.4628 -0.0515
  190MPD1    C5 2893   3.457   2.435  15.303  0.4046  0.0034 -0.1379
  190MPD1     H 2894   3.503   2.546  15.668  0.5763  2.8911 -0.8527
  190MPD1    H1 2895   3.657   2.376  15.310  0.8291 -0.4675  1.9244
  190MPD1    H2 2896   3.267   2.524  15.321  0.6143 -1.4336 -2.2800
  190MPD1    H3 2897   3.449   2.396  15.202  0.2514  1.1439 -0.5617
  190MPD1     N 2898   3.728   2.469  15.562 -0.2717  0.5989  0.6575
  190MPD1    H5 2899   3.733   2.519  15.650 -0.0146  0.5485  0.6699
  190MPD1    N1 2900   3.258   2.590  15.565  0.0836  0.0158  0.0410
  190MPD1    H6 2901   3.275   2.645  15.648 -3.3017  0.9217  0.1406
  190MPD1    H7 2902   3.198   2.639  15.499  2.4629  0.9478 -1.4283
  191MPD1     C 2903   2.742   0.388  12.687  0.3367 -0.5194  0.0677
  191MPD1    C1 2904   2.757   0.527  12.657  0.0957  0.7431  0.5183
  191MPD1    C2 2905   2.852   0.564  12.569  0.2131 -0.2440 -0.1280
  191MPD1    C3 2906   2.950   0.474  12.536  0.1746 -0.0685  0.0286
  191MPD1    C4 2907   2.949   0.342  12.579 -0.3701 -0.0435  0.3144
  191MPD1    C5 2908   2.843   0.299  12.658 -0.3496 -0.1446  0.4256
  191MPD1     H 2909   2.847   0.666  12.534  2.1288 -0.7216 -1.7649
  191MPD1    H1 2910   3.027   0.272  12.552 -1.5756 -0.7010 -1.4576
  191MPD1    H2 2911   2.665   0.354  12.755  0.9958 -1.7530  0.1839
  191MPD1    H3 2912   2.856   0.201  12.702 -1.4848  0.0975  1.2859
  191MPD1     N 2913   3.048   0.522  12.442 -0.5861  0.2726  0.0247
  191MPD1    H5 2914   3.026   0.615  12.407 -0.6064 -0.0775 -0.8677
  191MPD1    N1 2915   2.653   0.609  12.690  0.2835  0.9053 -0.5212
  191MPD1    H6 2916   2.698   0.701  12.694  1.3846  0.3596 -0.3906
  191MPD1    H7 2917   2.613   0.577  12.778  1.6115 -0.9423 -0.5973
  192MPD1     C 2918   3.224   1.033  11.615  0.3195  0.5560  0.4288
  192MPD1    C1 2919   3.122   1.025  11.707 -0.1889 -0.8803 -0.3446
  192MPD1    C2 2920   3.125   0.910  11.784 -0.3706 -0.3486  0.5318
  192MPD1    C3 2921   3.224   0.812  11.776  0.8517 -0.0311 -0.2276
  192MPD1    C4 2922   3.319   0.818  11.682 -0.1658 -0.7667 -0.2620
  192MPD1    C5 2923   3.314   0.930  11.596  0.2165  0.2240  0.0833
  192MPD1     H 2924   3.046   0.890  11.856 -0.1148  1.7442  1.3772
  192MPD1    H1 2925   3.404   0.751  11.678  0.2560 -0.0904 -2.8022
  192MPD1    H2 2926   3.240   1.113  11.544 -1.9430  0.9151  0.3419
  192MPD1    H3 2927   3.393   0.948  11.525 -0.7663 -0.1790 -1.1198
  192MPD1     N 2928   3.236   0.716  11.878  0.1346  0.3944  0.0745
  192MPD1    H5 2929   3.308   0.646  11.861 -0.4020  0.1029 -1.0051
  192MPD1    N1 2930   3.012   1.110  11.694 -0.0260  0.2511  0.8128
  192MPD1    H6 2931   2.951   1.114  11.776 -2.9682  0.5392 -1.3936
  192MPD1    H7 2932   3.034   1.205  11.666 -0.4731  0.6487  1.8044
  193MPD1     C 2933   2.886   4.688  15.985 -0.0332  0.5404 -0.4379
  193MPD1    C1 2934   2.997   4.632  15.925 -0.7807  0.1919 -0.2774
  193MPD1    C2 2935   3.109   4.604  16.003  0.9006 -0.0331  0.6717
  193MPD1    C3 2936   3.111   4.642  16.140  0.6443 -0.2111 -0.0533
  193MPD1    C4 2937   2.999   4.694  16.197  0.2622  0.8967 -0.6265
  193MPD1    C5 2938   2.885   4.722  16.117  0.2189  0.5812 -0.0267
  193MPD1     H 2939   3.191   4.548  15.958  0.4999  1.2868 -1.6934
  193MPD1    H1 2940   2.986   4.709  16.304 -2.2592  0.4218 -0.8675
  193MPD1    H2 2941   2.794   4.705  15.931  1.2790  1.7935 -2.2781
  193MPD1    H3 2942   2.791   0.030  16.159 -1.2122  0.1635 -2.8522
  193MPD1     N 2943   3.221   4.625  16.227 -0.0802  0.6714  0.2811
  193MPD1    H5 2944   3.201   4.648  16.324  0.5753  0.6297  0.4286
  193MPD1    N1 2945   2.992   4.577  15.794  0.1912  0.2858  0.2601
  193MPD1    H6 2946   3.088   4.565  15.763  0.8624  1.5831  1.7858
  193MPD1    H7 2947   2.934   4.620  15.722  1.5218 -0.2271 -1.0929
  194MPD1     C 2948   4.542   1.009  17.340  0.3646  0.1092  0.6345
  194MPD1    C1 2949   4.641   0.939  17.269 -0.3378  0.1696 -0.0897
  194MPD1    C2 2950   0.034   1.005  17.241 -0.3977  0.4088  0.7562
  194MPD1    C3 2951   0.059   1.128  17.292 -0.2751  0.3905 -0.0711
  194MPD1    C4 2952   4.686   1.195  17.360  0.3680  0.4530  0.0651
  194MPD1    C5 2953   4.566   1.135  17.384 -0.1029  0.5017  0.8889
  194MPD1     H 2954   0.109   0.951  17.184 -1.8114  1.2273 -1.8734
  194MPD1    H1 2955   4.688   1.297  17.397  2.9098  0.0900  0.8880
  194MPD1    H2 2956   4.441   0.972  17.355  0.4386 -1.1117 -1.9230
  194MPD1    H3 2957   4.484   1.196  17.418 -0.8460  0.5663 -1.0264
  194MPD1     N 2958   0.184   1.205  17.283  0.3058  0.2607 -0.2881
  194MPD1    H5 2959   0.195   1.287  17.341  0.3153  1.0411 -1.4164
  194MPD1    N1 2960   4.608   0.813  17.210  0.6228  0.5922  0.3734
  194MPD1    H6 2961   4.692   0.755  17.205 -0.9868 -1.6229 -1.1825
  194MPD1    H7 2962   4.549   0.754  17.267 -0.7907  1.5574 -0.0916
  195MPD1     C 2963   3.394   2.329   0.456  0.7240 -0.6444 -0.3571
  195MPD1    C1 2964   3.338   2.424   0.375  0.1614 -0.2660 -0.1678
  195MPD1    C2 2965   3.210   2.397   0.314  0.4019 -0.0734 -0.5444
  195MPD1    C3 2966   3.143   2.284   0.334 -0.1460 -0.3248  0.2523
  195MPD1    C4 2967   3.194   2.196   0.430 -0.4240 -0.1215  0.4480
  195MPD1    C5 2968   3.316   2.221   0.489 -0.1156  0.5282 -0.4509
  195MPD1     H 2969   3.156   2.467   0.251  1.1364  0.4437 -0.6061
  195MPD1    H1 2970   3.151   2.098   0.448 -0.5663  0.3357  2.6628
  195MPD1    H2 2971   3.483   2.335   0.516 -0.2461  0.1016  0.9922
  195MPD1    H3 2972   3.343   2.147   0.563  0.3807  1.3294  0.1699
  195MPD1     N 2973   3.018   2.243   0.278  0.3951  0.2975  0.8186
  195MPD1    H5 2974   2.970   2.162   0.316 -0.6550 -0.3383 -1.8523
  195MPD1    N1 2975   3.424   2.525   0.319 -0.5293  0.2942  0.1850
  195MPD1    H6 2976   3.375   2.609   0.286 -0.4645 -0.0278 -0.7190
  195MPD1    H7 2977   3.504   2.538   0.379  0.8012  1.5309 -1.8421
  196MPD1     C 2978   2.159   2.830   0.180  0.3354  0.6251  1.0297
  196MPD1    C1 2979   2.211   2.941   0.118  0.5633  0.2840  0.6911
  196MPD1    C2 2980   2.324   3.002   0.170 -0.1197 -0.3112 -0.0922
  196MPD1    C3 2981   2.384   2.963   0.287  0.3225  0.1631  0.2234
  196MPD1    C4 2982   2.329   2.852   0.347  0.1844 -0.5397 -0.2426
  196MPD1    C5 2983   2.228   2.780   0.293 -0.0945 -0.4257  0.1976
  196MPD1     H 2984   2.364   3.092   0.123 -2.3034 -0.7196 -2.7156
  196MPD1    H1 2985   2.369   2.816   0.441  0.5525  4.3363  1.4682
  196MPD1    H2 2986   2.066   2.785   0.147  2.8091 -1.2392 -3.3341
  196MPD1    H3 2987   2.193   2.701   0.360 -0.2342 -1.4903 -1.1225
  196MPD1     N 2988   2.500   3.017   0.340 -0.6311 -0.3354 -0.7255
  196MPD1    H5 2989   2.536   2.965   0.420 -0.1478 -0.2895 -0.9109
  196MPD1    N1 2990   2.141   3.013   0.015 -0.3451  0.3537 -0.2498
  196MPD1    H6 2991   2.204   3.079  17.665 -0.5006  0.7394  0.0938
  196MPD1    H7 2992   2.091   2.950  17.647 -0.2924 -0.0724  0.1332
  197MPD1     C 2993   2.735   0.469   0.004 -0.0769  0.2942  0.0649
  197MPD1    C1 2994   2.640   0.372   0.039 -0.1754  0.0928 -0.5578
  197MPD1    C2 2995   2.504   0.391   0.021 -0.2137 -0.0414 -0.1340
  197MPD1    C3 2996   2.469   0.510  17.657 -0.3894  0.0805  0.2991
  197MPD1    C4 2997   2.561   0.606  17.627  0.3324 -0.4167  0.3574
  197MPD1    C5 2998   2.693   0.586  17.646 -0.0956 -0.2671 -0.3674
  197MPD1     H 2999   2.432   0.311   0.036 -1.4298  0.9686 -0.7228
  197MPD1    H1 3000   2.525   0.700  17.586 -1.1269 -0.8803  0.5487
  197MPD1    H2 3001   2.839   0.449   0.026  0.2693  1.3792 -0.5710
  197MPD1    H3 3002   2.769   0.663  17.636  0.4536 -0.7812 -0.1394
  197MPD1     N 3003   2.336   0.540  17.630  0.2128  0.7971 -0.1220
  197MPD1    H5 3004   2.316   0.617  17.567 -0.2448  2.0245  1.5409
  197MPD1    N1 3005   2.682   0.262   0.113  0.0731  0.9358  0.2546
  197MPD1    H6 3006   2.634   0.175   0.091  0.7566  0.9620 -1.3588
  197MPD1    H7 3007   2.783   0.247   0.108 -0.0314  1.1851 -2.4579
  198MPD1     C 3008   3.652   3.390  15.835 -0.5724 -0.1516 -0.7966
  198MPD1    C1 3009   3.669   3.528  15.806  0.1549 -0.2363 -0.1971
  198MPD1    C2 3010   3.754   3.607  15.884  0.1616  0.0573  0.4553
  198MPD1    C3 3011   3.835   3.546  15.977 -0.2968  0.6628 -0.6599
  198MPD1    C4 3012   3.822   3.407  15.982  0.3023 -0.3339  0.9295
  198MPD1    C5 3013   3.730   3.332  15.931 -0.4924  0.0571 -0.6042
  198MPD1     H 3014   3.751   3.715  15.874 -1.4656  0.0976  1.4157
  198MPD1    H1 3015   3.886   3.353  16.051  1.9179  1.2465  0.6672
  198MPD1    H2 3016   3.577   3.331  15.784  1.1459 -2.0122 -1.1805
  198MPD1    H3 3017   3.738   3.226  15.951  1.3405  0.7780  2.3037
  198MPD1     N 3018   3.911   3.621  16.067  0.1016 -0.0115  0.6074
  198MPD1    H5 3019   3.929   3.719  16.045  2.5384 -1.1346 -2.3999
  198MPD1    N1 3020   3.600   3.579  15.692  0.0065 -0.1455  0.2443
  198MPD1    H6 3021   3.516   3.530  15.660 -0.5969  0.8285  0.3448
  198MPD1    H7 3022   3.585   3.679  15.694  0.8795 -0.0087 -0.4172
  199MPD1     C 3023   0.672   4.628   9.409 -0.1069  0.1593  0.4647
  199MPD1    C1 3024   0.579   4.640   9.510 -0.8527  0.1515 -0.1766
  199MPD1    C2 3025   0.513   0.036   9.528 -0.1436 -0.1820  0.1659
  199MPD1    C3 3026   0.550   0.149   9.451  0.2957  0.3758 -0.3048
  199MPD1    C4 3027   0.630   0.132   9.342 -0.2097 -0.2625  0.1502
  199MPD1    C5 3028   0.687   0.008   9.319  0.6252  0.0520  0.2104
  199MPD1     H 3029   0.446   0.047   9.613  0.4886 -1.5651  0.8480
  199MPD1    H1 3030   0.648   0.214   9.273  0.9565 -0.8553 -0.2369
  199MPD1    H2 3031   0.722   4.535   9.384 -0.0913  0.3519 -0.2159
  199MPD1    H3 3032   0.753   4.719   9.234  2.2786  1.3722  1.2708
  199MPD1     N 3033   0.498   0.284   9.468  0.1447 -0.2991 -0.0579
  199MPD1    H5 3034   0.532   0.357   9.406  1.7287 -1.4970 -0.6040
  199MPD1    N1 3035   0.528   4.524   9.574  0.2808  0.1549 -0.3913
  199MPD1    H6 3036   0.490   4.552   9.664  0.9099 -0.2111 -0.0101
  199MPD1    H7 3037   0.605   4.460   9.591  0.3740  0.4166  0.1699
  200MPD1     C 3038   4.330   0.527  15.475  0.2954 -0.4390  0.2758
  200MPD1    C1 3039   4.349   0.396  15.501 -0.0536  0.0384  0.1766
  200MPD1    C2 3040   4.441   0.338  15.422 -0.7141  0.0811  0.5017
  200MPD1    C3 3041   4.518   0.401  15.321  0.1238  0.5241 -0.4385
  200MPD1    C4 3042   4.482   0.532  15.292 -0.3662 -0.2403  0.0974
  200MPD1    C5 3043   4.382   0.586  15.367  0.2165 -0.1388  0.3203
  200MPD1     H 3044   4.457   0.230  15.426  0.0438  0.2693  2.2699
  200MPD1    H1 3045   4.521   0.584  15.205 -1.2145 -1.3793 -0.9680
  200MPD1    H2 3046   4.252   0.589  15.518 -0.1402  0.4610 -1.7970
  200MPD1    H3 3047   4.338   0.685  15.356 -1.7761 -0.8097  2.2830
  200MPD1     N 3048   4.598   0.324  15.236  0.1466  0.6641 -0.4254
  200MPD1    H5 3049   4.608   0.224  15.249  0.1739  0.6654 -0.4364
  200MPD1    N1 3050   4.263   0.325  15.584 -0.0098  0.5961 -0.3265
  200MPD1    H6 3051   4.291   0.229  15.603 -0.5717  1.0667  2.8169
  200MPD1    H7 3052   4.255   0.381  15.668 -1.0885  1.8587 -1.2797
  201MPD1     C 3053   2.059   4.463  13.383 -0.2561  0.0864 -0.4036
  201MPD1    C1 3054   2.008   4.338  13.376 -0.5473  0.5835  0.5015
  201MPD1    C2 3055   2.093   4.229  13.371  0.7851 -0.5627  0.4569
  201MPD1    C3 3056   2.230   4.247  13.370  0.3002 -0.5663 -0.5571
  201MPD1    C4 3057   2.280   4.379  13.376 -0.1386  0.2511  0.7195
  201MPD1    C5 3058   2.195   4.488  13.384  0.5407  0.3587 -0.8033
  201MPD1     H 3059   2.049   4.131  13.379  1.1713 -0.7543  0.2364
  201MPD1    H1 3060   2.387   4.394  13.375 -0.3343  1.5479 -1.2890
  201MPD1    H2 3061   1.994   4.550  13.380  1.3300  1.3582  2.0234
  201MPD1    H3 3062   2.231   4.590  13.387  0.2567  0.4281  0.2536
  201MPD1     N 3063   2.306   4.133  13.355  0.2415  0.2226  0.0678
  201MPD1    H5 3064   2.257   4.045  13.364 -1.2716  1.0408 -0.2895
  201MPD1    N1 3065   1.873   4.320  13.364 -0.5639  0.0685 -0.2477
  201MPD1    H6 3066   1.843   4.225  13.384  0.4108 -0.1045  0.4237
  201MPD1    H7 3067   1.834   4.384  13.433 -0.8078  0.0045 -0.3274
  202MPD1     C 3068   1.612   3.103   8.899 -0.7377 -0.4335 -0.5316
  202MPD1    C1 3069   1.568   3.230   8.935  0.1937 -0.2413  0.3167
  202MPD1    C2 3070   1.590   3.262   9.071  0.2040  0.0769 -0.5362
  202MPD1    C3 3071   1.613   3.172   9.173  0.3940 -0.0958 -0.3776
  202MPD1    C4 3072   1.644   3.043   9.135 -0.0364  0.1133 -0.0683
  202MPD1    C5 3073   1.645   3.011   9.001  0.6134  0.5965 -0.1033
  202MPD1     H 3074   1.550   3.362   9.088  0.5903  0.2646 -0.7104
  202MPD1    H1 3075   1.649   2.967   9.212  1.0489  0.3751  0.1142
  202MPD1    H2 3076   1.614   3.069   8.796  2.7463 -1.6104 -0.1002
  202MPD1    H3 3077   1.672   2.910   8.974  0.3845  0.9170 -1.5312
  202MPD1     N 3078   1.612   3.208   9.312  0.4809 -0.4903 -0.3801
  202MPD1    H5 3079   1.638   3.144   9.386  1.1360  1.5319  1.1575
  202MPD1    N1 3080   1.574   3.338   8.840  0.6275  0.9256  0.1092
  202MPD1    H6 3081   1.532   3.306   8.753  1.3810  1.0146 -0.2886
  202MPD1    H7 3082   1.529   3.416   8.889 -2.5557 -0.8066 -0.0277
  203MPD1     C 3083   1.004   0.090  12.565 -0.2087  0.8066  0.1870
  203MPD1    C1 3084   0.978   0.000  12.461 -0.3828 -0.2794 -0.2512
  203MPD1    C2 3085   1.005   4.592  12.471 -0.1835  0.0795 -0.5837
  203MPD1    C3 3086   1.052   4.543  12.592 -0.2313  0.3353 -0.0143
  203MPD1    C4 3087   1.086   4.631  12.693 -0.3370  0.5143 -1.2297
  203MPD1    C5 3088   1.059   0.042  12.683 -0.2622 -0.1581 -0.0831
  203MPD1     H 3089   0.988   4.532  12.382 -0.0073  0.0879 -0.6224
  203MPD1    H1 3090   1.149   4.607  12.778 -0.9012 -1.3732 -1.3448
  203MPD1    H2 3091   0.986   0.196  12.549  1.8165  0.5576 -3.5216
  203MPD1    H3 3092   1.077   0.102  12.772 -0.8779 -0.6656  0.3770
  203MPD1     N 3093   1.068   4.408  12.612  0.0378 -0.0071  0.5817
  203MPD1    H5 3094   1.062   4.349  12.530  1.2643 -0.2737  0.6801
  203MPD1    N1 3095   0.949   0.046  12.331 -0.3462 -0.2328  0.3312
  203MPD1    H6 3096   0.902   0.136  12.324  2.6120  1.0195 -3.2197
  203MPD1    H7 3097   0.883   4.709  12.283 -1.2670  1.9913 -1.1791
  204MPD1     C 3098   0.735   0.227  17.547 -0.5786 -0.1621  0.3733
  204MPD1    C1 3099   0.841   0.140  17.529 -0.4168  0.2236 -0.3700
  204MPD1    C2 3100   0.834   0.057  17.419 -0.5801  0.0967  0.1930
  204MPD1    C3 3101   0.730   0.069  17.323  0.5786 -0.1815  0.5982
  204MPD1    C4 3102   0.629   0.159  17.350  0.4691  0.0764  0.7770
  204MPD1    C5 3103   0.634   0.234  17.462  0.3513  0.4261 -0.3301
  204MPD1     H 3104   0.905   4.701  17.399  0.2203  0.9685 -0.3982
  204MPD1    H1 3105   0.542   0.173  17.288  0.5711  0.7479  0.7749
  204MPD1    H2 3106   0.730   0.287  17.637  2.7065  1.3277 -0.4366
  204MPD1    H3 3107   0.549   0.297  17.485  1.4074  2.4484 -1.9436
  204MPD1     N 3108   0.739   4.713  17.204 -0.0681  0.4245  0.1079
  204MPD1    H5 3109   0.823   4.658  17.193  0.4026  0.8419  1.6161
  204MPD1    N1 3110   0.960   0.152  17.605 -0.3678 -0.0461  0.3705
  204MPD1    H6 3111   0.938   0.205  17.689 -1.9556 -2.2820  1.3509
  204MPD1    H7 3112   0.977   0.057  17.637 -1.8907 -1.1457 -2.0950
  205MPD1     C 3113   0.654   3.498  16.044  0.1147  0.7003  0.4121
  205MPD1    C1 3114   0.580   3.422  16.128 -0.2760  0.4106 -0.6136
  205MPD1    C2 3115   0.631   3.399  16.254  0.3150  0.2055  0.5634
  205MPD1    C3 3116   0.742   3.459  16.304  0.5439 -0.8006  0.7614
  205MPD1    C4 3117   0.810   3.545  16.222  0.8716  0.4963 -0.0926
  205MPD1    C5 3118   0.769   3.561  16.092  0.1824  0.4899  0.0544
  205MPD1     H 3119   0.582   3.330  16.321  0.9558  0.1069  0.9292
  205MPD1    H1 3120   0.901   3.596  16.251  0.9739  0.8311 -1.0092
  205MPD1    H2 3121   0.627   3.522  15.942  2.3111  0.5503 -0.2005
  205MPD1    H3 3122   0.821   3.617  16.015 -2.4787  0.8252 -1.4973
  205MPD1     N 3123   0.783   3.457  16.434 -0.5706  0.0480  0.0986
  205MPD1    H5 3124   0.870   3.508  16.448  0.4687 -1.3600 -1.3063
  205MPD1    N1 3125   0.469   3.346  16.081 -0.3724  0.8534 -0.1862
  205MPD1    H6 3126   0.399   3.311  16.145  2.1338  0.5603  2.4249
  205MPD1    H7 3127   0.424   3.393  16.003 -0.2339 -0.7016 -1.1998
  206MPD1     C 3128   1.401   2.233  16.618 -0.0174  0.0983  0.4031
  206MPD1    C1 3129   1.300   2.325  16.599  0.0367 -0.4640 -0.3541
  206MPD1    C2 3130   1.206   2.303  16.509  0.0188 -0.1936  0.0398
  206MPD1    C3 3131   1.199   2.186  16.447 -0.5138  0.7788  0.3167
  206MPD1    C4 3132   1.290   2.086  16.468 -0.0938  0.1030  0.4591
  206MPD1    C5 3133   1.395   2.115  16.548 -0.1908 -0.5508 -0.5144
  206MPD1     H 3134   1.128   2.377  16.496 -2.0321 -2.1959  0.9006
  206MPD1    H1 3135   1.282   1.993  16.413  1.7003  0.0748  0.2432
  206MPD1    H2 3136   1.492   2.245  16.675 -0.9598 -1.8090  2.3133
  206MPD1    H3 3137   1.477   2.047  16.564  0.4485  0.1392 -0.8185
  206MPD1     N 3138   1.088   2.148  16.366  0.4084  0.4714 -0.1726
  206MPD1    H5 3139   1.083   2.053  16.331  1.2558 -0.1884  1.5037
  206MPD1    N1 3140   1.300   2.445  16.665 -0.2354  0.0075 -0.1723
  206MPD1    H6 3141   1.348   2.440  16.754 -0.2727 -0.8552 -0.2000
  206MPD1    H7 3142   1.210   2.491  16.675  0.7450  2.7410 -3.9339
  207MPD1     C 3143   1.967   4.614   9.757 -0.3131 -0.1457 -0.6163
  207MPD1    C1 3144   2.001   4.499   9.825  0.5667 -0.7289 -0.3149
  207MPD1    C2 3145   2.125   4.510   9.881 -0.3379  0.9307 -0.4285
  207MPD1    C3 3146   2.203   4.626   9.877 -0.3321  0.2673  0.0710
  207MPD1    C4 3147   2.156   0.009   9.807  0.1333 -1.0135  0.8370
  207MPD1    C5 3148   2.041   0.003   9.739 -0.3847  0.3142  0.7465
  207MPD1     H 3149   2.173   4.425   9.928 -1.3043  0.9493  0.5685
  207MPD1    H1 3150   2.218   0.096   9.786  1.8812 -2.7161 -1.0471
  207MPD1    H2 3151   1.877   4.605   9.697 -0.3122  1.0291 -0.7869
  207MPD1    H3 3152   2.013   0.077   9.665 -0.2404 -0.1950  0.1882
  207MPD1     N 3153   2.330   4.643   9.940 -0.0112  0.1907  0.3480
  207MPD1    H5 3154   2.375   0.009   9.928  0.0781  0.2896  1.4395
  207MPD1    N1 3155   1.925   4.378   9.818  0.3082  0.8657 -0.0027
  207MPD1    H6 3156   1.826   4.389   9.835  0.5515  1.0119  1.3123
  207MPD1    H7 3157   1.955   4.313   9.890  1.3058  0.1582 -1.0557
  208MPD1     C 3158   2.137   3.579  17.581 -0.1819 -0.1696 -0.0699
  208MPD1    C1 3159   2.118   3.511   0.004 -0.0569 -0.0585  0.4260
  208MPD1    C2 3160   1.991   3.460   0.035 -0.0114  0.0818 -0.4094
  208MPD1    C3 3161   1.881   3.493  17.652  0.6694 -0.2907  0.1758
  208MPD1    C4 3162   1.899   3.577  17.541 -0.9629 -0.1344 -0.2959
  208MPD1    C5 3163   2.026   3.622  17.514 -0.4939 -0.2485 -1.1045
  208MPD1     H 3164   1.984   3.399   0.124  2.1548  0.3643 -0.0525
  208MPD1    H1 3165   1.819   3.607  17.475 -0.3153  3.3638  0.5305
  208MPD1    H2 3166   2.240   3.604  17.557 -0.6719 -1.4765 -3.5329
  208MPD1    H3 3167   2.036   3.676  17.420 -1.0835  2.8244  0.5729
  208MPD1     N 3168   1.758   3.431  17.687  0.0840 -0.2162  0.5576
  208MPD1    H5 3169   1.757   3.385   0.082 -2.2532 -1.3040  0.0023
  208MPD1    N1 3170   2.226   3.448   0.067 -0.4377  0.2558  0.5034
  208MPD1    H6 3171   2.315   3.498   0.062 -0.0623 -0.6163 -1.6318
  208MPD1    H7 3172   2.205   3.409   0.158 -1.2760 -2.5197 -0.8865
  209MPD1     C 3173   3.077   4.219  11.482 -0.1391  0.1833  0.3602
  209MPD1    C1 3174   3.010   4.197  11.359 -0.4899 -0.8265  0.4574
  209MPD1    C2 3175   3.068   4.253  11.243 -0.3893 -0.1465  0.4219
  209MPD1    C3 3176   3.181   4.337  11.260  0.5442  0.1538 -0.0983
  209MPD1    C4 3177   3.235   4.358  11.377  0.8104 -0.1456 -0.0032
  209MPD1    C5 3178   3.192   4.289  11.480  0.4773  0.5601 -0.8108
  209MPD1     H 3179   3.026   4.225  11.147 -0.3631  0.6958  0.1605
  209MPD1    H1 3180   3.330   4.410  11.390 -0.5654  2.3521  0.0690
  209MPD1    H2 3181   3.058   4.153  11.566 -0.7291  1.0238  0.8874
  209MPD1    H3 3182   3.244   4.294  11.575 -0.3559 -3.0407 -0.2040
  209MPD1     N 3183   3.227   4.400  11.147  0.1190  0.2055 -0.2350
  209MPD1    H5 3184   3.183   4.372  11.060 -2.5795 -1.3565  1.6130
  209MPD1    N1 3185   2.909   4.101  11.346  0.7253  0.6218 -0.2960
  209MPD1    H6 3186   2.847   4.091  11.426  0.5269 -0.8528 -0.6374
  209MPD1    H7 3187   2.847   4.127  11.269  1.4375  1.1044 -0.7058
  210MPD1     C 3188   4.080   0.113  10.885  0.5247 -0.0088 -0.5957
  210MPD1    C1 3189   3.994   0.162  10.789 -0.0596  0.2099  0.4427
  210MPD1    C2 3190   3.869   0.106  10.780  0.2152  0.7591 -0.1182
  210MPD1    C3 3191   3.834   0.008  10.864 -0.0684 -0.1254 -0.0136
  210MPD1    C4 3192   3.918   4.687  10.960 -0.2162 -0.2393 -0.4218
  210MPD1    C5 3193   4.042   0.017  10.972  1.0859  0.1574 -0.1897
  210MPD1     H 3194   3.791   0.145  10.716  0.2733  2.2767  0.7379
  210MPD1    H1 3195   3.892   4.606  11.027 -1.4856 -0.4888 -1.1987
  210MPD1    H2 3196   4.177   0.160  10.899  0.7734 -0.8109  0.3496
  210MPD1    H3 3197   4.111   4.709  11.049  0.3754 -4.3856 -1.4304
  210MPD1     N 3198   3.701   4.670  10.874 -0.5523  0.7547  0.0730
  210MPD1    H5 3199   3.700   4.596  10.944 -1.2190  1.9533  1.3165
  210MPD1    N1 3200   4.029   0.287  10.731  0.7539 -0.2323  0.0893
  210MPD1    H6 3201   4.000   0.311  10.636 -2.6355 -1.5748  0.7816
  210MPD1    H7 3202   4.129   0.303  10.727  0.8881 -1.5870 -1.8554
  211MPD1     C 3203   1.558   3.597  15.788  0.0747 -0.2485  0.1318
  211MPD1    C1 3204   1.433   3.565  15.837  0.1519  0.1927  0.2751
  211MPD1    C2 3205   1.374   3.659  15.927 -0.2755  0.4708  0.2988
  211MPD1    C3 3206   1.441   3.769  15.973  0.2961 -0.8221  0.1574
  211MPD1    C4 3207   1.576   3.793  15.932 -0.1275 -0.0851  0.2339
  211MPD1    C5 3208   1.629   3.701  15.850 -0.0841  0.7659 -0.4848
  211MPD1     H 3209   1.271   3.644  15.957 -0.5810  0.9548 -0.5248
  211MPD1    H1 3210   1.634   3.878  15.968  0.3723  0.1616 -1.1646
  211MPD1    H2 3211   1.599   3.541  15.705 -0.2535 -1.0661  0.5173
  211MPD1    H3 3212   1.732   3.719  15.822  0.2784 -1.8900 -0.8351
  211MPD1     N 3213   1.381   3.862  16.066  0.0138  0.2828 -0.5027
  211MPD1    H5 3214   1.286   3.839  16.092  0.3713 -1.8039 -1.0344
  211MPD1    N1 3215   1.361   3.462  15.774 -0.1362 -0.4911 -0.5009
  211MPD1    H6 3216   1.421   3.387  15.740  0.8315 -1.1752  2.7402
  211MPD1    H7 3217   1.298   3.421  15.844 -0.0294  1.1531  0.5600
  212MPD1     C 3218   0.681   2.074  17.181 -0.3646 -0.0045 -0.2848
  212MPD1    C1 3219   0.666   2.027  17.053  0.1851 -0.2184  0.1102
  212MPD1    C2 3220   0.541   1.981  17.024  1.0141  0.0792 -0.1001
  212MPD1    C3 3221   0.432   2.012  17.103 -0.0606 -0.3983 -0.1520
  212MPD1    C4 3222   0.453   2.073  17.227 -0.6687 -0.5754 -0.1804
  212MPD1    C5 3223   0.579   2.096  17.271  0.4558  0.3705  0.2782
  212MPD1     H 3224   0.534   1.924  16.932  1.1521  1.0561 -0.7160
  212MPD1    H1 3225   0.369   2.091  17.293  0.3445  1.2794  0.5742
  212MPD1    H2 3226   0.778   2.103  17.221 -0.2690  0.2629 -0.7106
  212MPD1    H3 3227   0.596   2.140  17.369  3.8806  0.3004 -0.3050
  212MPD1     N 3228   0.303   1.962  17.075  0.5530 -0.0297  0.0349
  212MPD1    H5 3229   0.225   1.981  17.137  1.5801  0.2650  1.2526
  212MPD1    N1 3230   0.773   2.020  16.965  0.3365 -0.9642 -0.1745
  212MPD1    H6 3231   0.766   2.049  16.867 -2.6905  0.9327  0.6167
  212MPD1    H7 3232   0.857   2.057  17.008 -0.0672 -2.5957  2.0159
  213MPD1     C 3233   3.925   2.988  15.730  0.0718 -0.0996  0.0444
  213MPD1    C1 3234   3.814   2.994  15.805  0.5868  0.1075 -0.0643
  213MPD1    C2 3235   3.705   3.049  15.735 -0.2603  1.0773 -0.1337
  213MPD1    C3 3236   3.713   3.123  15.613 -0.3040 -0.3340  0.1224
  213MPD1    C4 3237   3.836   3.132  15.555  0.2657  0.2428  0.5461
  213MPD1    C5 3238   3.931   3.049  15.606  0.5484 -0.5544  1.0518
  213MPD1     H 3239   3.603   3.030  15.767  0.6271 -2.4875  0.6841
  213MPD1    H1 3240   3.849   3.177  15.458  1.2973 -2.9239 -0.7655
  213MPD1    H2 3241   4.004   2.925  15.768  1.4483  1.9939  0.6339
  213MPD1    H3 3242   4.021   3.025  15.549 -0.6619  1.6886 -1.8248
  213MPD1     N 3243   3.596   3.181  15.561 -0.2352  0.7937  0.5064
  213MPD1    H5 3244   3.506   3.164  15.606  1.2838  1.5542  3.7932
  213MPD1    N1 3245   3.794   2.890  15.902 -0.4581  0.5032 -0.2369
  213MPD1    H6 3246   3.885   2.901  15.946 -1.8434  2.1124  2.1839
  213MPD1    H7 3247   3.717   2.899  15.967 -0.1179  0.2846  0.1953
  214MPD1     C 3248   2.697   2.929  15.261  0.1400 -0.2507 -0.3693
  214MPD1    C1 3249   2.754   2.957  15.382 -0.5816 -0.0404  0.2158
  214MPD1    C2 3250   2.870   3.023  15.390  0.4617  0.0660 -0.0813
  214MPD1    C3 3251   2.939   3.066  15.278  0.9859  0.3883  0.4281
  214MPD1    C4 3252   2.878   3.043  15.162  0.0775 -0.0115  0.2444
  214MPD1    C5 3253   2.761   2.970  15.147  0.2339  0.1167  0.1594
  214MPD1     H 3254   2.910   3.031  15.491  0.5152 -1.0213 -0.0140
  214MPD1    H1 3255   2.929   3.069  15.070 -1.2878 -0.7974 -0.7507
  214MPD1    H2 3256   2.607   2.870  15.247 -0.4020  0.5380 -0.2127
  214MPD1    H3 3257   2.703   2.955  15.056 -1.3342  0.7761  1.0578
  214MPD1     N 3258   3.061   3.137  15.280 -0.2687 -0.5523 -0.2934
  214MPD1    H5 3259   3.105   3.156  15.190  0.3654  1.0003  0.3581
  214MPD1    N1 3260   2.684   2.927  15.500 -0.3232 -0.2257  0.6437
  214MPD1    H6 3261   2.628   2.844  15.482  0.8287 -1.2024  1.5977
  214MPD1    H7 3262   2.756   2.895  15.564  0.9185 -0.5160 -0.8904
  215MPD1     C 3263   2.589   4.077  11.221  0.3605 -0.3015  0.2783
  215MPD1    C1 3264   2.554   4.167  11.313  0.2556 -0.0165  1.0808
  215MPD1    C2 3265   2.611   4.295  11.309 -0.1547  0.0450  0.1071
  215MPD1    C3 3266   2.695   4.341  11.208  0.2408  0.4489 -0.3985
  215MPD1    C4 3267   2.724   4.245  11.111 -0.1280 -0.4946 -0.4853
  215MPD1    C5 3268   2.669   4.118  11.121  0.8001  0.7571 -0.0595
  215MPD1     H 3269   2.575   4.376  11.372 -0.4845 -0.3734  0.4549
  215MPD1    H1 3270   2.813   4.254  11.050  0.7327 -0.6075  0.7615
  215MPD1    H2 3271   2.553   3.975  11.217 -0.0445 -0.1665  0.3872
  215MPD1    H3 3272   2.706   4.043  11.052 -1.1787 -0.9172  0.6963
  215MPD1     N 3273   2.746   4.472  11.218 -0.8481  0.2225  0.2907
  215MPD1    H5 3274   2.738   4.525  11.304  1.7350  1.4367 -0.2206
  215MPD1    N1 3275   2.466   4.122  11.416 -0.1182 -0.1684  0.0498
  215MPD1    H6 3276   2.414   4.042  11.381  1.8142 -0.9752 -0.9922
  215MPD1    H7 3277   2.400   4.195  11.444  0.1004  0.2235 -0.4375
  216MPD1     C 3278   0.680   0.705  16.335  0.3563  0.3224 -0.1784
  216MPD1    C1 3279   0.755   0.624  16.420 -0.3057  0.0103  0.3288
  216MPD1    C2 3280   0.736   0.633  16.560 -0.3462 -0.0207  0.0980
  216MPD1    C3 3281   0.627   0.704  16.607  0.4725 -0.1952  0.3852
  216MPD1    C4 3282   0.537   0.775  16.519  0.5162  0.3221  0.9297
  216MPD1    C5 3283   0.567   0.770  16.382  0.6389 -0.5682  0.0420
  216MPD1     H 3284   0.793   0.584  16.639  0.6087  3.2053  1.3904
  216MPD1    H1 3285   0.448   0.831  16.545  1.4390  0.9773  2.6957
  216MPD1    H2 3286   0.698   0.703  16.228  0.1354 -2.1598 -0.1700
  216MPD1    H3 3287   0.497   0.816  16.313 -0.5924 -0.2824  1.4727
  216MPD1     N 3288   0.615   0.711  16.749  0.1294  0.4260  0.3286
  216MPD1    H5 3289   0.687   0.660  16.800  2.5106  2.2881 -1.2160
  216MPD1    N1 3290   0.869   0.553  16.378  0.1175 -0.1982  0.6578
  216MPD1    H6 3291   0.866   0.468  16.434 -1.0285 -0.9521 -0.5416
  216MPD1    H7 3292   0.856   0.531  16.280 -4.7063  3.3091  0.5583
  217MPD1     C 3293   0.289   4.412   8.335  0.1969 -0.1025  0.4425
  217MPD1    C1 3294   0.361   4.308   8.293  0.5557 -0.1881 -0.3082
  217MPD1    C2 3295   0.427   4.227   8.391 -0.0251  0.0377  0.6662
  217MPD1    C3 3296   0.424   4.252   8.520  0.4810  0.0607  0.2393
  217MPD1    C4 3297   0.349   4.364   8.558  0.0497 -0.0843 -0.2818
  217MPD1    C5 3298   0.285   4.446   8.464 -0.3212 -0.3000 -0.8139
  217MPD1     H 3299   0.475   4.136   8.357 -1.0360 -0.3629  0.3185
  217MPD1    H1 3300   0.338   4.401   8.660 -1.3528 -0.3321 -0.3448
  217MPD1    H2 3301   0.232   4.474   8.266  2.1972 -1.1047 -2.0967
  217MPD1    H3 3302   0.237   4.534   8.507 -2.4720 -1.2103 -1.3214
  217MPD1     N 3303   0.482   4.178   8.622 -0.6823 -0.0732 -0.1514
  217MPD1    H5 3304   0.458   4.209   8.716  0.3896 -0.8244  0.3738
  217MPD1    N1 3305   0.342   4.252   8.159  0.0921  0.2705 -0.6048
  217MPD1    H6 3306   0.312   4.326   8.097  1.5554  0.6416 -0.8791
  217MPD1    H7 3307   0.435   4.220   8.132  0.0299  0.0430 -0.5502
  218MPD1     C 3308   2.265   4.387  12.953  1.3597 -0.1939  0.1468
  218MPD1    C1 3309   2.242   4.493  12.868 -0.1570  0.3791  0.2637
  218MPD1    C2 3310   2.352   4.558  12.829  0.2743 -0.6260 -0.3656
  218MPD1    C3 3311   2.479   4.519  12.864 -0.3456  1.0951  0.5617
  218MPD1    C4 3312   2.490   4.392  12.917  0.3958  0.1673 -0.0643
  218MPD1    C5 3313   2.386   4.333  12.968  0.3432 -0.1027  0.4056
  218MPD1     H 3314   2.344   4.658  12.787 -0.2980 -0.3914  0.2933
  218MPD1    H1 3315   2.584   4.337  12.929  0.6431  0.4227 -0.8196
  218MPD1    H2 3316   2.185   4.322  12.986 -0.9936  0.8280 -3.5520
  218MPD1    H3 3317   2.392   4.232  13.008  1.6252 -0.4706 -0.7210
  218MPD1     N 3318   2.597   4.584  12.815 -0.5354 -0.2754  0.0885
  218MPD1    H5 3319   2.590   4.664  12.753  0.7424  0.5847  1.0577
  218MPD1    N1 3320   2.114   4.541  12.850 -0.1797  0.1432  0.1692
  218MPD1    H6 3321   2.105   4.577  12.755  0.1871  0.3439  0.2124
  218MPD1    H7 3322   2.047   4.464  12.839  2.3668 -1.7127 -2.3439
  219MPD1     C 3323   2.800   4.574  12.008 -0.6346  0.4677  0.6734
  219MPD1    C1 3324   2.876   4.677  12.051  0.1109  0.2251 -0.6355
  219MPD1    C2 3325   2.881   4.703  12.183  0.5913  0.6689 -0.2173
  219MPD1    C3 3326   2.831   4.618  12.276  0.6993  0.6105  0.4128
  219MPD1    C4 3327   2.772   4.504  12.231  0.1114  0.0108 -0.4586
  219MPD1    C5 3328   2.748   4.493  12.092 -0.6198  0.4963 -0.6119
  219MPD1     H 3329   2.925   0.072  12.220 -0.8828  1.2296  0.1287
  219MPD1    H1 3330   2.740   4.423  12.297 -0.2658  1.7588  1.5000
  219MPD1    H2 3331   2.772   4.559  11.905  1.9656  1.2648 -0.1547
  219MPD1    H3 3332   2.709   4.399  12.053  0.7569 -0.2085 -0.3242
  219MPD1     N 3333   2.859   4.631  12.415 -0.2373  0.4987 -0.6609
  219MPD1    H5 3334   2.811   4.565  12.475  3.5169 -1.0153  0.6471
  219MPD1    N1 3335   2.924   0.056  11.957 -0.3837 -0.1513  0.3683
  219MPD1    H6 3336   2.958   0.012  11.872  2.5488 -0.6841  1.8135
  219MPD1    H7 3337   3.001   0.104  12.002  0.1385 -0.1272 -0.5569
  220MPD1     C 3338   2.804   0.925   9.697  0.3399 -0.2116 -0.1061
  220MPD1    C1 3339   2.692   0.889   9.769 -0.0348 -0.1805  0.0779
  220MPD1    C2 3340   2.707   0.790   9.865  0.0866  0.6231 -0.1916
  220MPD1    C3 3341   2.826   0.725   9.871 -0.2184  0.1954 -0.0755
  220MPD1    C4 3342   2.935   0.768   9.794 -0.3433 -0.3427 -0.3224
  220MPD1    C5 3343   2.921   0.865   9.703 -0.1632  0.1953  0.0213
  220MPD1     H 3344   2.626   0.763   9.932 -1.0533  2.1262 -0.9801
  220MPD1    H1 3345   3.025   0.707   9.787  0.5254  1.0404 -1.1362
  220MPD1    H2 3346   2.800   1.004   9.623 -1.5929  0.1823  0.4027
  220MPD1    H3 3347   2.997   0.902   9.635  0.4255 -0.8122  0.1409
  220MPD1     N 3348   2.843   0.615   9.965  0.8162  0.7577  0.1231
  220MPD1    H5 3349   2.760   0.584  10.015 -0.4102 -0.6685 -2.8351
  220MPD1    N1 3350   2.575   0.965   9.761  0.9583  0.1867 -0.5696
  220MPD1    H6 3351   2.587   1.025   9.679 -1.9092  1.3854 -0.0875
  220MPD1    H7 3352   2.495   0.904   9.749  1.4609 -0.8224  1.2719
  221MPD1     C 3353   0.067   2.865  16.079  0.8554 -0.1460  0.0143
  221MPD1    C1 3354   0.145   2.821  16.180 -0.2643  0.7839 -0.0408
  221MPD1    C2 3355   0.265   2.889  16.190 -0.4096 -0.2538  0.0305
  221MPD1    C3 3356   0.316   2.979  16.103 -0.1400  0.1584  0.0282
  221MPD1    C4 3357   0.238   3.006  15.994 -0.2712  0.9838 -0.1327
  221MPD1    C5 3358   0.113   2.952  15.981 -0.3021 -0.8712 -0.0866
  221MPD1     H 3359   0.314   2.858  16.281 -1.3688  0.3913  0.7575
  221MPD1    H1 3360   0.262   3.073  15.912 -2.5753  1.5107 -0.3744
  221MPD1    H2 3361   4.695   2.815  16.067  1.3843 -1.3712  0.8903
  221MPD1    H3 3362   0.041   2.965  15.900 -2.9053  1.4004  2.6113
  221MPD1     N 3363   0.437   3.044  16.125  0.1225  0.7083 -0.1644
  221MPD1    H5 3364   0.474   3.101  16.049 -0.8461  2.0748  0.3826
  221MPD1    N1 3365   0.103   2.750  16.295  0.3346 -0.1779 -0.2218
  221MPD1    H6 3366   0.033   2.684  16.264  1.7400 -2.1311  0.7921
  221MPD1    H7 3367   0.180   2.700  16.338 -1.0091 -3.1548 -1.2699
  222MPD1     C 3368   1.368   1.445  17.594 -0.0772 -0.0710 -0.3621
  222MPD1    C1 3369   1.297   1.394  17.489  0.7922  0.2696 -0.0302
  222MPD1    C2 3370   1.173   1.449  17.466  0.3483 -0.5476 -0.0478
  222MPD1    C3 3371   1.121   1.556  17.541 -0.6567 -0.4000  0.3786
  222MPD1    C4 3372   1.202   1.605  17.643 -0.4145  0.4004  0.0939
  222MPD1    C5 3373   1.325   1.553  17.659  0.2864 -0.3732  0.0865
  222MPD1     H 3374   1.115   1.403  17.387  1.4669  0.4109 -1.4286
  222MPD1    H1 3375   1.180   1.698  17.694  0.8902  1.0952 -0.6311
  222MPD1    H2 3376   1.469   1.416  17.621 -0.5989 -2.3928 -0.8714
  222MPD1    H3 3377   1.390   1.595   0.040  1.3879  2.7067 -2.5594
  222MPD1     N 3378   0.998   1.628  17.531 -0.1471  0.2019 -0.4921
  222MPD1    H5 3379   0.977   1.687  17.611 -0.7573  0.4573 -0.8415
  222MPD1    N1 3380   1.349   1.272  17.439 -0.0551  0.3615  0.2090
  222MPD1    H6 3381   1.317   1.241  17.347 -1.2954 -0.3488  0.8712
  222MPD1    H7 3382   1.448   1.253  17.450  0.0019  0.8409  0.5137
  223MPD1     C 3383   0.248   1.415  16.937  0.5401  0.5707  0.2717
  223MPD1    C1 3384   0.380   1.441  16.906  0.0529  0.5708  0.0034
  223MPD1    C2 3385   0.456   1.509  16.995 -0.4022 -0.3962 -0.2052
  223MPD1    C3 3386   0.398   1.572  17.097  0.0001 -0.7197  0.3370
  223MPD1    C4 3387   0.263   1.557  17.124  0.4124 -0.2539 -0.0876
  223MPD1    C5 3388   0.185   1.473  17.043  0.7474 -0.3632 -0.0632
  223MPD1     H 3389   0.564   1.513  16.991 -0.3662 -0.5799  0.5626
  223MPD1    H1 3390   0.211   1.603  17.207  3.9932 -2.0242  3.1554
  223MPD1    H2 3391   0.188   1.356  16.868  0.0789  0.6168  0.6340
  223MPD1    H3 3392   0.082   1.451  17.072  0.4910  0.2989 -0.4607
  223MPD1     N 3393   0.480   1.640  17.192 -0.0240 -0.0594 -0.2142
  223MPD1    H5 3394   0.575   1.650  17.157 -0.5354 -1.9343 -2.1214
  223MPD1    N1 3395   0.444   1.364  16.808 -0.2022  0.1640 -0.3455
  223MPD1    H6 3396   0.521   1.420  16.773  0.9736 -1.8155 -0.9639
  223MPD1    H7 3397   0.378   1.350  16.732  0.0814 -1.3842 -0.3081
  224MPD1     C 3398   1.510   4.627   9.114 -0.2119  0.5610 -0.6500
  224MPD1    C1 3399   1.407   4.678   9.194 -0.1010 -0.6325 -0.0116
  224MPD1    C2 3400   1.320   4.586   9.248  0.8187 -0.4576 -0.3960
  224MPD1    C3 3401   1.332   4.444   9.240  0.5993  0.0093 -0.0809
  224MPD1    C4 3402   1.440   4.401   9.162 -0.4224 -0.0347 -0.3044
  224MPD1    C5 3403   1.522   4.493   9.108  0.5371 -0.8585 -0.0269
  224MPD1     H 3404   1.244   4.623   9.316  3.5294  0.8424  1.9492
  224MPD1    H1 3405   1.456   4.295   9.149  2.0625  0.6831 -3.2412
  224MPD1    H2 3406   1.577   4.684   9.051 -0.4005  0.6512 -0.7705
  224MPD1    H3 3407   1.610   4.466   9.051  0.7366  1.3402 -0.7353
  224MPD1     N 3408   1.247   4.349   9.298 -0.4709 -0.1988  0.3717
  224MPD1    H5 3409   1.266   4.252   9.275 -0.9922 -0.2454  0.1332
  224MPD1    N1 3410   1.389   0.091   9.214  0.0249  0.3250  0.7942
  224MPD1    H6 3411   1.484   0.124   9.232 -1.0033  3.0375  1.1601
  224MPD1    H7 3412   1.341   0.103   9.302 -1.8674  0.3326 -0.2389
  225MPD1     C 3413   2.742   1.076  12.560  0.1556  0.0209  0.1570
  225MPD1    C1 3414   2.711   0.945  12.572 -0.3430 -0.5422 -0.4889
  225MPD1    C2 3415   2.661   0.879  12.461 -0.5035  0.0364 -0.7034
  225MPD1    C3 3416   2.635   0.939  12.344 -0.2205 -1.1458  0.3126
  225MPD1    C4 3417   2.672   1.069  12.334 -0.4418 -0.0463 -0.3409
  225MPD1    C5 3418   2.721   1.136  12.441  0.1024  0.3978  0.2520
  225MPD1     H 3419   2.641   0.774  12.479  1.6555 -0.0471  1.2309
  225MPD1    H1 3420   2.654   1.132  12.248  2.0747  0.1736 -0.7000
  225MPD1    H2 3421   2.778   1.133  12.645 -2.9892  1.0512  0.8171
  225MPD1    H3 3422   2.744   1.240  12.422  1.0249  0.1123 -0.1563
  225MPD1     N 3423   2.552   0.888  12.243 -0.2379  0.1104  0.2670
  225MPD1    H5 3424   2.523   0.952  12.170  1.2917  0.1194 -0.3462
  225MPD1    N1 3425   2.752   0.877  12.690  0.4999 -0.1577 -0.3671
  225MPD1    H6 3426   2.850   0.869  12.713  0.8000  1.9561 -0.9027
  225MPD1    H7 3427   2.732   0.938  12.769 -0.1108  0.5506 -1.0648
  226MPD1     C 3428   0.921   1.222   8.745 -0.0320  0.1158  0.4857
  226MPD1    C1 3429   1.041   1.230   8.812  0.9695 -0.1145 -0.5969
  226MPD1    C2 3430   1.055   1.157   8.926  0.2631 -0.7616  0.5204
  226MPD1    C3 3431   0.944   1.102   8.996 -0.1163 -0.0078  0.2466
  226MPD1    C4 3432   0.823   1.112   8.938  0.0753  0.3336  0.7709
  226MPD1    C5 3433   0.821   1.163   8.813  0.2752  0.6355  0.4230
  226MPD1     H 3434   1.156   1.140   8.961 -0.4061 -2.2378  1.7719
  226MPD1    H1 3435   0.732   1.068   8.977 -1.3300  1.1795 -1.5390
  226MPD1    H2 3436   0.912   1.250   8.640 -1.6493 -1.0845  0.3110
  226MPD1    H3 3437   0.728   1.157   8.758  0.0396  2.5414  0.6046
  226MPD1     N 3438   0.970   1.029   9.114 -0.6187 -0.1614  0.2513
  226MPD1    H5 3439   1.062   1.042   9.153  0.7026  1.4677 -3.4254
  226MPD1    N1 3440   1.154   1.266   8.740 -0.1022 -0.9535  0.4896
  226MPD1    H6 3441   1.132   1.350   8.687 -1.1417 -0.5500  1.5554
  226MPD1    H7 3442   1.219   1.305   8.808 -1.6597 -2.2014  2.7004
  227MPD1     C 3443   1.628   1.268   9.572 -0.3067  0.3251 -0.1635
  227MPD1    C1 3444   1.581   1.264   9.442 -0.8752 -0.3668  0.4533
  227MPD1    C2 3445   1.476   1.180   9.415  0.4966 -0.0387 -0.2613
  227MPD1    C3 3446   1.404   1.118   9.506  0.0940  1.1796 -0.4389
  227MPD1    C4 3447   1.451   1.122   9.637 -0.4845  0.1809 -0.0631
  227MPD1    C5 3448   1.569   1.185   9.665 -1.0072  0.1133  0.3579
  227MPD1     H 3449   1.451   1.158   9.311  1.5381  0.4771 -0.6213
  227MPD1    H1 3450   1.412   1.052   9.710 -0.8857  1.3642  0.8676
  227MPD1    H2 3451   1.719   1.318   9.602  0.1841 -0.4595 -0.3412
  227MPD1    H3 3452   1.603   1.184   9.768  1.4721 -3.2114 -0.4851
  227MPD1     N 3453   1.297   1.042   9.462  0.1716 -0.2357 -0.0367
  227MPD1    H5 3454   1.262   1.070   9.370  0.3775  0.9056  0.2376
  227MPD1    N1 3455   1.654   1.325   9.335  0.2778 -0.2643  0.4330
  227MPD1    H6 3456   1.712   1.407   9.351 -0.3692  0.0582  1.1215
  227MPD1    H7 3457   1.606   1.328   9.246  0.0112  0.1800  0.5923
  228MPD1     C 3458   4.085   3.184  13.358  0.2848 -0.3006  0.4256
  228MPD1    C1 3459   3.956   3.224  13.317  0.2954 -0.5838  0.3034
  228MPD1    C2 3460   3.885   3.140  13.235  0.6077 -0.3291 -0.3575
  228MPD1    C3 3461   3.925   3.010  13.218  0.0353 -0.3166 -0.4032
  228MPD1    C4 3462   4.046   2.969  13.278 -0.3345  0.0433 -0.1463
  228MPD1    C5 3463   4.126   3.059  13.340 -0.5387 -0.7713  0.1952
  228MPD1     H 3464   3.795   3.187  13.197  0.6192 -1.0783 -1.2963
  228MPD1    H1 3465   4.090   2.873  13.252  0.1337  0.3778 -0.5890
  228MPD1    H2 3466   4.152   3.251  13.411  0.6144 -1.0888  0.9927
  228MPD1    H3 3467   4.230   3.037  13.363 -0.6697 -1.1003  0.4705
  228MPD1     N 3468   3.844   2.924  13.138  0.6233 -0.6175  0.3124
  228MPD1    H5 3469   3.772   2.968  13.082  1.2962 -0.7932 -0.6776
  228MPD1    N1 3470   3.922   3.363  13.325 -0.3597  0.3886  0.2889
  228MPD1    H6 3471   3.945   3.392  13.420 -1.6371 -1.4937  1.1632
  228MPD1    H7 3472   3.824   3.381  13.307 -0.7301 -0.2866  1.6486
  229MPD1     C 3473   3.848   1.756  14.617 -0.5251  0.8861 -0.0827
  229MPD1    C1 3474   3.826   1.623  14.585 -0.1479 -0.6017 -0.4279
  229MPD1    C2 3475   3.879   1.524  14.662  0.1785  0.2602  0.3266
  229MPD1    C3 3476   3.957   1.552  14.771 -0.1099 -0.6834 -0.7061
  229MPD1    C4 3477   3.972   1.684  14.812  0.7959 -1.0812  0.5160
  229MPD1    C5 3478   3.917   1.785  14.734 -0.3601  0.1454  0.0663
  229MPD1     H 3479   3.864   1.423  14.625 -0.1796 -0.0064  1.2166
  229MPD1    H1 3480   4.034   1.712  14.897  1.8411 -1.5739 -0.0914
  229MPD1    H2 3481   3.805   1.835  14.556  1.3289  1.1327 -1.0712
  229MPD1    H3 3482   3.930   1.885  14.773 -1.4423  0.1491  0.4438
  229MPD1     N 3483   4.034   1.464  14.835 -0.2132 -0.0369 -0.3661
  229MPD1    H5 3484   4.082   1.497  14.918 -1.5148 -3.3438  1.7495
  229MPD1    N1 3485   3.775   1.592  14.461 -0.1915 -0.5118 -0.2187
  229MPD1    H6 3486   3.728   1.502  14.471 -0.1726 -0.6133 -1.0664
  229MPD1    H7 3487   3.710   1.668  14.439 -1.1109 -0.5083  2.4648
  230MPD1     C 3488   4.662   1.438  15.559 -0.4230 -0.5868  0.0747
  230MPD1    C1 3489   4.686   1.313  15.508  0.0943 -0.6851 -0.9429
  230MPD1    C2 3490   4.635   1.272  15.386 -0.4266  0.6936  0.2030
  230MPD1    C3 3491   4.528   1.351  15.335 -0.2905  1.4068 -0.1456
  230MPD1    C4 3492   4.485   1.467  15.399  0.2616 -0.3232 -0.3464
  230MPD1    C5 3493   4.556   1.514  15.508 -0.5599  0.5260  0.3056
  230MPD1     H 3494   4.663   1.178  15.340 -2.5211  0.8199 -1.3313
  230MPD1    H1 3495   4.396   1.521  15.371  0.8028  1.0295  0.5739
  230MPD1    H2 3496   4.704   1.484  15.648 -0.3178  0.5340 -0.5602
  230MPD1    H3 3497   4.531   1.609  15.552 -0.9325 -0.6118  2.5355
  230MPD1     N 3498   4.463   1.293  15.227 -0.5735  0.0236  0.1796
  230MPD1    H5 3499   4.507   1.206  15.200  0.5682  0.6300  0.0491
  230MPD1    N1 3500   0.050   1.229  15.572  0.0423  0.1553 -0.2002
  230MPD1    H6 3501   0.028   1.133  15.548 -1.2339  0.6315 -0.9610
  230MPD1    H7 3502   0.051   1.233  15.674  2.0595  1.0946 -0.2623
  231MPD1     C 3503   2.742   3.375  15.560 -0.5807 -0.0095  0.1105
  231MPD1    C1 3504   2.705   3.351  15.429  0.4927  0.3025  0.3516
  231MPD1    C2 3505   2.764   3.415  15.325  0.2268 -0.4443  0.9200
  231MPD1    C3 3506   2.870   3.499  15.348 -0.6745 -0.0717 -0.1985
  231MPD1    C4 3507   2.911   3.522  15.475  0.1172  0.2905 -1.1148
  231MPD1    C5 3508   2.847   3.462  15.578  0.8714 -0.0879  0.3575
  231MPD1     H 3509   2.713   3.405  15.229  2.4673 -0.8165 -0.2166
  231MPD1    H1 3510   2.986   3.599  15.489 -1.7039  2.2175 -1.9020
  231MPD1    H2 3511   2.700   3.320  15.643 -1.3569  1.5537  0.7413
  231MPD1    H3 3512   2.888   3.483  15.676  1.8071  1.2084 -0.3039
  231MPD1     N 3513   2.923   3.559  15.232 -0.0753  0.3059 -0.0417
  231MPD1    H5 3514   2.877   3.535  15.145  1.3368 -1.4042 -0.3039
  231MPD1    N1 3515   2.596   3.265  15.397  0.0890  0.0079 -0.3194
  231MPD1    H6 3516   2.592   3.180  15.454 -0.0497  0.2238 -0.0066
  231MPD1    H7 3517   2.607   3.225  15.304 -0.0447  1.5962 -1.0108
  232MPD1     C 3518   4.615   0.375   0.177  0.2842 -0.1508  0.2986
  232MPD1    C1 3519   4.582   0.293   0.283  0.5463  0.6505 -0.3598
  232MPD1    C2 3520   4.450   0.281   0.307  0.5959 -0.6802 -0.1013
  232MPD1    C3 3521   4.346   0.328   0.227 -0.2729  0.4032  0.6159
  232MPD1    C4 3522   4.382   0.383   0.107 -0.0982 -0.0072  0.1094
  232MPD1    C5 3523   4.520   0.409   0.086 -0.1344 -0.2223 -0.2537
  232MPD1     H 3524   4.431   0.223   0.396 -0.7652 -1.2407 -0.7539
  232MPD1    H1 3525   4.311   0.392   0.025  0.0973 -1.3888 -0.2062
  232MPD1    H2 3526   4.721   0.389   0.158  0.3948 -0.4129  0.7328
  232MPD1    H3 3527   4.548   0.457  17.688 -0.6378  1.4616  0.4692
  232MPD1     N 3528   4.212   0.296   0.262  0.8419 -0.4868  0.2216
  232MPD1    H5 3529   4.207   0.247   0.350 -1.4390 -0.0720  0.3182
  232MPD1    N1 3530   4.682   0.271   0.372  0.0309  0.0102 -0.9836
  232MPD1    H6 3531   4.663   0.197   0.439 -0.6674  0.6109 -0.5088
  232MPD1    H7 3532   0.046   0.241   0.330 -0.1319 -1.3902 -0.3310
  233MPD1     C 3533   0.794   2.405   2.131  0.3228 -0.1834 -0.4480
  233MPD1    C1 3534   0.910   2.361   2.193 -0.3718  0.7642  0.0544
  233MPD1    C2 3535   1.018   2.447   2.193  0.0399  0.2152 -0.1078
  233MPD1    C3 3536   1.012   2.566   2.130 -0.1322 -0.1042  0.2277
  233MPD1    C4 3537   0.901   2.596   2.053 -0.8985 -0.0657  1.6396
  233MPD1    C5 3538   0.790   2.513   2.053 -0.2443  0.0429  0.2871
  233MPD1     H 3539   1.108   2.413   2.244 -0.3972  1.0709  1.1951
  233MPD1    H1 3540   0.886   2.690   2.000  1.1089  0.3221  1.7413
  233MPD1    H2 3541   0.705   2.342   2.137 -0.5484  1.1546  0.8020
  233MPD1    H3 3542   0.699   2.539   2.000  1.0180 -0.6755 -2.2031
  233MPD1     N 3543   1.113   2.661   2.128 -0.7996 -0.4428 -0.6951
  233MPD1    H5 3544   1.087   2.745   2.078  0.1436  1.1042  1.4260
  233MPD1    N1 3545   0.906   2.250   2.278 -0.2254  0.6551  0.3704
  233MPD1    H6 3546   0.854   2.173   2.237 -2.1506 -0.0949  4.1641
  233MPD1    H7 3547   0.996   2.222   2.317 -0.8654 -1.1550  0.5394
  234MPD1     C 3548   1.511   2.468   9.182 -0.7927 -0.0024 -0.4952
  234MPD1    C1 3549   1.478   2.530   9.304 -0.0540  0.5644 -0.1186
  234MPD1    C2 3550   1.422   2.654   9.301 -0.2353  0.0442 -0.8002
  234MPD1    C3 3551   1.393   2.714   9.179  0.5368  0.4094  0.0229
  234MPD1    C4 3552   1.409   2.648   9.056 -0.4948  0.8238 -0.3409
  234MPD1    C5 3553   1.479   2.529   9.063 -0.0382 -0.0776  0.1238
  234MPD1     H 3554   1.415   2.715   9.390 -4.3094 -0.3108 -0.8635
  234MPD1    H1 3555   1.382   2.678   8.955  0.3915  1.6773 -0.3263
  234MPD1    H2 3556   1.555   2.369   9.179  0.7192  0.6295  1.1389
  234MPD1    H3 3557   1.502   2.485   8.967 -2.6333  0.2101 -0.6291
  234MPD1     N 3558   1.342   2.847   9.182  0.7341  0.1564 -0.1183
  234MPD1    H5 3559   1.327   2.891   9.272  0.3670  1.5450 -0.8680
  234MPD1    N1 3560   1.504   2.459   9.420  0.2218  0.4566  0.1591
  234MPD1    H6 3561   1.436   2.484   9.492  0.9085  2.2459  0.2050
  234MPD1    H7 3562   1.513   2.358   9.418 -0.4952  0.4027 -0.1189
  235MPD1     C 3563   1.879   2.434   9.467  0.1450 -0.4305 -0.3516
  235MPD1    C1 3564   1.888   2.428   9.333  0.1004 -0.2821 -0.0775
  235MPD1    C2 3565   1.981   2.343   9.277 -0.1490  0.1801 -0.0722
  235MPD1    C3 3566   2.055   2.253   9.349  0.6052 -0.1860 -0.4284
  235MPD1    C4 3567   2.049   2.260   9.482  0.6511 -0.1709 -0.5462
  235MPD1    C5 3568   1.961   2.347   9.542 -0.5704  0.0734 -0.0299
  235MPD1     H 3569   2.004   2.353   9.171  1.2068  0.8954  0.2782
  235MPD1    H1 3570   2.121   2.206   9.542  1.2516 -0.0598 -1.1733
  235MPD1    H2 3571   1.814   2.498   9.525  0.4533  0.1070 -0.5953
  235MPD1    H3 3572   1.956   2.368   9.648 -2.6055  0.2688 -0.1564
  235MPD1     N 3573   2.142   2.164   9.277  0.0967 -0.3236  0.0051
  235MPD1    H5 3574   2.143   2.175   9.176  0.2313  0.3411  0.0793
  235MPD1    N1 3575   1.832   2.539   9.269 -0.5535  0.4277 -0.4676
  235MPD1    H6 3576   1.744   2.578   9.303 -1.5408 -1.1696 -1.1572
  235MPD1    H7 3577   1.829   2.522   9.169 -1.9727  0.4418 -0.4364
  236MPD1     C 3578   3.296   2.445  10.091 -0.5711 -0.2042 -1.0433
  236MPD1    C1 3579   3.317   2.325  10.033  0.4694 -0.7267  0.0143
  236MPD1    C2 3580   3.229   2.220  10.064 -1.1306 -0.0268  0.8358
  236MPD1    C3 3581   3.121   2.245  10.145  0.0999  0.4948 -0.2924
  236MPD1    C4 3582   3.093   2.375  10.189 -0.0330 -0.3047 -0.0025
  236MPD1    C5 3583   3.180   2.470  10.163  0.2093  0.5437  0.3363
  236MPD1     H 3584   3.234   2.121  10.020 -0.6852  0.0081  0.8112
  236MPD1    H1 3585   3.010   2.400  10.254  1.6817 -1.6102  2.6926
  236MPD1    H2 3586   3.364   2.529  10.077 -1.9418  1.2060  0.6781
  236MPD1    H3 3587   3.161   2.575  10.185 -0.4195  1.0383 -2.5382
  236MPD1     N 3588   3.035   2.134  10.163  0.3832  0.1450 -0.2687
  236MPD1    H5 3589   3.054   2.055  10.102  0.6879  1.1732 -1.5241
  236MPD1    N1 3590   3.433   2.294   9.966  0.6139 -0.1641  0.5441
  236MPD1    H6 3591   3.451   2.362   9.893  1.7308  1.2605  2.1586
  236MPD1    H7 3592   3.418   2.212   9.907  1.2924  0.6472 -0.7732
  237MPD1     C 3593   2.792   0.393  15.655 -0.3688 -0.4551  0.2186
  237MPD1    C1 3594   2.756   0.396  15.523  0.5147 -0.5358 -0.2999
  237MPD1    C2 3595   2.740   0.283  15.451  0.3094  0.0244 -0.0336
  237MPD1    C3 3596   2.753   0.158  15.511 -0.5272 -0.0763  0.3730
  237MPD1    C4 3597   2.798   0.154  15.641 -0.1185 -0.0492 -0.2543
  237MPD1    C5 3598   2.813   0.270  15.707 -0.9913 -0.4713  0.6196
  237MPD1     H 3599   2.707   0.290  15.348  0.6521 -2.8012 -0.3356
  237MPD1    H1 3600   2.812   0.055  15.684  0.0182  1.3283  2.9029
  237MPD1    H2 3601   2.812   0.483  15.712 -2.9659  1.3080 -1.6368
  237MPD1    H3 3602   2.837   0.257  15.812  1.2480  2.0080  0.4284
  237MPD1     N 3603   2.711   0.032  15.457  0.8397  0.4044  0.0939
  237MPD1    H5 3604   2.710   4.669  15.510 -0.3399 -0.0610 -0.6830
  237MPD1    N1 3605   2.721   0.521  15.466 -1.0238 -0.1127 -0.4686
  237MPD1    H6 3606   2.765   0.604  15.505 -2.8679  0.9353 -0.6067
  237MPD1    H7 3607   2.732   0.540  15.366  1.2537 -1.8343 -0.5556
  238MPD1     C 3608   4.602   3.217  15.030 -0.0615  0.1355 -0.3736
  238MPD1    C1 3609   4.533   3.107  15.067 -0.1893 -0.0403  0.0700
  238MPD1    C2 3610   4.402   3.092  15.036 -0.8198 -0.3826 -0.5649
  238MPD1    C3 3611   4.335   3.184  14.954 -0.0884  0.5859  0.2370
  238MPD1    C4 3612   4.403   3.297  14.918 -0.4831 -0.9765  0.4458
  238MPD1    C5 3613   4.530   3.317  14.968 -0.0919  0.7179 -0.0580
  238MPD1     H 3614   4.362   2.993  15.054  0.5462 -0.9203 -0.4712
  238MPD1    H1 3615   4.361   3.370  14.850 -0.5288 -1.7351 -0.3302
  238MPD1    H2 3616   4.709   3.230  15.039 -0.0165  1.0117 -2.0512
  238MPD1    H3 3617   4.575   3.414  14.947  0.1400  0.8283  0.9626
  238MPD1     N 3618   4.211   3.159  14.898 -0.2417 -0.0590  0.2918
  238MPD1    H5 3619   4.180   3.217  14.821 -1.0579  1.6105  1.8554
  238MPD1    N1 3620   4.613   3.006  15.115  0.1158 -0.4658 -0.6691
  238MPD1    H6 3621   4.674   3.034  15.192 -0.0258  1.3598 -1.2099
  238MPD1    H7 3622   4.559   2.934  15.161  0.8385  0.6111  1.8966
  239MPD1     C 3623   4.396   3.931  14.911  0.4940 -0.1420  0.1956
  239MPD1    C1 3624   4.519   3.969  14.883  0.2772  0.2722  0.4266
  239MPD1    C2 3625   4.541   4.032  14.759 -0.4323 -0.0580 -0.5435
  239MPD1    C3 3626   4.439   4.072  14.679  0.0954 -0.2224 -0.4812
  239MPD1    C4 3627   4.311   4.057  14.720  0.3375  0.7007  0.1265
  239MPD1    C5 3628   4.288   3.979  14.833  0.0049  0.4324 -0.1702
  239MPD1     H 3629   4.640   4.029  14.714  0.6521  1.5351  1.6948
  239MPD1    H1 3630   4.234   4.112  14.668  0.1147  0.6948  0.4462
  239MPD1    H2 3631   4.365   3.883  15.004 -1.3203  1.9804  0.6865
  239MPD1    H3 3632   4.188   3.970  14.874 -0.6886  0.2689 -1.8817
  239MPD1     N 3633   4.463   4.156  14.567 -0.7207 -0.4768 -0.1462
  239MPD1    H5 3634   4.389   4.164  14.498 -0.9136 -1.0473 -0.0134
  239MPD1    N1 3635   4.633   3.914  14.946  0.5403 -0.1850  0.0586
  239MPD1    H6 3636   4.614   3.885  15.042  0.0484 -0.0141  0.0101
  239MPD1    H7 3637   4.694   3.995  14.956  0.8974 -0.5474  0.8513
  240MPD1     C 3638   4.120   3.966  13.942  0.4547  0.2999  0.4099
  240MPD1    C1 3639   4.162   3.865  14.019 -0.7391  0.0396 -0.1937
  240MPD1    C2 3640   4.075   3.786  14.095  0.1852 -0.3287  0.1518
  240MPD1    C3 3641   3.946   3.820  14.106 -0.2150  0.7308  1.1207
  240MPD1    C4 3642   3.902   3.935  14.042  0.2762  0.6372 -0.1335
  240MPD1    C5 3643   3.990   4.002  13.960  0.1278  0.2499 -0.2842
  240MPD1     H 3644   4.115   3.701  14.149 -1.2035 -0.7539  0.4819
  240MPD1    H1 3645   3.801   3.974  14.056 -0.1629 -0.5005 -0.1516
  240MPD1    H2 3646   4.189   4.025  13.884 -0.3091  0.3401 -0.4686
  240MPD1    H3 3647   3.958   4.095  13.916 -1.1143 -0.1844 -0.3121
  240MPD1     N 3648   3.867   3.742  14.191  0.3428  0.6333  0.1574
  240MPD1    H5 3649   3.907   3.663  14.241 -0.2741 -1.1094 -2.1095
  240MPD1    N1 3650   4.289   3.820  14.008  0.0979  0.1791 -0.0542
  240MPD1    H6 3651   4.328   3.774  14.090 -1.8731 -0.4620  0.5190
  240MPD1    H7 3652   4.356   3.882  13.962 -0.5483  0.0094 -1.2158
  241MPD1     C 3653   3.797   3.339  15.088  0.4234  0.1973  0.5967
  241MPD1    C1 3654   3.891   3.378  14.997 -0.0044  0.1515 -0.5865
  241MPD1    C2 3655   3.861   3.403  14.864  0.0862 -0.5047  0.1707
  241MPD1    C3 3656   3.731   3.397  14.825  0.2269  0.3009 -0.0206
  241MPD1    C4 3657   3.637   3.351  14.914  0.5330 -0.1178  0.0441
  241MPD1    C5 3658   3.664   3.322  15.047  0.8554 -0.0304 -0.2085
  241MPD1     H 3659   3.933   3.446  14.794 -0.1083 -1.5310 -0.6647
  241MPD1    H1 3660   3.539   3.345  14.870  0.9731  0.8834 -1.0711
  241MPD1    H2 3661   3.817   3.333  15.194 -2.2285 -0.2812  1.0481
  241MPD1    H3 3662   3.593   3.290  15.122 -1.5888  1.4259 -1.9102
  241MPD1     N 3663   3.683   3.429  14.692  0.2164  0.6220  0.2158
  241MPD1    H5 3664   3.585   3.407  14.683  0.7290 -0.9611 -1.3877
  241MPD1    N1 3665   4.023   3.408  15.042  0.1416 -0.0760 -0.0646
  241MPD1    H6 3666   4.093   3.433  14.972  0.7525 -1.1143  0.1920
  241MPD1    H7 3667   4.052   3.343  15.114 -2.1315 -0.5792  0.3927
  242MPD1     C 3668   3.563   2.321  15.943  0.2039  0.3544  0.3270
  242MPD1    C1 3669   3.460   2.313  15.859  0.1885  0.6849 -0.3096
  242MPD1    C2 3670   3.475   2.241  15.744 -0.2246  0.5873 -0.5015
  242MPD1    C3 3671   3.593   2.192  15.703 -0.4536  0.1722  0.4865
  242MPD1    C4 3672   3.703   2.205  15.784  0.3807  0.5155  0.3136
  242MPD1    C5 3673   3.688   2.266  15.911  0.4038  0.9014 -1.1933
  242MPD1     H 3674   3.388   2.227  15.682  1.8709 -0.5644 -3.2009
  242MPD1    H1 3675   3.801   2.164  15.762 -0.6007 -1.9765  0.6153
  242MPD1    H2 3676   3.558   2.370  16.039  0.3539  0.4424  0.2896
  242MPD1    H3 3677   3.768   2.280  15.982 -0.0992  1.5594 -0.7599
  242MPD1     N 3678   3.622   2.131  15.578  0.6449 -0.2033 -0.1895
  242MPD1    H5 3679   3.718   2.099  15.563  0.9815 -0.0901  1.7230
  242MPD1    N1 3680   3.332   2.336  15.914  0.0836 -0.1153  0.2369
  242MPD1    H6 3681   3.329   2.425  15.963 -0.6685  0.3189 -0.6137
  242MPD1    H7 3682   3.267   2.350  15.837  2.6416  0.8652 -1.7377
  243MPD1     C 3683   1.079   0.663   0.282 -0.2173 -0.4058  0.0895
  243MPD1    C1 3684   1.157   0.574   0.222  0.7861 -0.3927 -0.0044
  243MPD1    C2 3685   1.107   0.521   0.103  0.5330  0.9700 -0.5636
  243MPD1    C3 3686   0.998   0.576   0.037  0.2756  0.3308  0.0023
  243MPD1    C4 3687   0.922   0.677   0.102  0.3345 -0.1874 -0.0100
  243MPD1    C5 3688   0.960   0.717   0.224 -0.3487 -1.3151  0.6513
  243MPD1     H 3689   1.162   0.440   0.056  0.3094 -0.0223  0.9234
  243MPD1    H1 3690   0.822   0.710   0.076  0.7041 -0.9511 -2.4777
  243MPD1    H2 3691   1.100   0.705   0.380 -3.1740  1.6401 -0.1136
  243MPD1    H3 3692   0.891   0.784   0.276 -1.3682 -1.3398 -0.6609
  243MPD1     N 3693   0.971   0.527  17.606  0.1246  0.2773 -0.3834
  243MPD1    H5 3694   1.036   0.454  17.578 -1.7412 -0.1966 -3.4858
  243MPD1    N1 3695   1.258   0.503   0.285 -0.2400 -0.2675  0.4371
  243MPD1    H6 3696   1.290   0.574   0.352  1.5926 -0.4844 -0.2209
  243MPD1    H7 3697   1.331   0.470   0.223 -0.2534 -0.0174  0.2903
  244MPD1     C 3698   1.430   4.635  17.352 -1.3012 -0.7940  0.5658
  244MPD1    C1 3699   1.387   4.701  17.468 -0.2991  0.7197  0.7981
  244MPD1    C2 3700   1.293   0.074  17.440 -0.5049 -0.2091  0.2721
  244MPD1    C3 3701   1.237   0.106  17.316 -0.3764 -0.0101  0.2672
  244MPD1    C4 3702   1.274   0.027  17.212  0.7604  0.9154 -0.9425
  244MPD1    C5 3703   1.373   4.665  17.231  0.3233 -0.2007  0.3945
  244MPD1     H 3704   1.264   0.138  17.522 -1.1043  1.8768 -1.5915
  244MPD1    H1 3705   1.241   0.052  17.112 -1.0016 -2.9556 -1.3398
  244MPD1    H2 3706   1.518   4.572  17.346 -0.5389  0.2142  1.0805
  244MPD1    H3 3707   1.417   4.614  17.145  1.3482 -1.2550  1.5446
  244MPD1     N 3708   1.132   0.205  17.306  0.3297  0.3377  0.1834
  244MPD1    H5 3709   1.132   0.267  17.387  0.1623  0.7815 -0.1584
  244MPD1    N1 3710   1.451   4.694  17.588 -0.3557  0.6552  0.3562
  244MPD1    H6 3711   1.400   0.002  17.670  0.8372  0.9314  0.9971
  244MPD1    H7 3712   1.475   4.597  17.610 -3.6427 -0.4619 -0.9725
  245MPD1     C 3713   1.815   0.965  13.206 -0.2358 -0.1572 -0.5441
  245MPD1    C1 3714   1.843   0.958  13.340 -0.5760 -0.2938 -0.6890
  245MPD1    C2 3715   1.903   1.068  13.403 -0.1692  0.2638  0.0635
  245MPD1    C3 3716   1.929   1.185  13.330  0.0643 -0.2835  0.5469
  245MPD1    C4 3717   1.901   1.187  13.191 -0.3778 -0.1077 -0.7840
  245MPD1    C5 3718   1.849   1.075  13.133 -0.3403  0.0907  0.1434
  245MPD1     H 3719   1.927   1.063  13.509 -1.0968 -3.4408  0.0900
  245MPD1    H1 3720   1.916   1.269  13.122 -2.0667  1.4325  0.6629
  245MPD1    H2 3721   1.774   0.878  13.155 -5.0100  2.5696 -1.3682
  245MPD1    H3 3722   1.836   1.072  13.025 -1.6483 -0.3682  0.3055
  245MPD1     N 3723   1.999   1.286  13.396 -0.3202  0.3008 -0.8925
  245MPD1    H5 3724   2.029   1.260  13.489 -0.8256 -1.1555 -1.1373
  245MPD1    N1 3725   1.824   0.840  13.410 -0.1364  0.7777 -0.1884
  245MPD1    H6 3726   1.754   0.780  13.367 -1.3159  1.2680  1.0539
  245MPD1    H7 3727   1.819   0.844  13.512  1.3231 -0.4674 -0.0649
  246MPD1     C 3728   1.657   2.122   8.737 -0.6427  0.8753  0.4069
  246MPD1    C1 3729   1.753   2.210   8.779 -0.5521 -0.0736 -0.3288
  246MPD1    C2 3730   1.853   2.245   8.692  0.2350 -0.7547  0.7810
  246MPD1    C3 3731   1.846   2.198   8.561 -0.1555  0.3831  0.1564
  246MPD1    C4 3732   1.737   2.118   8.518  0.1432  0.3983 -0.1360
  246MPD1    C5 3733   1.640   2.082   8.606 -0.4846  0.0522 -0.6167
  246MPD1     H 3734   1.932   2.308   8.729  0.4251  0.2188 -1.2940
  246MPD1    H1 3735   1.753   2.048   8.437  0.2615  0.4247 -0.1349
  246MPD1    H2 3736   1.583   2.072   8.799 -1.4254  1.1867 -0.2710
  246MPD1    H3 3737   1.578   1.995   8.586  1.9410 -2.0185  0.8257
  246MPD1     N 3738   1.948   2.231   8.470  0.2633  0.0439 -0.1954
  246MPD1    H5 3739   2.023   2.291   8.503  1.3977 -0.8982 -1.0534
  246MPD1    N1 3740   1.762   2.244   8.914  0.4085  0.3365  0.6222
  246MPD1    H6 3741   1.683   2.237   8.978 -0.5357  1.5247 -0.4147
  246MPD1    H7 3742   1.804   2.335   8.933 -2.1520  1.0701  2.7213
  247MPD1     C 3743   0.918   0.869  16.081 -0.3947  0.0063 -0.2110
  247MPD1    C1 3744   1.015   0.836  15.991 -0.3846  0.1258  0.2297
  247MPD1    C2 3745   1.147   0.865  16.030 -0.4423  0.8168 -1.1212
  247MPD1    C3 3746   1.182   0.889  16.161  0.3272  0.1464 -0.0133
  247MPD1    C4 3747   1.083   0.902  16.254  0.3979  0.6477  0.6245
  247MPD1    C5 3748   0.946   0.899  16.215  0.0386 -0.3229  0.2646
  247MPD1     H 3749   1.228   0.857  15.958 -0.2475 -0.5109 -0.7399
  247MPD1    H1 3750   1.107   0.927  16.357  0.4484 -0.6356  0.9210
  247MPD1    H2 3751   0.813   0.873  16.051  0.7574 -2.2231 -4.4949
  247MPD1    H3 3752   0.867   0.913  16.287  0.5901 -0.4004  0.8889
  247MPD1     N 3753   1.313   0.924  16.200  0.8900  0.0158 -0.2047
  247MPD1    H5 3754   1.322   0.946  16.299 -1.6978  1.4941 -0.2864
  247MPD1    N1 3755   0.988   0.839  15.853  0.5318  0.1535  0.6231
  247MPD1    H6 3756   1.069   0.822  15.795 -0.8163 -0.9916 -0.9372
  247MPD1    H7 3757   0.902   0.791  15.826  0.8244 -0.6357  1.0925
  248MPD1     C 3758   2.868   1.072   0.138  0.0870  0.5140 -0.0776
  248MPD1    C1 3759   2.844   0.945   0.184  0.2406 -0.4322  0.1091
  248MPD1    C2 3760   2.754   0.937   0.292 -0.3467  0.6254 -0.1983
  248MPD1    C3 3761   2.684   1.049   0.342  0.3167 -0.1058  0.4786
  248MPD1    C4 3762   2.713   1.176   0.285 -0.2021  0.0907 -0.5370
  248MPD1    C5 3763   2.803   1.181   0.184 -0.0411  0.5138 -0.1345
  248MPD1     H 3764   2.747   0.834   0.326  1.5310  0.3184 -0.7115
  248MPD1    H1 3765   2.646   1.256   0.315  0.7040  0.6336  0.0152
  248MPD1    H2 3766   2.933   1.093   0.054  0.5956  0.8399  0.3964
  248MPD1    H3 3767   2.818   1.274   0.131  0.9729  1.1730  1.3359
  248MPD1     N 3768   2.596   1.020   0.450  0.4394  0.0053  0.1244
  248MPD1    H5 3769   2.605   0.925   0.485  1.9203  0.0400 -0.1613
  248MPD1    N1 3770   2.872   0.834   0.108  0.2336  0.6182 -0.3557
  248MPD1    H6 3771   2.885   0.744   0.155 -2.5340  0.0516 -0.6885
  248MPD1    H7 3772   2.949   0.844   0.042  0.9282  1.8425  0.6402
  249MPD1     C 3773   4.676   4.368   9.923  0.2407 -0.1049 -0.0445
  249MPD1    C1 3774   4.689   4.485   9.849 -0.2646  0.2567 -1.0286
  249MPD1    C2 3775   4.581   4.571   9.834 -0.1433  0.3665  0.0990
  249MPD1    C3 3776   4.466   4.538   9.896  0.3149 -0.6143 -0.1357
  249MPD1    C4 3777   4.458   4.430   9.984  0.2840 -0.2424 -0.1771
  249MPD1    C5 3778   4.565   4.346   9.996 -0.6546  0.3371  0.0597
  249MPD1     H 3779   4.587   4.663   9.777 -1.7141 -0.4932 -1.4142
  249MPD1    H1 3780   4.366   4.412  10.038  0.2595  1.0488  0.2307
  249MPD1    H2 3781   0.030   4.293   9.937 -0.7173 -1.5362 -2.3995
  249MPD1    H3 3782   4.557   4.264  10.066  1.2490 -0.1689 -0.3330
  249MPD1     N 3783   4.367   4.632   9.875 -0.8799  0.2706 -0.1174
  249MPD1    H5 3784   4.384   4.711   9.814  1.7879  0.3524  0.7306
  249MPD1    N1 3785   0.091   4.531   9.803  0.6190  0.1912 -0.3885
  249MPD1    H6 3786   0.146   4.449   9.778  1.0492  0.4746 -0.3782
  249MPD1    H7 3787   0.094   4.598   9.725 -0.1443  0.6176 -0.0522
  250MPD2     C 3788   0.519   0.054  13.106 -0.0550 -0.7883 -0.5390
  250MPD2    C1 3789   0.477   0.116  12.987 -0.4421 -0.0390 -0.6132
  250MPD2    C2 3790   0.403   0.034  12.902 -0.2187 -0.0413 -0.2554
  250MPD2    C3 3791   0.374   4.628  12.936 -0.9306 -0.3161 -0.1860
  250MPD2    C4 3792   0.422   4.569  13.051 -0.3581 -0.0139 -0.3947
  250MPD2    C5 3793   0.494   4.645  13.142 -0.4065  0.2463 -1.0644
  250MPD2     H 3794   0.378   0.069  12.802 -2.0495 -1.0116 -0.1458
  250MPD2    H1 3795   0.387   4.472  13.084  0.5791 -0.1568  0.1697
  250MPD2    H2 3796   0.566   0.110  13.187 -1.5331  0.6173 -0.6581
  250MPD2    H3 3797   0.530   4.601  13.234 -1.9956 -0.3766 -0.7413
  250MPD2     N 3798   0.289   4.551  12.848  0.2286  0.2553 -0.0372
  250MPD2    H5 3799   0.280   4.455  12.881  0.6403  0.3806  0.4351
  250MPD2    N1 3800   0.540   0.238  12.956 -0.0042  0.1030 -0.1140
  250MPD2    H7 3801   0.625   0.271  13.000  0.0218 -0.9565  0.6164
  251TMC3    C1 3802   0.569   0.434  12.819 -0.2013 -0.4003  0.3539
  251TMC3    C2 3803   0.516   0.557  12.804 -0.0490  0.2526  0.6725
  251TMC3    C3 3804   0.620   0.654  12.787 -0.4048  0.1577  0.5632
  251TMC3    C4 3805   0.700   0.393  12.790 -0.3300  0.5306 -0.2571
  251TMC3    C5 3806   0.791   0.495  12.765 -0.5542  0.2546  0.1690
  251TMC3    C6 3807   0.749   0.623  12.764 -0.7198  0.2908  0.8681
  251TMC3     C 3808   0.483   0.324  12.865  0.8261  0.3207  0.0337
  251TMC3     O 3809   0.372   0.322  12.810 -0.0910  0.3384  0.2293
  251TMC3     H 3810   0.417   0.579  12.841 -1.5647  1.0778 -3.9227
  251TMC3    H1 3811   0.732   0.290  12.785  0.2141  0.5856  2.2216
  251TMC3    H2 3812   0.816   0.706  12.743 -0.4381  1.2319  5.6086
  251TMC3    C7 3813   0.931   0.466  12.782 -0.1438 -0.0809 -0.4618
  251TMC3    C8 3814   0.600   0.787  12.838 -0.6540 -0.3454  0.2441
  251TMC3    O1 3815   0.952   0.352  12.820 -0.0903  0.2549 -0.6093
  251TMC3    O2 3816   0.681   0.814  12.926  0.4638 -0.3575  0.6522
  252TMC3    C1 3817   0.630   1.468   9.043  0.9694  0.8613 -0.6453
  252TMC3    C2 3818   0.723   1.527   8.963  0.5686  0.0646 -0.6530
  252TMC3    C3 3819   0.855   1.510   8.998 -0.5527 -0.0844 -0.3114
  252TMC3    C4 3820   0.664   1.384   9.143 -0.4791  0.0685 -0.2408
  252TMC3    C5 3821   0.794   1.383   9.187 -0.0062 -0.8428  0.7077
  252TMC3    C6 3822   0.894   1.432   9.106  1.0350 -0.2048  0.4021
  252TMC3     C 3823   0.486   1.476   9.006 -0.3101 -0.2399  0.1359
  252TMC3     O 3824   0.398   1.427   9.075  0.5947 -0.0810  0.2517
  252TMC3     H 3825   0.697   1.587   8.876 -0.2733  0.8448  0.1378
  252TMC3    H1 3826   0.580   1.348   9.202  0.3790 -1.7467 -0.1191
  252TMC3    H2 3827   0.997   1.401   9.120  0.3370 -2.0801  1.4376
  252TMC3    C7 3828   0.835   1.299   9.293 -0.0744  0.0176 -0.4463
  252TMC3    C8 3829   0.949   1.554   8.897 -0.0479 -0.0152  0.1040
  252TMC3    O1 3830   0.946   1.313   9.344 -0.1749 -0.1510  0.4785
  252TMC3    O2 3831   0.908   1.556   8.781  0.6001 -0.7404 -0.7301
  253MPD2     C 3832   2.342   0.221  14.925 -0.2383  0.0191  0.1963
  253MPD2    C1 3833   2.225   0.156  14.954  0.2682 -0.1606 -0.1690
  253MPD2    C2 3834   2.192   0.122  15.084  0.6105  0.3748  0.2043
  253MPD2    C3 3835   2.282   0.156  15.181  0.4701 -0.6321 -0.6202
  253MPD2    C4 3836   2.399   0.229  15.153  0.0251 -0.2862 -0.0832
  253MPD2    C5 3837   2.430   0.260  15.019 -0.1208 -0.0479  0.0804
  253MPD2     H 3838   2.099   0.069  15.099  0.9081  0.3130  1.8948
  253MPD2    H1 3839   2.449   0.283  15.232  0.1057  1.5035 -1.3506
  253MPD2    H2 3840   2.367   0.252  14.824 -3.4631 -0.8524 -0.8892
  253MPD2    H3 3841   2.516   0.324  15.000 -0.7689  0.7737 -0.0605
  253MPD2     N 3842   2.267   0.126  15.320  0.3739 -0.1545 -0.1725
  253MPD2    H5 3843   2.334   0.170  15.382 -0.3867 -0.5811  0.9625
  253MPD2    N1 3844   2.130   0.110  14.857  0.1389 -0.0235  0.3432
  253MPD2    H7 3845   2.056   0.048  14.889 -0.3652 -0.2246 -1.2109
  254TMC3    C1 3846   2.168   0.010  15.511 -0.2242  0.4220  0.2948
  254TMC3    C2 3847   2.193   0.116  15.594 -0.3574 -0.6132 -0.5232
  254TMC3    C3 3848   2.190   0.091  15.722  0.2866  0.0455  0.0988
  254TMC3    C4 3849   2.124   4.607  15.544 -0.2316  0.3933  0.4385
  254TMC3    C5 3850   2.132   4.583  15.679  0.0189  0.0186 -0.3432
  254TMC3    C6 3851   2.165   4.689  15.763  0.3298 -0.5758 -0.4963
  254TMC3     C 3852   2.177   0.021  15.364  0.3096  0.2533  0.2125
  254TMC3     O 3853   2.101   4.670  15.297  0.1278 -0.4739 -0.2132
  254TMC3     H 3854   2.202   0.218  15.560  0.7383 -0.4444  0.2449
  254TMC3    H1 3855   2.131   4.527  15.471 -1.3300 -1.7601  2.6868
  254TMC3    H2 3856   2.163   4.671  15.870  0.9724 -0.6607 -0.5037
  254TMC3    C7 3857   2.059   4.473  15.739  0.5281  0.5307 -0.6902
  254TMC3    C8 3858   2.087   0.170  15.797  0.1311  0.2174 -0.0559
  254TMC3    O1 3859   2.118   4.433  15.844 -0.3658 -0.0831 -0.1307
  254TMC3    O2 3860   2.071   0.146  15.915  0.3025 -0.8174  0.1244
  255MPD2     C 3861   4.669   2.000  10.056  0.6069  0.3385 -0.2387
  255MPD2    C1 3862   0.053   2.048   9.976 -0.5268  0.3974  0.6675
  255MPD2    C2 3863   0.156   1.957   9.943 -0.6343  0.2608 -0.0989
  255MPD2    C3 3864   0.169   1.835   9.992 -0.8191 -1.0388 -0.8948
  255MPD2    C4 3865   0.068   1.789  10.071 -0.4530 -0.8957 -1.0170
  255MPD2    C5 3866   4.681   1.870  10.097  0.5133 -0.6416  0.0425
  255MPD2     H 3867   0.234   1.990   9.875  0.3493  0.7065  1.2267
  255MPD2    H1 3868   0.068   1.689  10.114  0.6584 -0.5857 -0.3049
  255MPD2    H2 3869   4.578   2.056  10.070 -0.3951 -1.1150 -0.9157
  255MPD2    H3 3870   4.595   1.837  10.154 -1.8562 -0.8269 -3.6438
  255MPD2     N 3871   0.280   1.743   9.968 -0.5497  0.0346  0.2066
  255MPD2    H5 3872   0.261   1.648   9.999 -0.5787 -0.6518 -1.8779
  255MPD2    N1 3873   0.037   2.181   9.931  0.2680 -0.6503 -0.2082
  255MPD2    H7 3874   4.693   2.238   9.981 -0.8624 -0.0401 -2.4733
  256TMC3    C1 3875   0.090   2.374   9.805  0.3781 -0.2658  0.5397
  256TMC3    C2 3876   0.185   2.469   9.771  0.6215  0.1652 -0.1380
  256TMC3    C3 3877   0.146   2.600   9.760 -0.8538 -0.8695  0.0421
  256TMC3    C4 3878   4.680   2.413   9.820 -0.4893 -0.2157  0.4334
  256TMC3    C5 3879   4.643   2.545   9.805  1.1453  0.8751  0.1915
  256TMC3    C6 3880   0.016   2.637   9.777  0.2043 -0.7724  0.6333
  256TMC3     C 3881   0.128   2.245   9.839  0.0388 -0.2213  0.3949
  256TMC3     O 3882   0.226   2.199   9.785  0.6708 -0.4453  0.0541
  256TMC3     H 3883   0.285   2.445   9.739  1.5117  0.1523  2.6100
  256TMC3    H1 3884   4.603   2.338   9.821 -1.3855  0.6993 -0.2046
  256TMC3    H2 3885   4.714   2.739   9.748  0.1291 -0.7262  0.8661
  256TMC3    C7 3886   4.509   2.587   9.780  0.7135  0.2534  0.1232
  256TMC3    C8 3887   0.226   2.679   9.663 -0.4759  0.2432 -0.4291
  256TMC3    O1 3888   4.493   2.707   9.760 -0.5910 -0.5926  0.3275
  256TMC3    O2 3889   0.328   2.639   9.612 -0.1786  0.0797 -0.0596
  257MPD2     C 3890   4.519   0.357  13.132  0.3089 -0.2272 -0.4506
  257MPD2    C1 3891   4.435   0.268  13.074  0.2731  0.2224 -0.2647
  257MPD2    C2 3892   4.413   0.144  13.135  0.1512  0.2706 -0.2328
  257MPD2    C3 3893   4.473   0.115  13.255 -0.0872  0.0385 -0.4673
  257MPD2    C4 3894   4.553   0.206  13.314 -0.3623  0.6846  0.1797
  257MPD2    C5 3895   4.572   0.331  13.254  0.6055  0.0204 -0.3485
  257MPD2     H 3896   4.359   0.070  13.077  3.7579 -3.8949  1.7296
  257MPD2    H1 3897   4.623   0.187  13.394 -0.0623  1.4377  0.0985
  257MPD2    H2 3898   4.521   0.463  13.108  1.6364  0.0439  0.8667
  257MPD2    H3 3899   4.651   0.393  13.294  0.5232  0.3920 -0.7678
  257MPD2     N 3900   4.445   4.711  13.313  0.1997  0.8991  0.3240
  257MPD2    H5 3901   4.391   4.644  13.260  1.1974  0.0338  0.3946
  257MPD2    N1 3902   4.391   0.305  12.943  0.4870 -0.2953  0.0432
  257MPD2    H7 3903   4.439   0.385  12.901 -0.5180  0.8962  1.1879
  258TMC3    C1 3904   4.483   4.526  13.453  0.1039  1.2342  0.3585
  258TMC3    C2 3905   4.521   4.451  13.345  0.2979  0.1450  0.0450
  258TMC3    C3 3906   4.564   4.325  13.374  0.3726 -0.6342 -0.1357
  258TMC3    C4 3907   4.496   4.478  13.580  0.4517 -0.0444 -0.6710
  258TMC3    C5 3908   4.527   4.344  13.599  0.4453  0.7319 -0.5009
  258TMC3    C6 3909   4.569   4.268  13.495 -0.4474  0.6494 -0.3147
  258TMC3     C 3910   4.482   4.670  13.437  0.0802  0.2387 -0.0817
  258TMC3     O 3911   4.530   0.012  13.531  0.4021 -0.0259 -0.1777
  258TMC3     H 3912   4.516   4.484  13.242  1.9462 -0.1862 -0.1419
  258TMC3    H1 3913   4.476   4.537  13.669 -1.1294  2.9217 -2.9893
  258TMC3    H2 3914   4.582   4.161  13.504 -4.3422  0.3296  1.3275
  258TMC3    C7 3915   4.505   4.289  13.733  0.6818 -0.2676 -0.4080
  258TMC3    C8 3916   4.557   4.241  13.263  0.5747  0.1470  0.2317
  258TMC3    O1 3917   4.424   4.354  13.797  0.6236  0.9960 -0.2605
  258TMC3    O2 3918   4.580   4.280  13.149  0.1583  0.0271 -0.3153
  259MPD2     C 3919   3.003   1.560   1.051  0.4989 -0.2115  0.2745
  259MPD2    C1 3920   3.042   1.437   1.088  0.5328  0.6049  0.3338
  259MPD2    C2 3921   3.110   1.352   1.000  0.1093  0.1975 -0.1620
  259MPD2    C3 3922   3.137   1.395   0.871  0.4188 -0.1248  0.1254
  259MPD2    C4 3923   3.097   1.520   0.831 -0.3411  0.1295 -0.0501
  259MPD2    C5 3924   3.028   1.603   0.923  0.3385  0.0513 -0.3932
  259MPD2     H 3925   3.148   1.255   1.033 -0.0850  1.0945  2.7511
  259MPD2    H1 3926   3.125   1.557   0.733  2.0604 -2.9681 -0.5453
  259MPD2    H2 3927   2.952   1.626   1.120 -1.1700 -0.6646 -0.5159
  259MPD2    H3 3928   3.003   1.707   0.904 -2.9263 -0.6464  0.0619
  259MPD2     N 3929   3.207   1.305   0.791  0.3624  0.1282  0.2506
  259MPD2    H5 3930   3.244   1.218   0.828  0.3657 -1.4383 -3.3822
  259MPD2    N1 3931   3.018   1.396   1.226  0.4473  0.6328  0.1704
  259MPD2    H7 3932   2.971   1.469   1.280  1.4262  2.1432 -1.0121
  260TMC3    C1 3933   3.296   1.200   0.610  0.3997 -0.3830  0.9693
  260TMC3    C2 3934   3.387   1.223   0.514  0.4759 -0.2689 -0.4563
  260TMC3    C3 3935   3.490   1.138   0.510 -0.7326 -0.4073  0.0403
  260TMC3    C4 3936   3.294   1.080   0.682  0.0087  0.3679  0.2485
  260TMC3    C5 3937   3.396   0.990   0.670 -0.8989  0.5341 -0.1047
  260TMC3    C6 3938   3.499   1.021   0.593  0.4790 -0.2645  0.5101
  260TMC3     C 3939   3.229   1.324   0.658  0.9448 -0.1377 -0.4758
  260TMC3     O 3940   3.216   1.412   0.574 -0.3755  0.0530  0.0819
  260TMC3     H 3941   3.403   1.318   0.464 -0.9672 -1.3535 -2.9992
  260TMC3    H1 3942   3.207   1.063   0.745 -0.6760 -1.3501 -1.1542
  260TMC3    H2 3943   3.586   0.957   0.592  0.9159  0.3358 -0.2603
  260TMC3    C7 3944   3.359   0.851   0.659  0.0980 -0.4255  0.3192
  260TMC3    C8 3945   3.551   1.114   0.378  0.2997  0.5134 -0.5550
  260TMC3    O1 3946   3.435   0.781   0.599 -0.4746  0.2371 -0.0631
  260TMC3    O2 3947   3.533   1.203   0.294  0.4905  0.0213  0.0136
  261MPD2     C 3948   4.518   4.410  12.165 -0.2320  0.4578  0.3161
  261MPD2    C1 3949   4.609   4.499  12.219 -0.1240 -0.4632  0.6015
  261MPD2    C2 3950   4.648   4.604  12.140 -0.4374  0.0811 -0.6244
  261MPD2    C3 3951   4.606   4.629  12.009 -0.3436 -0.1043 -0.1734
  261MPD2    C4 3952   4.513   4.536  11.953  0.0363  0.1914  0.3046
  261MPD2    C5 3953   4.478   4.425  12.033 -0.0878 -0.2976 -0.3882
  261MPD2     H 3954   4.723   4.673  12.176 -1.2715  0.1009  1.0750
  261MPD2    H1 3955   4.457   4.535  11.860 -0.1471 -2.5674  0.4376
  261MPD2    H2 3956   4.485   4.316  12.210 -0.8927  0.3156 -0.4733
  261MPD2    H3 3957   4.439   4.336  11.984 -1.3574 -0.6912  1.3613
  261MPD2     N 3958   4.645   0.025  11.932 -0.0515  0.2297 -0.0590
  261MPD2    H5 3959   4.675   0.109  11.979  1.6460 -0.2457 -0.2732
  261MPD2    N1 3960   4.682   4.468  12.341 -0.4657 -0.1810  0.0523
  261MPD2    H7 3961   0.028   4.537  12.368  0.0016 -0.1602 -1.1979
  262TMC3    C1 3962   4.714   0.137  11.738 -0.7515 -0.3192 -0.0357
  262TMC3    C2 3963   4.712   0.246  11.817 -0.1617  0.4982  0.2693
  262TMC3    C3 3964   0.087   0.334  11.784  0.6007  0.7615 -0.4452
  262TMC3    C4 3965   0.094   0.104  11.650 -0.1901  0.2834  0.8026
  262TMC3    C5 3966   0.191   0.185  11.630 -0.1147  0.6572  0.8749
  262TMC3    C6 3967   0.195   0.305  11.699 -0.3228 -0.8796  0.3458
  262TMC3     C 3968   4.640   0.027  11.794 -0.1099 -0.5415  0.3534
  262TMC3     O 3969   4.595   4.677  11.710  0.2993 -0.0251  0.6822
  262TMC3     H 3970   4.621   0.281  11.865 -0.2346  1.4916 -0.5947
  262TMC3    H1 3971   0.096   0.009  11.597  0.5010  2.3058 -2.8090
  262TMC3    H2 3972   0.287   0.362  11.708 -0.9618  0.0415  1.0470
  262TMC3    C7 3973   0.245   0.188  11.494 -0.0142 -0.0250 -0.1012
  262TMC3    C8 3974   0.046   0.469  11.757 -0.0108 -0.6186  0.4445
  262TMC3    O1 3975   0.237   0.082  11.437  0.4383  0.0368 -0.3033
  262TMC3    O2 3976   0.138   0.521  11.695 -0.2012 -0.0204  0.1444
  263MPD2     C 3977   1.191   4.268  11.645 -0.0470 -0.2302  0.4090
  263MPD2    C1 3978   1.295   4.217  11.574 -0.3255  0.1448  0.1786
  263MPD2    C2 3979   1.292   4.219  11.435  0.7317 -0.2182  0.4674
  263MPD2    C3 3980   1.189   4.289  11.379  0.0388  0.8170  0.0605
  263MPD2    C4 3981   1.092   4.350  11.447 -0.5830 -0.1559 -0.7818
  263MPD2    C5 3982   1.094   4.345  11.585  0.2606  0.2939 -0.0992
  263MPD2     H 3983   1.359   4.164  11.370  2.3452 -0.0513  1.9884
  263MPD2    H1 3984   1.021   4.413  11.395 -0.3881  0.6841 -0.0202
  263MPD2    H2 3985   1.190   4.263  11.754 -0.3484  0.8186  0.4554
  263MPD2    H3 3986   1.026   4.397  11.653  0.7609  1.3370 -0.3923
  263MPD2     N 3987   1.179   4.291  11.241 -0.1177  0.0822  0.3856
  263MPD2    H5 3988   1.248   4.236  11.190  1.0252 -0.4201  2.4677
  263MPD2    N1 3989   1.385   4.135  11.647  0.1272 -0.2099  0.2156
  263MPD2    H7 3990   1.364   4.135  11.746  1.4959 -1.9027  0.4995
  264TMC3    C1 3991   1.122   4.352  11.019 -0.5250  0.5694  0.1969
  264TMC3    C2 3992   1.047   4.432  10.939  0.1105 -0.2766 -1.1154
  264TMC3    C3 3993   1.103   4.469  10.824 -0.2829 -0.1008  0.0878
  264TMC3    C4 3994   1.241   4.295  10.984 -0.0019 -0.5314 -0.2989
  264TMC3    C5 3995   1.282   4.318  10.860  0.0177 -0.1832 -0.2942
  264TMC3    C6 3996   1.207   4.396  10.775  0.2394 -0.2158  0.1111
  264TMC3     C 3997   1.088   4.360  11.159  0.1422 -0.6665 -0.2029
  264TMC3     O 3998   1.004   4.447  11.179  0.5352  0.2136  0.4244
  264TMC3     H 3999   0.943   4.456  10.960  0.5950 -0.8588  1.8455
  264TMC3    H1 4000   1.306   4.237  11.049  2.0460  2.9306  0.7665
  264TMC3    H2 4001   1.237   4.413  10.672 -0.6173 -5.2551 -0.9229
  264TMC3    C7 4002   1.430   4.336  10.847 -0.8855  0.0817  0.2810
  264TMC3    C8 4003   1.120   4.609  10.813 -0.7331  0.0909  0.0770
  264TMC3    O1 4004   1.494   4.243  10.895 -0.1886 -0.3313 -0.1228
  264TMC3    O2 4005   1.202   4.647  10.731 -0.9307 -0.7465 -0.4462
  265MPD2     C 4006   3.327   4.395  15.541  0.1725  0.2883  0.0333
  265MPD2    C1 4007   3.384   4.504  15.485 -0.4687 -0.2385  0.0278
  265MPD2    C2 4008   3.473   4.491  15.379  0.6465 -0.7634 -0.3178
  265MPD2    C3 4009   3.496   4.368  15.317 -0.4558 -0.4040  0.4797
  265MPD2    C4 4010   3.432   4.255  15.375  0.3219  0.2300  0.2117
  265MPD2    C5 4011   3.351   4.271  15.482 -0.3590  0.0066 -1.3789
  265MPD2     H 4012   3.519   4.581  15.339 -2.4272  0.1252 -1.8418
  265MPD2    H1 4013   3.443   4.159  15.326 -1.4984  0.5471 -0.8113
  265MPD2    H2 4014   3.250   4.398  15.617  1.1216  2.9438  0.8880
  265MPD2    H3 4015   3.292   4.183  15.506 -1.6921  1.5740  1.2194
  265MPD2     N 4016   3.584   4.353  15.206 -1.0224  0.3477  0.3480
  265MPD2    H5 4017   3.615   4.262  15.176 -2.7679 -0.9086  2.3880
  265MPD2    N1 4018   3.356   4.635  15.532 -0.6809  0.3328 -1.0194
  265MPD2    H7 4019   3.394   4.708  15.472 -0.2268  0.4346 -0.6102
  266TMC3    C1 4020   3.267   0.084  15.676 -0.0761 -0.0223 -0.7700
  266TMC3    C2 4021   3.237   0.137  15.798  0.1004  0.4945 -0.2342
  266TMC3    C3 4022   3.206   0.265  15.799 -0.9335 -0.6231  0.1006
  266TMC3    C4 4023   3.251   0.156  15.563 -0.8479 -0.0094 -0.3142
  266TMC3    C5 4024   3.204   0.285  15.568  0.3149  0.4423 -0.4750
  266TMC3    C6 4025   3.185   0.344  15.688 -0.3241  0.0005 -0.4514
  266TMC3     C 4026   3.301   4.666  15.657 -0.1317  0.6336 -0.3648
  266TMC3     O 4027   3.270   4.590  15.749  1.2026  0.7205  0.6389
  266TMC3     H 4028   3.255   0.088  15.893 -1.8932  1.7674  0.8121
  266TMC3    H1 4029   3.264   0.111  15.465  0.9881  3.1996 -1.5704
  266TMC3    H2 4030   3.140   0.443  15.688  2.8954  1.4591 -0.5000
  266TMC3    C7 4031   3.139   0.354  15.458 -0.4034 -0.2768  0.2734
  266TMC3    C8 4032   3.136   0.319  15.915  0.8560 -0.0601  0.0364
  266TMC3    O1 4033   3.073   0.298  15.375  0.4872  0.5167 -0.2042
  266TMC3    O2 4034   3.058   0.406  15.885 -0.2452  0.0270 -0.4687
  267MPD2     C 4035   1.291   0.614  17.306 -1.0989  0.7599 -0.1324
  267MPD2    C1 4036   1.224   0.730  17.349  0.4023  0.2835  0.6825
  267MPD2    C2 4037   1.135   0.788  17.269 -0.2710 -0.6892 -0.0414
  267MPD2    C3 4038   1.091   0.723  17.156  0.0821  0.5088 -0.3589
  267MPD2    C4 4039   1.154   0.610  17.115 -0.1105 -0.7922 -0.4457
  267MPD2    C5 4040   1.248   0.554  17.193 -0.0982  0.2276  0.0086
  267MPD2     H 4041   1.089   0.883  17.294 -1.1107 -0.6709 -1.6154
  267MPD2    H1 4042   1.122   0.557  17.026 -2.3030  3.8844 -2.3938
  267MPD2    H2 4043   1.373   0.566  17.358 -2.7683 -2.2066 -0.1779
  267MPD2    H3 4044   1.302   0.466  17.160  0.1497  1.0165 -1.6524
  267MPD2     N 4045   0.974   0.765  17.086 -0.2792  0.4942  0.4441
  267MPD2    H5 4046   0.947   0.694  17.019  0.2770  0.4804  0.2341
  267MPD2    N1 4047   1.245   0.795  17.473 -0.0681 -0.1241  0.1847
  267MPD2    H7 4048   1.190   0.878  17.492  1.0987  0.5617  0.5794
  268TMC3    C1 4049   1.323   0.818   0.004 -0.5340  0.4817 -0.7231
  268TMC3    C2 4050   1.225   0.906   0.037 -0.0663 -0.2078 -0.7646
  268TMC3    C3 4051   1.218   0.949   0.167  0.7404 -0.1249  0.3826
  268TMC3    C4 4052   1.424   0.784   0.092  0.4071  0.1239  0.5718
  268TMC3    C5 4053   1.418   0.835   0.215  0.2275  0.4299  0.1927
  268TMC3    C6 4054   1.318   0.926   0.256  0.0349  0.2456  0.8973
  268TMC3     C 4055   1.312   0.737  17.577 -0.1349  0.8973  0.1520
  268TMC3     O 4056   1.362   0.629  17.592  0.3832  0.3137  0.5817
  268TMC3     H 4057   1.131   0.909  17.679  0.4549 -0.7677 -1.7219
  268TMC3    H1 4058   1.492   0.706   0.061  0.3295  0.1014  0.4564
  268TMC3    H2 4059   1.313   0.959   0.359 -1.1630  0.2408  0.8409
  268TMC3    C7 4060   1.478   0.764   0.317 -0.2527  0.4646  0.2147
  268TMC3    C8 4061   1.118   1.051   0.196 -0.0878  0.2581  0.6086
  268TMC3    O1 4062   1.403   0.734   0.412  0.1030 -0.3936  0.4164
  268TMC3    O2 4063   1.086   1.070   0.315 -0.3658  0.1387  0.2178
  269MPD2     C 4064   1.405   0.308  15.397  0.8239  0.4408  0.1765
  269MPD2    C1 4065   1.270   0.319  15.412  0.7157 -0.3564 -0.2194
  269MPD2    C2 4066   1.212   0.444  15.387 -0.1443  0.3417 -0.6998
  269MPD2    C3 4067   1.288   0.558  15.358 -0.1871  0.2718  0.4778
  269MPD2    C4 4068   1.425   0.552  15.359  0.5443 -0.1571  0.4256
  269MPD2    C5 4069   1.478   0.427  15.369  0.0744 -0.4617 -0.5091
  269MPD2     H 4070   1.104   0.447  15.373 -0.8740 -1.1048  4.6388
  269MPD2    H1 4071   1.486   0.637  15.333 -1.2407  1.2343  0.8193
  269MPD2    H2 4072   1.452   0.210  15.396  0.6179  0.3347  1.0033
  269MPD2    H3 4073   1.586   0.419  15.358  0.1448 -1.4575  0.8421
  269MPD2     N 4074   1.222   0.679  15.339 -0.3194  1.1320 -0.6924
  269MPD2    H5 4075   1.121   0.668  15.335 -0.4192  0.5133  3.5191
  269MPD2    N1 4076   1.203   0.196  15.448 -0.0453 -0.2207  0.1117
  269MPD2    H7 4077   1.266   0.123  15.479 -1.1465 -1.3123 -0.2417
  270TMC3    C1 4078   1.036   0.043  15.479  0.1587  0.0426 -0.5281
  270TMC3    C2 4079   0.910   0.008  15.451  0.1495  0.3232 -0.1016
  270TMC3    C3 4080   0.855   4.621  15.513  0.6499  0.0673  0.4265
  270TMC3    C4 4081   1.114   4.703  15.574 -1.4102  0.6372  0.1427
  270TMC3    C5 4082   1.051   4.590  15.640 -0.5133 -0.1969  0.2548
  270TMC3    C6 4083   0.924   4.546  15.602  0.3384  0.0917 -0.3148
  270TMC3     C 4084   1.071   0.180  15.458  0.2245 -0.6112  0.0873
  270TMC3     O 4085   0.986   0.268  15.443 -0.0962 -0.3289 -0.5223
  270TMC3     H 4086   0.837   0.068  15.398 -0.0133  0.9290  0.8063
  270TMC3    H1 4087   1.215   0.006  15.603 -1.5887 -0.3321  1.6342
  270TMC3    H2 4088   0.885   4.455  15.647  1.5400 -0.1726  0.1910
  270TMC3    C7 4089   1.140   4.486  15.679  1.3762 -0.1508  0.1884
  270TMC3    C8 4090   0.771   4.540  15.424  0.4761 -0.4474 -0.0936
  270TMC3    O1 4091   1.255   4.503  15.645  0.1099  0.1081 -0.0506
  270TMC3    O2 4092   0.675   4.481  15.475  0.0502 -0.2779  0.4724
  271MPD2     C 4093   0.274   0.296  13.907 -0.3451 -0.0713 -0.2770
  271MPD2    C1 4094   0.231   0.169  13.941  0.2426  0.6683 -0.1709
  271MPD2    C2 4095   0.097   0.136  13.937 -0.6426 -0.5463 -0.1903
  271MPD2    C3 4096   0.004   0.231  13.900  0.2807 -0.4474  0.5061
  271MPD2    C4 4097   0.046   0.354  13.860 -0.4155  0.1838  0.0673
  271MPD2    C5 4098   0.177   0.393  13.873 -0.4179  0.0174 -0.0446
  271MPD2     H 4099   0.071   0.035  13.964  0.5226 -0.3547  1.6057
  271MPD2    H1 4100   4.708   0.437  13.828 -3.6614 -2.2584  0.0203
  271MPD2    H2 4101   0.378   0.324  13.900 -0.3299 -0.4850 -1.6773
  271MPD2    H3 4102   0.212   0.478  13.815 -0.7861  0.1405 -0.0827
  271MPD2     N 4103   4.591   0.196  13.905  0.0517  0.5476 -0.5886
  271MPD2    H5 4104   4.526   0.265  13.871 -2.3128 -0.2603  2.3331
  271MPD2    N1 4105   0.316   0.070  13.983  0.0479 -0.2241  0.1782
  271MPD2    H7 4106   0.273   4.703  13.997  0.1684 -0.4090 -0.6527
  272TMC3    C1 4107   0.502   4.691  14.060  0.1159  0.0642 -0.7577
  272TMC3    C2 4108   0.633   4.694  14.060  0.1588  0.4978 -0.0667
  272TMC3    C3 4109   0.701   4.655  14.175  0.1759 -0.3933  0.0794
  272TMC3    C4 4110   0.427   4.641  14.161  0.0265  0.1005  0.0894
  272TMC3    C5 4111   0.496   4.628  14.280  0.0327  0.6168  0.3614
  272TMC3    C6 4112   0.633   4.625  14.287  0.7161 -0.2277 -0.3054
  272TMC3     C 4113   0.452   0.075  13.984  0.1441 -0.0742  0.1587
  272TMC3     O 4114   0.532   0.159  13.947 -0.8859  0.4014  0.0781
  272TMC3     H 4115   0.686   0.005  13.972  0.2374 -0.8807 -0.5732
  272TMC3    H1 4116   0.319   4.646  14.169 -0.0713 -1.3246 -0.3906
  272TMC3    H2 4117   0.681   4.610  14.383  1.3751 -2.6103 -1.0026
  272TMC3    C7 4118   0.422   4.608  14.402 -0.0342  0.0642  0.0310
  272TMC3    C8 4119   0.851   4.635  14.161  0.5972 -0.6897 -0.2900
  272TMC3    O1 4120   0.325   4.532  14.397 -0.2595 -0.1181  0.1187
  272TMC3    O2 4121   0.926   4.695  14.082  0.4554 -0.1533  0.8254
  273MPD2     C 4122   1.672   2.662  11.807  0.6851 -0.8464 -0.5164
  273MPD2    C1 4123   1.735   2.774  11.774 -0.4626  0.8128 -0.7595
  273MPD2    C2 4124   1.725   2.830  11.646  0.5318 -0.1725 -0.0703
  273MPD2    C3 4125   1.634   2.774  11.556  0.0308  0.0786  0.9059
  273MPD2    C4 4126   1.563   2.661  11.598  0.2325 -0.1280  0.2729
  273MPD2    C5 4127   1.581   2.604  11.719  0.6438  0.1373  0.8740
  273MPD2     H 4128   1.785   2.916  11.619 -1.9108  1.1446 -1.2756
  273MPD2    H1 4129   1.496   2.612  11.529 -0.4672  2.0349 -0.5845
  273MPD2    H2 4130   1.694   2.612  11.900  1.7113  0.8588  0.1481
  273MPD2    H3 4131   1.527   2.511  11.730  1.9685 -0.8048 -0.5246
  273MPD2     N 4132   1.623   2.831  11.426  0.7082  0.7325  0.0191
  273MPD2    H5 4133   1.667   2.923  11.421  1.0430  0.6340  1.1764
  273MPD2    N1 4134   1.817   2.830  11.878  0.4291  0.2460 -0.0056
  273MPD2    H7 4135   1.823   2.790  11.971 -1.4587 -0.7685 -0.3123
  274TMC3    C1 4136   1.553   2.892  11.210 -0.0663  0.5873  0.3361
  274TMC3    C2 4137   1.436   2.893  11.138  0.2160 -0.6526 -0.2391
  274TMC3    C3 4138   1.400   3.016  11.087  0.3822 -0.0331  0.7307
  274TMC3    C4 4139   1.621   3.005  11.240 -0.2864  0.3500 -0.3145
  274TMC3    C5 4140   1.580   3.123  11.191 -0.1831 -0.0518 -0.4349
  274TMC3    C6 4141   1.465   3.129  11.126 -1.2328  0.0056  0.1725
  274TMC3     C 4142   1.555   2.791  11.317  0.5988 -0.4388 -0.2070
  274TMC3     O 4143   1.485   2.690  11.301  0.8565  0.5899 -0.2983
  274TMC3     H 4144   1.373   2.806  11.122  0.6334 -0.7764 -1.2025
  274TMC3    H1 4145   1.721   2.997  11.281 -0.5099  2.1915  0.5710
  274TMC3    H2 4146   1.429   3.227  11.096  0.1647  0.5949  0.3888
  274TMC3    C7 4147   1.623   3.243  11.263  0.0311  0.1214  0.7711
  274TMC3    C8 4148   1.298   3.040  10.988 -1.1293  0.1214 -0.2947
  274TMC3    O1 4149   1.531   3.306  11.303  0.1194  0.6518  0.3534
  274TMC3    O2 4150   1.296   3.144  10.925 -0.0442 -0.3873  0.2877
  275MPD2     C 4151   1.456   1.465  14.597 -0.2544  0.5303 -0.3125
  275MPD2    C1 4152   1.483   1.345  14.534  0.6257 -0.3917  0.6370
  275MPD2    C2 4153   1.385   1.270  14.478  0.2336  0.1504  0.3288
  275MPD2    C3 4154   1.256   1.317  14.475 -0.1148  0.4138 -0.3121
  275MPD2    C4 4155   1.230   1.446  14.531  0.0048 -0.2403  0.6580
  275MPD2    C5 4156   1.327   1.515  14.600 -1.1007  0.4249  0.0812
  275MPD2     H 4157   1.402   1.172  14.436  0.4555  0.5175 -0.4402
  275MPD2    H1 4158   1.127   1.477  14.543 -0.8595 -1.4877 -3.5341
  275MPD2    H2 4159   1.530   1.517  14.655 -0.2517 -1.2848  1.2925
  275MPD2    H3 4160   1.312   1.613  14.642 -0.4615  0.6275 -0.1633
  275MPD2     N 4161   1.151   1.239  14.428  0.0894  0.1674 -0.2806
  275MPD2    H5 4162   1.054   1.268  14.441  0.1159  0.7974 -1.5119
  275MPD2    N1 4163   1.615   1.287  14.526 -0.3287  0.1385 -0.1236
  275MPD2    H7 4164   1.626   1.203  14.471 -0.3514 -0.8922  1.4336
  276TMC3    C1 4165   1.849   1.253  14.581 -0.3525  0.3356 -0.0622
  276TMC3    C2 4166   1.855   1.170  14.473  0.0187  0.1168 -0.3486
  276TMC3    C3 4167   1.926   1.057  14.474  0.2182 -0.3505 -0.0199
  276TMC3    C4 4168   1.932   1.239  14.683  0.0095 -0.4927  1.1058
  276TMC3    C5 4169   2.002   1.118  14.689 -0.0347  0.1354  0.0151
  276TMC3    C6 4170   1.996   1.023  14.587  0.0370 -0.6694 -0.0029
  276TMC3     C 4171   1.725   1.326  14.603 -0.5404 -0.7021  0.3577
  276TMC3     O 4172   1.730   1.413  14.689 -0.8031 -0.5518 -0.1570
  276TMC3     H 4173   1.794   1.197  14.388 -0.4534 -2.1763 -0.7414
  276TMC3    H1 4174   1.949   1.322  14.751 -0.4371  0.0907  0.5032
  276TMC3    H2 4175   2.056   0.933  14.588  2.0849  0.7171  1.3312
  276TMC3    C7 4176   2.076   1.099  14.811  0.0709  0.0513  0.2825
  276TMC3    C8 4177   1.889   0.962  14.370  0.4753 -0.4198  0.2492
  276TMC3    O1 4178   2.107   1.207  14.864 -0.4715 -0.2622 -0.0737
  276TMC3    O2 4179   1.835   1.006  14.265  0.2594 -0.0628  0.1573
  277MPD2     C 4180   3.525   4.667  12.986 -0.1351  0.1075  0.1976
  277MPD2    C1 4181   3.420   4.721  13.065  0.1068  0.6492  0.3879
  277MPD2    C2 4182   3.407   4.684  13.198  0.4058 -0.0427  0.2411
  277MPD2    C3 4183   3.496   4.589  13.254 -0.6226  0.1536  0.3030
  277MPD2    C4 4184   3.597   4.537  13.178 -0.2380 -0.9685 -0.7265
  277MPD2    C5 4185   3.614   4.577  13.045 -0.8849  0.4354 -0.3595
  277MPD2     H 4186   3.325   4.719  13.259 -0.1397 -0.2393 -0.3856
  277MPD2    H1 4187   3.661   4.462  13.223 -0.4021 -0.5832  0.1562
  277MPD2    H2 4188   3.535   4.682  12.879  0.8820  1.8608  0.5478
  277MPD2    H3 4189   3.701   4.538  12.994 -1.2241  0.6462 -1.1040
  277MPD2     N 4190   3.473   4.544  13.390 -0.5300 -0.3312 -0.0276
  277MPD2    H5 4191   3.402   4.597  13.438 -0.8636 -0.5876 -0.2356
  277MPD2    N1 4192   3.339   0.093  12.997 -0.3447  0.1243 -0.6934
  277MPD2    H7 4193   3.371   0.126  12.906  0.0596 -1.3332 -1.0808
  278TMC3    C1 4194   3.479   4.409  13.587 -0.0386 -0.0912  0.2564
  278TMC3    C2 4195   3.475   4.275  13.626  0.3032 -0.6690  0.7337
  278TMC3    C3 4196   3.388   4.246  13.728 -1.2452  0.2194 -0.0849
  278TMC3    C4 4197   3.409   4.508  13.648  0.2472  0.1641 -0.4924
  278TMC3    C5 4198   3.321   4.471  13.743  1.3071 -0.1785  0.0943
  278TMC3    C6 4199   3.304   4.341  13.791  0.3758  0.3926  0.3971
  278TMC3     C 4200   3.531   4.437  13.452  0.0981 -0.2495  0.1757
  278TMC3     O 4201   3.628   4.372  13.413 -0.1842  0.4449  0.5915
  278TMC3     H 4202   3.537   4.199  13.580 -0.4916 -0.9366  0.1064
  278TMC3    H1 4203   3.422   4.613  13.624  1.4087  0.1273 -0.0164
  278TMC3    H2 4204   3.237   4.311  13.871  0.5439 -0.9227  0.0478
  278TMC3    C7 4205   3.247   4.579  13.812 -0.2934 -0.2652 -0.5439
  278TMC3    C8 4206   3.337   4.111  13.730  0.5519  0.1956 -0.0249
  278TMC3    O1 4207   3.301   4.690  13.809  0.0160  0.2035 -0.3984
  278TMC3    O2 4208   3.409   4.028  13.782  0.0699 -0.4440  0.7942
  279MPD2     C 4209   2.361   3.879  17.574 -0.0607 -0.2357  0.1988
  279MPD2    C1 4210   2.402   3.988  17.641  0.9815  0.1724  0.3479
  279MPD2    C2 4211   2.444   4.098  17.568 -0.0975  0.8359 -0.3618
  279MPD2    C3 4212   2.466   4.083  17.434 -0.5302  0.0628 -0.8601
  279MPD2    C4 4213   2.446   3.962  17.372  0.4195  0.0766 -0.1382
  279MPD2    C5 4214   2.389   3.856  17.440  0.1325  0.3143 -0.0676
  279MPD2     H 4215   2.453   4.192  17.622  1.6048 -0.3807  1.5249
  279MPD2    H1 4216   2.453   3.955  17.264 -0.6681 -0.8045 -0.1489
  279MPD2    H2 4217   2.301   3.800  17.619  0.2870 -0.8283 -0.3857
  279MPD2    H3 4218   2.360   3.761  17.397  0.3270 -0.0235  0.5604
  279MPD2     N 4219   2.514   4.189  17.359 -0.3017 -0.1732  0.7879
  279MPD2    H5 4220   2.550   4.164  17.267  0.7891 -0.6324  1.3388
  279MPD2    N1 4221   2.359   4.002   0.085 -0.2246 -0.0639 -0.7424
  279MPD2    H7 4222   2.304   3.929   0.130 -2.0425  0.8868 -1.4113
  280TMC3    C1 4223   2.311   4.146   0.270 -0.5543 -0.4223  0.6505
  280TMC3    C2 4224   2.183   4.136   0.227  0.3064 -0.3690 -0.3768
  280TMC3    C3 4225   2.087   4.207   0.291 -0.3054  0.3622 -0.7529
  280TMC3    C4 4226   2.354   4.239   0.361  0.7234  0.4392  0.2616
  280TMC3    C5 4227   2.258   4.307   0.435 -0.4221 -0.3807  0.3595
  280TMC3    C6 4228   2.124   4.289   0.397  0.4517 -0.0693  0.1602
  280TMC3     C 4229   2.405   4.106   0.167  0.4843  0.0786  0.4556
  280TMC3     O 4230   2.508   4.169   0.151  0.3820 -0.1422  0.0926
  280TMC3     H 4231   2.140   4.085   0.141 -1.7386  0.4079  0.1856
  280TMC3    H1 4232   2.457   4.268   0.377  1.1673 -1.4485  0.8281
  280TMC3    H2 4233   2.045   4.336   0.455  0.8981  0.4931  0.3223
  280TMC3    C7 4234   2.299   4.440   0.486  0.2892 -0.3681  0.4828
  280TMC3    C8 4235   1.972   4.258   0.221 -0.0915  0.3060  0.4862
  280TMC3    O1 4236   2.418   4.458   0.514 -0.2257 -0.3480 -0.0663
  280TMC3    O2 4237   1.871   4.279   0.286 -0.3103  0.0795 -0.0248
  281TMC3    C1 4238   1.409   0.239  13.333  0.1336 -0.8512 -0.3599
  281TMC3    C2 4239   1.435   0.273  13.203 -0.7520  0.2422 -0.0783
  281TMC3    C3 4240   1.406   0.185  13.106 -0.1944  0.4028  0.2084
  281TMC3    C4 4241   1.352   0.118  13.371 -0.1348 -0.3257  0.0099
  281TMC3    C5 4242   1.326   0.034  13.271 -0.0670 -0.3257  0.0347
  281TMC3    C6 4243   1.353   0.063  13.139 -0.5936  0.0340  0.4253
  281TMC3     C 4244   1.404   0.354  13.426 -0.2602 -0.5495 -0.6675
  281TMC3     O 4245   1.490   0.369  13.511  0.1869  0.1202 -0.1262
  281TMC3     H 4246   1.463   0.376  13.184  0.9258 -0.2150 -0.0823
  281TMC3    H1 4247   1.295   0.109  13.463  0.4447  0.2408  0.4320
  281TMC3    H2 4248   1.322   4.711  13.067 -4.2482  0.1473  1.8703
  281TMC3    C7 4249   1.228   4.662  13.303  0.2669 -0.1080  0.2939
  281TMC3    C8 4250   1.356   0.241  12.986 -0.5293 -0.2066 -0.2531
  281TMC3    O1 4251   1.164   4.627  13.207 -0.3999 -0.0706  0.0223
  281TMC3    O2 4252   1.252   0.187  12.960  0.2059 -0.7356 -0.2419
  282MPD2     C 4253   3.125   1.522  15.321 -0.0540 -0.2283 -0.1685
  282MPD2    C1 4254   3.008   1.586  15.301 -0.6035  0.1308  0.4778
  282MPD2    C2 4255   2.994   1.652  15.179 -0.8079  0.5347 -0.4938
  282MPD2    C3 4256   3.086   1.643  15.070 -0.7829 -0.2713 -0.1342
  282MPD2    C4 4257   3.183   1.553  15.087 -0.2759 -0.7950 -0.1801
  282MPD2    C5 4258   3.208   1.500  15.211  0.2789 -0.1991  0.3187
  282MPD2     H 4259   2.903   1.711  15.171 -1.4190 -0.2515  0.6902
  282MPD2    H1 4260   3.245   1.526  15.003 -1.2576 -2.2028 -0.4564
  282MPD2    H2 4261   3.162   1.480  15.414  2.0164  0.4392 -0.6937
  282MPD2    H3 4262   3.289   1.428  15.223 -0.0287 -1.1829 -3.4909
  282MPD2     N 4263   3.041   1.695  14.949  0.2152  0.1989 -0.1569
  282MPD2    H5 4264   2.949   1.737  14.957 -0.0591 -0.8122  2.0748
  282MPD2    N1 4265   2.912   1.605  15.396  0.1448  0.5991 -0.0463
  282MPD2    H7 4266   2.836   1.671  15.380 -0.7426 -0.1795  0.9389
  283TMC3    C1 4267   2.795   1.573  15.606 -0.7409 -0.4259  0.0031
  283TMC3    C2 4268   2.756   1.707  15.606  0.5083 -0.0267  0.5226
  283TMC3    C3 4269   2.668   1.748  15.702  0.6691  0.4582 -0.4174
  283TMC3    C4 4270   2.759   1.481  15.698 -0.5094  0.0005  0.2886
  283TMC3    C5 4271   2.664   1.527  15.787  0.9687 -0.3450  0.0541
  283TMC3    C6 4272   2.617   1.655  15.790  0.8383  0.8662  0.3519
  283TMC3     C 4273   2.902   1.537  15.516 -0.1205  0.3975  0.0065
  283TMC3     O 4274   2.960   1.436  15.555 -0.1617  0.1442  0.0294
  283TMC3     H 4275   2.809   1.775  15.540  1.1840  1.2773  2.4069
  283TMC3    H1 4276   2.778   1.377  15.673 -1.0371 -0.0636  0.1450
  283TMC3    H2 4277   2.558   1.690  15.874  1.2769 -0.6126  1.2767
  283TMC3    C7 4278   2.614   1.429  15.882 -0.1095 -0.3668  0.0033
  283TMC3    C8 4279   2.589   1.871  15.681  0.1281 -0.4494  0.1681
  283TMC3    O1 4280   2.499   1.438  15.918  0.2497 -0.4084  0.0918
  283TMC3    O2 4281   2.495   1.880  15.758  0.3700 -0.7565 -0.1186
  284MPD2     C 4282   1.523   0.713  12.032 -0.7710  0.2242  0.0156
  284MPD2    C1 4283   1.527   0.720  11.893  0.1871 -0.6790 -0.6981
  284MPD2    C2 4284   1.436   0.656  11.814  0.3756 -0.6264 -0.0969
  284MPD2    C3 4285   1.345   0.566  11.881  0.3759 -0.1775 -0.2078
  284MPD2    C4 4286   1.351   0.548  12.016  0.1488 -0.4339  0.0679
  284MPD2    C5 4287   1.439   0.626  12.089  0.0783 -0.1486 -0.5796
  284MPD2     H 4288   1.430   0.679  11.708 -0.4514 -0.4327 -0.0111
  284MPD2    H1 4289   1.288   0.480  12.072  0.0226 -1.2109 -1.0295
  284MPD2    H2 4290   1.591   0.772  12.092  0.2639 -1.4770  0.5112
  284MPD2    H3 4291   1.433   0.615  12.197 -1.7360 -2.7257 -0.9464
  284MPD2     N 4292   1.256   0.477  11.816 -0.6485 -0.0915  0.1779
  284MPD2    H5 4293   1.230   0.394  11.869  1.1560  0.3006  1.6572
  284MPD2    N1 4294   1.631   0.786  11.824  0.0628 -0.4384 -0.1037
  284MPD2    H7 4295   1.636   0.783  11.723 -0.0199 -1.3680 -0.0818
  285TMC3    C1 4296   1.826   0.928  11.798 -0.0183  1.0475 -0.2798
  285TMC3    C2 4297   1.846   0.862  11.677 -0.0843  0.6315 -0.0584
  285TMC3    C3 4298   1.912   0.934  11.587  0.3198  0.2417 -0.4811
  285TMC3    C4 4299   1.851   1.061  11.824  0.7419 -0.1329  0.1106
  285TMC3    C5 4300   1.921   1.136  11.728  0.5006 -0.5308 -0.3552
  285TMC3    C6 4301   1.949   1.070  11.609 -0.0363  0.4530  0.4466
  285TMC3     C 4302   1.714   0.877  11.885  0.4234  0.5566  0.6475
  285TMC3     O 4303   1.696   0.929  11.993 -0.6432 -0.2190  0.3365
  285TMC3     H 4304   1.822   0.758  11.657  0.4488  0.2457  1.2677
  285TMC3    H1 4305   1.814   1.103  11.917 -1.1586 -1.2125 -0.1558
  285TMC3    H2 4306   2.001   1.121  11.529  1.2328 -1.8565 -0.2038
  285TMC3    C7 4307   1.894   1.282  11.717  0.2119  0.0859  0.2632
  285TMC3    C8 4308   1.921   0.878  11.458 -0.1290 -0.0960  0.0882
  285TMC3    O1 4309   1.930   1.335  11.615  0.4095  0.0637 -0.0519
  285TMC3    O2 4310   1.867   0.768  11.450 -0.0603  0.3198  0.0240
  286MPD2     C 4311   1.973   3.994   1.761  0.8045  0.3407  0.7345
  286MPD2    C1 4312   1.936   3.999   1.627 -0.0692  1.2300  0.6365
  286MPD2    C2 4313   2.010   3.933   1.527 -0.5048 -0.4394  0.1957
  286MPD2    C3 4314   2.120   3.856   1.565 -0.1275 -0.2297 -0.4348
  286MPD2    C4 4315   2.148   3.856   1.703 -0.4661  0.3235 -0.3195
  286MPD2    C5 4316   2.082   3.921   1.799 -0.8467  0.0746  0.2210
  286MPD2     H 4317   1.965   3.928   1.429 -2.3212  0.3622  0.9887
  286MPD2    H1 4318   2.228   3.790   1.733  0.8597  2.7583  1.4567
  286MPD2    H2 4319   1.916   4.044   1.839  0.5107  0.9946  0.1054
  286MPD2    H3 4320   2.111   3.920   1.904 -1.8355  0.0952  0.4903
  286MPD2     N 4321   2.191   3.773   1.472 -0.2249 -0.0689  0.7637
  286MPD2    H5 4322   2.248   3.706   1.524  3.6579  0.6966 -2.4979
  286MPD2    N1 4323   1.826   4.075   1.579 -0.6889  0.1910  0.2006
  286MPD2    H7 4324   1.797   4.056   1.484 -0.2170 -0.6431  0.2180
  287TMC3    C1 4325   2.259   3.654   1.276  0.3645  0.1041 -0.1361
  287TMC3    C2 4326   2.243   3.631   1.145  0.3019  0.6735  0.1557
  287TMC3    C3 4327   2.347   3.612   1.058 -0.1054 -0.6762  0.3885
  287TMC3    C4 4328   2.383   3.641   1.330 -0.6431 -0.2105  0.4049
  287TMC3    C5 4329   2.489   3.618   1.251 -0.1688 -0.2363  1.0410
  287TMC3    C6 4330   2.475   3.603   1.118 -0.9172  0.5048 -0.4719
  287TMC3     C 4331   2.160   3.732   1.345  0.2440  1.0962  0.4242
  287TMC3     O 4332   2.068   3.775   1.275 -0.4873  0.4246 -0.8284
  287TMC3     H 4333   2.142   3.634   1.105  0.7437  1.3787 -0.8818
  287TMC3    H1 4334   2.405   3.660   1.434  1.3734  1.4343 -0.3254
  287TMC3    H2 4335   2.564   3.578   1.061 -0.4322 -0.9363  0.9253
  287TMC3    C7 4336   2.618   3.616   1.319 -0.1338 -0.2692 -0.3169
  287TMC3    C8 4337   2.331   3.547   0.935 -0.8288 -0.5057 -0.2061
  287TMC3    O1 4338   2.613   3.678   1.426  0.0139 -0.1226  0.4901
  287TMC3    O2 4339   2.222   3.488   0.936 -0.3715  0.5757  0.2039
  288TMC3    C1 4340   4.001   4.199  14.364 -0.1062 -0.3706 -0.1519
  288TMC3    C2 4341   3.892   4.207  14.449  0.2412  0.0763 -0.0034
  288TMC3    C3 4342   3.818   4.318  14.436 -0.2421  0.2157 -0.1584
  288TMC3    C4 4343   4.015   4.283  14.249  0.3544  0.3735  0.2958
  288TMC3    C5 4344   3.916   4.375  14.225 -0.0493 -0.7249  0.1218
  288TMC3    C6 4345   3.827   4.398  14.320  0.2509  0.3714  0.0064
  288TMC3     C 4346   4.113   4.120  14.392 -0.0720  0.0582  0.0027
  288TMC3     O 4347   4.220   4.158  14.360 -0.1345  0.0047  0.3224
  288TMC3     H 4348   3.890   4.146  14.539  1.8346  0.6187  0.3935
  288TMC3    H1 4349   4.094   4.268  14.177  0.2314 -0.0685  0.2515
  288TMC3    H2 4350   3.762   4.484  14.307 -1.8710 -1.7124 -3.0751
  288TMC3    C7 4351   3.890   4.433  14.100 -0.0255  0.2178 -0.8534
  288TMC3    C8 4352   3.706   4.349  14.522  0.4244 -0.1115 -0.5050
  288TMC3    O1 4353   3.784   4.495  14.087  0.4440 -0.1517 -0.3272
  288TMC3    O2 4354   3.686   4.465  14.545 -0.3119  0.2445  0.2388
  289MPD2     C 4355   3.355   3.094  14.228  0.2178 -0.1841 -0.4122
  289MPD2    C1 4356   3.307   3.222  14.234  0.1866 -0.5779  0.9887
  289MPD2    C2 4357   3.181   3.255  14.181  0.1028  0.6779 -0.4660
  289MPD2    C3 4358   3.100   3.149  14.130  0.2022 -0.1762  0.5471
  289MPD2    C4 4359   3.147   3.021  14.130  0.5985 -0.0458  0.3181
  289MPD2    C5 4360   3.271   2.992  14.175  0.0218  0.1097  0.2574
  289MPD2     H 4361   3.145   3.357  14.183  0.6847  0.8974 -1.4606
  289MPD2    H1 4362   3.091   2.939  14.086  2.5434 -1.4279  0.4284
  289MPD2    H2 4363   3.458   3.078  14.256  0.0232 -0.6260  0.0527
  289MPD2    H3 4364   3.313   2.893  14.164 -0.5859 -0.6525  4.9564
  289MPD2     N 4365   2.971   3.163  14.068 -0.2893  0.2595 -0.6205
  289MPD2    H5 4366   2.934   3.074  14.037  0.5086 -0.3019  0.0327
  289MPD2    N1 4367   3.393   3.321  14.294 -0.1237 -0.0609 -0.1442
  289MPD2    H7 4368   3.484   3.296  14.331  0.7823  0.0821 -2.2730
  290TMC3    C1 4369   2.813   3.272  13.928  0.0065  0.3154  0.8676
  290TMC3    C2 4370   2.795   3.389  13.856 -0.3937 -0.5492 -0.1877
  290TMC3    C3 4371   2.678   3.409  13.787 -0.3744 -0.1412 -0.1223
  290TMC3    C4 4372   2.707   3.182  13.938  0.2696  0.7985  0.3823
  290TMC3    C5 4373   2.584   3.212  13.882 -0.8490 -1.0348  0.0260
  290TMC3    C6 4374   2.570   3.323  13.804  0.4283  0.4555 -0.0500
  290TMC3     C 4375   2.914   3.284  14.033  0.1704 -0.1081  0.5829
  290TMC3     O 4376   2.952   3.399  14.057  0.1056 -0.1938 -0.1450
  290TMC3     H 4377   2.881   3.454  13.844 -0.1574 -1.0377 -1.0888
  290TMC3    H1 4378   2.725   3.104  14.011  3.7053  1.1153 -0.1271
  290TMC3    H2 4379   2.469   3.354  13.778 -0.7007 -2.1601  1.2428
  290TMC3    C7 4380   2.468   3.122  13.889 -0.0329  0.3951 -0.0265
  290TMC3    C8 4381   2.646   3.535  13.731 -0.6460  0.8419  0.2105
  290TMC3    O1 4382   2.357   3.169  13.864 -0.5299  0.0414 -0.4165
  290TMC3    O2 4383   2.556   3.538  13.646 -0.1577 -0.2146 -0.5532
  291MPD2     C 4384   2.407   2.125   0.879  0.2827  0.1138 -0.4163
  291MPD2    C1 4385   2.395   2.023   0.780 -0.6134  0.0441 -0.1022
  291MPD2    C2 4386   2.440   2.043   0.654  0.2237 -0.6436  0.3165
  291MPD2    C3 4387   2.512   2.157   0.622  0.2115 -0.6703 -0.3894
  291MPD2    C4 4388   2.528   2.255   0.723  0.1422  0.3038  0.0276
  291MPD2    C5 4389   2.471   2.243   0.844  0.7487  0.0321  0.2067
  291MPD2     H 4390   2.425   1.970   0.574 -3.1071  0.9703 -0.5282
  291MPD2    H1 4391   2.584   2.347   0.709  2.1675 -0.8789  0.3375
  291MPD2    H2 4392   2.365   2.111   0.978 -0.5724 -0.4086 -0.8511
  291MPD2    H3 4393   2.489   2.323   0.915  0.8544  0.6320 -0.4869
  291MPD2     N 4394   2.581   2.181   0.497  0.5912 -0.4906 -0.0625
  291MPD2    H5 4395   2.642   2.262   0.489 -3.0598  2.3127  0.3108
  291MPD2    N1 4396   2.337   1.893   0.811 -0.4041  0.1608  0.7035
  291MPD2    H7 4397   2.342   1.820   0.741 -2.8295 -0.5176  1.2366
  292TMC3    C1 4398   2.192   1.744   0.939  0.3499 -0.5420 -0.1831
  292TMC3    C2 4399   2.116   1.722   1.052 -0.0131  0.0846 -1.3799
  292TMC3    C3 4400   2.026   1.615   1.052 -0.4879 -0.2265 -0.2727
  292TMC3    C4 4401   2.179   1.656   0.834  0.4952  0.1947 -0.4613
  292TMC3    C5 4402   2.101   1.541   0.850  0.2152  0.0038 -0.0051
  292TMC3    C6 4403   2.024   1.517   0.957  0.6060  0.0093  0.7296
  292TMC3     C 4404   2.268   1.867   0.930 -0.6141  0.4135 -0.4830
  292TMC3     O 4405   2.236   1.944   1.020 -0.3828 -0.1413  0.3472
  292TMC3     H 4406   2.123   1.793   1.134  1.1014 -0.4826 -0.9935
  292TMC3    H1 4407   2.238   1.666   0.744  1.4470  0.8999  0.2494
  292TMC3    H2 4408   1.962   1.429   0.967 -1.3484  1.1054 -1.6141
  292TMC3    C7 4409   2.113   1.443   0.745  0.0293 -0.1678 -0.9833
  292TMC3    C8 4410   1.951   1.585   1.171  0.0808 -0.7205 -0.1200
  292TMC3    O1 4411   2.196   1.472   0.658 -0.2165  0.5098 -0.4920
  292TMC3    O2 4412   1.876   1.484   1.173  0.1429  0.1153 -0.1222
  293MPD2     C 4413   4.359   4.510  12.706  0.4991  0.1078 -0.4369
  293MPD2    C1 4414   4.442   4.402  12.739  0.4919  0.2327  0.1745
  293MPD2    C2 4415   4.548   4.424  12.832  0.1035  0.4363  0.5939
  293MPD2    C3 4416   4.573   4.556  12.874  0.2158  0.0683 -0.1788
  293MPD2    C4 4417   4.492   4.664  12.828  0.0952  0.2503  0.5179
  293MPD2    C5 4418   4.390   4.639  12.745  0.5112  0.1203 -0.3017
  293MPD2     H 4419   4.601   4.339  12.873 -0.0329  0.7788  1.4882
  293MPD2    H1 4420   4.491   0.037  12.877  1.9540 -0.1367  1.3247
  293MPD2    H2 4421   4.277   4.496  12.637  1.3063  2.9498 -1.9634
  293MPD2    H3 4422   4.324   4.720  12.716 -1.7006 -1.0671  1.3745
  293MPD2     N 4423   4.680   4.579  12.968  0.4441  0.1791 -0.2942
  293MPD2    H5 4424   0.004   4.497  13.003  3.4439  1.0135 -2.3189
  293MPD2    N1 4425   4.416   4.276  12.679 -0.2680  0.4874 -0.6659
  293MPD2    H7 4426   4.347   4.274  12.605 -1.4608  0.7918  0.4404
  294TMC3    C1 4427   4.427   4.057  12.615 -0.4471 -0.5309  1.3823
  294TMC3    C2 4428   4.306   4.080  12.555 -0.4943  0.1924  0.2600
  294TMC3    C3 4429   4.267   3.997  12.450 -0.6313 -0.2890  0.1701
  294TMC3    C4 4430   4.504   3.952  12.572 -0.2145  0.2884 -0.3879
  294TMC3    C5 4431   4.461   3.881  12.469 -0.1095  0.4287 -0.2570
  294TMC3    C6 4432   4.345   3.900  12.398 -0.1110 -0.6563 -0.1815
  294TMC3     C 4433   4.478   4.155  12.709 -0.2117  0.3471 -0.4836
  294TMC3     O 4434   4.564   4.132  12.790  0.4554  0.4230  0.0381
  294TMC3     H 4435   4.230   4.148  12.593 -1.9060 -1.0457 -0.3686
  294TMC3    H1 4436   4.601   3.938  12.619  0.1350  0.2608 -1.1223
  294TMC3    H2 4437   4.309   3.845  12.312  1.5816 -3.2218  0.7571
  294TMC3    C7 4438   4.571   3.814  12.399 -0.1806 -0.2663  0.1897
  294TMC3    C8 4439   4.153   4.022  12.366  0.5172 -0.0127  1.4418
  294TMC3    O1 4440   4.684   3.806  12.440  0.2742 -0.3569 -0.5866
  294TMC3    O2 4441   4.112   3.919  12.312 -0.2162 -0.5456  0.2702
  295MPD2     C 4442   4.472   2.756  17.598  0.1192 -0.2162  0.0400
  295MPD2    C1 4443   4.540   2.841  17.680  0.4729  0.2671 -0.4922
  295MPD2    C2 4444   4.475   2.941   0.052  0.8259 -0.5171  0.4774
  295MPD2    C3 4445   4.339   2.954   0.036 -0.9673  0.1890  0.8710
  295MPD2    C4 4446   4.274   2.875  17.642  0.1394  0.3398 -0.4045
  295MPD2    C5 4447   4.336   2.773  17.582 -0.1839 -0.5307  0.0996
  295MPD2     H 4448   4.535   2.986   0.130 -0.2673  1.8175 -0.0327
  295MPD2    H1 4449   4.169   2.896  17.624 -0.3189 -0.4793  1.3939
  295MPD2    H2 4450   4.521   2.673  17.549  1.2186  0.9940 -0.8927
  295MPD2    H3 4451   4.275   2.699  17.532  2.7419 -1.7423 -1.6790
  295MPD2     N 4452   4.257   3.047   0.104  0.1452  0.3458  0.2524
  295MPD2    H5 4453   4.157   3.045   0.089  0.3311  0.3103 -0.9952
  295MPD2    N1 4454   4.680   2.830   0.005  0.0615 -0.5514 -0.3830
  295MPD2    H7 4455   0.004   2.907   0.052 -1.5145  0.0389  0.2708
  296TMC3    C1 4456   4.196   3.196   0.278 -0.2150 -0.3928 -0.7782
  296TMC3    C2 4457   4.216   3.315   0.348  0.9074  0.3430  0.2813
  296TMC3    C3 4458   4.113   3.351   0.433 -0.4445  0.2586 -0.7220
  296TMC3    C4 4459   4.094   3.110   0.314  0.0907 -0.2289 -0.3520
  296TMC3    C5 4460   4.008   3.143   0.416 -0.3614  0.0602  0.0105
  296TMC3    C6 4461   4.017   3.270   0.472 -0.7955  0.2069  0.0345
  296TMC3     C 4462   4.301   3.135   0.198 -0.5852  0.6866  0.2206
  296TMC3     O 4463   4.418   3.163   0.217 -0.0583  0.1875  0.1446
  296TMC3     H 4464   4.288   3.390   0.318  1.5170 -0.0707  0.6976
  296TMC3    H1 4465   4.094   3.012   0.268  1.1631 -1.6833  2.7375
  296TMC3    H2 4466   3.940   3.295   0.545  1.5296  2.0711  1.8591
  296TMC3    C7 4467   3.925   3.042   0.485  0.0115  0.5317 -0.2561
  296TMC3    C8 4468   4.114   3.493   0.463  0.5304 -0.1538 -0.1902
  296TMC3    O1 4469   3.890   2.933   0.437 -0.3079 -0.7367  0.0515
  296TMC3    O2 4470   4.218   3.553   0.497 -0.1468  0.1310 -0.1452
  297MPD2     C 4471   2.396   0.250  16.184 -0.4091 -0.0593  0.4871
  297MPD2    C1 4472   2.331   0.364  16.233 -0.3089  0.9083  0.5315
  297MPD2    C2 4473   2.373   0.423  16.353  0.0417 -0.1940 -0.2021
  297MPD2    C3 4474   2.495   0.383  16.417 -0.1464 -0.4685 -0.0162
  297MPD2    C4 4475   2.559   0.264  16.376  0.0940 -0.3657  0.5541
  297MPD2    C5 4476   2.500   0.202  16.263 -0.1496  0.2552 -0.3656
  297MPD2     H 4477   2.317   0.500  16.405  4.0732  1.8960  1.0317
  297MPD2    H1 4478   2.653   0.227  16.415  0.3921  0.3183  0.4963
  297MPD2    H2 4479   2.361   0.196  16.097  0.5856  1.9329 -1.1406
  297MPD2    H3 4480   2.545   0.108  16.231 -0.8376 -0.0691 -0.3703
  297MPD2     N 4481   2.536   0.464  16.518  0.1950  0.2103 -0.1350
  297MPD2    H5 4482   2.490   0.553  16.532 -0.8026 -0.1713 -1.0217
  297MPD2    N1 4483   2.220   0.411  16.171 -0.1396  0.1900 -0.5493
  297MPD2    H7 4484   2.152   0.457  16.232 -3.0771 -1.9533 -2.1924
  298TMC3    C1 4485   2.076   0.478  16.018  0.5250  0.0241 -0.1445
  298TMC3    C2 4486   2.075   0.556  15.908  0.0567  0.4777 -0.5445
  298TMC3    C3 4487   1.958   0.622  15.892  0.1688 -0.0059 -0.4005
  298TMC3    C4 4488   1.978   0.468  16.108  0.0735 -0.0129  0.7393
  298TMC3    C5 4489   1.852   0.533  16.085 -0.1076 -0.5320  0.7726
  298TMC3    C6 4490   1.848   0.613  15.971 -0.1555  0.1379 -0.5088
  298TMC3     C 4491   2.199   0.400  16.042 -0.0931 -0.8368 -0.6385
  298TMC3     O 4492   2.276   0.396  15.947 -0.1976 -0.2633 -0.2182
  298TMC3     H 4493   2.166   0.583  15.856 -0.1138 -1.7686 -2.0408
  298TMC3    H1 4494   1.977   0.386  16.179 -0.9756 -1.2250 -0.6655
  298TMC3    H2 4495   1.764   0.680  15.964  1.7069  2.6769  1.4137
  298TMC3    C7 4496   1.753   0.544  16.195  0.4259  0.7796  0.1752
  298TMC3    C8 4497   1.928   0.692  15.764 -0.3188  0.4875 -0.5670
  298TMC3    O1 4498   1.785   0.579  16.303  0.0991 -0.5167  0.4268
  298TMC3    O2 4499   1.828   0.757  15.751 -0.0722  0.0679 -0.6383
  299MPD2     C 4500   2.568   0.351  10.553  0.0004  0.4116  0.0087
  299MPD2    C1 4501   2.647   0.422  10.467 -1.0628 -0.2408  0.1856
  299MPD2    C2 4502   2.596   0.463  10.343 -0.1530  0.4443  0.1586
  299MPD2    C3 4503   2.470   0.420  10.308  0.3685 -0.8057 -0.6091
  299MPD2    C4 4504   2.392   0.357  10.405  0.0630  0.1963 -0.4217
  299MPD2    C5 4505   2.440   0.311  10.524 -0.4861  0.3988 -0.2576
  299MPD2     H 4506   2.656   0.515  10.269  0.0794  0.8036  0.5934
  299MPD2    H1 4507   2.285   0.340  10.394  0.3922 -1.8978 -0.4375
  299MPD2    H2 4508   2.616   0.312  10.642  0.4288 -0.6052 -0.6685
  299MPD2    H3 4509   2.378   0.249  10.589  0.8712 -1.3584 -0.6323
  299MPD2     N 4510   2.409   0.447  10.182 -0.3325 -0.0411  0.2530
  299MPD2    H5 4511   2.313   0.422  10.159 -0.7231  2.0515 -0.4425
  299MPD2    N1 4512   2.775   0.457  10.516 -0.2148  0.1052 -0.5058
  299MPD2    H7 4513   2.798   0.442  10.614  1.0695 -0.7674 -0.9473
  300TMC3    C1 4514   2.367   0.497   9.960 -0.3989 -0.5661  0.6121
  300TMC3    C2 4515   2.412   0.493   9.830 -0.0576  0.2040 -0.1723
  300TMC3    C3 4516   2.315   0.492   9.733 -0.5790  0.3528 -0.2100
  300TMC3    C4 4517   2.235   0.479  10.000  0.3425  0.4252 -0.0910
  300TMC3    C5 4518   2.145   0.482   9.894  0.1809  0.3460 -0.0267
  300TMC3    C6 4519   2.184   0.480   9.762  0.2352  0.0782  0.2034
  300TMC3     C 4520   2.460   0.511  10.067 -0.3671  0.4166 -0.0606
  300TMC3     O 4521   2.568   0.562  10.050 -0.0862 -0.1567  0.0013
  300TMC3     H 4522   2.518   0.499   9.809 -0.6959  2.7857 -2.7006
  300TMC3    H1 4523   2.198   0.506  10.098  2.1266 -1.2196  1.0373
  300TMC3    H2 4524   2.111   0.496   9.683  1.2546 -0.7038 -0.9012
  300TMC3    C7 4525   2.007   0.461   9.913  0.7276 -0.2056  0.1362
  300TMC3    C8 4526   2.365   0.515   9.595 -0.3761  0.2746  0.0922
  300TMC3    O1 4527   1.945   0.415   9.819 -0.5063  0.8098 -0.2308
  300TMC3    O2 4528   2.385   0.415   9.530  0.1453 -0.1666  0.8192
  301MPD2     C 4529   4.214   0.798   1.896 -0.7741  0.0075  0.2768
  301MPD2    C1 4530   4.194   0.801   1.759 -0.4438  0.5667  0.5812
  301MPD2    C2 4531   4.310   0.788   1.681 -0.1731  0.5726  0.3231
  301MPD2    C3 4532   4.439   0.760   1.731  0.5274  0.0013 -0.3590
  301MPD2    C4 4533   4.447   0.755   1.873  0.5203  0.1317 -0.2492
  301MPD2    C5 4534   4.333   0.774   1.948  0.0100 -0.2280 -0.0200
  301MPD2     H 4535   4.291   0.801   1.575  0.8434  0.1372  0.0895
  301MPD2    H1 4536   4.542   0.736   1.922  0.1590 -0.9716  0.0071
  301MPD2    H2 4537   4.134   0.809   1.969  0.3019  0.1096  1.4434
  301MPD2    H3 4538   4.351   0.773   2.055 -1.9452  1.0884  0.3165
  301MPD2     N 4539   4.549   0.729   1.650  0.4002  0.1438  0.6239
  301MPD2    H5 4540   4.638   0.706   1.693  0.7540  2.1768  0.9867
  301MPD2    N1 4541   4.068   0.815   1.699  0.4624 -0.3329 -0.2407
  301MPD2    H7 4542   4.072   0.795   1.599 -1.3268 -2.8290  0.1986
  302TMC3    C1 4543   4.669   0.682   1.453  0.3799  0.1665 -0.1507
  302TMC3    C2 4544   0.051   0.643   1.528 -0.2401  0.4618  0.2831
  302TMC3    C3 4545   0.156   0.591   1.456 -0.0141  0.1544 -0.0038
  302TMC3    C4 4546   4.661   0.658   1.315 -0.1259  0.1378  0.2128
  302TMC3    C5 4547   0.050   0.608   1.254  0.1537  0.0037 -0.5393
  302TMC3    C6 4548   0.161   0.578   1.322 -0.1142  0.3038  0.5738
  302TMC3     C 4549   4.545   0.736   1.513 -0.1446 -0.0296  0.1010
  302TMC3     O 4550   4.453   0.774   1.439 -0.4321  0.7130  0.1498
  302TMC3     H 4551   0.075   0.672   1.629 -1.4479 -0.3463  0.8001
  302TMC3    H1 4552   4.586   0.712   1.259 -1.2355 -1.9958 -0.3455
  302TMC3    H2 4553   0.250   0.534   1.280 -1.4785 -0.2205 -1.7423
  302TMC3    C7 4554   0.057   0.584   1.115 -0.1844  0.3951  0.1358
  302TMC3    C8 4555   0.234   0.475   1.516 -0.2207 -0.2796 -0.2728
  302TMC3    O1 4556   0.171   0.568   1.069  0.1788 -0.4518  0.0470
  302TMC3    O2 4557   0.314   0.419   1.450  0.0215  0.3235  0.2684
  303MPD2     C 4558   4.595   0.691  10.889 -0.1607 -0.3837 -0.1831
  303MPD2    C1 4559   4.600   0.555  10.922  0.3657  0.1829  0.2636
  303MPD2    C2 4560   4.569   0.464  10.823  0.6969 -0.4456  0.0541
  303MPD2    C3 4561   4.533   0.501  10.691 -0.0500 -0.1681 -0.3144
  303MPD2    C4 4562   4.527   0.631  10.661 -0.0661  0.3694 -0.2609
  303MPD2    C5 4563   4.556   0.729  10.760  0.4882 -1.1179  0.8148
  303MPD2     H 4564   4.549   0.360  10.846 -2.0008 -0.0138 -0.2716
  303MPD2    H1 4565   4.510   0.665  10.560 -2.0066  2.2416  0.6768
  303MPD2    H2 4566   4.609   0.757  10.975 -1.6051 -2.9396  2.0330
  303MPD2    H3 4567   4.553   0.836  10.745  2.2116 -1.1613  0.1807
  303MPD2     N 4568   4.497   0.409  10.590 -0.0060  0.5734 -0.1445
  303MPD2    H5 4569   4.472   0.450  10.500 -2.2106 -1.5129 -0.4762
  303MPD2    N1 4570   4.619   0.526  11.056  0.2928 -0.2361 -0.0428
  303MPD2    H7 4571   4.607   0.601  11.124  3.1533  0.2601 -0.0425
  304TMC3    C1 4572   4.596   0.404  11.250 -0.4904  0.2874  0.3393
  304TMC3    C2 4573   4.481   0.458  11.298  0.2809  0.0266 -0.3913
  304TMC3    C3 4574   4.428   0.415  11.415 -0.4332 -0.2069 -0.3252
  304TMC3    C4 4575   4.660   0.299  11.316  0.5187  0.1658  0.6795
  304TMC3    C5 4576   4.602   0.257  11.431 -0.2559  0.2438 -0.3853
  304TMC3    C6 4577   4.497   0.326  11.490 -0.0703  0.5663  0.2855
  304TMC3     C 4578   4.618   0.403  11.110 -0.2646  0.7567 -0.7091
  304TMC3     O 4579   4.643   0.296  11.061 -0.3174  0.1157  0.1213
  304TMC3     H 4580   4.422   0.520  11.231  0.6006  1.6240  0.8235
  304TMC3    H1 4581   0.012   0.245  11.259 -1.8354  0.5162 -2.7577
  304TMC3    H2 4582   4.469   0.292  11.590 -1.2069 -0.3775 -0.3534
  304TMC3    C7 4583   4.576   0.110  11.426 -0.6429  0.5455 -0.2011
  304TMC3    C8 4584   4.286   0.391  11.409 -0.7055 -0.2942 -0.4887
  304TMC3    O1 4585   4.465   0.071  11.454  0.3772 -0.5899 -0.1062
  304TMC3    O2 4586   4.216   0.481  11.369 -0.4055 -0.4351  0.5242
  305MPD2     C 4587   2.946   1.349  13.952  0.1506 -0.2898 -0.5315
  305MPD2    C1 4588   2.999   1.471  13.936  0.4730 -1.0931  0.0006
  305MPD2    C2 4589   2.972   1.543  13.817  0.4476 -0.1307  0.1555
  305MPD2    C3 4590   2.892   1.482  13.712 -0.3262  0.1995  0.2341
  305MPD2    C4 4591   2.861   1.354  13.731 -0.5041  1.0732 -0.3289
  305MPD2    C5 4592   2.885   1.285  13.847 -0.1645  0.9844  0.1383
  305MPD2     H 4593   3.019   1.640  13.802  2.4189 -0.9530  1.0361
  305MPD2    H1 4594   2.806   1.295  13.658 -1.5178 -0.9261  2.0396
  305MPD2    H2 4595   2.960   1.287  14.040  5.1494  2.1682  0.4209
  305MPD2    H3 4596   2.838   1.187  13.851  1.3694  0.1645 -2.0865
  305MPD2     N 4597   2.864   1.532  13.581  0.3024 -0.2216  0.1791
  305MPD2    H5 4598   2.799   1.474  13.527 -0.0518  0.4952 -0.1715
  305MPD2    N1 4599   3.070   1.532  14.044 -0.0110 -0.1615  0.8009
  305MPD2    H7 4600   3.096   1.470  14.120  1.8983 -1.0279 -0.5695
  306TMC3    C1 4601   3.173   1.689  14.179 -0.6786 -0.0899 -0.0959
  306TMC3    C2 4602   3.254   1.591  14.225  0.7929  0.1189  0.5543
  306TMC3    C3 4603   3.288   1.579  14.360  0.0660 -0.3103  0.0996
  306TMC3    C4 4604   3.123   1.784  14.266 -1.4557 -0.4473 -0.1437
  306TMC3    C5 4605   3.169   1.783  14.394 -0.0390 -0.1158 -0.2538
  306TMC3    C6 4606   3.242   1.682  14.442 -0.5266  0.2706 -0.3137
  306TMC3     C 4607   3.097   1.663  14.060  0.3854 -0.9077  0.3949
  306TMC3     O 4608   3.038   1.758  14.008 -0.6693  0.0756  0.5004
  306TMC3     H 4609   3.295   1.522  14.153 -1.3621 -0.2339 -0.3240
  306TMC3    H1 4610   3.056   1.859  14.228 -0.1927  0.9784  0.4480
  306TMC3    H2 4611   3.241   1.671  14.549  1.1851 -0.8717 -0.4025
  306TMC3    C7 4612   3.132   1.902  14.470  0.7461  0.0137  0.8944
  306TMC3    C8 4613   3.393   1.490  14.408 -0.3029 -0.2599 -0.2574
  306TMC3    O1 4614   3.036   1.973  14.441 -0.0369 -0.1460 -0.2100
  306TMC3    O2 4615   3.445   1.414  14.336 -0.0254 -0.2769  0.8008
  307MPD2     C 4616   0.772   3.264   0.201 -0.1146  0.1669  0.1970
  307MPD2    C1 4617   0.810   3.388   0.247 -0.2224  0.2978 -0.1140
  307MPD2    C2 4618   0.721   3.445   0.343  0.0744  0.4544  0.5840
  307MPD2    C3 4619   0.611   3.389   0.401 -0.2515  0.4373 -0.0962
  307MPD2    C4 4620   0.580   3.261   0.355  0.3404  0.5314 -1.1536
  307MPD2    C5 4621   0.655   3.208   0.256  0.0625  0.0747  0.5189
  307MPD2     H 4622   0.742   3.542   0.386  2.6039  0.0680  0.2688
  307MPD2    H1 4623   0.493   3.206   0.387  1.3834 -0.4769 -0.0446
  307MPD2    H2 4624   0.833   3.204   0.134  2.3681  0.0336  2.5474
  307MPD2    H3 4625   0.619   3.113   0.219 -0.9209  0.2801  0.9292
  307MPD2     N 4626   0.537   3.464   0.490  0.0365  0.0385  0.6176
  307MPD2    H5 4627   0.569   3.559   0.510 -0.6909  0.0250  1.8324
  307MPD2    N1 4628   0.918   3.467   0.193 -0.3377 -0.0228  0.6239
  307MPD2    H7 4629   0.914   3.568   0.199 -2.9185  0.0044 -1.1487
  308TMC3    C1 4630   0.226   3.694   0.634  0.2952  0.1911 -0.3436
  308TMC3    C2 4631   0.302   3.782   0.705  0.1587  0.2767 -0.1438
  308TMC3    C3 4632   0.419   3.727   0.742  0.3600  0.0166 -0.0669
  308TMC3    C4 4633   0.250   3.558   0.618  0.4443 -0.6560 -0.4637
  308TMC3    C5 4634   0.373   3.513   0.648 -0.3301  0.5169 -0.1899
  308TMC3    C6 4635   0.462   3.603   0.713  0.1152 -0.3690 -0.1962
  308TMC3     C 4636   0.099   3.740   0.588  0.2932 -0.0069  0.0743
  308TMC3     O 4637   0.007   3.658   0.587 -0.3634 -0.0492  0.2991
  308TMC3     H 4638   0.266   3.884   0.718 -1.5553 -0.8551  3.9272
  308TMC3    H1 4639   0.181   3.496   0.562 -1.0142  0.0467  0.5742
  308TMC3    H2 4640   0.556   3.573   0.757  0.4835  0.4185 -0.4338
  308TMC3    C7 4641   0.428   3.423   0.557 -0.1927 -0.2249 -0.1653
  308TMC3    C8 4642   0.517   3.821   0.801 -0.0940 -0.4909  0.7847
  308TMC3    O1 4643   0.357   3.323   0.528 -0.3409  0.9573 -0.4121
  308TMC3    O2 4644   0.598   3.764   0.873  0.1103  0.1494 -0.1731
  309MPD2     C 4645   0.280   0.047  16.901  0.1735  0.0739  0.4775
  309MPD2    C1 4646   0.199   0.026  16.797 -0.3399  0.1490  0.6277
  309MPD2    C2 4647   0.059   0.027  16.811 -0.0081  0.7877 -0.1320
  309MPD2    C3 4648   0.001   0.068  16.930  0.0770 -0.1514 -0.0117
  309MPD2    C4 4649   0.085   0.093  17.039 -0.2809  0.3808 -0.3404
  309MPD2    C5 4650   0.219   0.073  17.024  0.4052  0.0025 -0.2947
  309MPD2     H 4651   4.716   0.000  16.729 -1.1925  0.7312  0.8539
  309MPD2    H1 4652   0.031   0.128  17.126  0.8774  4.7214 -1.3350
  309MPD2    H2 4653   0.388   0.043  16.896  0.1559 -0.3461  0.4292
  309MPD2    H3 4654   0.286   0.091  17.107 -0.9598 -3.2383  1.4943
  309MPD2     N 4655   4.585   0.110  16.939 -0.7917  0.0162  0.0851
  309MPD2    H5 4656   4.555   0.151  17.027  2.4937  1.6692  0.4067
  309MPD2    N1 4657   0.238   0.006  16.667  0.6522 -0.6282  0.6601
  309MPD2    H7 4658   0.162   0.005  16.600  1.4273  1.3140 -0.2509
  310TMC3    C1 4659   0.374   4.721  16.471 -0.7529  0.7640  0.0698
  310TMC3    C2 4660   0.285   0.077  16.402 -0.7145 -0.1153 -0.0482
  310TMC3    C3 4661   0.294   0.091  16.265 -0.0560 -0.0239  0.0345
  310TMC3    C4 4662   0.466   4.647  16.408  0.2409 -0.4772  0.4813
  310TMC3    C5 4663   0.475   4.660  16.275 -0.2019  0.2834 -0.3440
  310TMC3    C6 4664   0.387   0.015  16.195  0.4446  0.3687  0.0462
  310TMC3     C 4665   0.368   4.715  16.617 -0.1991  0.2799  0.7383
  310TMC3     O 4666   0.467   4.697  16.682  0.2517  0.5063 -0.0011
  310TMC3     H 4667   0.223   0.136  16.469 -1.4004 -1.1398  0.2243
  310TMC3    H1 4668   0.541   4.592  16.463  1.7070  1.6088  0.5788
  310TMC3    H2 4669   0.395   0.018  16.087 -0.7896  1.8345 -0.0086
  310TMC3    C7 4670   0.578   4.581  16.203  0.8061  0.1337  0.6366
  310TMC3    C8 4671   0.209   0.178  16.190  0.4729 -0.0229 -0.2885
  310TMC3    O1 4672   0.594   4.473  16.264 -0.7142  0.2075  0.5274
  310TMC3    O2 4673   0.252   0.195  16.074 -0.4650 -0.3010  0.4001
  311MPD2     C 4674   2.074   1.303  12.651  0.2776 -0.0152 -1.4424
  311MPD2    C1 4675   2.060   1.430  12.704 -0.0079 -0.4200 -0.1945
  311MPD2    C2 4676   1.960   1.445  12.798  0.0412 -1.1151  0.5207
  311MPD2    C3 4677   1.874   1.347  12.833 -0.2537  0.2306  0.4991
  311MPD2    C4 4678   1.889   1.224  12.778 -0.0351 -0.8533  0.1372
  311MPD2    C5 4679   1.997   1.199  12.692  0.7653  0.2570  0.0752
  311MPD2     H 4680   1.938   1.545  12.835 -0.4179 -1.0731  0.1267
  311MPD2    H1 4681   1.822   1.142  12.803 -1.3697  0.3512  0.4713
  311MPD2    H2 4682   2.137   1.286  12.565  1.5242  0.0756 -0.5390
  311MPD2    H3 4683   2.002   1.099  12.652  3.1140  0.9272 -1.2595
  311MPD2     N 4684   1.753   1.374  12.903 -0.2286  0.1522 -0.3210
  311MPD2    H5 4685   1.744   1.467  12.943  0.1001  0.3844 -0.7872
  311MPD2    N1 4686   2.140   1.544  12.666  0.0003  0.1699 -0.3200
  311MPD2    H7 4687   2.116   1.638  12.695 -1.3441 -0.6920  1.3669
  312TMC3    C1 4688   1.533   1.363  12.991 -0.2290  0.3526 -0.3696
  312TMC3    C2 4689   1.407   1.339  12.941  0.2162 -0.0272 -0.2841
  312TMC3    C3 4690   1.315   1.426  12.974  0.2360  0.0406 -0.0374
  312TMC3    C4 4691   1.558   1.463  13.084 -0.5147 -0.2711 -0.1520
  312TMC3    C5 4692   1.449   1.539  13.124  1.1856  0.2093  0.3236
  312TMC3    C6 4693   1.329   1.533  13.061 -0.3254 -0.1169 -0.2106
  312TMC3     C 4694   1.643   1.294  12.925  0.1412  0.0265  0.0077
  312TMC3     O 4695   1.624   1.177  12.895  0.6442 -0.0728  0.0557
  312TMC3     H 4696   1.395   1.269  12.859 -0.0295  0.1114 -0.3654
  312TMC3    H1 4697   1.662   1.472  13.114 -0.3789  0.8769 -0.9618
  312TMC3    H2 4698   1.243   1.591  13.095  0.4826  1.0700 -0.1622
  312TMC3    C7 4699   1.461   1.648  13.221 -0.4029 -0.1359  0.1080
  312TMC3    C8 4700   1.186   1.406  12.912 -0.3111  0.2653 -0.5538
  312TMC3    O1 4701   1.376   1.735  13.219  0.3654 -0.6902  0.0026
  312TMC3    O2 4702   1.153   1.295  12.875 -0.5534  1.3972  0.4065
  313MPD2     C 4703   1.844   0.992  10.001 -0.3551 -0.5645  0.4442
  313MPD2    C1 4704   1.721   1.050  10.004  0.5461 -0.0938  0.4650
  313MPD2    C2 4705   1.622   0.965   9.966 -0.3125  0.8453  0.1881
  313MPD2    C3 4706   1.645   0.835   9.922  0.2101  0.7761 -0.5924
  313MPD2    C4 4707   1.767   0.779   9.925  0.1165  0.3414 -0.3519
  313MPD2    C5 4708   1.866   0.859   9.969  0.3668 -0.1510 -0.0023
  313MPD2     H 4709   1.525   1.013   9.960 -0.4191  0.7966  1.5814
  313MPD2    H1 4710   1.790   0.678   9.892 -2.0669  0.6921 -2.9291
  313MPD2    H2 4711   1.930   1.044  10.043 -0.1869 -1.9669  1.8513
  313MPD2    H3 4712   1.967   0.820   9.966  0.7534  0.8475 -0.0635
  313MPD2     N 4713   1.543   0.737   9.893  0.2298 -0.4194  0.5185
  313MPD2    H5 4714   1.595   0.661   9.850 -1.8075 -1.3084 -0.3830
  313MPD2    N1 4715   1.696   1.191  10.026  0.4131  0.1883 -0.6920
  313MPD2    H7 4716   1.597   1.214  10.032  0.5858  0.7056  0.1666
  314TMC3    C1 4717   1.718   1.410  10.115 -0.2525  0.5348 -0.1116
  314TMC3    C2 4718   1.742   1.469  10.241 -0.2840 -0.5245 -0.2867
  314TMC3    C3 4719   1.695   1.597  10.257  0.6722  0.2021  0.2878
  314TMC3    C4 4720   1.662   1.484  10.014 -0.3089  0.5596 -0.0844
  314TMC3    C5 4721   1.616   1.614  10.039  0.3595  0.0646  0.2019
  314TMC3    C6 4722   1.631   1.672  10.156  0.1882  0.0261 -0.0588
  314TMC3     C 4723   1.787   1.286  10.070  0.2286  0.7137 -0.2466
  314TMC3     O 4724   1.903   1.260  10.106  1.1659 -0.4756 -0.4503
  314TMC3     H 4725   1.773   1.405  10.322  2.3619 -0.8876 -1.5666
  314TMC3    H1 4726   1.668   1.448   9.912 -1.0088  3.9017 -1.2915
  314TMC3    H2 4727   1.583   1.767  10.178 -1.5402 -0.5243 -1.4338
  314TMC3    C7 4728   1.635   1.701   9.931  0.0581 -0.3630 -0.2505
  314TMC3    C8 4729   1.731   1.669  10.374 -0.4590  0.0154  0.5747
  314TMC3    O1 4730   1.733   1.689   9.857  0.0273  0.1766 -0.2515
  314TMC3    O2 4731   1.655   1.756  10.413  0.1926  0.0081 -0.1950
  315MPD2     C 4732   1.221   4.593   0.233  0.5518 -0.0852  0.1534
  315MPD2    C1 4733   1.353   4.555   0.242 -0.0753 -0.0075 -0.0961
  315MPD2    C2 4734   1.449   4.644   0.226 -0.7395  0.3676  0.1954
  315MPD2    C3 4735   1.414   0.056   0.188 -0.4417 -0.4620  0.2312
  315MPD2    C4 4736   1.277   0.094   0.177  0.3042 -0.2026  0.4512
  315MPD2    C5 4737   1.185   4.722   0.210 -0.2736 -0.1359 -0.4248
  315MPD2     H 4738   1.553   4.617   0.242 -1.0777 -1.0262 -0.0120
  315MPD2    H1 4739   1.242   0.191   0.145  0.6030  0.0597  0.9201
  315MPD2    H2 4740   1.139   4.525   0.255 -2.6327  3.2497 -1.4137
  315MPD2    H3 4741   1.078   0.015   0.206  0.1462  1.9485 -2.8439
  315MPD2     N 4742   1.524   0.146   0.170 -0.0717 -0.5655  0.2173
  315MPD2    H5 4743   1.616   0.105   0.180 -0.2095 -1.1024 -0.7347
  315MPD2    N1 4744   1.393   4.429   0.292  0.1004  0.3447 -0.4744
  315MPD2    H7 4745   1.493   4.419   0.308 -0.1692 -1.8538 -0.1530
  316TMC3    C1 4746   1.646   0.343   0.134  0.2363 -0.0374  0.4673
  316TMC3    C2 4747   1.752   0.304   0.199  0.3456  0.7263  0.5679
  316TMC3    C3 4748   1.863   0.383   0.199 -0.3494 -0.1979  0.6179
  316TMC3    C4 4749   1.647   0.458   0.059 -0.3630 -1.3326 -0.5892
  316TMC3    C5 4750   1.760   0.539   0.064  0.3938  0.1679 -0.2248
  316TMC3    C6 4751   1.866   0.508   0.147  0.0836 -0.3125  1.3209
  316TMC3     C 4752   1.514   0.279   0.131 -0.5876  0.7414 -0.1206
  316TMC3     O 4753   1.419   0.340   0.096 -0.0452 -0.0475  0.0869
  316TMC3     H 4754   1.746   0.209   0.251 -2.8402  0.6086 -0.0552
  316TMC3    H1 4755   1.559   0.483   0.000 -0.9103 -1.3378  0.2260
  316TMC3    H2 4756   1.953   0.573   0.150  0.6338 -0.8576 -2.2448
  316TMC3    C7 4757   1.758   0.676   0.005  0.0176  0.8384 -0.1778
  316TMC3    C8 4758   1.977   0.338   0.266 -0.1182 -0.2488 -0.0540
  316TMC3    O1 4759   1.804   0.768   0.069  0.3505  0.5117  0.1002
  316TMC3    O2 4760   2.055   0.428   0.292  0.6264 -0.2988  0.1782
  317MPD2     C 4761   3.067   3.642  12.693  0.0143  0.0103 -0.2197
  317MPD2    C1 4762   3.119   3.509  12.680 -0.0730 -0.2695 -0.3140
  317MPD2    C2 4763   3.119   3.435  12.794 -0.1234  0.1697 -0.1635
  317MPD2    C3 4764   3.104   3.484  12.922  0.4106  0.1650  0.5362
  317MPD2    C4 4765   3.073   3.617  12.938 -0.1316 -0.8663 -0.5359
  317MPD2    C5 4766   3.057   3.695  12.821 -0.1336 -0.4568  0.0244
  317MPD2     H 4767   3.142   3.330  12.775  0.9708  0.0771  1.6614
  317MPD2    H1 4768   3.073   3.668  13.033  2.7400 -0.1027 -0.9564
  317MPD2    H2 4769   3.051   3.711  12.612 -1.6222 -0.2598 -0.1354
  317MPD2    H3 4770   3.038   3.800  12.835 -1.2464 -0.5989 -0.4556
  317MPD2     N 4771   3.135   3.401  13.033  0.1186 -0.0161  0.6648
  317MPD2    H5 4772   3.150   3.302  13.013  0.9634 -0.1511  1.9753
  317MPD2    N1 4773   3.144   3.446  12.552 -0.4755 -0.6431  0.4719
  317MPD2    H7 4774   3.170   3.348  12.551 -0.4297 -0.6505  3.4912
  318TMC3    C1 4775   3.199   3.354  13.257  0.6664 -0.4551 -0.1448
  318TMC3    C2 4776   3.149   3.229  13.249 -0.0337 -0.2582  0.0963
  318TMC3    C3 4777   3.213   3.127  13.317  0.2001 -0.1734  0.7289
  318TMC3    C4 4778   3.301   3.390  13.337  0.0453  0.1180 -0.4173
  318TMC3    C5 4779   3.380   3.289  13.378  0.0861 -0.4546 -0.4663
  318TMC3    C6 4780   3.329   3.162  13.389 -0.2670 -0.7140  0.2131
  318TMC3     C 4781   3.148   3.450  13.163 -0.1912 -0.0283 -0.2210
  318TMC3     O 4782   3.136   3.564  13.204  0.4322  0.3398  0.1556
  318TMC3     H 4783   3.071   3.201  13.179 -0.4066  1.5828 -0.2257
  318TMC3    H1 4784   3.329   3.494  13.321  0.1673 -0.0344 -1.1681
  318TMC3    H2 4785   3.369   3.088  13.458  0.1214 -1.5457 -0.9132
  318TMC3    C7 4786   3.504   3.324  13.445  0.4204  0.0763  0.3957
  318TMC3    C8 4787   3.168   2.994  13.319  0.0688  0.5835 -0.3223
  318TMC3    O1 4788   3.519   3.436  13.479  0.7536  0.4125  0.4137
  318TMC3    O2 4789   3.249   2.913  13.364  0.0350 -0.1331 -0.4846
  319MPD2     C 4790   0.202   4.436  16.320  0.6264 -0.2765  0.3672
  319MPD2    C1 4791   0.099   4.438  16.408 -0.3411 -0.5591 -0.1603
  319MPD2    C2 4792   4.699   4.446  16.352  0.7523 -0.2588 -0.4544
  319MPD2    C3 4793   4.672   4.440  16.213  0.1252 -0.5769  0.1915
  319MPD2    C4 4794   0.059   4.456  16.129 -0.0041 -0.1948  0.5122
  319MPD2    C5 4795   0.183   4.451  16.184 -0.1698  0.0783  0.4289
  319MPD2     H 4796   4.617   4.457  16.422  1.8362  1.3684  0.5607
  319MPD2    H1 4797   0.042   4.450  16.022  0.0361  2.7124  0.3520
  319MPD2    H2 4798   0.303   4.419  16.357  0.5888  1.4382  1.2627
  319MPD2    H3 4799   0.268   4.459  16.117 -0.1791  0.7557  0.4933
  319MPD2     N 4800   4.547   4.429  16.158  0.4208  0.1718 -0.6257
  319MPD2    H5 4801   4.529   4.468  16.066 -0.4446  2.8585  0.6797
  319MPD2    N1 4802   0.112   4.428  16.556  0.4290  0.2097  0.6912
  319MPD2    H7 4803   0.025   4.429  16.607 -0.4392  1.8417 -0.7892
  320TMC3    C1 4804   4.316   4.359  16.143  0.4561  0.5457 -0.4487
  320TMC3    C2 4805   4.284   4.452  16.050  0.5361 -0.6757 -0.1662
  320TMC3    C3 4806   4.149   4.463  16.024 -0.1485 -0.0607  0.2594
  320TMC3    C4 4807   4.223   4.288  16.213 -0.2996  0.5070  0.8905
  320TMC3    C5 4808   4.090   4.313  16.190 -0.1514  0.1866 -0.3289
  320TMC3    C6 4809   4.055   4.401  16.091  0.2727  0.5821 -0.9435
  320TMC3     C 4810   4.443   4.365  16.220  0.8647  0.1499 -0.7472
  320TMC3     O 4811   4.447   4.305  16.327  0.5430 -0.1848 -0.3288
  320TMC3     H 4812   4.361   4.503  15.992 -0.0740  1.1002  0.5837
  320TMC3    H1 4813   4.252   4.202  16.271  1.8459 -0.5849 -1.8488
  320TMC3    H2 4814   3.949   4.424  16.078 -0.3513 -0.1758  2.7719
  320TMC3    C7 4815   3.993   4.228  16.254  0.2173 -0.1802 -0.2523
  320TMC3    C8 4816   4.120   4.583  15.957  0.2278  0.0900  0.4618
  320TMC3    O1 4817   3.880   4.207  16.203 -0.4717  0.2510 -0.1522
  320TMC3    O2 4818   4.211   4.622  15.885  0.0824  0.2160  0.7849
  321TMC3    C1 4819   0.207   4.388  16.769  0.0607 -0.4463 -0.0279
  321TMC3    C2 4820   0.076   4.381  16.818 -0.2581 -0.3618 -0.1169
  321TMC3    C3 4821   0.059   4.385  16.952 -0.4826 -0.3719 -0.1917
  321TMC3    C4 4822   0.306   4.416  16.850 -0.6157 -0.0626  0.5089
  321TMC3    C5 4823   0.276   4.442  16.983  0.9285  0.0203 -0.5401
  321TMC3    C6 4824   0.155   4.423  17.038  0.1392  0.1202 -0.1805
  321TMC3     C 4825   0.230   4.405  16.620  0.0931 -0.3599 -0.4849
  321TMC3     O 4826   0.347   4.395  16.582  0.0438 -0.1714 -0.2307
  321TMC3     H 4827   4.721   4.334  16.759 -0.5235  1.3447 -1.1232
  321TMC3    H1 4828   0.406   4.432  16.812 -0.6003 -0.7905  0.2388
  321TMC3    H2 4829   0.141   4.432  17.145 -0.8444 -1.9174 -0.1389
  321TMC3    C7 4830   0.367   4.392  17.075  0.3946  1.0147 -0.0717
  321TMC3    C8 4831   4.714   4.265  17.000 -0.3267  0.4071  0.1969
  321TMC3    O1 4832   0.377   4.271  17.054 -0.5816  0.5338 -0.4778
  321TMC3    O2 4833   4.595   4.244  16.973  0.3225  0.5666  0.2067
  322MPD2     C 4834   3.099   0.998  13.395 -0.0481 -0.2531  0.1084
  322MPD2    C1 4835   3.131   0.936  13.515  0.3076 -0.0214 -0.2818
  322MPD2    C2 4836   3.133   0.795  13.531 -0.2722 -0.0262 -0.5543
  322MPD2    C3 4837   3.115   0.713  13.425 -0.2526  0.1700 -0.8511
  322MPD2    C4 4838   3.085   0.771  13.302 -1.2174 -0.0191  0.5919
  322MPD2    C5 4839   3.070   0.909  13.297  1.0576 -0.0962 -0.0764
  322MPD2     H 4840   3.169   0.757  13.625  0.3253 -0.3134 -0.8967
  322MPD2    H1 4841   3.058   0.705  13.221  0.1276 -0.1413  0.2452
  322MPD2    H2 4842   3.085   1.104  13.377  0.5199 -0.6890 -2.8300
  322MPD2    H3 4843   3.040   0.951  13.202 -0.8791  2.5962  1.6918
  322MPD2     N 4844   3.140   0.578  13.442  0.1358  0.5019  0.1457
  322MPD2    H5 4845   3.154   0.533  13.532  0.4602 -0.2333 -0.2676
  322MPD2    N1 4846   3.169   1.009  13.632 -0.1710 -0.5860 -0.1582
  322MPD2    H7 4847   3.189   0.957  13.717 -0.3741 -1.0936 -0.4202
  323TMC3    C1 4848   3.226   1.185  13.777 -1.2779 -0.4871  0.0168
  323TMC3    C2 4849   3.283   1.303  13.792  0.2193 -0.1723  0.0916
  323TMC3    C3 4850   3.330   1.335  13.915  0.0754 -0.0415  1.0646
  323TMC3    C4 4851   3.193   1.103  13.883 -0.0611  0.0636 -0.4438
  323TMC3    C5 4852   3.226   1.146  14.012 -0.3275  0.3193  0.8566
  323TMC3    C6 4853   3.306   1.259  14.025  0.1193 -0.6957 -0.6082
  323TMC3     C 4854   3.184   1.146  13.642 -0.0844 -0.0308 -0.0487
  323TMC3     O 4855   3.169   1.237  13.562  0.2803 -0.4726  0.3550
  323TMC3     H 4856   3.310   1.361  13.705  0.6882  0.4753  0.6658
  323TMC3    H1 4857   3.119   1.025  13.870  0.4098 -0.4185 -0.2108
  323TMC3    H2 4858   3.341   1.290  14.123 -0.1966 -1.6768 -0.1827
  323TMC3    C7 4859   3.221   1.050  14.125  0.8862 -0.4779  0.1804
  323TMC3    C8 4860   3.452   1.402  13.928 -0.1362  0.8159 -0.4712
  323TMC3    O1 4861   3.217   0.934  14.096 -0.6282 -0.3299 -0.4548
  323TMC3    O2 4862   3.498   1.401  14.043 -0.1228 -0.0629  0.2140
  324MPD2     C 4863   4.512   2.524  14.511  0.8300  0.2996 -0.2928
  324MPD2    C1 4864   4.591   2.514  14.402  0.2797 -0.1023  0.9051
  324MPD2    C2 4865   4.532   2.471  14.280 -0.0827  0.4358  0.0375
  324MPD2    C3 4866   4.399   2.437  14.275  0.0424 -0.3790  0.5257
  324MPD2    C4 4867   4.322   2.453  14.384 -0.1035  0.0266  0.8305
  324MPD2    C5 4868   4.373   2.490  14.506 -0.8402  0.6084  0.2511
  324MPD2     H 4869   4.602   2.459  14.198  0.4511 -0.7746  0.6700
  324MPD2    H1 4870   4.216   2.432  14.382 -0.3462  1.3434  0.0643
  324MPD2    H2 4871   4.565   2.555  14.601 -2.2150 -1.9774  2.2785
  324MPD2    H3 4872   4.300   2.504  14.584 -1.9450 -0.9875 -0.5112
  324MPD2     N 4873   4.343   2.395  14.156  0.0164  0.3031 -0.1435
  324MPD2    H5 4874   4.242   2.407  14.152  0.0528  0.6833  0.0185
  324MPD2    N1 4875   0.003   2.567  14.408  0.1047  0.0839 -0.0314
  324MPD2    H7 4876   0.033   2.607  14.496  1.4789 -0.6014 -0.1867
  325TMC3    C1 4877   4.320   2.412  13.934 -0.8081  0.0411 -0.7196
  325TMC3    C2 4878   4.304   2.334  13.818 -0.0056 -0.2407  0.3254
  325TMC3    C3 4879   4.186   2.351  13.756  0.9544 -0.3158 -0.0705
  325TMC3    C4 4880   4.245   2.523  13.957 -0.5773 -0.6641 -0.2175
  325TMC3    C5 4881   4.144   2.551  13.866 -0.3613  0.9422 -0.6586
  325TMC3    C6 4882   4.106   2.461  13.772 -0.0338  0.5086 -0.2243
  325TMC3     C 4883   4.405   2.366  14.039 -0.4712 -0.0626  0.1442
  325TMC3     O 4884   4.506   2.305  14.027  0.0624  0.0593 -0.3569
  325TMC3     H 4885   4.374   2.255  13.795  0.0722  0.3534 -1.4528
  325TMC3    H1 4886   4.286   2.591  14.031  0.4136 -3.1535  1.5291
  325TMC3    H2 4887   4.014   2.470  13.714 -0.3419 -0.2744  0.1320
  325TMC3    C7 4888   4.058   2.663  13.895 -0.6578 -0.1005 -0.5313
  325TMC3    C8 4889   4.133   2.236  13.673 -0.1610  0.2692  0.1876
  325TMC3    O1 4890   3.979   2.695  13.808 -0.4322 -0.0028 -0.0710
  325TMC3    O2 4891   4.206   2.160  13.608 -0.0119  0.1228 -0.6838
  326MPD2     C 4892   1.169   3.769  10.915 -0.2159  0.0491 -0.0278
  326MPD2    C1 4893   1.176   3.712  10.789  0.3888 -0.8444  0.6242
  326MPD2    C2 4894   1.302   3.717  10.729  0.1981  0.8400  0.5456
  326MPD2    C3 4895   1.402   3.794  10.786  0.0153  0.2664 -0.0032
  326MPD2    C4 4896   1.391   3.855  10.914  0.2478  0.2180  0.0876
  326MPD2    C5 4897   1.267   3.840  10.970 -0.3911  0.4054 -0.1949
  326MPD2     H 4898   1.322   3.670  10.633 -1.4657 -0.1398  0.6810
  326MPD2    H1 4899   1.468   3.906  10.970  3.0536 -2.3323 -1.4501
  326MPD2    H2 4900   1.083   3.761  10.982 -0.1396  0.6459  0.1406
  326MPD2    H3 4901   1.264   3.868  11.074 -1.2653 -1.7873  0.3774
  326MPD2     N 4902   1.518   3.828  10.715 -0.2511  1.1596  0.2816
  326MPD2    H5 4903   1.585   3.891  10.758  1.1139 -1.0196  1.2874
  326MPD2    N1 4904   1.060   3.647  10.730  0.5918  0.1300  0.3228
  326MPD2    H7 4905   1.082   3.609  10.639 -0.4091 -0.7546  0.4512
  327TMC3    C1 4906   0.841   3.576  10.681  0.3739 -0.4974  1.1332
  327TMC3    C2 4907   0.714   3.616  10.668 -0.7474 -0.0809  0.3389
  327TMC3    C3 4908   0.610   3.531  10.653  0.2159 -0.4289  0.0546
  327TMC3    C4 4909   0.863   3.439  10.668  0.5722 -0.6050 -0.0552
  327TMC3    C5 4910   0.761   3.356  10.643  0.2552  0.7916  0.2490
  327TMC3    C6 4911   0.629   3.396  10.635  0.2669 -0.0638  0.2919
  327TMC3     C 4912   0.931   3.651  10.767 -0.9669  0.4456  0.0866
  327TMC3     O 4913   0.875   3.709  10.857 -0.4621 -0.2343  0.6911
  327TMC3     H 4914   0.692   3.717  10.702  1.0658  0.5183 -0.2964
  327TMC3    H1 4915   0.965   3.402  10.676  0.1087 -1.7243  0.8168
  327TMC3    H2 4916   0.555   3.334  10.586 -0.3148 -0.4972  1.7024
  327TMC3    C7 4917   0.777   3.218  10.660  0.0425  0.2326 -0.2261
  327TMC3    C8 4918   0.499   3.590  10.589  0.5576 -0.2482 -0.1935
  327TMC3    O1 4919   0.670   3.158  10.652 -0.2798 -0.1017 -0.6554
  327TMC3    O2 4920   0.517   3.660  10.490  0.5216 -0.1269 -0.2662
  328MPD2     C 4921   3.477   2.410  17.025  0.5580 -0.7753 -1.0065
  328MPD2    C1 4922   3.372   2.372  16.935  0.3621 -0.1651  0.6039
  328MPD2    C2 4923   3.277   2.471  16.899 -0.4541  0.3360 -0.4045
  328MPD2    C3 4924   3.303   2.609  16.937  0.4037 -0.3005 -0.1714
  328MPD2    C4 4925   3.412   2.641  17.014  0.4137 -0.3568  0.0385
  328MPD2    C5 4926   3.491   2.538  17.063 -0.0977 -0.0384 -0.0930
  328MPD2     H 4927   3.199   2.451  16.826  1.2423 -1.3929 -1.7387
  328MPD2    H1 4928   3.437   2.737  17.059 -0.6911  0.2772 -0.7070
  328MPD2    H2 4929   3.539   2.332  17.068  1.1222 -0.9594 -2.1206
  328MPD2    H3 4930   3.573   2.570  17.126 -0.9032  2.6501 -0.3923
  328MPD2     N 4931   3.206   2.714  16.916  0.6077  0.0261 -0.2667
  328MPD2    H5 4932   3.225   2.806  16.954  1.4131  0.2691 -1.2663
  328MPD2    N1 4933   3.364   2.241  16.890 -0.6646 -0.4943  0.1295
  328MPD2    H7 4934   3.434   2.178  16.930  0.2050 -0.3389 -1.1278
  329TMC3    C1 4935   3.232   2.055  16.825 -0.2045 -0.2620 -1.0756
  329TMC3    C2 4936   3.094   2.035  16.825 -0.1079 -0.8174 -0.2726
  329TMC3    C3 4937   3.047   1.954  16.922 -0.1262 -0.2803 -0.0565
  329TMC3    C4 4938   3.319   1.979  16.904 -0.1495 -0.2423  0.3414
  329TMC3    C5 4939   3.262   1.879  16.979 -0.8094 -0.0982  0.4291
  329TMC3    C6 4940   3.127   1.878  17.004 -0.2308  0.0667 -0.4082
  329TMC3     C 4941   3.280   2.189  16.791  0.1931  0.2431  0.0880
  329TMC3     O 4942   3.216   2.257  16.711 -0.0107 -0.1535  0.4416
  329TMC3     H 4943   3.022   2.094  16.769  1.2695 -0.4707 -1.6768
  329TMC3    H1 4944   3.427   1.990  16.901 -0.1597 -0.3176 -0.2799
  329TMC3    H2 4945   3.070   1.806  17.061  0.3330  0.4230  0.6039
  329TMC3    C7 4946   3.348   1.788  17.051 -0.1866 -0.5518  0.1973
  329TMC3    C8 4947   2.920   1.994  16.971  1.0269  0.2286  0.2309
  329TMC3    O1 4948   3.453   1.744  17.003 -0.4247 -0.2080 -1.1041
  329TMC3    O2 4949   2.844   2.045  16.887  0.3653 -0.0425 -0.7142
  330TMC3    C1 4950   1.203   2.306   9.346 -0.5620 -0.1449 -0.3431
  330TMC3    C2 4951   1.217   2.186   9.402 -0.2358  0.0704 -0.0100
  330TMC3    C3 4952   1.251   2.077   9.318 -0.2880 -0.0567 -0.0782
  330TMC3    C4 4953   1.234   2.333   9.214  0.5177  0.2301 -0.0178
  330TMC3    C5 4954   1.255   2.227   9.131 -0.2889  0.1022  0.2314
  330TMC3    C6 4955   1.280   2.100   9.184 -0.4033 -0.1010 -0.2679
  330TMC3     C 4956   1.171   2.416   9.434 -0.4400 -0.8769  0.4029
  330TMC3     O 4957   1.179   2.396   9.554  0.3446  0.1735  0.1451
  330TMC3     H 4958   1.217   2.171   9.510 -1.4685 -0.3074 -0.0587
  330TMC3    H1 4959   1.220   2.430   9.169  1.2323 -1.2940 -3.4825
  330TMC3    H2 4960   1.300   2.017   9.117  2.0392  0.9661 -0.8762
  330TMC3    C7 4961   1.318   2.255   8.999 -0.4917 -0.3678  0.1308
  330TMC3    C8 4962   1.286   1.944   9.359 -0.3318  0.3497 -0.0869
  330TMC3    O1 4963   1.400   2.175   8.966  0.4145  0.2166  0.3296
  330TMC3    O2 4964   1.362   1.881   9.288  0.5188  0.5490  0.4176
  331MPD2     C 4965   3.743   1.662  12.444 -0.4202 -0.0878 -0.1713
  331MPD2    C1 4966   3.849   1.696  12.372 -0.2477  0.4174 -0.2485
  331MPD2    C2 4967   3.944   1.603  12.341 -0.2691  0.2152  0.6298
  331MPD2    C3 4968   3.942   1.473  12.392  0.4714  0.2597 -0.0107
  331MPD2    C4 4969   3.833   1.432  12.462 -0.1092 -0.6973  0.3336
  331MPD2    C5 4970   3.738   1.535  12.490 -0.2816 -0.7671  0.0319
  331MPD2     H 4971   4.024   1.637  12.276 -2.7725 -0.0727 -2.5990
  331MPD2    H1 4972   3.819   1.334  12.508  0.5671 -1.4777 -1.1435
  331MPD2    H2 4973   3.660   1.728  12.469 -1.2160 -1.2627  0.3058
  331MPD2    H3 4974   3.649   1.511  12.549 -1.2595 -2.0764 -1.9806
  331MPD2     N 4975   4.044   1.379  12.347  0.1883  0.6452 -0.0431
  331MPD2    H5 4976   4.113   1.414  12.281  2.0215  0.8537  1.9799
  331MPD2    N1 4977   3.861   1.832  12.339 -0.6841 -0.2728 -0.8247
  331MPD2    H7 4978   3.794   1.890  12.389  0.4979  0.6709 -0.3283
  332TMC3    C1 4979   4.167   1.184  12.312  0.4629 -0.2390  0.3846
  332TMC3    C2 4980   4.179   1.215  12.184  0.8789  0.3625 -0.0675
  332TMC3    C3 4981   4.252   1.123  12.112  0.5929  0.3324  0.3395
  332TMC3    C4 4982   4.219   1.074  12.366 -0.0493 -0.6670 -0.5515
  332TMC3    C5 4983   4.288   0.985  12.293  0.1463  0.1498  0.0594
  332TMC3    C6 4984   4.311   1.009  12.161 -0.2150  0.3071  0.0462
  332TMC3     C 4985   4.063   1.251  12.395 -0.6962 -0.0192 -0.5604
  332TMC3     O 4986   3.994   1.181  12.468 -0.5880 -0.0571  1.0490
  332TMC3     H 4987   4.131   1.299  12.136  0.4503 -0.2612 -0.7264
  332TMC3    H1 4988   4.221   1.058  12.473  1.4429  1.2212 -0.3058
  332TMC3    H2 4989   4.396   0.970  12.106  0.7491 -0.6251  2.1894
  332TMC3    C7 4990   4.387   0.912  12.368  0.2296  0.3447 -0.0546
  332TMC3    C8 4991   4.292   1.161  11.975  0.4502  0.3440  0.4609
  332TMC3    O1 4992   4.353   0.838  12.465  0.1420 -0.2496 -0.5207
  332TMC3    O2 4993   4.336   1.070  11.904 -0.0544  1.0651  0.2631
  333MPD2     C 4994   4.415   1.818  11.014  0.3951  0.1887  0.1170
  333MPD2    C1 4995   4.484   1.729  10.939 -0.3003 -0.1456  0.0122
  333MPD2    C2 4996   4.473   1.591  10.973 -0.9690 -0.3737 -1.0977
  333MPD2    C3 4997   4.390   1.557  11.086 -0.6462  0.3483 -1.2743
  333MPD2    C4 4998   4.322   1.654  11.159  0.1950 -0.3880 -0.2126
  333MPD2    C5 4999   4.339   1.782  11.121  0.8378 -0.0899 -0.0099
  333MPD2     H 5000   4.531   1.513  10.926  1.2251  0.1784  0.6930
  333MPD2    H1 5001   4.252   1.636  11.240  0.4549 -0.7195 -0.0604
  333MPD2    H2 5002   4.412   1.925  10.997  1.5873  0.3302  0.8622
  333MPD2    H3 5003   4.293   1.859  11.182  0.9516  0.7650 -0.9991
  333MPD2     N 5004   4.371   1.420  11.121 -0.7115 -0.0833  0.6418
  333MPD2    H5 5005   4.430   1.352  11.075 -2.0507 -1.0329  0.3377
  333MPD2    N1 5006   4.543   1.788  10.825  0.5629 -0.4068 -0.0953
  333MPD2    H7 5007   4.527   1.887  10.805 -0.8089 -0.8943 -1.3957
  334TMC3    C1 5008   4.672   1.779  10.614 -0.4719  0.0023  0.4698
  334TMC3    C2 5009   0.059   1.732  10.548 -0.5983  0.1509  0.3753
  334TMC3    C3 5010   0.115   1.811  10.457  0.3048  0.4876  0.3570
  334TMC3    C4 5011   4.634   1.911  10.589 -0.0881 -0.2702 -0.3141
  334TMC3    C5 5012   4.685   1.985  10.490  0.4150  0.2233  0.4224
  334TMC3    C6 5013   0.072   1.938  10.419  0.0625  0.0704 -0.3267
  334TMC3     C 5014   4.630   1.713  10.736  0.8200 -0.1737 -0.5715
  334TMC3     O 5015   4.679   1.604  10.747  0.2111 -0.3841  0.3012
  334TMC3     H 5016   0.098   1.630  10.552  1.8106  1.0527  0.2239
  334TMC3    H1 5017   4.543   1.956  10.626 -0.2864  1.2696 -2.6696
  334TMC3    H2 5018   0.107   1.985  10.328  1.1394 -0.3856 -0.1416
  334TMC3    C7 5019   4.632   2.115  10.460 -0.4062  0.3664 -0.2674
  334TMC3    C8 5020   0.239   1.770  10.389 -0.0223  0.3899 -0.8911
  334TMC3    O1 5021   4.550   2.166  10.541  0.2472  0.1091 -0.2762
  334TMC3    O2 5022   0.272   1.656  10.399  0.1640 -0.9107 -0.1799
  335TMC3    C1 5023   4.193   3.047  17.242 -0.7029  0.1759  0.0526
  335TMC3    C2 5024   4.085   2.960  17.220 -0.7552 -0.5879 -1.0386
  335TMC3    C3 5025   4.110   2.826  17.186 -0.8172 -0.6292  0.9019
  335TMC3    C4 5026   4.317   2.998  17.226 -0.0485  0.2911 -0.2255
  335TMC3    C5 5027   4.345   2.866  17.190 -0.5300 -0.3543 -0.0014
  335TMC3    C6 5028   4.241   2.779  17.169 -0.5818  0.1390 -0.6951
  335TMC3     C 5029   4.186   3.179  17.301  0.7500  0.0068 -0.6471
  335TMC3     O 5030   4.279   3.260  17.283 -0.1514  0.3185  0.5300
  335TMC3     H 5031   3.982   2.993  17.222 -0.3793  0.4923  2.2227
  335TMC3    H1 5032   4.397   3.065  17.256  1.3293 -1.1161 -0.7682
  335TMC3    H2 5033   4.259   2.672  17.161 -1.6171 -0.1306  0.6807
  335TMC3    C7 5034   4.469   2.806  17.236  0.2652 -0.1071  0.0428
  335TMC3    C8 5035   4.006   2.759  17.122 -0.3793 -0.0509 -0.1915
  335TMC3    O1 5036   4.469   2.684  17.243 -0.2047  0.1361  0.5552
  335TMC3    O2 5037   3.931   2.828  17.060  0.4529 -0.1218  0.7350
  336MPD2     C 5038   4.083   0.834  16.139 -0.6337  0.6346 -0.4752
  336MPD2    C1 5039   4.056   0.762  16.021  0.7496  0.1967 -0.5697
  336MPD2    C2 5040   4.107   0.637  16.009  0.3940  0.6924  0.2907
  336MPD2    C3 5041   4.198   0.593  16.101 -0.2656  0.6931  0.3021
  336MPD2    C4 5042   4.229   0.664  16.214 -1.3574  0.3861  0.2700
  336MPD2    C5 5043   4.163   0.781  16.232  0.0560  0.1503 -0.1730
  336MPD2     H 5044   4.093   0.586  15.914  1.2480  1.6028 -0.3281
  336MPD2    H1 5045   4.286   0.617  16.294 -0.1788 -0.4604 -1.0612
  336MPD2    H2 5046   4.033   0.927  16.162 -1.1281  0.1216  0.5087
  336MPD2    H3 5047   4.173   0.842  16.322  0.4539 -0.4100  0.1583
  336MPD2     N 5048   4.258   0.466  16.092  0.0099  0.0962 -0.7371
  336MPD2    H5 5049   4.297   0.428  16.177  0.9256  2.1134 -0.2659
  336MPD2    N1 5050   3.975   0.814  15.925 -0.3112  0.1162  0.2012
  336MPD2    H7 5051   3.938   0.747  15.858  1.5331  0.0351 -0.7650
  337TMC3    C1 5052   3.830   0.965  15.814  0.1603  0.1472  0.0636
  337TMC3    C2 5053   3.717   0.883  15.822  0.2534  0.1350 -0.4833
  337TMC3    C3 5054   3.594   0.936  15.790  0.3873 -0.5668  0.0202
  337TMC3    C4 5055   3.826   1.096  15.761 -0.2262  0.2844 -1.0684
  337TMC3    C5 5056   3.700   1.140  15.724  0.6472 -0.8636  0.4313
  337TMC3    C6 5057   3.590   1.060  15.736 -0.2644 -0.1819 -0.1590
  337TMC3     C 5058   3.939   0.947  15.912 -0.0465  0.8128 -0.3433
  337TMC3     O 5059   3.982   1.043  15.973  0.6927 -0.7332  0.3587
  337TMC3     H 5060   3.732   0.788  15.871 -1.3473  1.5357  2.7606
  337TMC3    H1 5061   3.905   1.169  15.757  1.0365 -0.9227  1.8101
  337TMC3    H2 5062   3.495   1.107  15.711  0.5862  1.5331 -0.1979
  337TMC3    C7 5063   3.715   1.210  15.593 -0.4741 -0.0140 -0.3671
  337TMC3    C8 5064   3.475   0.870  15.833 -0.6639 -0.2299 -0.3419
  337TMC3    O1 5065   3.803   1.167  15.520  0.9518 -0.0939 -0.0340
  337TMC3    O2 5066   3.487   0.780  15.911 -0.0099 -0.3691 -0.1339
  338MPD2     C 5067   0.294   0.159   0.503 -0.1725  0.2190 -0.3986
  338MPD2    C1 5068   0.209   0.051   0.517  0.6056  0.7850 -0.4568
  338MPD2    C2 5069   0.152   0.029   0.639 -0.2575 -0.2279 -0.2677
  338MPD2    C3 5070   0.176   0.114   0.746 -0.6493  0.1124 -0.0183
  338MPD2    C4 5071   0.261   0.222   0.738 -0.5965  0.1805 -0.7217
  338MPD2    C5 5072   0.329   0.236   0.613 -0.0905 -0.3776  0.6224
  338MPD2     H 5073   0.068   4.685   0.645 -0.8199  0.7027  2.1007
  338MPD2    H1 5074   0.286   0.286   0.821 -0.0171 -1.1901  0.1697
  338MPD2    H2 5075   0.339   0.183   0.407  0.0047 -1.7482 -0.8246
  338MPD2    H3 5076   0.380   0.330   0.596  0.8912 -0.7758  1.3841
  338MPD2     N 5077   0.109   0.076   0.869  0.2569 -0.3944  0.3627
  338MPD2    H5 5078   0.038   0.004   0.865 -1.9196  1.7673 -0.1729
  338MPD2    N1 5079   0.158   4.699   0.411 -1.0984 -0.0356  0.3454
  338MPD2    H7 5080   0.096   4.621   0.433  1.2198 -1.9410  0.1573
  339TMC3    C1 5081   4.713   0.140   1.055 -0.2095 -0.0270  0.3508
  339TMC3    C2 5082   4.710   0.214   1.167  0.2781  0.2072  0.1016
  339TMC3    C3 5083   4.586   0.257   1.223  0.2654  0.4011 -0.3181
  339TMC3    C4 5084   4.598   0.113   0.988  0.4841 -0.1863  0.1094
  339TMC3    C5 5085   4.479   0.149   1.045  0.6291 -0.7117 -0.3207
  339TMC3    C6 5086   4.471   0.222   1.160 -0.1421 -0.4793  0.3653
  339TMC3     C 5087   0.118   0.150   0.982  0.1585 -0.1969  0.3303
  339TMC3     O 5088   0.188   0.241   1.015 -0.4217  0.2209  0.3525
  339TMC3     H 5089   0.079   0.232   1.221  0.6006  1.1776 -0.7903
  339TMC3    H1 5090   4.585   0.058   0.896 -0.3266  0.2762 -0.0517
  339TMC3    H2 5091   4.381   0.281   1.175  0.1534  0.6967 -2.5104
  339TMC3    C7 5092   4.364   0.137   0.959  0.1757 -0.4407  0.0820
  339TMC3    C8 5093   4.585   0.303   1.362  0.2071 -0.2991 -0.3285
  339TMC3    O1 5094   4.387   0.118   0.838  0.3559  0.3322  0.0545
  339TMC3    O2 5095   4.693   0.316   1.413 -0.5824  0.0992  0.0690
  340MPD2     C 5096   4.022   2.495   9.670 -0.1423 -0.6397 -0.6710
  340MPD2    C1 5097   4.103   2.607   9.647 -0.3930  0.3837 -0.2709
  340MPD2    C2 5098   4.230   2.615   9.703 -0.2322 -0.1599 -0.5201
  340MPD2    C3 5099   4.281   2.507   9.779  0.3116 -0.3649 -0.5448
  340MPD2    C4 5100   4.200   2.395   9.797 -0.0557 -0.0163  0.4251
  340MPD2    C5 5101   4.073   2.383   9.739  0.3703  0.1231 -0.5832
  340MPD2     H 5102   4.289   2.705   9.688  0.4157 -0.6835 -1.1425
  340MPD2    H1 5103   4.231   2.301   9.841 -0.2879 -0.0348  0.5439
  340MPD2    H2 5104   3.924   2.472   9.631 -0.8072 -0.3700  0.8647
  340MPD2    H3 5105   4.020   2.289   9.746 -0.1485  0.3619 -1.2693
  340MPD2     N 5106   4.415   2.498   9.819 -0.3321 -0.2049  0.1577
  340MPD2    H5 5107   4.439   2.417   9.875  0.8520 -1.6093 -2.4328
  340MPD2    N1 5108   4.046   2.716   9.573 -0.2993  0.0258 -0.1144
  340MPD2    H7 5109   3.974   2.689   9.507  0.3307  2.3975 -1.7445
  341TMC3    C1 5110   4.077   2.910   9.458 -0.7148 -0.3267  0.3343
  341TMC3    C2 5111   3.954   2.900   9.397 -0.0919  0.2253 -0.4799
  341TMC3    C3 5112   3.939   2.966   9.274  0.6881  0.2541  1.2379
  341TMC3    C4 5113   4.182   2.970   9.412 -0.1311 -0.7408  0.6513
  341TMC3    C5 5114   4.172   3.013   9.284  0.1705 -0.1228  0.1466
  341TMC3    C6 5115   4.053   3.018   9.218 -0.0510 -0.6762  0.5935
  341TMC3     C 5116   4.105   2.838   9.573  0.2554  0.2742 -0.1919
  341TMC3     O 5117   4.178   2.897   9.652 -0.0774  0.0140 -0.0542
  341TMC3     H 5118   3.859   2.867   9.438  0.5258  1.8930  2.2844
  341TMC3    H1 5119   4.275   2.980   9.466 -0.3759 -0.1895  0.9712
  341TMC3    H2 5120   4.048   3.013   9.110  0.4943  0.4499  0.5219
  341TMC3    C7 5121   4.301   3.025   9.219  0.1213 -0.4573 -0.2660
  341TMC3    C8 5122   3.838   2.914   9.189 -0.0169  0.2804 -0.3272
  341TMC3    O1 5123   4.387   2.947   9.255  0.5409  0.5922  0.2862
  341TMC3    O2 5124   3.826   2.795   9.202 -0.1427 -0.3828  0.3223
  342MPD2     C 5125   2.909   0.806  17.313  0.8046  0.0226  0.9226
  342MPD2    C1 5126   2.779   0.769  17.275 -0.4858 -0.2004  0.0345
  342MPD2    C2 5127   2.676   0.834  17.340 -0.2967  0.5808  0.7724
  342MPD2    C3 5128   2.704   0.929  17.431 -0.4166 -0.3947 -0.4427
  342MPD2    C4 5129   2.833   0.966  17.457 -0.6854  0.9814  0.7724
  342MPD2    C5 5130   2.929   0.906  17.401 -0.0752 -0.4559 -0.7083
  342MPD2     H 5131   2.573   0.824  17.309 -0.7473  2.3265  1.7098
  342MPD2    H1 5132   2.850   1.044  17.530  1.6447  0.0203  1.2617
  342MPD2    H2 5133   2.998   0.754  17.280 -0.3545 -0.9169 -0.6921
  342MPD2    H3 5134   3.032   0.934  17.419 -0.8443  2.4153 -0.7946
  342MPD2     N 5135   2.612   0.991  17.517 -0.4420  0.0791  0.5829
  342MPD2    H5 5136   2.653   1.063  17.575  1.9711  1.5746 -2.9320
  342MPD2    N1 5137   2.744   0.668  17.185  0.0419 -0.1630 -0.6455
  342MPD2    H7 5138   2.646   0.644  17.173 -0.0177 -1.2687  2.1131
  343TMC3    C1 5139   2.784   0.500  17.015  0.0587 -0.1435  1.1025
  343TMC3    C2 5140   2.874   0.446  16.925  0.9037 -0.4170  0.3633
  343TMC3    C3 5141   2.846   0.327  16.871  0.8425 -0.3298  0.1176
  343TMC3    C4 5142   2.668   0.436  17.064 -0.0248 -0.0658 -0.2717
  343TMC3    C5 5143   2.652   0.315  17.003  0.2698 -0.6198 -0.0930
  343TMC3    C6 5144   2.735   0.261  16.906 -0.9953  0.2099  0.5282
  343TMC3     C 5145   2.836   0.605  17.103  0.2582  0.7695  0.8073
  343TMC3     O 5146   2.959   0.608  17.096 -0.2299  0.6684 -0.3980
  343TMC3     H 5147   2.965   0.500  16.901  1.7424 -1.6656  0.7952
  343TMC3    H1 5148   2.596   0.476  17.134  0.4618  0.2760  0.0294
  343TMC3    H2 5149   2.725   0.162  16.863  0.6808  0.2794 -0.0115
  343TMC3    C7 5150   2.537   0.233  17.048  0.0226  0.6812  0.8591
  343TMC3    C8 5151   2.958   0.246  16.829 -0.5523 -0.1127  0.0590
  343TMC3    O1 5152   2.505   0.141  16.970  1.1001 -0.3360 -0.1016
  343TMC3    O2 5153   3.041   0.298  16.753  0.0698 -1.0943  0.0452
  344MPD2     C 5154   3.072   1.231  10.591 -0.3153 -0.2833 -0.6519
  344MPD2    C1 5155   3.078   1.133  10.495  0.3901 -0.0466 -0.2190
  344MPD2    C2 5156   3.104   1.166  10.363  0.1941  0.1876  0.1182
  344MPD2    C3 5157   3.130   1.294  10.328 -0.8160 -0.5685  0.4256
  344MPD2    C4 5158   3.131   1.389  10.423 -0.1846  0.5546 -0.2193
  344MPD2    C5 5159   3.106   1.355  10.554  0.5188 -0.1508 -0.9555
  344MPD2     H 5160   3.111   1.082  10.294 -0.8769  0.1657  0.0422
  344MPD2    H1 5161   3.167   1.489  10.405 -0.0760  0.3391 -1.1953
  344MPD2    H2 5162   3.060   1.213  10.698 -1.4345 -0.3951 -0.7939
  344MPD2    H3 5163   3.108   1.430  10.633  0.0920 -0.0177 -1.0709
  344MPD2     N 5164   3.187   1.334  10.202 -0.4532 -0.8670 -0.1813
  344MPD2    H5 5165   3.214   1.431  10.196 -0.3036 -0.8827  0.2299
  344MPD2    N1 5166   3.080   0.994  10.525 -0.2439 -0.1515  0.2026
  344MPD2    H7 5167   3.092   0.923  10.454 -1.7098 -1.5835  1.3846
  345TMC3    C1 5168   3.276   1.326   9.982  1.0599 -0.3505  0.3001
  345TMC3    C2 5169   3.393   1.274   9.936  0.1503  0.5608  0.0455
  345TMC3    C3 5170   3.474   1.345   9.856 -0.3069  0.4182 -0.8490
  345TMC3    C4 5171   3.228   1.447   9.930  0.1022  0.0164 -0.2550
  345TMC3    C5 5172   3.318   1.515   9.856  0.2165  0.7178 -0.1606
  345TMC3    C6 5173   3.440   1.470   9.816  0.4279  0.2502  0.1694
  345TMC3     C 5174   3.204   1.254  10.086  0.5308  0.2604 -0.2176
  345TMC3     O 5175   3.220   1.131  10.088  0.0805 -0.0196 -0.2040
  345TMC3     H 5176   3.441   1.189   9.982 -0.4528 -0.7990 -1.8183
  345TMC3    H1 5177   3.127   1.484   9.945  0.4804  0.8207  0.2646
  345TMC3    H2 5178   3.516   1.533   9.770  0.2773  0.2115 -0.1358
  345TMC3    C7 5179   3.274   1.631   9.786 -0.1642  0.3989 -0.6428
  345TMC3    C8 5180   3.614   1.331   9.897 -0.9330 -0.2687  0.9757
  345TMC3    O1 5181   3.363   1.714   9.768  0.2959 -0.8119 -0.1305
  345TMC3    O2 5182   3.630   1.289  10.012 -0.1534  0.2196  0.0553
  346MPD2     C 5183   2.898   2.683  14.348 -0.4119  0.3722  0.9201
  346MPD2    C1 5184   3.001   2.664  14.258 -0.1691  0.1256 -0.1226
  346MPD2    C2 5185   3.128   2.679  14.312  0.9239 -1.2521 -0.8858
  346MPD2    C3 5186   3.145   2.719  14.441  0.1469  0.8981 -1.0422
  346MPD2    C4 5187   3.043   2.743  14.531  0.1757  0.3518 -0.1778
  346MPD2    C5 5188   2.920   2.720  14.479  0.7976 -0.2411 -0.0479
  346MPD2     H 5189   3.214   2.640  14.258  0.6741 -0.6830 -1.6732
  346MPD2    H1 5190   3.056   2.783  14.631 -0.2355  1.1004 -0.4262
  346MPD2    H2 5191   2.796   2.653  14.326 -0.4425  0.3810  1.0514
  346MPD2    H3 5192   2.830   2.743  14.536 -0.1804 -0.6102 -1.4295
  346MPD2     N 5193   3.276   2.731  14.482  0.0275 -0.3130 -0.0564
  346MPD2    H5 5194   3.342   2.694  14.415 -2.9061  0.0991 -3.1696
  346MPD2    N1 5195   2.982   2.620  14.123 -1.1721  0.4131  0.8806
  346MPD2    H7 5196   3.071   2.611  14.075 -2.0083 -0.4062 -0.4952
  347TMC3    C1 5197   3.457   2.756  14.623 -0.0664 -0.2515 -0.0107
  347TMC3    C2 5198   3.559   2.778  14.530  0.0503 -0.0822  0.1729
  347TMC3    C3 5199   3.679   2.738  14.574 -0.1499 -0.0962  0.1159
  347TMC3    C4 5200   3.478   2.711  14.751 -0.5010  0.6598 -0.4576
  347TMC3    C5 5201   3.604   2.684  14.792 -0.3386 -0.2476 -0.8250
  347TMC3    C6 5202   3.709   2.699  14.701  0.6352 -0.8100  0.0873
  347TMC3     C 5203   3.320   2.794  14.597 -0.1524  0.0801 -0.0349
  347TMC3     O 5204   3.261   2.852  14.688  0.0956 -0.1912 -0.4129
  347TMC3     H 5205   3.539   2.802  14.426  1.4846 -0.6477 -0.2298
  347TMC3    H1 5206   3.393   2.695  14.816 -0.1183  0.5715  0.0211
  347TMC3    H2 5207   3.810   2.667  14.721  0.9107 -0.1863 -0.3148
  347TMC3    C7 5208   3.640   2.645  14.931 -0.3393 -0.2039  0.4843
  347TMC3    C8 5209   3.779   2.738  14.474 -0.0672  0.1398  0.4693
  347TMC3    O1 5210   3.546   2.604  14.997 -0.6325  0.1410  0.4429
  347TMC3    O2 5211   3.866   2.652  14.482 -0.4296 -0.3576 -0.3476
  348MPD2     C 5212   1.783   2.286  12.050 -0.1486 -0.1054 -0.6151
  348MPD2    C1 5213   1.907   2.319  11.993 -0.1017 -0.2384 -0.8441
  348MPD2    C2 5214   1.915   2.361  11.864  1.2802  0.2722 -0.8139
  348MPD2    C3 5215   1.807   2.358  11.782  0.1566 -0.1376 -0.0175
  348MPD2    C4 5216   1.685   2.315  11.837 -0.4735  0.5445 -0.4380
  348MPD2    C5 5217   1.671   2.296  11.971  0.5573  0.0048  1.0693
  348MPD2     H 5218   2.008   2.398  11.821  1.9024 -0.1802  0.1412
  348MPD2    H1 5219   1.594   2.308  11.778  0.5848  0.7350 -2.0774
  348MPD2    H2 5220   1.769   2.267  12.156 -0.7002  0.0836 -0.6542
  348MPD2    H3 5221   1.577   2.271  12.020  0.0063  0.3282  0.1671
  348MPD2     N 5222   1.824   2.393  11.649 -0.2088  0.3156  0.0872
  348MPD2    H5 5223   1.905   2.451  11.627 -2.6773  3.0829 -1.7533
  348MPD2    N1 5224   2.031   2.296  12.055 -0.3581  0.3057  1.0179
  348MPD2    H7 5225   2.112   2.335  12.007  0.4630 -2.8142 -0.1720
  349TMC3    C1 5226   2.184   2.178  12.192 -0.1136 -0.8525  0.3095
  349TMC3    C2 5227   2.208   2.045  12.210 -0.0220 -1.1950  0.5201
  349TMC3    C3 5228   2.304   1.980  12.142 -0.1477 -0.1407  0.0762
  349TMC3    C4 5229   2.264   2.249  12.115  0.2449 -0.1145  0.0561
  349TMC3    C5 5230   2.357   2.182  12.039  1.1010  0.4858 -0.0392
  349TMC3    C6 5231   2.381   2.047  12.051 -0.1907 -0.5406  0.0567
  349TMC3     C 5232   2.046   2.212  12.166  0.0461 -0.1111  0.1884
  349TMC3     O 5233   1.966   2.156  12.238  0.4546 -0.8876  0.2520
  349TMC3     H 5234   2.138   1.981  12.264  0.9968 -1.0073  2.0655
  349TMC3    H1 5235   2.261   2.357  12.116 -1.1861 -0.1464 -0.4186
  349TMC3    H2 5236   2.467   2.005  11.999 -1.3270 -1.3690 -1.1665
  349TMC3    C7 5237   2.363   2.242  11.907  0.2421  0.5311  0.0233
  349TMC3    C8 5238   2.314   1.829  12.152 -0.3667  0.2395  0.5159
  349TMC3    O1 5239   2.407   2.355  11.891 -0.1200 -0.4043 -0.0931
  349TMC3    O2 5240   2.242   1.780  12.235  0.0456  0.4368  0.2363
  350MPD2     C 5241   0.440   0.572   9.902  0.0516 -0.5376 -0.1841
  350MPD2    C1 5242   0.505   0.454   9.904 -0.1177  0.3270  0.1740
  350MPD2    C2 5243   0.641   0.458   9.887  0.3885 -0.5731  0.5403
  350MPD2    C3 5244   0.713   0.576   9.867 -0.5508  0.2542 -0.0078
  350MPD2    C4 5245   0.645   0.689   9.883 -0.1110 -0.2635 -0.5960
  350MPD2    C5 5246   0.512   0.687   9.893  0.2290  0.0620  0.0587
  350MPD2     H 5247   0.698   0.366   9.875 -2.3631 -2.2231  0.2718
  350MPD2    H1 5248   0.689   0.788   9.879 -1.5327  0.3963  0.2373
  350MPD2    H2 5249   0.334   0.591   9.917  0.4820  1.6736  0.0223
  350MPD2    H3 5250   0.465   0.784   9.900  1.9574  0.7797  1.5797
  350MPD2     N 5251   0.855   0.566   9.858  0.0594  0.3320 -0.4024
  350MPD2    H5 5252   0.894   0.475   9.835  1.5393  1.0127 -0.6007
  350MPD2    N1 5253   0.442   0.333   9.937  0.1225  0.1734 -0.1228
  350MPD2    H7 5254   0.503   0.253   9.948 -0.2623 -0.0791  0.1662
  351TMC3    C1 5255   0.272   0.172   9.993 -0.2823 -0.7537  0.3775
  351TMC3    C2 5256   0.362   0.067   9.956 -0.6586 -0.2362 -0.3646
  351TMC3    C3 5257   0.330   4.665   9.999  0.0501  0.2544  0.4403
  351TMC3    C4 5258   0.162   0.152  10.069 -0.9772  0.7286 -0.4935
  351TMC3    C5 5259   0.131   0.024  10.099 -0.1909 -0.1985  0.0868
  351TMC3    C6 5260   0.218   4.641  10.074 -0.5100 -0.2624 -0.0202
  351TMC3     C 5261   0.305   0.312   9.959 -0.0089  0.2155  0.6463
  351TMC3     O 5262   0.214   0.393   9.940 -0.4087 -0.2167 -0.1020
  351TMC3     H 5263   0.447   0.089   9.892 -0.9271 -0.0036 -0.6412
  351TMC3    H1 5264   0.092   0.229  10.098  0.2388  1.8075 -0.4513
  351TMC3    H2 5265   0.183   4.539  10.087 -0.6261 -0.4948 -2.1391
  351TMC3    C7 5266   0.019   0.012  10.183  0.9276 -0.2130  0.4932
  351TMC3    C8 5267   0.402   4.554   9.945 -0.1074 -0.3677  0.8022
  351TMC3    O1 5268   4.651   0.099  10.177  0.2443  0.2096  0.4873
  351TMC3    O2 5269   0.470   4.573   9.844 -0.7737  0.1889  0.0148
  352MPD2     C 5270   3.517   1.624   1.708  0.2638  0.6385  0.1857
  352MPD2    C1 5271   3.583   1.582   1.596  0.0559  0.1214  0.1693
  352MPD2    C2 5272   3.618   1.449   1.585  0.0435  0.2071 -0.4970
  352MPD2    C3 5273   3.595   1.363   1.697  0.2656 -0.4577  0.1408
  352MPD2    C4 5274   3.547   1.410   1.812 -0.6719  0.4353  0.0871
  352MPD2    C5 5275   3.504   1.539   1.814 -0.1789 -0.2686 -0.2041
  352MPD2     H 5276   3.662   1.413   1.492  0.2972  1.9525 -1.0467
  352MPD2    H1 5277   3.516   1.346   1.894  0.5821  1.2563  1.2072
  352MPD2    H2 5278   3.474   1.722   1.721  0.4067  0.1727  3.9470
  352MPD2    H3 5279   3.444   1.578   1.896 -0.1545 -0.7095  0.0252
  352MPD2     N 5280   3.639   1.232   1.690 -0.9961  0.0737 -0.4861
  352MPD2    H5 5281   3.632   1.184   1.779  0.6075 -1.5618 -1.2409
  352MPD2    N1 5282   3.604   1.675   1.489  0.3459 -0.4734  0.0407
  352MPD2    H7 5283   3.637   1.629   1.405  2.9953 -0.5430  1.1258
  353TMC3    C1 5284   3.675   1.023   1.608 -0.1505 -0.0923 -0.0557
  353TMC3    C2 5285   3.771   1.005   1.699  0.2231 -0.2099 -0.1129
  353TMC3    C3 5286   3.841   0.891   1.684  0.5480  0.1382  0.3988
  353TMC3    C4 5287   3.645   0.937   1.502 -0.3404  0.6139 -0.0629
  353TMC3    C5 5288   3.716   0.824   1.498  1.0867  0.7570  0.1198
  353TMC3    C6 5289   3.816   0.802   1.578  0.3647  0.2554  0.0235
  353TMC3     C 5290   3.652   1.160   1.575 -0.0527  0.0885 -0.3781
  353TMC3     O 5291   3.629   1.189   1.459  0.5937  0.0622 -0.2047
  353TMC3     H 5292   3.793   1.083   1.771 -2.1797  0.8806 -0.5690
  353TMC3    H1 5293   3.573   0.975   1.430  0.2818  2.1018  0.1023
  353TMC3    H2 5294   3.877   0.713   1.563 -0.2013  0.2062 -1.9854
  353TMC3    C7 5295   3.719   0.759   1.365  0.0325  0.1477  0.5923
  353TMC3    C8 5296   3.963   0.873   1.766 -0.2198 -0.1953  0.1756
  353TMC3    O1 5297   3.822   0.713   1.324  0.2640 -0.8030  0.0191
  353TMC3    O2 5298   3.965   0.941   1.868  0.1524  0.1305  0.1529
  354TMC3    C1 5299   0.968   3.345  13.699  0.3259 -0.5206 -0.5106
  354TMC3    C2 5300   1.057   3.453  13.692 -0.1183  0.4328  0.3304
  354TMC3    C3 5301   1.132   3.485  13.586 -0.6986 -0.3953 -0.6862
  354TMC3    C4 5302   0.970   3.262  13.588 -0.0423 -0.4599 -0.0480
  354TMC3    C5 5303   1.058   3.287  13.483 -1.2496  0.3876  0.0256
  354TMC3    C6 5304   1.132   3.397  13.481 -0.1771  0.2852  0.0212
  354TMC3     C 5305   0.925   3.294  13.826 -0.1235 -0.3511 -0.3124
  354TMC3     O 5306   0.838   3.212  13.831  0.1921 -0.4027 -0.0909
  354TMC3     H 5307   1.059   3.528  13.770  0.1154 -0.2155  0.9421
  354TMC3    H1 5308   0.926   3.164  13.602 -0.2628 -0.5005 -1.0265
  354TMC3    H2 5309   1.191   3.416  13.392 -1.7925  0.1096 -1.0703
  354TMC3    C7 5310   1.070   3.181  13.384  0.1087  0.2299 -0.0383
  354TMC3    C8 5311   1.188   3.621  13.567 -1.1753  0.6545  0.5500
  354TMC3    O1 5312   1.049   3.072  13.436  0.3397 -0.2563  0.7124
  354TMC3    O2 5313   1.221   3.673  13.673 -0.2355  0.9063  0.0354
  355MPD2     C 5314   1.367   4.554  11.594 -0.0113  0.4006  0.0391
  355MPD2    C1 5315   1.455   4.503  11.502 -0.0466 -0.1862 -0.1017
  355MPD2    C2 5316   1.567   4.437  11.545 -0.1836  0.4446 -1.0572
  355MPD2    C3 5317   1.600   4.432  11.682  0.0989  0.2183  0.3009
  355MPD2    C4 5318   1.522   4.499  11.767 -0.4977 -0.0716 -0.3258
  355MPD2    C5 5319   1.407   4.550  11.723  0.5877  0.0776  0.3479
  355MPD2     H 5320   1.635   4.401  11.468  0.3726  1.7371 -1.1788
  355MPD2    H1 5321   1.547   4.510  11.871  0.1277 -2.6928 -0.2047
  355MPD2    H2 5322   1.269   4.595  11.573 -0.1564 -1.0569 -2.1066
  355MPD2    H3 5323   1.338   4.590  11.797  1.4373  1.9167  0.1400
  355MPD2     N 5324   1.711   4.368  11.741 -0.3018 -0.8488  0.1583
  355MPD2    H5 5325   1.732   4.390  11.838 -2.1973 -2.1250  0.8676
  355MPD2    N1 5326   1.428   4.520  11.364  0.1805 -0.2354  0.3250
  355MPD2    H7 5327   1.331   4.539  11.341  0.5079 -0.1059 -0.9308
  356TMC3    C1 5328   1.934   4.287  11.741 -0.2822  0.2034  0.4254
  356TMC3    C2 5329   2.037   4.291  11.648  0.2387  0.5416 -0.3589
  356TMC3    C3 5330   2.142   4.378  11.676  0.7422 -0.4521 -0.2957
  356TMC3    C4 5331   1.946   4.343  11.860 -0.8041 -0.1203  0.4544
  356TMC3    C5 5332   2.048   4.434  11.881 -0.3153 -0.4494  1.0749
  356TMC3    C6 5333   2.146   4.460  11.785  0.3442 -0.8333  0.4500
  356TMC3     C 5334   1.806   4.289  11.676 -0.4196 -0.2110  0.6707
  356TMC3     O 5335   1.798   4.247  11.560 -0.1746  0.7332  0.0998
  356TMC3     H 5336   2.033   4.232  11.556 -1.1903 -0.5097  0.3711
  356TMC3    H1 5337   1.880   4.322  11.943  1.2982  0.1420  2.1927
  356TMC3    H2 5338   2.233   4.524  11.794  0.0331 -0.1924 -1.2068
  356TMC3    C7 5339   2.037   4.508  12.001 -0.1677  0.6326  0.2915
  356TMC3    C8 5340   2.226   4.413  11.566  0.2986 -0.0800 -0.2024
  356TMC3    O1 5341   1.970   4.462  12.096 -0.3647 -0.3426  0.0309
  356TMC3    O2 5342   2.258   4.328  11.484 -0.1172 -0.5905  0.3208
  357MPD2     C 5343   1.214   2.905   1.340 -0.1161  0.6036  0.5628
  357MPD2    C1 5344   1.340   2.931   1.382  0.8088 -1.0807  0.3436
  357MPD2    C2 5345   1.370   2.944   1.520 -0.6089 -0.5073  0.6518
  357MPD2    C3 5346   1.268   2.912   1.615  0.2228  0.1076  0.1391
  357MPD2    C4 5347   1.145   2.876   1.569 -0.1332  0.9095  0.4130
  357MPD2    C5 5348   1.121   2.879   1.430 -0.9378  0.0223  0.1771
  357MPD2     H 5349   1.475   2.951   1.543 -0.4504  0.9361 -0.4687
  357MPD2    H1 5350   1.071   2.839   1.638  0.1873 -0.6747 -0.0929
  357MPD2    H2 5351   1.186   2.898   1.236 -4.1764 -0.3861  1.7029
  357MPD2    H3 5352   1.019   2.850   1.406 -1.3420  0.1203  1.7408
  357MPD2     N 5353   1.287   2.916   1.753  0.2766 -0.0154 -0.1697
  357MPD2    H5 5354   1.204   2.904   1.811  0.6202  0.1749  0.3633
  357MPD2    N1 5355   1.432   2.959   1.275 -0.1590  0.2491  0.0408
  357MPD2    H7 5356   1.397   2.940   1.182 -1.4540 -1.8961  0.9561
  358TMC3    C1 5357   1.638   3.037   1.174 -0.5685  0.1996 -0.0385
  358TMC3    C2 5358   1.579   3.038   1.051  0.4413 -0.1059  0.1933
  358TMC3    C3 5359   1.647   3.089   0.944 -0.8943  0.4217 -0.0768
  358TMC3    C4 5360   1.767   3.079   1.195  0.3603  0.5890 -0.1911
  358TMC3    C5 5361   1.838   3.125   1.084 -0.1154  0.2172  0.4594
  358TMC3    C6 5362   1.773   3.132   0.964  0.2657  0.0998  0.0334
  358TMC3     C 5363   1.560   2.995   1.291 -0.8303  0.3487 -0.2828
  358TMC3     O 5364   1.619   3.027   1.391 -0.0059 -0.2228  0.5752
  358TMC3     H 5365   1.472   3.025   1.043  0.5432 -2.7909  2.9215
  358TMC3    H1 5366   1.817   3.056   1.289 -1.4647 -0.1917  0.5873
  358TMC3    H2 5367   1.834   3.166   0.881 -0.8491 -1.5695 -1.4648
  358TMC3    C7 5368   1.980   3.158   1.081  0.2047 -0.1749 -0.2976
  358TMC3    C8 5369   1.597   3.089   0.806  0.3043  0.3428  0.1972
  358TMC3    O1 5370   2.039   3.163   0.978  0.1050 -0.6079 -0.0501
  358TMC3    O2 5371   1.672   3.147   0.728  0.0925  0.0708  0.2527
  359MPD2     C 5372   1.897   2.786  12.509 -0.5237  0.1879 -0.6218
  359MPD2    C1 5373   1.797   2.842  12.432  0.0824 -0.1732  0.0411
  359MPD2    C2 5374   1.674   2.782  12.430 -0.4741  0.2126 -0.9409
  359MPD2    C3 5375   1.643   2.664  12.494  0.4283 -0.4330  0.1663
  359MPD2    C4 5376   1.749   2.601  12.562 -0.1468  0.2398  0.3839
  359MPD2    C5 5377   1.863   2.670  12.578  1.3231  0.0460 -0.1140
  359MPD2     H 5378   1.595   2.832  12.375  0.6590  0.5703 -2.2245
  359MPD2    H1 5379   1.744   2.503  12.609  0.9547 -0.8565 -1.8039
  359MPD2    H2 5380   2.001   2.817  12.503 -0.3907 -0.3869 -1.2280
  359MPD2    H3 5381   1.936   2.629  12.648 -2.9399 -2.7925  2.6928
  359MPD2     N 5382   1.517   2.602  12.500 -0.0417 -0.0191 -0.3718
  359MPD2    H5 5383   1.515   2.514  12.549 -0.6526  1.0235  1.4829
  359MPD2    N1 5384   1.819   2.941  12.336  0.1691 -0.8789  0.6096
  359MPD2    H7 5385   1.742   2.963  12.274  0.5184  1.4309  0.9811
  360TMC3    C1 5386   1.957   3.057  12.191  0.3674 -0.5615  0.0548
  360TMC3    C2 5387   2.056   3.152  12.164  0.1108 -0.0554 -0.1244
  360TMC3    C3 5388   2.116   3.154  12.041 -0.4170 -0.3677 -0.6550
  360TMC3    C4 5389   1.923   2.967  12.092 -0.2060 -0.2157  0.0860
  360TMC3    C5 5390   1.982   2.980  11.968  0.6147  0.8099 -0.8840
  360TMC3    C6 5391   2.072   3.074  11.939  0.0585  0.2902 -0.0303
  360TMC3     C 5392   1.937   3.010  12.326  0.1111 -0.1744 -0.4308
  360TMC3     O 5393   2.030   3.019  12.407 -0.2014 -0.2017 -0.7629
  360TMC3     H 5394   2.097   3.213  12.243 -0.4792  0.9167 -0.5619
  360TMC3    H1 5395   1.852   2.885  12.104  0.1252 -0.5859 -0.5272
  360TMC3    H2 5396   2.102   3.081  11.835 -1.1668 -0.8453 -0.4682
  360TMC3    C7 5397   1.913   2.930  11.853 -0.1704 -0.2995 -0.1100
  360TMC3    C8 5398   2.174   3.281  11.985  0.3388 -0.6386 -0.3337
  360TMC3    O1 5399   1.955   2.966  11.746 -0.5243 -0.1460  0.3160
  360TMC3    O2 5400   2.136   3.393  12.025 -0.2776 -0.0552 -0.2710
  361MPD2     C 5401   3.069   1.625  16.679  0.0572 -0.2305  0.0442
  361MPD2    C1 5402   3.066   1.584  16.811 -0.4364  0.5120 -0.5487
  361MPD2    C2 5403   3.185   1.518  16.858  0.1676 -0.1259  0.1622
  361MPD2    C3 5404   3.309   1.506  16.790 -0.1339 -0.2090  0.4746
  361MPD2    C4 5405   3.304   1.559  16.665  0.0925 -0.0069 -0.5988
  361MPD2    C5 5406   3.190   1.617  16.615 -0.0503 -0.2370 -0.1906
  361MPD2     H 5407   3.175   1.479  16.959 -1.2233  0.9190  0.4163
  361MPD2    H1 5408   3.396   1.551  16.609  0.3859  0.6638 -0.2130
  361MPD2    H2 5409   2.985   1.678  16.637  1.1305  1.1244 -0.4160
  361MPD2    H3 5410   3.196   1.664  16.517  0.3197 -0.1157 -0.1061
  361MPD2     N 5411   3.415   1.435  16.842  0.5253  0.1686 -0.1805
  361MPD2    H5 5412   3.498   1.446  16.785  0.9143 -2.7047 -0.1351
  361MPD2    N1 5413   2.955   1.585  16.895 -0.5762 -0.4872  0.6610
  361MPD2    H7 5414   2.966   1.535  16.983 -0.7775  2.4356  2.3479
  362TMC3    C1 5415   2.720   1.611  16.952 -0.3215  0.7465  0.2671
  362TMC3    C2 5416   2.731   1.664  17.076 -0.2807 -0.5106  0.3862
  362TMC3    C3 5417   2.612   1.700  17.136  0.1126 -0.3561  0.0135
  362TMC3    C4 5418   2.608   1.625  16.882  0.2396  0.3280  1.0697
  362TMC3    C5 5419   2.492   1.670  16.944  0.0092 -0.3668 -0.4374
  362TMC3    C6 5420   2.495   1.710  17.074  0.0744  0.0250 -0.1961
  362TMC3     C 5421   2.830   1.643  16.860 -0.2821 -0.1496  0.3641
  362TMC3     O 5422   2.804   1.709  16.762  0.3596  0.3988  0.1972
  362TMC3     H 5423   2.827   1.671  17.125  1.0169  3.2651 -2.7003
  362TMC3    H1 5424   2.611   1.585  16.781 -0.1983  1.1627  0.7289
  362TMC3    H2 5425   2.401   1.736  17.123  0.7880  0.7359  0.8024
  362TMC3    C7 5426   2.375   1.716  16.865  0.4510  0.4499 -0.0053
  362TMC3    C8 5427   2.620   1.725  17.279 -0.1243 -0.1798 -1.2674
  362TMC3    O1 5428   2.313   1.806  16.917  0.3527 -0.7200  0.2338
  362TMC3    O2 5429   2.725   1.699  17.339 -0.1117 -0.4156  0.3336
  363TMC3    C1 5430   1.564   4.509   9.508 -0.7085 -0.0352 -0.3140
  363TMC3    C2 5431   1.511   4.398   9.568 -0.8589  0.7780  1.0045
  363TMC3    C3 5432   1.385   4.406   9.635 -0.0571 -0.6128 -0.2089
  363TMC3    C4 5433   1.497   4.626   9.506  0.0033  0.0307 -0.0153
  363TMC3    C5 5434   1.374   4.630   9.569  0.1851 -0.1836 -0.1787
  363TMC3    C6 5435   1.320   4.526   9.641 -0.1904  0.4320  0.3120
  363TMC3     C 5436   1.688   4.484   9.441  0.3069  0.0030  0.4404
  363TMC3     O 5437   1.737   4.371   9.429 -0.1315  0.5388  0.1271
  363TMC3     H 5438   1.565   4.304   9.568  1.4781  2.1247 -0.5882
  363TMC3    H1 5439   1.528   4.703   9.436 -0.1487  1.6760  1.6972
  363TMC3    H2 5440   1.234   4.541   9.705 -1.3820  0.1539 -1.2261
  363TMC3    C7 5441   1.302   0.034   9.557 -0.4163 -0.1066  0.0217
  363TMC3    C8 5442   1.322   4.291   9.705 -0.3737 -0.3107 -0.0995
  363TMC3    O1 5443   1.357   0.127   9.506 -0.4717 -0.4619 -0.4096
  363TMC3    O2 5444   1.221   4.315   9.766 -0.3298  0.4103 -0.1867
  364MPD2     C 5445   0.012   3.519  10.464  0.0187  0.2578 -0.0387
  364MPD2    C1 5446   0.100   3.620  10.427  0.4236  0.3692 -0.5690
  364MPD2    C2 5447   0.230   3.620  10.479 -0.5505  0.3014  0.2702
  364MPD2    C3 5448   0.267   3.519  10.563 -0.3409 -0.0151 -0.2459
  364MPD2    C4 5449   0.170   3.426  10.605 -0.2147 -0.3424  0.1999
  364MPD2    C5 5450   0.044   3.426  10.555  0.5779 -0.6470 -0.8449
  364MPD2     H 5451   0.295   3.703  10.456  0.7564 -0.8679 -0.2595
  364MPD2    H1 5452   0.191   3.354  10.682  0.9531 -2.2135 -1.8910
  364MPD2    H2 5453   4.632   3.519  10.432  0.0959 -1.1545 -0.3197
  364MPD2    H3 5454   4.701   3.344  10.580 -1.7300  1.7971  1.0914
  364MPD2     N 5455   0.391   3.509  10.625  0.5423  0.4882  0.2033
  364MPD2    H5 5456   0.397   3.444  10.703  0.1928  0.3104  0.0800
  364MPD2    N1 5457   0.051   3.733  10.352  0.0786 -0.1891 -0.2594
  364MPD2    H7 5458   4.681   3.729  10.313  0.7551  1.1262 -2.0132
  365TMC3    C1 5459   0.051   3.951  10.264  0.1794 -0.5208 -0.2276
  365TMC3    C2 5460   0.103   3.923  10.140  0.0829 -0.0178 -0.6298
  365TMC3    C3 5461   0.149   4.028  10.062  0.4157  1.1673  0.3187
  365TMC3    C4 5462   0.052   4.082  10.306  0.3779  0.5137 -0.1879
  365TMC3    C5 5463   0.107   4.184  10.236 -0.4185  0.2164  1.1151
  365TMC3    C6 5464   0.160   4.156  10.112  0.1976  0.2895 -0.5042
  365TMC3     C 5465   0.105   3.859  10.359  0.2768  0.6273 -0.1007
  365TMC3     O 5466   0.210   3.904  10.410  0.6662 -0.0211  0.5273
  365TMC3     H 5467   0.124   3.821  10.110  0.2849  0.2514 -1.3936
  365TMC3    H1 5468   4.705   4.094  10.388  0.2621  1.6971 -0.4717
  365TMC3    H2 5469   0.214   4.236  10.062  0.8865  0.9128  1.2124
  365TMC3    C7 5470   0.188   4.265  10.315 -0.3069  0.2474  0.0176
  365TMC3    C8 5471   0.234   4.004   9.942  0.0262  0.1072  0.4154
  365TMC3    O1 5472   0.219   4.371  10.266  0.5545  0.0570 -0.0797
  365TMC3    O2 5473   0.260   4.101   9.868  0.1653 -0.5945 -0.0796
  366MPD2     C 5474   3.596   0.251  15.626  0.6685  0.0729  0.3621
  366MPD2    C1 5475   3.688   0.313  15.548  0.1734  0.0942 -0.2508
  366MPD2    C2 5476   3.778   0.245  15.472  0.3772  0.7193 -0.3431
  366MPD2    C3 5477   3.801   0.111  15.483 -0.3295  0.8656  0.8390
  366MPD2    C4 5478   3.726   0.049  15.580  0.4884 -0.4686  0.3216
  366MPD2    C5 5479   3.621   0.116  15.644 -0.2933 -0.6325 -0.0795
  366MPD2     H 5480   3.848   0.289  15.401  1.4177 -0.3294  0.0355
  366MPD2    H1 5481   3.735   4.670  15.615  1.4636 -0.0742  1.2464
  366MPD2    H2 5482   3.514   0.294  15.682  1.2013  1.4368  0.0986
  366MPD2    H3 5483   3.551   0.072  15.715  1.8566 -1.8506  1.3094
  366MPD2     N 5484   3.888   0.042  15.392 -0.3268 -0.5737  0.3632
  366MPD2    H5 5485   3.939   0.101  15.328 -2.1492 -0.6148 -1.1093
  366MPD2    N1 5486   3.674   0.446  15.508  0.1348  0.1477 -0.5118
  366MPD2    H7 5487   3.740   0.484  15.441  0.6889  1.0921  0.5801
  367TMC3    C1 5488   3.620   0.665  15.531 -0.0079 -0.6241 -0.3036
  367TMC3    C2 5489   3.759   0.684  15.526 -0.2888  0.6854 -0.0242
  367TMC3    C3 5490   3.808   0.808  15.489 -0.6826  0.8795 -0.8021
  367TMC3    C4 5491   3.533   0.755  15.468  0.2936 -0.1601 -0.2126
  367TMC3    C5 5492   3.591   0.871  15.422 -0.7822 -0.0048 -0.2734
  367TMC3    C6 5493   3.720   0.904  15.435  0.9913 -1.1792  1.2866
  367TMC3     C 5494   3.574   0.532  15.551  0.3436 -0.0620 -0.2641
  367TMC3     O 5495   3.464   0.520  15.598 -0.3350 -0.7183  0.2549
  367TMC3     H 5496   3.832   0.621  15.574  0.3984  0.2452 -1.6366
  367TMC3    H1 5497   3.428   0.731  15.469  0.3900 -0.5559  0.9763
  367TMC3    H2 5498   3.761   0.991  15.385 -0.6673  0.3588  2.5814
  367TMC3    C7 5499   3.488   0.969  15.401 -0.0613 -0.9950  0.3280
  367TMC3    C8 5500   3.952   0.822  15.497  0.6276 -0.5290  0.5055
  367TMC3    O1 5501   3.394   0.959  15.479 -0.1623  0.1137  0.3920
  367TMC3    O2 5502   4.018   0.721  15.523 -0.2225 -0.0495  0.0072
  368MPD2     C 5503   0.062   2.404  12.707 -0.1717 -0.9621 -0.6462
  368MPD2    C1 5504   4.714   2.514  12.751  0.3262  0.0950  0.3075
  368MPD2    C2 5505   0.067   2.613  12.815 -0.0664 -0.5761 -0.0484
  368MPD2    C3 5506   0.207   2.607  12.835 -0.0202  0.1360 -0.4137
  368MPD2    C4 5507   0.270   2.492  12.797  0.2096 -0.8196  0.4661
  368MPD2    C5 5508   0.201   2.393  12.728 -0.5102  0.0647  0.0127
  368MPD2     H 5509   0.014   2.699  12.853 -1.7738 -2.1770  1.1741
  368MPD2    H1 5510   0.372   2.478  12.831  0.8640 -1.1791 -1.6244
  368MPD2    H2 5511   0.016   2.340  12.633 -1.6728 -1.5406  0.8002
  368MPD2    H3 5512   0.263   2.315  12.685  0.7487  1.1344 -0.1158
  368MPD2     N 5513   0.273   2.710  12.902  0.3263 -0.2746 -0.1880
  368MPD2    H5 5514   0.371   2.691  12.923 -0.0155  0.3629  1.9818
  368MPD2    N1 5515   4.579   2.518  12.721 -0.2036 -0.2916 -0.5704
  368MPD2    H7 5516   4.536   2.430  12.692  3.6293 -2.0127 -1.0209
  369TMC3    C1 5517   4.360   2.584  12.717  0.2961  0.4127  0.3590
  369TMC3    C2 5518   4.278   2.675  12.779 -0.4283  0.1658  0.3539
  369TMC3    C3 5519   4.138   2.673  12.751 -0.1634 -0.2193  0.0774
  369TMC3    C4 5520   4.309   2.480  12.647 -0.2808 -0.2004 -0.7621
  369TMC3    C5 5521   4.173   2.482  12.624 -0.4711 -0.0714 -0.0366
  369TMC3    C6 5522   4.080   2.575  12.669 -0.0598  1.1691  0.1343
  369TMC3     C 5523   4.501   2.625  12.738 -0.5031 -0.1912  0.1259
  369TMC3     O 5524   4.530   2.743  12.755  0.2657  0.0331  0.0406
  369TMC3     H 5525   4.320   2.755  12.840  0.6864 -0.6451  0.6365
  369TMC3    H1 5526   4.374   2.402  12.611  1.1314  0.2266  0.8856
  369TMC3    H2 5527   3.976   2.578  12.640 -0.4890 -0.2102  1.5491
  369TMC3    C7 5528   4.116   2.358  12.574 -0.5583  0.5884  0.9844
  369TMC3    C8 5529   4.061   2.803  12.754 -0.7570 -0.5953  0.2098
  369TMC3    O1 5530   4.192   2.262  12.562  0.3470 -0.1075  0.1834
  369TMC3    O2 5531   3.951   2.812  12.701 -0.5348  0.5498 -0.0276
  370TMC3    C1 5532   4.417   2.474  16.206  0.0289  0.0273 -0.8149
  370TMC3    C2 5533   4.428   2.396  16.318  0.1574  0.4707  0.6351
  370TMC3    C3 5534   4.380   2.271  16.316 -0.2511 -0.5232  0.2300
  370TMC3    C4 5535   4.389   2.422  16.082  0.3927  0.2052 -0.4608
  370TMC3    C5 5536   4.355   2.290  16.084  0.7272 -0.2366  0.1907
  370TMC3    C6 5537   4.349   2.214  16.196 -0.0972  0.3886 -0.4905
  370TMC3     C 5538   4.450   2.615  16.207 -0.6060 -0.0275  0.5094
  370TMC3     O 5539   4.533   2.660  16.285 -0.5661  0.0878  0.9579
  370TMC3     H 5540   4.440   2.453  16.410 -0.6230  1.3534  0.1942
  370TMC3    H1 5541   4.386   2.485  15.994 -1.1254  0.2437 -0.3779
  370TMC3    H2 5542   4.313   2.112  16.191 -0.1787  0.3137  1.3472
  370TMC3    C7 5543   4.374   2.230  15.951 -0.2164  0.3815  0.5529
  370TMC3    C8 5544   4.358   2.195  16.438  0.0656 -0.1995 -0.5794
  370TMC3    O1 5545   4.375   2.301  15.855 -0.2307 -0.1340 -0.5926
  370TMC3    O2 5546   4.291   2.095  16.432 -0.2433 -0.3191  0.3138
  371TMC3    C1 5547   1.182   0.903  15.338  0.1220 -0.1703 -1.3380
  371TMC3    C2 5548   1.072   0.875  15.415  0.2270  0.6824 -0.1844
  371TMC3    C3 5549   0.985   0.979  15.436  0.5555 -0.0818 -0.5835
  371TMC3    C4 5550   1.215   1.029  15.299  0.1261  0.0941 -0.2288
  371TMC3    C5 5551   1.116   1.128  15.307 -0.4647  0.0677 -0.5304
  371TMC3    C6 5552   1.003   1.107  15.392 -0.3732 -0.3945  0.1610
  371TMC3     C 5553   1.280   0.798  15.328  0.0296 -0.5589  0.0323
  371TMC3     O 5554   1.394   0.834  15.309 -0.0912 -0.8255  0.1104
  371TMC3     H 5555   1.042   0.774  15.437  0.4525  0.8788  1.0318
  371TMC3    H1 5556   1.307   1.057  15.249 -0.1470  0.3978 -0.5621
  371TMC3    H2 5557   0.924   1.180  15.406  0.9580  0.2846  4.1666
  371TMC3    C7 5558   1.134   1.258  15.254  0.0628  0.3613  0.2379
  371TMC3    C8 5559   0.851   0.945  15.469  0.6486 -0.0815 -0.1648
  371TMC3    O1 5560   1.042   1.337  15.285  0.0404  0.0440 -0.4208
  371TMC3    O2 5561   0.811   0.838  15.430 -0.1031  0.9151 -0.4035
  372MPD2     C 5562   4.564   2.017  13.069 -0.7013 -0.2814  0.5822
  372MPD2    C1 5563   4.598   2.082  13.187 -0.7088  0.6739 -0.0436
  372MPD2    C2 5564   4.649   2.008  13.291 -0.3850 -0.1470  0.3176
  372MPD2    C3 5565   4.677   1.876  13.275  0.0575 -1.3271 -0.2809
  372MPD2    C4 5566   4.638   1.811  13.159 -0.2445  0.8271 -0.5494
  372MPD2    C5 5567   4.578   1.881  13.060 -0.4934  0.2613  0.4040
  372MPD2     H 5568   4.673   2.061  13.383 -1.0924  1.2842 -0.3161
  372MPD2    H1 5569   4.668   1.708  13.145  1.9467  1.4414 -0.4104
  372MPD2    H2 5570   4.541   2.064  12.974 -4.1736 -0.6923  1.2198
  372MPD2    H3 5571   4.570   1.832  12.964 -0.2873 -0.0547  0.5510
  372MPD2     N 5572   0.017   1.816  13.382  0.3845 -0.4497 -0.5789
  372MPD2    H5 5573   0.037   1.865  13.469  0.0419 -1.9451  0.3459
  372MPD2    N1 5574   4.591   2.223  13.199  0.0955 -0.2684 -0.3814
  372MPD2    H7 5575   4.618   2.262  13.289 -0.1447  2.2325 -1.3963
  373TMC3    C1 5576   0.136   1.664  13.501 -0.5464  0.9025 -0.4694
  373TMC3    C2 5577   0.092   1.731  13.615 -0.4379 -0.6318  0.2427
  373TMC3    C3 5578   0.178   1.732  13.724  0.6945 -0.8030 -0.2850
  373TMC3    C4 5579   0.260   1.605  13.488  0.0203  0.6054 -0.8849
  373TMC3    C5 5580   0.343   1.618  13.589  0.1446  0.3982  0.3235
  373TMC3    C6 5581   0.310   1.680  13.708  0.0786  0.0680  0.6116
  373TMC3     C 5582   0.074   1.690  13.379  0.4503  0.0973  0.2000
  373TMC3     O 5583   0.104   1.613  13.287  0.0535  0.1300 -0.2121
  373TMC3     H 5584   4.711   1.760  13.617  0.0270  1.1640 -0.9559
  373TMC3    H1 5585   0.280   1.551  13.397  0.7777  0.7423 -0.7944
  373TMC3    H2 5586   0.387   1.687  13.785 -1.0691  0.6309  1.7040
  373TMC3    C7 5587   0.469   1.555  13.565  0.1951 -0.3974 -0.3821
  373TMC3    C8 5588   0.143   1.805  13.839 -0.4123 -0.1717  0.3230
  373TMC3    O1 5589   0.495   1.543  13.448 -0.4690 -0.4337 -0.4152
  373TMC3    O2 5590   0.239   1.840  13.906  0.2941  0.2771 -0.3657
  374TMC3    C1 5591   0.983   2.145   9.875 -0.0212 -0.3118  0.3134
  374TMC3    C2 5592   0.950   2.273   9.893  0.9081  0.0626  0.4149
  374TMC3    C3 5593   0.913   2.339   9.783  0.5669 -0.0644  0.1360
  374TMC3    C4 5594   0.977   2.087   9.748 -0.1123  0.7078 -0.2575
  374TMC3    C5 5595   0.915   2.165   9.655 -0.4871 -0.2215 -0.1060
  374TMC3    C6 5596   0.883   2.292   9.659  0.4121  0.6792 -0.0028
  374TMC3     C 5597   1.079   2.085   9.970 -0.8796 -0.1513  0.3602
  374TMC3     O 5598   1.144   2.165  10.033 -0.3727  0.6549  0.4610
  374TMC3     H 5599   0.956   2.317   9.992 -2.7096  1.2534  0.1072
  374TMC3    H1 5600   1.016   1.987   9.735  0.9098  1.3023 -1.7801
  374TMC3    H2 5601   0.841   2.354   9.580  0.3336 -0.8851 -1.1788
  374TMC3    C7 5602   0.908   2.097   9.530 -0.0271 -0.5177 -0.1094
  374TMC3    C8 5603   0.859   2.472   9.813  0.7613  0.3265 -0.0615
  374TMC3    O1 5604   0.959   1.989   9.518 -0.8320 -0.0955  0.0126
  374TMC3    O2 5605   0.765   2.516   9.746 -0.0932 -0.3728  0.9524
  375MPD2     C 5606   1.024   2.538  17.029  0.0633  0.1635  0.4910
  375MPD2    C1 5607   0.917   2.543  16.938  0.0424 -0.8061 -0.1693
  375MPD2    C2 5608   0.941   2.596  16.814  0.2414 -0.2066  0.4837
  375MPD2    C3 5609   1.064   2.651  16.775  0.3975  0.6614  0.8900
  375MPD2    C4 5610   1.160   2.647  16.869 -0.6160 -0.0964  0.5000
  375MPD2    C5 5611   1.148   2.583  16.993 -0.0856  0.4232  0.7313
  375MPD2     H 5612   0.859   2.604  16.744  1.3030  1.7062 -0.5499
  375MPD2    H1 5613   1.262   2.679  16.850 -1.5733  0.3381 -3.7500
  375MPD2    H2 5614   1.016   2.488  17.125  1.2907 -0.8393  0.0674
  375MPD2    H3 5615   1.224   2.580  17.071  2.0733 -3.1694 -1.5061
  375MPD2     N 5616   1.102   2.706  16.648 -0.4828  0.4382  0.0193
  375MPD2    H5 5617   1.197   2.740  16.640 -0.3407 -0.3405 -1.6859
  375MPD2    N1 5618   0.792   2.482  16.968 -0.5591 -0.3496 -0.1854
  375MPD2    H7 5619   0.717   2.495  16.900  0.4288 -2.7717 -1.7257
  376TMC3    C1 5620   1.080   2.770  16.415  0.6818 -0.5061  0.1285
  376TMC3    C2 5621   1.200   2.828  16.423  0.1260  0.7367 -0.3484
  376TMC3    C3 5622   1.248   2.881  16.305  0.2099  0.4352  0.3067
  376TMC3    C4 5623   1.009   2.767  16.305 -0.9653 -0.7302 -0.8320
  376TMC3    C5 5624   1.050   2.827  16.195  0.1392  0.3013  0.4006
  376TMC3    C6 5625   1.170   2.890  16.186 -0.9478 -0.4647  0.2287
  376TMC3     C 5626   1.020   2.711  16.534  0.0359 -0.1289 -0.9608
  376TMC3     O 5627   0.903   2.667  16.525 -0.0723 -0.7508 -0.1604
  376TMC3     H 5628   1.255   2.829  16.517  0.2829  1.3711 -0.4466
  376TMC3    H1 5629   0.915   2.712  16.306 -1.3806 -0.0385 -1.2066
  376TMC3    H2 5630   1.206   2.947  16.101 -1.9269  1.7148  1.2642
  376TMC3    C7 5631   0.976   2.809  16.067 -0.3399 -0.8982 -0.4896
  376TMC3    C8 5632   1.387   2.919  16.295  0.2231 -0.4759 -0.1141
  376TMC3    O1 5633   1.034   2.863  15.969  0.2759  0.3800  0.5381
  376TMC3    O2 5634   1.416   2.975  16.191  0.4370 -0.1655  0.1911
  377MPD2     C 5635   3.541   2.714  12.100 -0.0760 -0.1698 -0.0127
  377MPD2    C1 5636   3.628   2.667  12.201 -0.4920 -0.1439  0.6860
  377MPD2    C2 5637   3.574   2.635  12.330 -0.2191  0.6591 -0.3922
  377MPD2    C3 5638   3.435   2.656  12.350  0.3446 -0.3590  1.0424
  377MPD2    C4 5639   3.358   2.707  12.249  0.2039 -0.1000  0.0795
  377MPD2    C5 5640   3.412   2.740  12.127  0.5690  0.1395 -0.3892
  377MPD2     H 5641   3.626   2.591  12.414 -2.1851  1.4284  1.1985
  377MPD2    H1 5642   3.253   2.725  12.267 -0.2253 -2.1644 -0.2905
  377MPD2    H2 5643   3.581   2.754  12.008  2.8080 -0.5045  1.0761
  377MPD2    H3 5644   3.352   2.785  12.049 -0.8665  0.5970  0.9761
  377MPD2     N 5645   3.374   2.660  12.478 -0.1978  0.4995 -0.4868
  377MPD2    H5 5646   3.274   2.678  12.487  0.0403  1.3852  0.3520
  377MPD2    N1 5647   3.764   2.653  12.165  0.4019  0.3597  0.1312
  377MPD2    H7 5648   3.792   2.699  12.079  0.4153 -0.3262 -0.2369
  378TMC3    C1 5649   4.125   2.646  11.991  0.1815 -0.4711 -0.2134
  378TMC3    C2 5650   4.004   2.637  12.053 -0.4065 -0.2755 -0.0364
  378TMC3    C3 5651   3.990   2.627  12.188  0.3932  0.0802  0.5441
  378TMC3    C4 5652   4.240   2.669  12.066  0.3965  0.7448  0.6373
  378TMC3    C5 5653   4.223   2.657  12.200  0.1875  0.2113 -0.4240
  378TMC3    C6 5654   4.103   2.628  12.261  0.0944 -0.9970  0.6505
  378TMC3     C 5655   4.127   2.678  11.844  0.8465  0.1508  0.1402
  378TMC3     O 5656   4.020   2.719  11.795  0.1838  0.7512 -0.0912
  378TMC3     H 5657   3.924   2.627  11.981 -2.2723  0.7170  1.8808
  378TMC3    H1 5658   4.333   2.694  12.017  1.7391 -2.6980  1.4169
  378TMC3    H2 5659   4.093   2.629  12.369 -0.8115  1.0213  0.5562
  378TMC3    C7 5660   4.340   2.643  12.286  0.2097  0.4766  0.6460
  378TMC3    C8 5661   3.861   2.614  12.248 -0.1657 -0.0204 -0.3744
  378TMC3    O1 5662   4.331   2.673  12.405  0.8531  0.3868  0.4577
  378TMC3    O2 5663   3.855   2.570  12.362 -0.6714 -0.5994 -0.0218
  379MPD2     C 5664   4.584   0.552  16.143 -0.6959 -0.3590 -0.6055
  379MPD2    C1 5665   4.656   0.488  16.042  0.2450 -0.3580  0.1651
  379MPD2    C2 5666   0.020   0.387  16.079 -0.0216 -0.3632  0.5622
  379MPD2    C3 5667   0.019   0.340  16.209  0.1300 -0.4236  0.4491
  379MPD2    C4 5668   4.657   0.394  16.302 -1.0781  0.7804 -0.0511
  379MPD2    C5 5669   4.586   0.505  16.273 -0.1694 -0.3843 -0.1452
  379MPD2     H 5670   0.089   0.333  16.016 -1.0805  1.2858 -1.9907
  379MPD2    H1 5671   4.651   0.354  16.402 -1.9921  3.0743  0.8063
  379MPD2    H2 5672   4.510   0.629  16.128 -1.0519 -0.8858 -1.5318
  379MPD2    H3 5673   4.526   0.552  16.350  1.0042 -0.8560  1.0544
  379MPD2     N 5674   0.095   0.229  16.260 -0.5302 -0.5082  0.0576
  379MPD2    H5 5675   0.076   0.198  16.355  0.3319  0.1707  0.4489
  379MPD2    N1 5676   4.636   0.528  15.911  0.2345  0.2510 -0.6917
  379MPD2    H7 5677   4.574   0.606  15.892  1.5088  1.1023 -1.3941
  380TMC3    C1 5678   4.702   0.558  15.679  0.2198  0.2065  0.1988
  380TMC3    C2 5679   0.059   0.511  15.579  0.0493  0.0461 -0.2395
  380TMC3    C3 5680   0.064   0.593  15.473  0.1128  0.5685  0.2718
  380TMC3    C4 5681   4.628   0.674  15.674  0.5769  0.1132 -0.2691
  380TMC3    C5 5682   4.649   0.756  15.571  0.1064 -0.2968  0.5174
  380TMC3    C6 5683   4.717   0.711  15.462  0.5343 -0.5786  0.0607
  380TMC3     C 5684   4.691   0.467  15.798  0.6150 -0.4050  0.2899
  380TMC3     O 5685   0.020   0.353  15.792 -0.2322  0.1289  0.1033
  380TMC3     H 5686   0.124   0.426  15.594 -1.1586 -1.0728 -1.3060
  380TMC3    H1 5687   4.572   0.714  15.758  1.0881 -0.6858  0.4614
  380TMC3    H2 5688   0.023   0.782  15.384  0.3488 -0.4445  0.1145
  380TMC3    C7 5689   4.582   0.888  15.552 -0.5918 -0.4859 -0.1387
  380TMC3    C8 5690   0.192   0.591  15.397  0.6411 -0.0319  0.2250
  380TMC3    O1 5691   4.646   0.973  15.499  0.3609 -0.3978 -0.0985
  380TMC3    O2 5692   0.181   0.646  15.289  0.3264  0.1624  0.5710
  381TMC3    C1 5693   4.140   1.735  16.112  0.4396 -0.2369  0.1923
  381TMC3    C2 5694   4.244   1.819  16.148 -0.2339 -0.5167 -0.3023
  381TMC3    C3 5695   4.301   1.809  16.272  0.1728 -0.8121  0.4783
  381TMC3    C4 5696   4.098   1.634  16.192 -0.8627  0.7981  0.0427
  381TMC3    C5 5697   4.163   1.626  16.312 -0.0470  0.3427  0.1493
  381TMC3    C6 5698   4.265   1.702  16.350  0.2884 -0.1565  0.0570
  381TMC3     C 5699   4.100   1.738  15.974 -0.2819 -0.2783 -0.2686
  381TMC3     O 5700   3.983   1.716  15.943 -0.0787  1.1443 -0.1673
  381TMC3     H 5701   4.276   1.899  16.082 -0.8251 -0.4446 -0.4973
  381TMC3    H1 5702   4.008   1.576  16.174 -0.4403  0.4902 -1.1407
  381TMC3    H2 5703   4.311   1.677  16.445 -2.3843 -2.3625  0.7684
  381TMC3    C7 5704   4.116   1.531  16.414  0.0959 -0.2169  0.2458
  381TMC3    C8 5705   4.423   1.881  16.295 -1.0282  0.6135 -0.6793
  381TMC3    O1 5706   4.066   1.428  16.368  0.2105  0.5365  0.2762
  381TMC3    O2 5707   4.457   1.946  16.199 -0.0906 -0.6052 -0.3607
  382MPD2     C 5708   3.778   3.905  17.090 -0.3752 -0.4402 -0.1444
  382MPD2    C1 5709   3.761   3.951  17.217  0.0829 -0.2164 -0.7910
  382MPD2    C2 5710   3.656   3.903  17.297  0.5555  0.3885  0.6881
  382MPD2    C3 5711   3.568   3.810  17.247  0.0956  0.1428  0.4139
  382MPD2    C4 5712   3.576   3.771  17.115  0.3679  0.5692  0.0138
  382MPD2    C5 5713   3.683   3.810  17.040 -0.0568 -0.5061 -0.1125
  382MPD2     H 5714   3.655   3.929  17.402  0.5630  0.7521  0.5974
  382MPD2    H1 5715   3.503   3.701  17.076  0.1087  0.4061  0.7808
  382MPD2    H2 5716   3.860   3.934  17.025 -1.6794  1.2195 -1.0358
  382MPD2    H3 5717   3.695   3.771  16.940  1.5352  0.6961 -0.3990
  382MPD2     N 5718   3.472   3.754  17.334 -0.0068 -0.1601 -0.1501
  382MPD2    H5 5719   3.410   3.681  17.300  0.9301 -2.2767  2.7519
  382MPD2    N1 5720   3.844   4.050  17.273  0.5482  0.0462 -0.4894
  382MPD2    H7 5721   3.828   4.062  17.373  1.2966  0.1071 -0.3738
  383TMC3    C1 5722   3.334   3.711  17.516  0.2338  0.2744  0.4132
  383TMC3    C2 5723   3.275   3.611  17.439  0.1850 -0.6181 -0.3837
  383TMC3    C3 5724   3.222   3.512  17.520 -0.2009  0.2958 -0.1273
  383TMC3    C4 5725   3.331   3.717  17.656  0.0318 -0.6278  1.2670
  383TMC3    C5 5726   3.278   3.615   0.025 -0.0298  0.4000 -0.6036
  383TMC3    C6 5727   3.222   3.511  17.655  0.9108 -0.0926 -0.1674
  383TMC3     C 5728   3.445   3.791  17.465  0.4068 -0.1020  0.5373
  383TMC3     O 5729   3.489   3.881  17.539 -0.2947  0.6183 -0.2338
  383TMC3     H 5730   3.279   3.600  17.332 -1.7036  1.7399 -0.6867
  383TMC3    H1 5731   3.384   3.797   0.011  2.2073  0.6676 -3.0083
  383TMC3    H2 5732   3.168   3.439   0.020  2.6636 -1.0031  0.3217
  383TMC3    C7 5733   3.300   3.607   0.164 -0.2889  0.0691  0.1788
  383TMC3    C8 5734   3.122   3.427  17.453  0.5988 -0.3520  0.3801
  383TMC3    O1 5735   3.318   3.492   0.211 -0.0180 -0.2457  0.3494
  383TMC3    O2 5736   3.055   3.488  17.369  0.4229  0.1209  0.3840
  384MPD2     C 5737   0.547   0.396  11.660  0.1943 -0.2500 -0.0802
  384MPD2    C1 5738   0.540   0.362  11.789  0.0938 -0.5708 -0.8774
  384MPD2    C2 5739   0.542   0.229  11.828 -0.3513  1.2417 -0.3041
  384MPD2    C3 5740   0.560   0.124  11.743 -0.2626  0.0988  0.9350
  384MPD2    C4 5741   0.563   0.155  11.607 -0.0226 -0.6430 -0.0678
  384MPD2    C5 5742   0.557   0.291  11.570  0.2508  0.8016 -0.2818
  384MPD2     H 5743   0.534   0.213  11.935 -0.1369 -0.6896 -0.5829
  384MPD2    H1 5744   0.589   0.083  11.531 -2.3666  2.0550 -3.4025
  384MPD2    H2 5745   0.550   0.497  11.621  2.4477 -0.2795  0.0572
  384MPD2    H3 5746   0.574   0.308  11.464 -2.0402  0.5853 -0.6902
  384MPD2     N 5747   0.578   4.714  11.785  0.3860 -0.3393  0.4484
  384MPD2    H5 5748   0.611   4.655  11.710  0.0653  0.0986 -0.0378
  384MPD2    N1 5749   0.523   0.460  11.892  0.2958  0.6031 -0.2057
  384MPD2    H7 5750   0.540   0.433  11.988  0.3331 -1.4271 -0.7652
  385TMC3    C1 5751   0.631   4.526  11.917  0.5772 -0.1479  0.2121
  385TMC3    C2 5752   0.545   4.418  11.886  0.2605  0.9337 -0.3805
  385TMC3    C3 5753   0.533   4.317  11.984  0.4929 -0.0374  0.2864
  385TMC3    C4 5754   0.692   4.528  12.044 -0.8996  0.8283  0.5523
  385TMC3    C5 5755   0.668   4.438  12.130 -0.0022  0.1674 -0.8163
  385TMC3    C6 5756   0.594   4.325  12.110  0.1965  0.0758  0.0090
  385TMC3     C 5757   0.571   4.659  11.907 -0.3474 -0.0378 -0.0421
  385TMC3     O 5758   0.531   4.710  12.013 -0.0450  0.1597  0.1172
  385TMC3     H 5759   0.474   4.427  11.804 -0.6462  0.5006  0.3468
  385TMC3    H1 5760   0.763   4.608  12.058  1.1008 -0.3993 -2.6010
  385TMC3    H2 5761   0.578   4.253  12.189  0.2458  0.3688  0.2899
  385TMC3    C7 5762   0.677   4.494  12.258  0.7626 -0.8211 -0.5281
  385TMC3    C8 5763   0.463   4.191  11.941  0.0408  0.3615 -0.1514
  385TMC3    O1 5764   0.705   4.430  12.359  0.0968  0.1364  0.0850
  385TMC3    O2 5765   0.428   4.124  12.039  0.2368  0.1435 -0.1342
  386TMC3    C1 5766   4.622   2.938  11.828  0.3859  0.6393  0.7668
  386TMC3    C2 5767   4.657   2.958  11.697  0.5338 -0.4685 -0.5284
  386TMC3    C3 5768   4.560   2.997  11.609  0.0965  0.7223  0.9347
  386TMC3    C4 5769   4.494   2.961  11.879  0.8512  0.3199 -0.6888
  386TMC3    C5 5770   4.397   3.000  11.784 -0.0441  0.8285  0.6115
  386TMC3    C6 5771   4.430   3.023  11.651 -0.2913  0.6020 -0.0015
  386TMC3     C 5772   0.012   2.926  11.922 -0.2445 -0.0553  0.3701
  386TMC3     O 5773   4.709   2.969  12.032  0.3129  0.0166  0.5025
  386TMC3     H 5774   0.036   2.943  11.663  1.5029 -2.4078  3.1375
  386TMC3    H1 5775   4.478   2.943  11.984 -0.6069 -1.4608 -1.2115
  386TMC3    H2 5776   4.350   3.045  11.582  0.0038  2.4674  0.2463
  386TMC3    C7 5777   4.279   3.055  11.834 -0.6858 -0.5661  0.3352
  386TMC3    C8 5778   4.579   2.997  11.464  0.0404 -0.1734  0.0718
  386TMC3    O1 5779   4.238   3.009  11.940 -0.0456 -0.4431 -0.0186
  386TMC3    O2 5780   4.491   3.055  11.398  0.2006  0.6215 -0.5117
  387MPD2     C 5781   2.854   3.140   9.764  0.4657 -0.0881 -0.0989
  387MPD2    C1 5782   2.983   3.103   9.736 -0.0359  0.7134 -0.2669
  387MPD2    C2 5783   3.008   2.967   9.736 -0.1933  0.0173 -0.1166
  387MPD2    C3 5784   2.905   2.875   9.735 -0.8422  0.7246 -0.7203
  387MPD2    C4 5785   2.783   2.909   9.780  0.0736  0.0013  0.0868
  387MPD2    C5 5786   2.760   3.044   9.795 -0.5352  0.2602  0.0100
  387MPD2     H 5787   3.105   2.940   9.696 -0.0866  0.7979 -0.3848
  387MPD2    H1 5788   2.702   2.838   9.773  0.3771 -0.2437 -0.9026
  387MPD2    H2 5789   2.826   3.244   9.776 -1.1787 -0.6058  0.5738
  387MPD2    H3 5790   2.661   3.081   9.816 -0.9756 -1.3473  0.7722
  387MPD2     N 5791   2.949   2.745   9.703  0.4870 -0.5236  0.0261
  387MPD2    H5 5792   3.044   2.733   9.669  0.4058  1.9545 -1.1097
  387MPD2    N1 5793   3.093   3.191   9.722 -0.2979  0.3272  0.6305
  387MPD2    H7 5794   3.183   3.151   9.701 -0.5075 -0.8901  2.0677
  388TMC3    C1 5795   3.223   3.377   9.700 -0.2286 -0.5022  0.1879
  388TMC3    C2 5796   3.230   3.470   9.596  0.1536  0.1492 -0.2633
  388TMC3    C3 5797   3.362   3.483   9.542  1.1985 -0.1524 -0.4576
  388TMC3    C4 5798   3.328   3.292   9.730  0.3299 -0.0432 -0.2531
  388TMC3    C5 5799   3.453   3.320   9.681 -0.0683  0.5469 -0.1674
  388TMC3    C6 5800   3.471   3.412   9.585 -0.4918 -0.0838 -0.0140
  388TMC3     C 5801   3.090   3.329   9.722 -0.0720  0.0799  0.1661
  388TMC3     O 5802   2.996   3.410   9.714  0.2876 -0.1844 -0.1960
  388TMC3     H 5803   3.146   3.535   9.579  0.6991  1.8098  3.4013
  388TMC3    H1 5804   3.331   3.234   9.821 -1.0462 -3.1770 -2.1898
  388TMC3    H2 5805   3.572   3.428   9.549  0.1683 -1.2158  1.3254
  388TMC3    C7 5806   3.549   3.210   9.701  0.0615 -0.4808 -0.3809
  388TMC3    C8 5807   3.385   3.579   9.448 -0.3552  0.9001 -1.0010
  388TMC3    O1 5808   3.665   3.237   9.725 -0.7563  0.4472  0.2694
  388TMC3    O2 5809   3.495   3.630   9.447  0.1246 -0.2902 -0.3941
  389MPD2     C 5810   2.687   0.761  10.692 -0.3291 -0.0587 -0.0675
  389MPD2    C1 5811   2.564   0.735  10.635  0.0166 -0.5792 -0.3619
  389MPD2    C2 5812   2.474   0.654  10.695  1.0356 -0.1767 -0.2840
  389MPD2    C3 5813   2.496   0.610  10.824  0.3788  0.1006  0.0766
  389MPD2    C4 5814   2.621   0.630  10.874  0.8751 -0.6457 -0.8112
  389MPD2    C5 5815   2.705   0.714  10.819  0.2390 -0.2647  0.2419
  389MPD2     H 5816   2.388   0.624  10.636  0.9606  1.6627 -1.1231
  389MPD2    H1 5817   2.638   0.589  10.972 -0.7642  1.3439  0.3077
  389MPD2    H2 5818   2.771   0.812  10.647  0.8688 -1.3144  0.7446
  389MPD2    H3 5819   2.801   0.740  10.864 -0.9430  0.1895  2.4951
  389MPD2     N 5820   2.407   0.528  10.903 -0.6451 -1.0154  0.5705
  389MPD2    H5 5821   2.439   0.486  10.990  0.5625 -1.2406  0.0105
  389MPD2    N1 5822   2.557   0.789  10.503 -0.2521  0.0402  0.0889
  389MPD2    H7 5823   2.634   0.842  10.464  0.7837 -0.9479  0.8005
  390TMC3    C1 5824   2.210   0.419  10.970  0.1797  0.7349 -0.1051
  390TMC3    C2 5825   2.247   0.452  11.100  0.1180 -0.2860  0.5697
  390TMC3    C3 5826   2.155   0.475  11.199  0.3910 -0.4054  0.2001
  390TMC3    C4 5827   2.075   0.415  10.940  0.2463  0.5338  0.6112
  390TMC3    C5 5828   1.982   0.432  11.036  0.4030 -0.2569 -0.4677
  390TMC3    C6 5829   2.021   0.468  11.165 -0.0282 -1.0152 -0.1429
  390TMC3     C 5830   2.277   0.495  10.868  0.0282 -0.3350  0.6674
  390TMC3     O 5831   2.214   0.537  10.776 -0.8767  0.1046 -0.0054
  390TMC3     H 5832   2.350   0.480  11.122 -0.5248  1.3982  1.4655
  390TMC3    H1 5833   2.044   0.407  10.837 -0.8599  1.2985  0.8792
  390TMC3    H2 5834   1.949   0.513  11.232 -0.1767  1.4392 -1.9547
  390TMC3    C7 5835   1.882   0.327  11.028 -0.3601 -0.1031  0.3566
  390TMC3    C8 5836   2.187   0.578  11.293 -0.3890 -0.8416 -0.0105
  390TMC3    O1 5837   1.857   0.291  10.916 -0.1105  0.0599  0.7014
  390TMC3    O2 5838   2.258   0.667  11.247  0.1022 -0.0338  0.3362
  391MPD2     C 5839   1.333   2.352  11.008  0.0263  0.3678 -0.5456
  391MPD2    C1 5840   1.444   2.428  10.984 -0.0927  0.6214  0.1375
  391MPD2    C2 5841   1.446   2.538  10.897 -0.2133  0.4304  0.5242
  391MPD2    C3 5842   1.335   2.557  10.816 -0.8977  0.5181 -1.0364
  391MPD2    C4 5843   1.233   2.463  10.819  0.1669  0.1354 -0.3465
  391MPD2    C5 5844   1.232   2.368  10.917 -0.0583  0.3881  0.0115
  391MPD2     H 5845   1.508   2.627  10.906 -0.0976  0.5180 -1.1439
  391MPD2    H1 5846   1.146   2.476  10.756  0.8859 -1.3918 -1.6596
  391MPD2    H2 5847   1.321   2.269  11.076  0.7470  0.2414 -0.5803
  391MPD2    H3 5848   1.145   2.303  10.917 -0.0983  0.4339  1.9483
  391MPD2     N 5849   1.327   2.677  10.726 -0.1641 -0.4642 -0.3481
  391MPD2    H5 5850   1.408   2.737  10.737 -0.8133  0.4972 -0.7308
  391MPD2    N1 5851   1.545   2.410  11.084  0.2085 -0.5290  0.1724
  391MPD2    H7 5852   1.528   2.335  11.150  1.8426 -1.6896 -0.7409
  392TMC3    C1 5853   1.244   2.841  10.568 -0.3255  0.3973  0.2077
  392TMC3    C2 5854   1.191   2.850  10.446  0.2914 -0.4990 -0.5672
  392TMC3    C3 5855   1.242   2.920  10.341  0.2072  0.2579  0.3103
  392TMC3    C4 5856   1.349   2.919  10.601  0.8010 -0.2893  0.2856
  392TMC3    C5 5857   1.405   2.993  10.498 -0.3415 -0.7326  0.2052
  392TMC3    C6 5858   1.355   2.996  10.366 -0.4225 -0.0563 -0.1825
  392TMC3     C 5859   1.232   2.710  10.632  0.1054  0.8205  0.6009
  392TMC3     O 5860   1.135   2.642  10.598 -0.3787  0.1386 -0.1757
  392TMC3     H 5861   1.108   2.783  10.424 -0.2614  0.3688 -1.1002
  392TMC3    H1 5862   1.388   2.922  10.702  2.3589  0.7456 -0.3347
  392TMC3    H2 5863   1.390   3.066  10.291 -0.8105  0.5349  0.1868
  392TMC3    C7 5864   1.544   3.035  10.516 -0.0481  0.0340  0.0306
  392TMC3    C8 5865   1.195   2.886  10.206 -0.1580  0.0324  0.0587
  392TMC3    O1 5866   1.574   3.053  10.633  0.5771 -0.0410 -0.4510
  392TMC3    O2 5867   1.280   2.851  10.123 -0.3692 -0.3832 -0.4165
  393TMC3    C1 5868   0.645   4.642  10.311 -1.1639 -0.2599  0.2836
  393TMC3    C2 5869   0.659   4.597  10.440 -0.4927 -0.4524 -0.0051
  393TMC3    C3 5870   0.734   4.481  10.458 -0.8527  0.1567  0.0728
  393TMC3    C4 5871   0.708   4.578  10.206  0.5671  0.2357 -0.4672
  393TMC3    C5 5872   0.783   4.470  10.233  0.5710  0.0241 -0.0267
  393TMC3    C6 5873   0.792   4.409  10.359  0.0596 -0.8076 -0.0996
  393TMC3     C 5874   0.674   0.058  10.301  0.2377  0.1567 -0.5187
  393TMC3     O 5875   0.780   0.085  10.242  0.7115  0.3317  0.0854
  393TMC3     H 5876   0.618   4.651  10.524  0.8190  0.4525  0.0576
  393TMC3    H1 5877   0.679   4.609  10.106  2.2873 -3.2856 -2.0299
  393TMC3    H2 5878   0.862   4.328  10.374  0.3973 -0.8319 -1.7256
  393TMC3    C7 5879   0.919   4.481  10.183 -0.7863  0.4576 -0.6555
  393TMC3    C8 5880   0.760   4.437  10.594  0.1327  0.2559  0.2438
  393TMC3    O1 5881   0.985   4.381  10.180 -0.1263 -0.3813 -1.2761
  393TMC3    O2 5882   0.732   4.505  10.691  0.6104 -0.3876 -0.0545
  394TMC3    C1 5883   2.462   0.838  10.294  0.3856 -0.2084  0.0982
  394TMC3    C2 5884   2.349   0.842  10.216 -0.5871  0.0212 -0.1851
  394TMC3    C3 5885   2.347   0.916  10.103  0.4083 -0.0443  0.6455
  394TMC3    C4 5886   2.574   0.906  10.263  0.0521  0.4062 -0.8399
  394TMC3    C5 5887   2.569   0.978  10.153 -0.5821 -0.2921 -0.8315
  394TMC3    C6 5888   2.458   0.984  10.068  0.0509  0.6413 -0.0919
  394TMC3     C 5889   2.450   0.769  10.420  0.3708  0.2952  0.0157
  394TMC3     O 5890   2.337   0.727  10.450 -0.3849 -0.0616  0.2574
  394TMC3     H 5891   2.266   0.779  10.244 -0.4866  0.2568  0.6527
  394TMC3    H1 5892   2.666   0.911  10.320  0.0035  1.9767 -0.8903
  394TMC3    H2 5893   2.461   1.047   9.980  1.6074  2.3365  1.1435
  394TMC3    C7 5894   2.664   1.088  10.144  0.1727 -0.2818 -0.0698
  394TMC3    C8 5895   2.259   0.874   9.997 -0.2273 -0.9388 -0.8891
  394TMC3    O1 5896   2.728   1.123  10.242 -0.3996 -0.1744  0.5789
  394TMC3    O2 5897   2.208   0.763   9.998 -0.4497  0.8403  0.5932
  395TMC3    C1 5898   2.380   2.799  14.632 -0.4344  0.2460  0.7185
  395TMC3    C2 5899   2.279   2.824  14.543  0.2193 -0.0604  0.2141
  395TMC3    C3 5900   2.312   2.918  14.448 -0.8031  0.0583  1.0201
  395TMC3    C4 5901   2.503   2.859  14.623  0.4613 -0.2504 -0.5386
  395TMC3    C5 5902   2.524   2.953  14.525  0.6191  0.1500  0.4992
  395TMC3    C6 5903   2.441   2.966  14.423  0.0691 -0.4555 -0.1709
  395TMC3     C 5904   2.344   2.749  14.762  0.4834 -0.2987  0.0909
  395TMC3     O 5905   2.394   2.801  14.857 -0.1137 -0.4175  0.2862
  395TMC3     H 5906   2.183   2.778  14.561  0.6529 -0.7904  0.6259
  395TMC3    H1 5907   2.567   2.844  14.709  1.8123 -1.3255 -1.7278
  395TMC3    H2 5908   2.473   3.015  14.332 -1.2543  1.7889  0.5851
  395TMC3    C7 5909   2.656   2.994  14.496 -0.3962 -0.4779 -0.0530
  395TMC3    C8 5910   2.221   2.937  14.329  0.5790  0.3365 -0.2671
  395TMC3    O1 5911   2.697   2.982  14.379  0.3986  0.0282  0.3493
  395TMC3    O2 5912   2.259   3.018  14.244 -0.2281 -0.3184 -0.2603
  396MPD2     C 5913   1.541   3.608  16.788  0.3708  0.1028  0.4498
  396MPD2    C1 5914   1.666   3.638  16.829 -0.5098 -0.2459  0.3240
  396MPD2    C2 5915   1.737   3.738  16.757 -0.0992  0.7727 -0.4300
  396MPD2    C3 5916   1.678   3.817  16.651  0.4434  0.2567 -0.4856
  396MPD2    C4 5917   1.549   3.781  16.623  0.4429 -0.4132 -0.0319
  396MPD2    C5 5918   1.483   3.678  16.686  0.6241  0.3678 -0.0709
  396MPD2     H 5919   1.843   3.749  16.773 -0.4849  1.8137  1.5156
  396MPD2    H1 5920   1.487   3.831  16.550 -0.3592 -1.7301 -0.2645
  396MPD2    H2 5921   1.487   3.534  16.845 -0.3299  0.6709  0.5282
  396MPD2    H3 5922   1.381   3.649  16.662  0.9847 -0.6270 -0.4158
  396MPD2     N 5923   1.754   3.919  16.593  0.2445 -0.0063  0.4001
  396MPD2    H5 5924   1.840   3.945  16.640 -1.1466  0.9560  2.4466
  396MPD2    N1 5925   1.705   3.575  16.951 -0.0651 -0.0363  0.2971
  396MPD2    H7 5926   1.666   3.483  16.971 -0.8412 -0.0690 -1.3453
  397TMC3    C1 5927   1.818   3.536  17.149 -1.0153  0.1048 -0.1978
  397TMC3    C2 5928   1.945   3.537  17.196  0.5731 -0.2040  0.3062
  397TMC3    C3 5929   1.999   3.423  17.231 -0.1361  0.1482 -0.3827
  397TMC3    C4 5930   1.756   3.413  17.139 -0.1990  0.3491  0.3334
  397TMC3    C5 5931   1.809   3.305  17.200 -0.7845 -0.1172  0.6502
  397TMC3    C6 5932   1.935   3.305  17.250 -0.5745 -0.8544 -0.0672
  397TMC3     C 5933   1.799   3.621  17.035 -0.2562 -0.0827 -0.1840
  397TMC3     O 5934   1.875   3.719  17.024 -0.0610  0.1841  0.2933
  397TMC3     H 5935   2.003   3.628  17.181 -0.2111  0.6069  2.1494
  397TMC3    H1 5936   1.650   3.395  17.125 -0.2668  0.6016  0.5181
  397TMC3    H2 5937   1.986   3.218  17.288 -0.2501 -0.8905 -0.5946
  397TMC3    C7 5938   1.725   3.206  17.255 -0.3779  0.0331  0.4134
  397TMC3    C8 5939   2.144   3.412  17.254 -0.4561  0.3319 -0.2652
  397TMC3    O1 5940   1.620   3.181  17.199  0.2051  0.3589  0.2636
  397TMC3    O2 5941   2.174   3.342  17.350  0.2615 -0.0179 -0.4895
  398MPD2     C 5942   0.121   4.636  17.449 -0.5374  0.5992  0.2345
  398MPD2    C1 5943   0.156   4.535  17.531 -0.6319 -0.5347 -0.5405
  398MPD2    C2 5944   0.250   4.558  17.630  0.4135  0.0288 -0.2159
  398MPD2    C3 5945   0.313   4.676  17.646 -1.1733  0.5589 -0.0044
  398MPD2    C4 5946   0.294   0.051  17.550 -0.1315  0.3855  0.9439
  398MPD2    C5 5947   0.207   0.025  17.445  0.0869 -0.1286 -0.1572
  398MPD2     H 5948   0.275   4.472  17.691  0.7359 -0.3833 -0.9298
  398MPD2    H1 5949   0.346   0.145  17.542 -0.7546  0.9813  3.9517
  398MPD2    H2 5950   0.053   4.631  17.364 -3.1666  0.7269  2.3342
  398MPD2    H3 5951   0.194   0.102  17.369  1.8635  0.0175 -0.3088
  398MPD2     N 5952   0.416   4.694   0.051 -0.4456  1.1062 -0.3035
  398MPD2    H5 5953   0.465   0.060   0.059  0.4071  0.6542 -0.4362
  398MPD2    N1 5954   0.088   4.411  17.534 -0.0521 -0.4425  0.0071
  398MPD2    H7 5955   0.119   4.347  17.606 -4.1579 -0.6027  1.6290
  399TMC3    C1 5956   4.660   4.242  17.484  0.1621 -0.2863 -1.1779
  399TMC3    C2 5957   0.041   4.173  17.537  0.8150  0.0153  0.5467
  399TMC3    C3 5958   0.016   4.077  17.629  0.4864  0.2074  0.0158
  399TMC3    C4 5959   4.531   4.225  17.537  0.1561  0.1783 -1.1060
  399TMC3    C5 5960   4.513   4.120  17.621 -0.8995 -0.4569  0.5008
  399TMC3    C6 5961   4.616   4.049  17.677 -0.0126  0.2343  0.2515
  399TMC3     C 5962   4.701   4.374  17.453  0.2697  0.3344 -0.2297
  399TMC3     O 5963   4.644   4.438  17.367 -0.7648  0.6235  0.4633
  399TMC3     H 5964   0.139   4.191  17.493  0.3203 -0.0733 -0.5844
  399TMC3    H1 5965   4.445   4.277  17.497 -0.5582 -0.8642 -0.9345
  399TMC3    H2 5966   4.599   3.974   0.058  0.4632 -1.8850 -1.7255
  399TMC3    C7 5967   4.400   4.036  17.590 -0.1685  0.0782  0.1474
  399TMC3    C8 5968   0.133   4.029   0.004 -0.0319  0.1612 -0.2245
  399TMC3    O1 5969   4.382   3.946  17.673 -0.1865 -0.4601  0.5213
  399TMC3    O2 5970   0.234   4.095  17.679  0.5343  0.3753 -0.4084
  400TMC3    C1 5971   3.011   2.833  16.871  0.1522 -0.0659  0.1053
  400TMC3    C2 5972   2.873   2.828  16.869 -0.3233 -0.5750 -0.1731
  400TMC3    C3 5973   2.808   2.928  16.927 -0.9999  0.5257 -0.5475
  400TMC3    C4 5974   3.081   2.943  16.913  0.0213  0.7161 -0.6710
  400TMC3    C5 5975   3.006   3.054  16.936  0.0355  0.0722  0.5161
  400TMC3    C6 5976   2.877   3.044  16.951 -0.5077 -0.2069  0.1775
  400TMC3     C 5977   3.079   2.703  16.865 -0.1580 -0.2508 -0.0037
  400TMC3     O 5978   3.019   2.606  16.824  0.2869 -0.7155 -0.3324
  400TMC3     H 5979   2.819   2.742  16.831  2.7057 -2.9191  0.8326
  400TMC3    H1 5980   3.189   2.954  16.911  0.2333 -1.1051  0.8219
  400TMC3    H2 5981   2.816   3.126  16.988 -1.9872 -0.6397 -1.3073
  400TMC3    C7 5982   3.068   3.180  16.905  0.6024 -0.2887  0.4119
  400TMC3    C8 5983   2.669   2.922  16.951  0.2320  0.0516 -0.4544
  400TMC3    O1 5984   3.172   3.177  16.836 -0.0306  0.3793 -0.6067
  400TMC3    O2 5985   2.633   2.962  17.058  0.4658 -0.1596  0.8247
  401MPD2     C 5986   1.555   1.734   1.975  0.1277  0.7083  0.0815
  401MPD2    C1 5987   1.690   1.760   1.985 -0.7997 -0.3841 -0.3106
  401MPD2    C2 5988   1.781   1.647   1.967  0.0572 -0.4323  0.0349
  401MPD2    C3 5989   1.733   1.520   1.949  0.3670 -0.9523 -0.0060
  401MPD2    C4 5990   1.597   1.498   1.970 -0.2408  0.2345  0.8922
  401MPD2    C5 5991   1.504   1.605   1.979  0.2650  0.3696  0.4426
  401MPD2     H 5992   1.887   1.668   1.956  0.0793 -0.4056  0.3089
  401MPD2    H1 5993   1.548   1.401   1.975  0.7698 -0.3984 -1.7238
  401MPD2    H2 5994   1.478   1.805   2.003  0.1415  1.1930 -1.0980
  401MPD2    H3 5995   1.397   1.590   1.989  0.4035 -2.1840 -1.7908
  401MPD2     N 5996   1.823   1.422   1.901 -0.3586 -0.8357 -0.4593
  401MPD2    H5 5997   1.914   1.460   1.876  0.3063 -1.0867  1.6331
  401MPD2    N1 5998   1.728   1.899   2.009  0.9544 -0.4012  0.7886
  401MPD2    H7 5999   1.658   1.972   2.004 -0.1959 -1.7726 -3.6002
  402TMC3    C1 6000   1.875   1.235   1.773 -0.2175 -0.3569 -0.5376
  402TMC3    C2 6001   1.898   1.099   1.774 -0.4371  0.1608  0.1507
  402TMC3    C3 6002   2.015   1.045   1.729  0.8016 -0.1125  0.4065
  402TMC3    C4 6003   1.956   1.308   1.695  0.7215 -0.3185  0.5109
  402TMC3    C5 6004   2.063   1.252   1.624  0.1996 -0.5933 -0.5414
  402TMC3    C6 6005   2.094   1.120   1.646  0.6153  0.3543 -0.0692
  402TMC3     C 6006   1.786   1.293   1.869 -0.7294  0.2071  0.1537
  402TMC3     O 6007   1.705   1.226   1.928  0.1748 -0.1747  0.4997
  402TMC3     H 6008   1.825   1.045   1.835  0.7145  0.7820  2.0925
  402TMC3    H1 6009   1.934   1.413   1.678 -1.6969 -1.2193 -1.9600
  402TMC3    H2 6010   2.171   1.072   1.587  0.4455  0.1326 -0.1089
  402TMC3    C7 6011   2.144   1.337   1.541 -0.8976 -0.1198 -0.4322
  402TMC3    C8 6012   2.061   0.911   1.747 -0.0938  0.1153 -0.7604
  402TMC3    O1 6013   2.142   1.459   1.562  0.1321  0.0273 -0.0949
  402TMC3    O2 6014   2.153   0.861   1.680  0.2722  0.1258  0.4750
  403MPD2     C 6015   0.361   0.541  13.142  0.0896 -0.3007 -0.0289
  403MPD2    C1 6016   0.386   0.432  13.226  0.4089 -0.4176 -0.2785
  403MPD2    C2 6017   0.498   0.436  13.308 -0.0398  0.1421 -0.4638
  403MPD2    C3 6018   0.581   0.550  13.309  0.5407 -0.2127 -0.5332
  403MPD2    C4 6019   0.555   0.660  13.227 -0.4207 -0.2345 -0.5367
  403MPD2    C5 6020   0.444   0.653  13.152  0.0924  0.9829  0.6561
  403MPD2     H 6021   0.525   0.351  13.369  0.9684 -0.3917 -1.6404
  403MPD2    H1 6022   0.617   0.748  13.220 -2.5310  1.4284  1.9458
  403MPD2    H2 6023   0.271   0.540  13.081  0.9879 -2.3634 -1.3141
  403MPD2    H3 6024   0.407   0.743  13.104 -2.5233 -0.5161 -0.1227
  403MPD2     N 6025   0.705   0.556  13.392 -0.2721  0.3552  0.0189
  403MPD2    H5 6026   0.727   0.469  13.441 -0.1083  1.7587  2.4433
  403MPD2    N1 6027   0.293   0.320  13.227  0.5029 -0.6470 -0.0834
  403MPD2    H7 6028   0.223   0.340  13.156  1.1438  0.5069 -0.3881
  404TMC3    C1 6029   0.194   0.110  13.273  1.0008 -0.3527  0.0556
  404TMC3    C2 6030   0.180   0.008  13.364  0.1218 -0.0159  0.7369
  404TMC3    C3 6031   0.120   4.617  13.326  0.1861 -0.2725  0.1097
  404TMC3    C4 6032   0.153   0.091  13.146 -0.4291 -0.0989 -0.6658
  404TMC3    C5 6033   0.093   4.700  13.104  0.9395 -0.1141 -0.6935
  404TMC3    C6 6034   0.079   4.599  13.196 -0.6441 -0.1719  0.2194
  404TMC3     C 6035   0.295   0.213  13.309  0.2452  0.1434 -0.1951
  404TMC3     O 6036   0.367   0.184  13.402  0.2978  0.2999 -0.0759
  404TMC3     H 6037   0.226   0.011  13.462 -1.0714  2.8057  1.2063
  404TMC3    H1 6038   0.173   0.169  13.073  0.4440  2.3288  2.1488
  404TMC3    H2 6039   0.028   4.506  13.173 -0.7685  0.2399 -1.1277
  404TMC3    C7 6040   4.718   4.706  13.009 -0.0493  0.4531 -0.4334
  404TMC3    C8 6041   0.126   4.500  13.410  0.3256  0.3053 -0.3999
  404TMC3    O1 6042   4.700   0.096  12.959  0.7159 -0.0578  0.3490
  404TMC3    O2 6043   0.150   4.387  13.365  0.0427  0.7659  1.0614
  405MPD2     C 6044   0.505   0.474  14.744 -0.1872 -0.7439 -0.0203
  405MPD2    C1 6045   0.385   0.412  14.723 -0.4764  0.0806  0.0935
  405MPD2    C2 6046   0.318   0.446  14.598  0.9209  0.2861 -0.1425
  405MPD2    C3 6047   0.365   0.546  14.511 -0.4613  0.8200  0.3550
  405MPD2    C4 6048   0.490   0.599  14.536  0.5130 -0.0662  0.3461
  405MPD2    C5 6049   0.556   0.568  14.654 -0.1458  0.6258  0.1501
  405MPD2     H 6050   0.221   0.404  14.574  1.2787  0.9259 -2.7371
  405MPD2    H1 6051   0.548   0.659  14.467  0.2590 -0.5953 -0.3254
  405MPD2    H2 6052   0.558   0.471  14.839 -0.2263 -0.2211  0.0187
  405MPD2    H3 6053   0.644   0.624  14.683 -0.5150  2.4374 -2.1870
  405MPD2     N 6054   0.296   0.562  14.389 -0.1624  0.3720 -0.1549
  405MPD2    H5 6055   0.221   0.495  14.375 -1.0388  1.0699  1.2008
  405MPD2    N1 6056   0.337   0.316  14.814  0.4731  0.0758  0.0662
  405MPD2    H7 6057   0.377   0.325  14.906  1.0432  1.1963 -0.2946
  406TMC3    C1 6058   0.029   0.807  14.149 -0.0155 -0.1753  0.4300
  406TMC3    C2 6059   4.678   0.690  14.115  0.6985  0.8062 -0.2978
  406TMC3    C3 6060   0.006   0.568  14.137 -0.1008  0.4106  0.2555
  406TMC3    C4 6061   0.157   0.797  14.190 -1.0392  0.5093 -0.5987
  406TMC3    C5 6062   0.206   0.671  14.211  0.4204 -0.0296  0.3655
  406TMC3    C6 6063   0.136   0.554  14.178  0.8094 -0.2188 -0.4928
  406TMC3     C 6064   4.683   0.926  14.201  0.1756  0.2088  0.0096
  406TMC3     O 6065   0.030   1.027  14.208 -0.3070 -0.2606  0.3313
  406TMC3     H 6066   4.583   0.702  14.065  0.5792  0.2865 -0.1945
  406TMC3    H1 6067   0.216   0.887  14.185 -0.1683 -0.1304 -1.8943
  406TMC3    H2 6068   0.173   0.453  14.186  0.2506 -0.4841 -1.3139
  406TMC3    C7 6069   0.317   0.668  14.304  0.0543  0.2319  0.8134
  406TMC3    C8 6070   4.634   0.467  14.166  0.0200 -0.0440  0.3510
  406TMC3    O1 6071   0.387   0.767  14.322  0.0208 -0.1965 -0.6976
  406TMC3    O2 6072   4.528   0.476  14.105 -0.0901 -0.0221 -0.1605
  407MPD2     C 6073   2.493   2.360   9.373 -0.2534  0.2643 -0.3447
  407MPD2    C1 6074   2.608   2.440   9.399 -0.5648  0.3474  0.9452
  407MPD2    C2 6075   2.626   2.482   9.529 -0.4676  0.5350  0.2901
  407MPD2    C3 6076   2.518   2.462   9.620 -0.0720  0.1025 -0.0462
  407MPD2    C4 6077   2.403   2.401   9.583  0.3245  0.2459 -0.2595
  407MPD2    C5 6078   2.399   2.335   9.470  0.1689 -0.3501 -0.2641
  407MPD2     H 6079   2.705   2.553   9.553  0.1827  0.1668 -0.7518
  407MPD2    H1 6080   2.319   2.398   9.652 -0.5103  0.3664 -1.2795
  407MPD2    H2 6081   2.470   2.326   9.273 -0.8797 -1.5833  0.4244
  407MPD2    H3 6082   2.304   2.284   9.459 -0.3347  0.4921  0.1915
  407MPD2     N 6083   2.538   2.514   9.750 -0.3439 -0.0458 -0.1957
  407MPD2    H5 6084   2.622   2.569   9.770 -0.2684 -0.5875  0.9852
  407MPD2    N1 6085   2.704   2.481   9.299  0.6577 -0.5233  0.2195
  407MPD2    H7 6086   2.777   2.542   9.333 -1.0348  1.5297  0.1164
  408TMC3    C1 6087   2.807   2.504   9.081 -0.3080  0.6631 -0.0412
  408TMC3    C2 6088   2.926   2.535   9.141 -0.3732 -0.1487 -0.4181
  408TMC3    C3 6089   3.008   2.625   9.084  0.1029  0.0758  0.3639
  408TMC3    C4 6090   2.773   2.559   8.961 -0.0892  0.7527  0.1642
  408TMC3    C5 6091   2.868   2.639   8.896 -0.0238  0.0493  0.0366
  408TMC3    C6 6092   2.983   2.676   8.956 -0.4914 -0.3298  0.2770
  408TMC3     C 6093   2.703   2.449   9.163  0.2767  0.1639  0.0633
  408TMC3     O 6094   2.626   2.377   9.096 -0.4690  0.3523 -0.2034
  408TMC3     H 6095   2.943   2.506   9.244 -2.3178  1.9671  0.5243
  408TMC3    H1 6096   2.681   2.535   8.909 -1.0496 -0.5467  2.4826
  408TMC3    H2 6097   3.058   2.726   8.896  0.5159  0.9622  2.6120
  408TMC3    C7 6098   2.856   2.671   8.754  0.4431 -0.3720  0.0223
  408TMC3    C8 6099   3.135   2.641   9.145 -0.0933  0.4937  0.5653
  408TMC3    O1 6100   2.954   2.724   8.704 -0.1756 -0.0421 -0.3589
  408TMC3    O2 6101   3.166   2.562   9.233 -0.2040  0.0776 -0.6133
  409MPD2     C 6102   1.889   2.732  17.373  0.7020 -0.4268  1.0269
  409MPD2    C1 6103   2.020   2.714  17.409  0.6522  0.8892  0.2937
  409MPD2    C2 6104   2.109   2.805  17.351  0.0204  0.4234 -0.1786
  409MPD2    C3 6105   2.075   2.898  17.257 -0.2499  0.3081 -0.2685
  409MPD2    C4 6106   1.943   2.912  17.231 -0.3124  0.5352 -0.5293
  409MPD2    C5 6107   1.851   2.833  17.288 -0.6462  0.0755 -0.0330
  409MPD2     H 6108   2.211   2.790  17.385 -0.4103  1.4870  1.5891
  409MPD2    H1 6109   1.906   2.987  17.163 -1.3749 -0.4552 -1.0450
  409MPD2    H2 6110   1.813   2.677  17.428  0.9521 -2.3160 -0.5225
  409MPD2    H3 6111   1.747   2.849  17.264 -0.5874 -0.0038 -0.3375
  409MPD2     N 6112   2.166   2.992  17.201 -0.3119  0.0959  0.5099
  409MPD2    H5 6113   2.132   3.058  17.131 -1.1977  0.8665  1.6613
  409MPD2    N1 6114   2.060   2.629  17.511  0.0730  0.0569 -0.2042
  409MPD2    H7 6115   2.159   2.627  17.534  0.4884 -0.0624 -2.0749
  410TMC3    C1 6116   2.360   3.119  17.171 -0.0608 -0.2667  0.4683
  410TMC3    C2 6117   2.479   3.162  17.224 -0.5055  0.2368 -0.5438
  410TMC3    C3 6118   2.551   3.252  17.145 -0.1488 -0.4334  0.9163
  410TMC3    C4 6119   2.338   3.153  17.040 -0.3706  0.7990  0.8181
  410TMC3    C5 6120   2.409   3.255  16.971  0.2776  0.3989  0.3131
  410TMC3    C6 6121   2.521   3.303  17.021 -0.3563 -0.2948  0.2310
  410TMC3     C 6122   2.298   3.009  17.237 -0.1714 -0.0285 -0.1380
  410TMC3     O 6123   2.368   2.940  17.315  0.3399  0.4186  0.8809
  410TMC3     H 6124   2.500   3.145  17.329 -2.5435  1.5834  0.0825
  410TMC3    H1 6125   2.251   3.113  16.988  0.4932 -2.8424  2.1739
  410TMC3    H2 6126   2.594   3.357  16.962 -2.5781  0.5300 -1.7650
  410TMC3    C7 6127   2.396   3.263  16.827 -0.7209 -0.5667 -0.1296
  410TMC3    C8 6128   2.693   3.264  17.175  0.0633 -0.1806 -0.1391
  410TMC3    O1 6129   2.326   3.169  16.786 -0.1945 -0.0905 -0.6443
  410TMC3    O2 6130   2.765   3.359  17.137  1.1428 -0.0341 -0.0255
  411MPD2     C 6131   3.187   4.053  14.476  0.1238 -0.2638  0.1977
  411MPD2    C1 6132   3.056   4.044  14.510 -0.6345  0.3140  0.2252
  411MPD2    C2 6133   2.991   3.919  14.523 -0.3658  0.1474 -0.0753
  411MPD2    C3 6134   3.059   3.807  14.475  0.4637  0.4414  0.4297
  411MPD2    C4 6135   3.188   3.820  14.417  0.5694 -0.3891  0.3221
  411MPD2    C5 6136   3.251   3.943  14.427  0.0734 -0.2899  0.0453
  411MPD2     H 6137   2.893   3.922  14.570 -0.5016  0.3736 -0.3736
  411MPD2    H1 6138   3.234   3.723  14.404 -0.7214 -1.0717  0.8245
  411MPD2    H2 6139   3.239   4.148  14.483 -1.8671  0.9372 -1.5506
  411MPD2    H3 6140   3.354   3.950  14.396  0.9592  1.7075  3.3819
  411MPD2     N 6141   2.987   3.684  14.474 -0.2197  0.9064  0.3379
  411MPD2    H5 6142   3.029   3.605  14.425 -0.6857  1.1016 -0.3740
  411MPD2    N1 6143   2.989   4.158  14.561 -0.5245 -0.1631 -1.0206
  411MPD2    H7 6144   3.048   4.239  14.574  1.6979 -1.7397 -1.3183
  412TMC3    C1 6145   2.810   3.533  14.462 -0.3096  0.0184 -0.3434
  412TMC3    C2 6146   2.715   3.473  14.544 -0.1115 -0.3710 -0.7682
  412TMC3    C3 6147   2.633   3.378  14.507 -0.3043  0.5117  0.3939
  412TMC3    C4 6148   2.810   3.493  14.335  0.2103  0.3129  0.1643
  412TMC3    C5 6149   2.727   3.390  14.299  0.3456 -0.3286  0.8096
  412TMC3    C6 6150   2.647   3.326  14.382 -0.8412  0.2537  0.1379
  412TMC3     C 6151   2.854   3.660  14.509  0.4992 -0.3137 -0.9194
  412TMC3     O 6152   2.790   3.720  14.594 -0.2013  0.0847  0.1157
  412TMC3     H 6153   2.718   3.503  14.649  0.6568  1.1306 -1.2131
  412TMC3    H1 6154   2.882   3.538  14.267 -1.7325  0.4714 -1.7968
  412TMC3    H2 6155   2.589   3.238  14.354  0.2319 -0.4217  0.0189
  412TMC3    C7 6156   2.640   3.419  14.190 -0.3982  0.0049  0.6425
  412TMC3    C8 6157   2.510   3.352  14.579  0.1120 -0.3535 -0.4793
  412TMC3    O1 6158   2.561   3.330  14.162  0.2002 -0.5889  0.5593
  412TMC3    O2 6159   2.506   3.357  14.703  0.2426 -0.6033  0.3736
  413MPD2     C 6160   4.177   2.203  15.384  0.6848 -0.1211 -0.1304
  413MPD2    C1 6161   4.115   2.134  15.286  0.5447 -0.6388  0.6984
  413MPD2    C2 6162   4.201   2.053  15.214  0.4005 -0.0807 -0.2024
  413MPD2    C3 6163   4.335   2.034  15.240 -0.1607 -0.2630 -0.2286
  413MPD2    C4 6164   4.398   2.109  15.333 -0.7758  0.3313 -0.2665
  413MPD2    C5 6165   4.315   2.190  15.412 -0.2266 -0.6891 -0.0848
  413MPD2     H 6166   4.161   1.998  15.130 -0.6234  0.1250  0.1532
  413MPD2    H1 6167   4.503   2.105  15.358 -1.2280  0.3756  1.6823
  413MPD2    H2 6168   4.112   2.266  15.444  0.0900 -0.4188 -0.4613
  413MPD2    H3 6169   4.344   2.244  15.501 -1.8956  1.2272 -0.6939
  413MPD2     N 6170   4.392   1.926  15.175  0.6539  0.0096 -0.0164
  413MPD2    H5 6171   4.333   1.860  15.126 -1.7785  0.4405  2.4111
  413MPD2    N1 6172   3.977   2.138  15.261  0.5163 -0.0333 -0.0030
  413MPD2    H7 6173   3.933   2.196  15.331 -2.0655 -2.4095  0.3942
  414TMC3    C1 6174   4.548   1.756  15.124  0.3782 -0.2395  0.0308
  414TMC3    C2 6175   4.654   1.685  15.175  0.0566 -0.9339 -0.4208
  414TMC3    C3 6176   4.669   1.562  15.122  0.4298 -0.5518 -0.1914
  414TMC3    C4 6177   4.470   1.712  15.019 -0.7552 -0.5193 -0.3413
  414TMC3    C5 6178   4.514   1.598  14.956  0.1435  0.1151  0.4334
  414TMC3    C6 6179   4.592   1.511  15.020 -0.3586 -0.0869 -0.7582
  414TMC3     C 6180   4.522   1.886  15.181  0.5295 -0.1827  0.9282
  414TMC3     O 6181   4.607   1.918  15.263  0.1033  0.4043  0.2830
  414TMC3     H 6182   4.701   1.714  15.267 -0.8194  0.4407 -0.4053
  414TMC3    H1 6183   4.397   1.770  14.964  0.4958 -2.5777 -4.1109
  414TMC3    H2 6184   4.588   1.410  14.981  1.3396  0.2508 -1.8280
  414TMC3    C7 6185   4.426   1.561  14.839 -0.0835 -0.9280 -0.2465
  414TMC3    C8 6186   0.061   1.480  15.138  0.2060 -0.5313 -0.5718
  414TMC3    O1 6187   4.308   1.596  14.838  0.2621 -0.7007  0.2111
  414TMC3    O2 6188   0.080   1.387  15.060 -0.0751 -0.0238  0.5493
  415TMC3    C1 6189   4.449   0.199  10.488 -0.6595 -1.0472 -0.4963
  415TMC3    C2 6190   4.448   0.252  10.362  0.4538 -0.1930  0.1818
  415TMC3    C3 6191   4.357   0.206  10.276  0.2588 -0.3894 -0.2598
  415TMC3    C4 6192   4.350   0.106  10.527  0.0513  0.3135  0.1833
  415TMC3    C5 6193   4.252   0.071  10.434 -0.4096  0.4447  0.2769
  415TMC3    C6 6194   4.249   0.127  10.313 -0.2765 -0.0736  0.4447
  415TMC3     C 6195   4.514   0.270  10.596  0.1761  0.7603 -0.5782
  415TMC3     O 6196   4.538   0.198  10.694  0.5041  0.2225  0.0746
  415TMC3     H 6197   4.531   0.318  10.339 -1.1156  2.2888  1.5661
  415TMC3    H1 6198   4.341   0.065  10.627 -0.5237 -0.9126 -0.3731
  415TMC3    H2 6199   4.168   0.103  10.246  2.1766 -3.1419 -1.4456
  415TMC3    C7 6200   4.149   4.701  10.464 -0.0048  0.1927  0.7321
  415TMC3    C8 6201   4.343   0.267  10.146 -0.0930 -0.5717  0.6345
  415TMC3    O1 6202   4.054   4.698  10.386 -0.3600 -0.3948  0.3459
  415TMC3    O2 6203   4.223   0.280  10.113  0.2946  0.4675  0.0341
  416MPD2     C 6204   1.972   3.579  11.442 -0.6411 -0.2196 -0.0268
  416MPD2    C1 6205   1.838   3.554  11.484 -0.6483 -0.5102  0.8408
  416MPD2    C2 6206   1.767   3.445  11.423  0.0377 -0.5398 -0.4617
  416MPD2    C3 6207   1.829   3.368  11.326  0.2507  0.2473  0.1308
  416MPD2    C4 6208   1.955   3.396  11.286 -0.5634  0.2084  0.4102
  416MPD2    C5 6209   2.029   3.499  11.344 -0.1749 -0.8949  0.1139
  416MPD2     H 6210   1.664   3.425  11.451 -0.0718  1.4753  0.5864
  416MPD2    H1 6211   1.996   3.325  11.215  1.3320  0.7146  1.0033
  416MPD2    H2 6212   2.036   3.656  11.483 -0.6356  0.0748 -0.5890
  416MPD2    H3 6213   2.134   3.503  11.319  0.0244 -2.4707  0.7214
  416MPD2     N 6214   1.765   3.254  11.266 -0.4558 -0.4078  0.4828
  416MPD2    H5 6215   1.812   3.191  11.202  0.9205 -0.6525  1.7396
  416MPD2    N1 6216   1.784   3.644  11.578 -0.2639 -0.2229  0.3209
  416MPD2    H7 6217   1.837   3.730  11.588  0.9945 -0.8051 -1.4282
  417TMC3    C1 6218   1.632   3.753  11.715  0.0236  0.0307  0.1375
  417TMC3    C2 6219   1.571   3.728  11.833 -0.0533 -0.3024 -0.1097
  417TMC3    C3 6220   1.485   3.822  11.873  0.9037 -0.2750 -0.3769
  417TMC3    C4 6221   1.619   3.867  11.649  0.4583 -0.1694 -0.0536
  417TMC3    C5 6222   1.523   3.960  11.695 -0.2813  0.3835 -0.9300
  417TMC3    C6 6223   1.459   3.943  11.816  0.7662 -0.0298 -0.1759
  417TMC3     C 6224   1.660   3.634  11.640  0.3365  0.5159  1.0009
  417TMC3     O 6225   1.580   3.545  11.645 -0.6035  0.0235 -0.3101
  417TMC3     H 6226   1.584   3.635  11.887  0.3452 -1.7586 -2.7155
  417TMC3    H1 6227   1.668   3.884  11.554  0.3415  0.7382  0.0456
  417TMC3    H2 6228   1.378   4.009  11.846 -0.5886 -2.3388  1.2721
  417TMC3    C7 6229   1.482   4.061  11.601 -1.0731 -0.4322 -0.7055
  417TMC3    C8 6230   1.460   3.841  12.013 -0.0081 -0.2658 -0.1015
  417TMC3    O1 6231   1.530   4.061  11.488  0.3863  0.2875 -0.3864
  417TMC3    O2 6232   1.370   3.907  12.062 -0.3666 -0.5913  0.2263
  418TMC3    C1 6233   0.776   4.551   0.189 -0.0186  0.5194  0.5426
  418TMC3    C2 6234   0.670   4.633   0.146  0.2326  0.0886  0.2265
  418TMC3    C3 6235   0.558   4.644   0.226 -0.2439  0.0292  0.4095
  418TMC3    C4 6236   0.770   4.479   0.302  0.4485  0.4311 -0.6676
  418TMC3    C5 6237   0.655   4.481   0.368  0.0142 -0.1628 -0.1423
  418TMC3    C6 6238   0.555   4.560   0.338 -0.5908 -0.5884 -0.6195
  418TMC3     C 6239   0.880   4.519   0.097 -0.5977 -0.1051 -0.3105
  418TMC3     O 6240   0.927   4.613   0.030 -0.2382  0.0265  0.0565
  418TMC3     H 6241   0.679   4.688   0.053 -0.2992 -0.4294 -0.1298
  418TMC3    H1 6242   0.852   4.422   0.344  0.3393  1.2098  0.6000
  418TMC3    H2 6243   0.463   4.566   0.394 -0.4483  1.4255 -0.5713
  418TMC3    C7 6244   0.621   4.370   0.464  0.1884  0.0439  0.1043
  418TMC3    C8 6245   0.440   4.612   0.153  0.1782  0.8419  0.0355
  418TMC3    O1 6246   0.505   4.342   0.490 -0.2006  0.3340  0.5115
  418TMC3    O2 6247   0.375   4.517   0.202 -0.2375 -0.1116  0.4016
  419MPD2     C 6248   3.552   3.499  12.174 -0.3128 -0.3656 -0.2885
  419MPD2    C1 6249   3.507   3.625  12.167 -0.0095 -0.1288 -0.1063
  419MPD2    C2 6250   3.461   3.685  12.285  0.2670 -0.2106  0.3377
  419MPD2    C3 6251   3.466   3.617  12.408  0.2532 -0.9310  0.3804
  419MPD2    C4 6252   3.505   3.483  12.406  0.2160 -0.2614 -0.1644
  419MPD2    C5 6253   3.550   3.423  12.288  0.0553 -0.7508  0.3127
  419MPD2     H 6254   3.440   3.791  12.278  2.2824  0.3352  2.9095
  419MPD2    H1 6255   3.495   3.424  12.496 -0.1087  1.2494  0.7876
  419MPD2    H2 6256   3.597   3.451  12.087 -1.0406 -2.4281  0.4677
  419MPD2    H3 6257   3.583   3.320  12.292  2.0669 -0.1274 -0.2415
  419MPD2     N 6258   3.433   3.688  12.525 -0.3757 -0.6105 -0.8445
  419MPD2    H5 6259   3.374   3.771  12.518  0.7065  0.1615 -0.8773
  419MPD2    N1 6260   3.523   3.705  12.052  0.1867 -0.3940  0.0939
  419MPD2    H7 6261   3.507   3.801  12.080 -0.3617 -1.4740  3.3892
  420TMC3    C1 6262   3.422   3.725  12.756  0.8253 -0.5326 -0.8041
  420TMC3    C2 6263   3.372   3.854  12.729 -0.1778 -0.8456  0.0787
  420TMC3    C3 6264   3.327   3.930  12.836 -0.0055  0.4091  0.0864
  420TMC3    C4 6265   3.434   3.677  12.884 -0.2024 -0.5034 -0.6763
  420TMC3    C5 6266   3.398   3.759  12.983 -0.1521 -0.1356  0.1070
  420TMC3    C6 6267   3.341   3.884  12.970 -0.4017  0.1201  0.5903
  420TMC3     C 6268   3.463   3.638  12.651  0.1196 -0.0718  0.0737
  420TMC3     O 6269   3.528   3.537  12.683  0.4248  0.0573  0.3638
  420TMC3     H 6270   3.364   3.893  12.629 -1.0274 -1.8115 -0.2364
  420TMC3    H1 6271   3.484   3.587  12.919  0.1084 -1.1473 -2.8256
  420TMC3    H2 6272   3.336   3.952  13.054 -0.2274 -0.5613  1.1451
  420TMC3    C7 6273   3.464   3.728  13.104 -0.2864 -0.0540 -0.7514
  420TMC3    C8 6274   3.326   4.077  12.829 -0.2195  1.0442  0.3808
  420TMC3    O1 6275   3.464   3.608  13.140  0.0195  0.4192 -0.1195
  420TMC3    O2 6276   3.253   4.136  12.905  0.1469  0.4214 -0.2539
  421TMC3    C1 6277   0.882   0.654  13.508 -0.3412 -0.5099 -0.4695
  421TMC3    C2 6278   0.900   0.753  13.596  0.1026 -0.2888  0.0427
  421TMC3    C3 6279   0.996   0.738  13.690  0.6869 -0.1477 -0.0483
  421TMC3    C4 6280   0.952   0.533  13.518  0.3834  0.1357  0.0031
  421TMC3    C5 6281   1.057   0.529  13.605  0.3341 -0.3139 -0.1029
  421TMC3    C6 6282   1.084   0.633  13.688 -0.4902  0.1036 -0.1020
  421TMC3     C 6283   0.773   0.672  13.419 -0.0011 -0.5469  0.1922
  421TMC3     O 6284   0.756   0.789  13.384 -0.7600  0.2760 -0.0302
  421TMC3     H 6285   0.841   0.842  13.581  1.7723  0.5786 -1.4611
  421TMC3    H1 6286   0.928   0.445  13.460 -1.2507 -0.0376  0.9378
  421TMC3    H2 6287   1.163   0.621  13.761 -1.3311 -2.7056  0.3462
  421TMC3    C7 6288   1.124   0.407  13.633  0.4119 -0.2272  0.4880
  421TMC3    C8 6289   1.016   0.843  13.789 -0.6137 -0.2212  0.3900
  421TMC3    O1 6290   1.221   0.424  13.705  0.0265 -0.0241 -0.1565
  421TMC3    O2 6291   1.130   0.850  13.820  0.2456 -0.1685  0.0677
  422TMC3    C1 6292   2.507   1.787  12.532  0.4238  0.3096 -0.2622
  422TMC3    C2 6293   2.474   1.903  12.596  0.2001  0.1309 -0.6148
  422TMC3    C3 6294   2.345   1.894  12.649  0.6199  0.0005 -0.7906
  422TMC3    C4 6295   2.426   1.678  12.513 -0.1252 -0.2490  0.7933
  422TMC3    C5 6296   2.305   1.673  12.573 -0.5609  0.7702  0.2623
  422TMC3    C6 6297   2.265   1.785  12.642 -0.0863 -0.2212  0.1745
  422TMC3     C 6298   2.636   1.791  12.463 -0.4762 -0.3543 -0.2503
  422TMC3     O 6299   2.693   1.897  12.465 -0.1160 -0.5537 -0.4147
  422TMC3     H 6300   2.538   1.990  12.607  0.5638  0.0208 -1.7926
  422TMC3    H1 6301   2.456   1.593  12.452  0.8929 -0.4510  1.5774
  422TMC3    H2 6302   2.171   1.786  12.696 -0.9003 -2.4886 -1.1784
  422TMC3    C7 6303   2.235   1.545  12.572  0.1038  0.5732 -0.2657
  422TMC3    C8 6304   2.310   2.016  12.723 -0.6596  0.4414  0.6244
  422TMC3    O1 6305   2.279   1.458  12.497 -0.2520 -0.5495 -0.2550
  422TMC3    O2 6306   2.399   2.095  12.752  0.1415 -0.6581  0.1837
  423MPD2     C 6307   3.913   1.601   0.831 -0.2318  0.4659 -0.2807
  423MPD2    C1 6308   3.855   1.724   0.803  0.3027 -0.2250  0.3529
  423MPD2    C2 6309   3.876   1.794   0.688 -0.3529  0.2445 -0.0882
  423MPD2    C3 6310   3.950   1.737   0.588  0.0916  0.2167  0.3065
  423MPD2    C4 6311   4.007   1.614   0.602  0.3030  0.1761 -0.3454
  423MPD2    C5 6312   3.982   1.545   0.721  0.2956 -0.2508  0.5844
  423MPD2     H 6313   3.836   1.894   0.677 -0.3539  0.3857  1.2559
  423MPD2    H1 6314   4.069   1.565   0.528 -0.7694 -0.8883 -0.5344
  423MPD2    H2 6315   3.890   1.539   0.917  0.8568 -1.2948 -1.2663
  423MPD2    H3 6316   3.997   1.437   0.721  0.6408 -0.2027 -1.0258
  423MPD2     N 6317   3.969   1.798   0.458 -0.8739  0.1834 -0.2430
  423MPD2    H5 6318   4.026   1.751   0.387 -1.7216 -0.0155 -0.7898
  423MPD2    N1 6319   3.782   1.800   0.905 -0.0840  0.2905  0.0748
  423MPD2    H7 6320   3.742   1.891   0.883  0.3275  0.5455  0.3866
  424TMC3    C1 6321   3.668   1.836   1.122  0.4547  0.0344  0.1950
  424TMC3    C2 6322   3.631   1.775   1.239  0.3709  0.4355  0.5481
  424TMC3    C3 6323   3.579   1.854   1.339 -0.4513 -0.0052  0.2209
  424TMC3    C4 6324   3.642   1.972   1.096  0.2728 -0.1292 -0.7410
  424TMC3    C5 6325   3.594   2.046   1.198 -0.2533  0.4470  0.0227
  424TMC3    C6 6326   3.563   1.984   1.316  0.7263 -0.0249 -0.2268
  424TMC3     C 6327   3.753   1.751   1.033  0.0771  0.6235 -0.0706
  424TMC3     O 6328   3.768   1.635   1.072  0.1642  0.1565  0.2757
  424TMC3     H 6329   3.628   1.667   1.235 -0.0543  0.5147 -1.0967
  424TMC3    H1 6330   3.679   2.021   1.007  2.4733  2.2030  1.4643
  424TMC3    H2 6331   3.497   2.043   1.379 -0.4826 -1.7286  0.0898
  424TMC3    C7 6332   3.545   2.179   1.181 -1.2009 -0.2373 -0.1060
  424TMC3    C8 6333   3.570   1.801   1.476  0.7114 -0.1787 -0.9925
  424TMC3    O1 6334   3.537   2.239   1.291  0.0828  0.1884  0.0820
  424TMC3    O2 6335   3.518   1.881   1.552  0.4620  0.2063  0.3741
  425MPD2     C 6336   2.990   1.589   0.043  0.2450  0.2653  0.1036
  425MPD2    C1 6337   2.973   1.509  17.620 -0.1308  0.1794 -0.5106
  425MPD2    C2 6338   2.847   1.461  17.590  0.5336 -0.0748 -0.2449
  425MPD2    C3 6339   2.747   1.460  17.683  0.6012  1.0098  0.2828
  425MPD2    C4 6340   2.755   1.529   0.109  0.3556 -0.1568 -0.4099
  425MPD2    C5 6341   2.882   1.591   0.127 -0.0801  0.0059 -0.1939
  425MPD2     H 6342   2.835   1.402  17.499  0.6534  0.4147 -0.5810
  425MPD2    H1 6343   2.683   1.523   0.189  0.3524  0.1468 -0.3927
  425MPD2    H2 6344   3.085   1.635   0.066  0.0325  0.7949 -0.0817
  425MPD2    H3 6345   2.903   1.644   0.220  0.6021  0.6340 -0.7124
  425MPD2     N 6346   2.624   1.386  17.652 -0.5629 -0.3882  0.3123
  425MPD2    H5 6347   2.624   1.337  17.563  2.0649  0.0835  0.0497
  425MPD2    N1 6348   3.094   1.465  17.555 -0.2902 -0.1904  0.2486
  425MPD2    H7 6349   3.179   1.498  17.601 -0.4538  0.6972 -0.0943
  426TMC3    C1 6350   3.227   1.306  17.452 -0.2941 -0.0685  0.5203
  426TMC3    C2 6351   3.252   1.235  17.338 -0.3465 -0.6734  0.1795
  426TMC3    C3 6352   3.343   1.133  17.338  0.2009  0.0648 -0.2477
  426TMC3    C4 6353   3.264   1.257  17.568  0.2290 -0.4621  0.0819
  426TMC3    C5 6354   3.344   1.145  17.566  0.0826  0.2134  0.4544
  426TMC3    C6 6355   3.401   1.088  17.454  0.4173  0.2223  0.6540
  426TMC3     C 6356   3.109   1.381  17.451  0.7553  0.6918 -0.7092
  426TMC3     O 6357   3.025   1.365  17.363  0.0511  0.4093 -0.3873
  426TMC3     H 6358   3.208   1.254  17.241 -2.2188  1.4237  1.4585
  426TMC3    H1 6359   3.223   1.301  17.658  2.7877 -0.6996  1.3562
  426TMC3    H2 6360   3.465   1.000  17.449 -0.3331 -0.2557 -0.3661
  426TMC3    C7 6361   3.326   1.047  17.666  0.2564  0.4953  0.4058
  426TMC3    C8 6362   3.347   1.031  17.232 -0.5914 -0.3429 -0.6440
  426TMC3    O1 6363   3.349   0.927  17.639 -0.4518 -0.3327 -0.0626
  426TMC3    O2 6364   3.375   0.915  17.263 -0.2100  0.1656 -0.0948
  427MPD2     C 6365   1.901   4.162  14.743  0.0340  0.3598  0.5099
  427MPD2    C1 6366   1.852   4.049  14.817 -0.3461  0.1751  0.1563
  427MPD2    C2 6367   1.721   4.037  14.855 -0.6761  0.1668  0.1991
  427MPD2    C3 6368   1.634   4.134  14.816 -0.0322  0.1328 -0.2825
  427MPD2    C4 6369   1.675   4.243  14.744 -0.8764 -0.1466 -0.1358
  427MPD2    C5 6370   1.805   4.260  14.708  0.4158  0.4865  0.0570
  427MPD2     H 6371   1.683   3.949  14.906  1.1126 -0.8853 -0.2759
  427MPD2    H1 6372   1.615   4.326  14.710 -0.2382  0.4560  0.2144
  427MPD2    H2 6373   2.001   4.177  14.702 -0.5210 -0.7030 -1.2250
  427MPD2    H3 6374   1.847   4.350  14.665  1.8844 -0.2634 -0.0737
  427MPD2     N 6375   1.489   4.119  14.821 -0.3747 -0.0226  0.1185
  427MPD2    H5 6376   1.432   4.195  14.786 -2.1775 -1.9552 -1.1284
  427MPD2    N1 6377   1.946   3.950  14.847 -0.0191 -0.1243  0.1385
  427MPD2    H7 6378   1.904   3.866  14.887 -1.4953  0.0110 -1.1606
  428TMC3    C1 6379   2.150   3.818  14.848 -0.2279 -0.2423  0.3527
  428TMC3    C2 6380   2.067   3.708  14.881  0.1875 -0.4687  0.5912
  428TMC3    C3 6381   2.128   3.592  14.899  0.2755  0.2404  0.2550
  428TMC3    C4 6382   2.288   3.810  14.833  0.2496 -0.7798 -0.6593
  428TMC3    C5 6383   2.340   3.691  14.864  0.2254 -0.5292  0.1458
  428TMC3    C6 6384   2.268   3.580  14.900  0.0257 -0.1004 -0.0553
  428TMC3     C 6385   2.086   3.953  14.830 -0.4707  0.2048  0.2480
  428TMC3     O 6386   2.170   4.038  14.805 -0.4811 -0.5020  0.1341
  428TMC3     H 6387   1.960   3.711  14.898 -0.0114 -3.0502 -0.2428
  428TMC3    H1 6388   2.351   3.895  14.811  0.2906 -0.1986  1.7786
  428TMC3    H2 6389   2.318   3.486  14.922  0.3983  0.2765  0.7108
  428TMC3    C7 6390   2.475   3.692  14.916 -0.0446  0.0173  0.2998
  428TMC3    C8 6391   2.051   3.480  14.947  0.4135  0.2175  0.3493
  428TMC3    O1 6392   2.500   3.596  14.989 -0.2011 -0.7232  0.0601
  428TMC3    O2 6393   2.122   3.413  15.021 -0.2478 -0.3141 -0.3368
  429MPD2     C 6394   2.912   3.464   0.182  0.5512 -0.5605 -0.1774
  429MPD2    C1 6395   2.887   3.398   0.061 -0.7700  0.4275  0.3363
  429MPD2    C2 6396   2.850   3.471  17.642  0.1840  0.0003  0.4210
  429MPD2    C3 6397   2.834   3.608  17.652  0.1297 -0.0209  0.5787
  429MPD2    C4 6398   2.861   3.674   0.081 -0.4423 -0.1645  0.1415
  429MPD2    C5 6399   2.896   3.601   0.188 -0.3066  0.0838  0.2365
  429MPD2     H 6400   2.823   3.408  17.557  0.2081  0.7450 -0.1414
  429MPD2    H1 6401   2.858   3.782   0.091  1.1787  0.0948 -2.1959
  429MPD2    H2 6402   2.935   3.417   0.277  0.5098 -1.4925 -0.6273
  429MPD2    H3 6403   2.932   3.658   0.272 -0.5447 -0.8954  1.0085
  429MPD2     N 6404   2.817   3.676  17.532 -0.0733  0.3874  0.5491
  429MPD2    H5 6405   2.829   3.623  17.446  1.0546 -2.1815  2.3094
  429MPD2    N1 6406   2.925   3.263   0.047 -0.2735  0.1119  0.5504
  429MPD2    H7 6407   2.908   3.210  17.657 -1.4876 -0.6699  1.2706
  430TMC3    C1 6408   2.850   3.870  17.404 -0.0929 -0.7406 -0.5253
  430TMC3    C2 6409   2.796   3.984  17.356 -0.0642 -0.4955  0.1420
  430TMC3    C3 6410   2.871   4.068  17.279 -0.1306 -0.0207  0.3174
  430TMC3    C4 6411   2.978   3.843  17.380  0.6479  0.4432  0.0498
  430TMC3    C5 6412   3.047   3.922  17.301 -0.6098 -0.7265  0.3435
  430TMC3    C6 6413   3.004   4.042  17.255 -0.0962 -0.1336 -0.5259
  430TMC3     C 6414   2.798   3.811  17.526  0.2050  0.8760  0.3501
  430TMC3     O 6415   2.762   3.882  17.617  0.0368  0.1225  0.6528
  430TMC3     H 6416   2.694   4.009  17.383 -0.8007 -0.5570 -2.5558
  430TMC3    H1 6417   3.023   3.756  17.427  0.1432  1.4691  2.4157
  430TMC3    H2 6418   3.054   4.105  17.183  0.7924 -2.5266 -1.9760
  430TMC3    C7 6419   3.115   3.847  17.194 -0.0250 -0.3607  0.2490
  430TMC3    C8 6420   2.800   4.128  17.168  0.1647  0.3302  0.1090
  430TMC3    O1 6421   3.145   3.917  17.097  0.8268 -0.1552  0.2115
  430TMC3    O2 6422   2.686   4.088  17.151 -0.2678 -0.3799 -0.4651
  431MPD2     C 6423   4.065   4.339  12.201  0.6290 -0.2365 -0.3156
  431MPD2    C1 6424   4.055   4.206  12.229  0.4320  0.2515 -0.7460
  431MPD2    C2 6425   3.977   4.120  12.157  0.2630  0.3437  0.7701
  431MPD2    C3 6426   3.910   4.157  12.040  0.4073  0.0691  0.2065
  431MPD2    C4 6427   3.926   4.285  12.002  0.0846 -0.0862  0.2593
  431MPD2    C5 6428   3.997   4.376  12.082  0.3399 -0.1145  0.0001
  431MPD2     H 6429   3.964   4.016  12.183 -0.1044 -0.2776 -1.9261
  431MPD2    H1 6430   3.881   4.321  11.910 -2.3476 -0.3140  1.3656
  431MPD2    H2 6431   4.114   4.413  12.263  2.0205 -0.9195 -0.6037
  431MPD2    H3 6432   3.995   4.482  12.057 -2.2026  0.5642  3.0784
  431MPD2     N 6433   3.835   4.060  11.972 -0.4127 -0.5432 -0.3720
  431MPD2    H5 6434   3.834   3.967  12.014 -1.1632 -0.1023  0.5607
  431MPD2    N1 6435   4.134   4.160  12.339 -0.1623 -0.2372 -0.1441
  431MPD2    H7 6436   4.193   4.225  12.390  0.5419 -1.5653  0.7327
  432TMC3    C1 6437   3.736   3.946  11.792 -0.6973 -0.4867  0.9841
  432TMC3    C2 6438   3.751   3.904  11.661 -0.1762 -0.2177 -0.3602
  432TMC3    C3 6439   3.705   3.776  11.621 -0.0940  0.2674 -0.6223
  432TMC3    C4 6440   3.656   3.871  11.877  0.0078 -0.6838  0.4501
  432TMC3    C5 6441   3.597   3.756  11.830 -0.0231  0.0000  0.3894
  432TMC3    C6 6442   3.630   3.703  11.709  0.9655  0.7069 -0.0345
  432TMC3     C 6443   3.794   4.073  11.840  0.1879  0.3532  0.4625
  432TMC3     O 6444   3.840   4.148  11.754 -0.0253  0.3187 -0.6349
  432TMC3     H 6445   3.827   3.957  11.604 -1.0119 -0.9854 -2.2037
  432TMC3    H1 6446   3.619   3.913  11.969 -2.5607 -0.1072 -0.8376
  432TMC3    H2 6447   3.596   3.605  11.679  0.3506  0.0830  2.6979
  432TMC3    C7 6448   3.538   3.661  11.924  0.1648 -0.7254  0.4706
  432TMC3    C8 6449   3.789   3.697  11.531 -0.4558 -0.0045  0.0482
  432TMC3    O1 6450   3.520   3.550  11.882 -0.4775  0.8972  0.1394
  432TMC3    O2 6451   3.731   3.614  11.462 -0.2844 -0.1132 -0.2114
  433MPD2     C 6452   2.676   2.917  10.545  0.1193 -0.1846 -1.0290
  433MPD2    C1 6453   2.619   2.823  10.627 -0.8101 -0.0938 -0.2997
  433MPD2    C2 6454   2.587   2.869  10.750  0.3563  0.4510 -0.7763
  433MPD2    C3 6455   2.610   2.994  10.801 -0.0557  0.5427  0.0184
  433MPD2    C4 6456   2.657   3.089  10.715  0.0813 -1.0638  0.5005
  433MPD2    C5 6457   2.684   3.055  10.578  0.4563  0.6574 -0.3805
  433MPD2     H 6458   2.543   2.797  10.819  0.2309  1.0824 -0.1936
  433MPD2    H1 6459   2.674   3.193  10.743 -1.7657 -1.1616  1.9713
  433MPD2    H2 6460   2.714   2.897  10.445 -1.7535 -0.0382 -1.7680
  433MPD2    H3 6461   2.714   3.127  10.503  2.4652 -1.2072 -1.3355
  433MPD2     N 6462   2.584   3.013  10.936 -0.0290 -0.0633  0.0965
  433MPD2    H5 6463   2.529   2.941  10.983 -1.6175  0.8854 -0.2995
  433MPD2    N1 6464   2.616   2.692  10.583 -0.0337  0.6489 -0.2771
  433MPD2    H7 6465   2.633   2.670  10.485  1.2774  2.0558 -0.3602
  434TMC3    C1 6466   2.550   2.466  10.583  0.6229  0.0811  0.1230
  434TMC3    C2 6467   2.567   2.354  10.656  0.1678 -0.1214 -0.3802
  434TMC3    C3 6468   2.627   2.244  10.607  0.5873  0.1229 -0.2432
  434TMC3    C4 6469   2.573   2.471  10.444 -0.1916 -0.4836  0.1838
  434TMC3    C5 6470   2.628   2.352  10.397  0.4279  0.6441  0.1158
  434TMC3    C6 6471   2.655   2.246  10.480  0.0776  0.0297  0.0160
  434TMC3     C 6472   2.566   2.585  10.665  0.9320 -0.1712 -0.5365
  434TMC3     O 6473   2.534   2.583  10.784  0.0097  0.0879 -0.5720
  434TMC3     H 6474   2.545   2.365  10.762  1.0236 -0.3990 -0.1763
  434TMC3    H1 6475   2.542   2.549  10.376  0.2092 -0.3594  0.1439
  434TMC3    H2 6476   2.705   2.156  10.448 -0.3496  0.4444 -1.8747
  434TMC3    C7 6477   2.638   2.346  10.252 -0.5675 -0.6328 -0.4338
  434TMC3    C8 6478   2.728   2.189  10.700  0.0448  0.0881 -0.0183
  434TMC3    O1 6479   2.675   2.441  10.199  0.6489 -0.4136 -0.2443
  434TMC3    O2 6480   2.704   2.180  10.818  0.0827 -0.2252  0.3246
  435MPD2     C 6481   4.575   2.471  15.432  0.2782  0.3291  0.0017
  435MPD2    C1 6482   4.527   2.441  15.558 -0.3693  0.1009  0.2116
  435MPD2    C2 6483   4.614   2.381  15.645 -0.8129  0.4649  0.2575
  435MPD2    C3 6484   0.012   2.328  15.604 -0.6823  0.4516  0.0141
  435MPD2    C4 6485   0.054   2.356  15.471  0.5184  0.3470 -0.8553
  435MPD2    C5 6486   4.695   2.428  15.393 -0.0577 -0.3622  0.4467
  435MPD2     H 6487   4.585   2.363  15.748 -0.8851  1.0765  0.3450
  435MPD2    H1 6488   0.154   2.326  15.440  0.0320 -3.2793  1.0753
  435MPD2    H2 6489   4.526   2.530  15.355 -1.6438 -1.5578 -0.2263
  435MPD2    H3 6490   0.007   2.463  15.296 -1.5859  1.1505  0.4370
  435MPD2     N 6491   0.084   2.249  15.696 -0.7859  0.2656 -0.2463
  435MPD2    H5 6492   0.040   2.227  15.784  1.3715 -0.2740  0.6974
  435MPD2    N1 6493   4.403   2.479  15.612  0.2847  0.0984 -0.2662
  435MPD2    H7 6494   4.386   2.449  15.708  2.0937 -0.8481 -0.2333
  436TMC3    C1 6495   4.049   2.515  15.798 -0.3864 -0.1158  0.3957
  436TMC3    C2 6496   4.168   2.561  15.739 -0.7031  0.4253  0.1680
  436TMC3    C3 6497   4.169   2.567  15.601  0.0118 -0.5336  0.8199
  436TMC3    C4 6498   3.942   2.472  15.727  0.2671 -0.4869  0.7521
  436TMC3    C5 6499   3.953   2.473  15.589 -0.0228 -0.3386 -0.9129
  436TMC3    C6 6500   4.070   2.516  15.524  0.2933  0.3251  0.4983
  436TMC3     C 6501   4.032   2.525  15.942  0.5057 -0.4137 -1.1876
  436TMC3     O 6502   4.135   2.542  16.006  0.0715 -0.1718 -0.0779
  436TMC3     H 6503   4.244   2.601  15.807  0.0283 -0.2021 -0.2865
  436TMC3    H1 6504   3.852   2.428  15.769 -0.3941  0.0747 -0.0557
  436TMC3    H2 6505   4.077   2.513  15.416 -2.0566  0.2248  0.3431
  436TMC3    C7 6506   3.846   2.438  15.502 -0.0824 -0.3743 -0.5198
  436TMC3    C8 6507   4.303   2.545  15.541  0.1332  0.2297  0.3658
  436TMC3    O1 6508   3.867   2.389  15.394 -0.0798 -0.3370  0.3185
  436TMC3    O2 6509   4.302   2.570  15.419 -0.6980 -0.2513 -0.2023
  437TMC3    C1 6510   3.237   0.514  12.298 -0.0038 -0.0719  0.5292
  437TMC3    C2 6511   3.182   0.601  12.214  0.4671 -0.7935  0.4895
  437TMC3    C3 6512   3.245   0.637  12.093 -0.3005  0.3675  0.0051
  437TMC3    C4 6513   3.362   0.464  12.265 -0.3485  0.2437  0.9097
  437TMC3    C5 6514   3.417   0.480  12.144 -0.1376 -0.0099 -0.3125
  437TMC3    C6 6515   3.364   0.572  12.058  0.4504 -0.1039 -0.3803
  437TMC3     C 6516   3.166   0.460  12.414  0.4145 -0.8024  0.3315
  437TMC3     O 6517   3.226   0.373  12.477 -0.1393  0.1689 -0.2853
  437TMC3     H 6518   3.077   0.627  12.224  0.7922  0.4198  0.6409
  437TMC3    H1 6519   3.397   0.377  12.319 -0.1066  0.7003  1.4947
  437TMC3    H2 6520   3.423   0.607  11.974  1.1540 -0.2358  0.0574
  437TMC3    C7 6521   3.539   0.414  12.102  0.0310 -0.2620 -0.2689
  437TMC3    C8 6522   3.166   0.707  11.999  0.6068 -0.0594 -0.3898
  437TMC3    O1 6523   3.569   0.422  11.983  0.1602  0.2768 -0.0661
  437TMC3    O2 6524   3.069   0.762  12.047 -0.1110  0.0238  0.3349
  438MPD2     C 6525   0.924   0.193  16.323 -0.3772  0.2189 -0.3054
  438MPD2    C1 6526   0.998   0.083  16.378 -0.4876 -0.6763 -0.2063
  438MPD2    C2 6527   0.936   0.001  16.464 -0.3962  0.1104 -0.3439
  438MPD2    C3 6528   0.813   0.036  16.512  0.5227  0.0412  0.4285
  438MPD2    C4 6529   0.750   0.156  16.470  0.3791 -0.4966  0.6615
  438MPD2    C5 6530   0.806   0.238  16.375  0.1062 -0.1495 -0.0782
  438MPD2     H 6531   1.002   4.651  16.510 -0.3034  0.0171 -0.6315
  438MPD2    H1 6532   0.654   0.181  16.514 -0.1393 -0.7679 -0.3280
  438MPD2    H2 6533   0.971   0.261  16.252 -0.0684 -0.0540 -0.3655
  438MPD2    H3 6534   0.752   0.322  16.335 -0.2884 -0.0696  0.6179
  438MPD2     N 6535   0.759   4.704  16.627  0.5826  0.3287 -0.2483
  438MPD2    H5 6536   0.669   0.019  16.655 -0.3569 -2.4052  0.4768
  438MPD2    N1 6537   1.134   0.066  16.348  0.0292  0.0325 -0.2193
  438MPD2    H7 6538   1.191   0.003  16.404 -1.5593 -2.1817 -1.0785
  439TMC3    C1 6539   1.321   0.045  16.212 -0.3137  0.1677  0.5060
  439TMC3    C2 6540   1.406   0.127  16.140 -0.7488 -0.0118 -0.2034
  439TMC3    C3 6541   1.541   0.099  16.161  0.7755 -0.1439 -0.4289
  439TMC3    C4 6542   1.362   4.659  16.285 -0.0194 -0.1160  0.4052
  439TMC3    C5 6543   1.497   4.631  16.300  0.5014 -0.5469  1.0580
  439TMC3    C6 6544   1.584   4.719  16.238  0.3986 -0.3325 -0.3753
  439TMC3     C 6545   1.196   0.107  16.233 -1.0810 -0.3414 -0.1826
  439TMC3     O 6546   1.170   0.202  16.155  0.1048  0.3324 -0.1319
  439TMC3     H 6547   1.374   0.216  16.087 -3.6689 -0.8958  0.0906
  439TMC3    H1 6548   1.296   4.598  16.345 -0.6922 -1.3288 -1.5604
  439TMC3    H2 6549   1.688   4.690  16.235  0.1842 -1.1191 -0.0748
  439TMC3    C7 6550   1.545   4.553  16.414  0.4202  0.4662 -1.1358
  439TMC3    C8 6551   1.645   0.163  16.092 -0.0815  0.7198 -0.2243
  439TMC3    O1 6552   1.659   4.577  16.456  0.4275  0.3794 -0.3264
  439TMC3    O2 6553   1.761   0.136  16.110  0.7548  0.3725 -0.4128
  440MPD2     C 6554   4.639   0.911  14.652  0.2704  0.2616 -0.4974
  440MPD2    C1 6555   4.667   0.981  14.767  0.4032 -0.0867  0.8354
  440MPD2    C2 6556   0.073   1.005  14.806 -0.2313 -0.0463 -0.2369
  440MPD2    C3 6557   0.177   0.968  14.723  0.3141 -0.2824  0.1746
  440MPD2    C4 6558   0.154   0.889  14.617 -0.5555 -0.3413  0.4931
  440MPD2    C5 6559   0.021   0.869  14.576 -0.3736  0.4376 -0.2688
  440MPD2     H 6560   0.093   1.066  14.893 -1.7882 -0.5586  0.4797
  440MPD2    H1 6561   0.235   0.848  14.557 -0.2361 -0.5043  1.0389
  440MPD2    H2 6562   4.540   0.881  14.619 -0.2152 -0.6055  1.7856
  440MPD2    H3 6563   4.717   0.809  14.490 -0.8843 -1.6577  1.3483
  440MPD2     N 6564   0.316   0.993  14.759  0.1308 -0.1661 -0.6828
  440MPD2    H5 6565   0.378   0.954  14.688  1.6800 -1.5451  1.4501
  440MPD2    N1 6566   4.564   1.040  14.846 -0.4619  0.0981 -0.4562
  440MPD2    H7 6567   4.596   1.090  14.928  1.5934 -1.0883 -0.5527
  441TMC3    C1 6568   0.499   1.030  14.876  0.3958 -0.7348 -0.1708
  441TMC3    C2 6569   0.566   1.123  14.939 -0.3020  0.1472 -0.0172
  441TMC3    C3 6570   0.641   1.081  15.051  0.2596 -0.9280  0.2363
  441TMC3    C4 6571   0.516   0.896  14.896 -0.4339 -0.4371 -0.3134
  441TMC3    C5 6572   0.588   0.855  15.006 -0.0674 -0.0600  0.8611
  441TMC3    C6 6573   0.644   0.951  15.084  0.4093 -0.3408 -0.2170
  441TMC3     C 6574   0.367   1.072  14.859  0.5545 -0.4105 -0.3007
  441TMC3     O 6575   0.311   1.120  14.958 -0.0894  0.1753 -0.3693
  441TMC3     H 6576   0.553   1.228  14.919  1.3359  0.1602 -1.0423
  441TMC3    H1 6577   0.442   0.826  14.860 -0.5502 -1.4564  1.8772
  441TMC3    H2 6578   0.672   0.942  15.189  2.3101  0.6924 -0.6489
  441TMC3    C7 6579   0.551   0.735  15.068 -0.0356 -0.0655 -0.2115
  441TMC3    C8 6580   0.619   1.161  15.171 -0.8734 -0.4360  0.1395
  441TMC3    O1 6581   0.461   0.675  15.018 -0.5231 -0.2176 -0.0052
  441TMC3    O2 6582   0.704   1.151  15.258 -0.1510 -0.2385 -0.4831
  442MPD2     C 6583   2.748   1.242  17.156 -0.1415 -0.9835  0.4307
  442MPD2    C1 6584   2.620   1.215  17.107 -0.2039  0.3914  0.2125
  442MPD2    C2 6585   2.614   1.116  17.017 -0.2328  0.2496 -0.2561
  442MPD2    C3 6586   2.724   1.038  16.974  0.8975 -0.2746  1.0990
  442MPD2    C4 6587   2.848   1.074  17.021 -0.0768  0.3810  0.2469
  442MPD2    C5 6588   2.863   1.173  17.114  1.0615 -0.1368  1.2000
  442MPD2     H 6589   2.518   1.086  16.977 -0.3509 -0.0990  0.2856
  442MPD2    H1 6590   2.941   1.024  16.998  0.7635  1.4633  1.2504
  442MPD2    H2 6591   2.754   1.329  17.221 -0.3112 -0.7694  0.1567
  442MPD2    H3 6592   2.962   1.184  17.157  1.5443 -1.5395  0.4552
  442MPD2     N 6593   2.731   0.938  16.880 -0.5039 -0.3655  0.7064
  442MPD2    H5 6594   2.822   0.908  16.846 -0.9818  0.7670 -1.5606
  442MPD2    N1 6595   2.511   1.286  17.157 -0.0831  0.1134  0.5588
  442MPD2    H7 6596   2.421   1.275  17.111  0.3795  0.5404 -0.4503
  443TMC3    C1 6597   2.368   1.419  17.282  0.1853 -0.6101  0.0232
  443TMC3    C2 6598   2.300   1.464  17.175  0.1369  0.1384  0.5373
  443TMC3    C3 6599   2.205   1.563  17.184  0.1746 -0.0315 -0.4523
  443TMC3    C4 6600   2.350   1.480  17.401 -0.7444  0.7527  0.1499
  443TMC3    C5 6601   2.248   1.564  17.412  0.1028 -0.3294  0.5444
  443TMC3    C6 6602   2.169   1.603  17.311  0.1987 -0.1091  0.2174
  443TMC3     C 6603   2.497   1.360  17.275  0.1361  0.5772 -0.2869
  443TMC3     O 6604   2.574   1.386  17.367 -0.0851  0.0174 -0.3718
  443TMC3     H 6605   2.315   1.418  17.078  1.3737  1.0207  0.3044
  443TMC3    H1 6606   2.408   1.463  17.491 -3.3739  1.9714  2.0571
  443TMC3    H2 6607   2.082   1.664  17.335 -1.2086 -1.9948 -0.0767
  443TMC3    C7 6608   2.169   1.515  17.522  0.0665 -0.1527  0.9970
  443TMC3    C8 6609   2.095   1.571  17.089 -0.3108 -0.0917  0.5313
  443TMC3    O1 6610   2.139   1.593  17.613  0.2538 -0.0356  0.1762
  443TMC3    O2 6611   2.019   1.663  17.107  0.3677 -0.1792  0.2287
  444MPD2     C 6612   3.122   4.720  17.031  0.5166  0.4809  0.0346
  444MPD2    C1 6613   3.085   0.057  16.915 -0.5322  0.6098  0.7218
  444MPD2    C2 6614   3.157   0.037  16.802 -0.4651  0.5389 -0.0273
  444MPD2    C3 6615   3.275   4.694  16.805 -0.2627  0.9326 -0.8499
  444MPD2    C4 6616   3.316   4.637  16.920  0.3302  0.0268  0.0128
  444MPD2    C5 6617   3.236   4.646  17.028 -1.0358 -0.2894  0.5354
  444MPD2     H 6618   3.121   0.059  16.703 -2.2409 -0.5879  0.3699
  444MPD2    H1 6619   3.401   4.570  16.930  0.5913  0.6378  1.9085
  444MPD2    H2 6620   3.050   4.710  17.112 -0.0692 -0.2894 -0.5941
  444MPD2    H3 6621   3.271   4.604  17.122 -0.2695 -1.5309 -0.3101
  444MPD2     N 6622   3.340   4.674  16.685  1.0106 -0.3313 -0.1304
  444MPD2    H5 6623   3.287   4.709  16.606 -0.2647  0.9043  1.2609
  444MPD2    N1 6624   2.970   0.136  16.912  0.5937 -0.5171  0.3034
  444MPD2    H7 6625   2.900   0.110  16.981 -0.4914 -1.9043 -1.3258
  445TMC3    C1 6626   3.495   4.624  16.525  0.2476 -0.1616 -0.1041
  445TMC3    C2 6627   3.405   4.645  16.424  0.6297  0.5101 -0.4061
  445TMC3    C3 6628   3.438   4.608  16.298 -0.1173 -0.3129  0.2261
  445TMC3    C4 6629   3.621   4.575  16.497  0.2233  0.0196  0.7405
  445TMC3    C5 6630   3.652   4.556  16.369  0.4261  0.4588 -0.1309
  445TMC3    C6 6631   3.560   4.576  16.271  0.2103 -0.4564 -0.2035
  445TMC3     C 6632   3.454   4.605  16.668 -0.1439 -0.4071  0.4189
  445TMC3     O 6633   3.540   4.560  16.744  0.4120 -1.0309  0.1893
  445TMC3     H 6634   3.303   4.677  16.438  0.8390  0.7114  0.6825
  445TMC3    H1 6635   3.695   4.583  16.576  2.1731 -1.4501 -0.9568
  445TMC3    H2 6636   3.597   4.561  16.171 -3.6010  0.2036 -1.7237
  445TMC3    C7 6637   3.790   4.550  16.337 -0.3326 -0.0416  0.0684
  445TMC3    C8 6638   3.351   4.598  16.188 -0.8879  0.1056  0.3298
  445TMC3    O1 6639   3.833   4.588  16.229  0.0014  0.9440  0.5773
  445TMC3    O2 6640   3.402   4.573  16.077  0.2488  0.2581 -0.1641
  446MPD2     C 6641   2.369   2.194  11.180 -0.0615 -0.2817  0.0580
  446MPD2    C1 6642   2.342   2.288  11.079  0.2031 -0.4854  0.2376
  446MPD2    C2 6643   2.444   2.361  11.020 -0.3484 -0.1320 -0.0733
  446MPD2    C3 6644   2.574   2.345  11.064  0.0341  0.1551 -1.0423
  446MPD2    C4 6645   2.595   2.253  11.164  0.3922 -0.1693 -0.2517
  446MPD2    C5 6646   2.494   2.182  11.224  0.3177  0.2372 -0.4324
  446MPD2     H 6647   2.428   2.441  10.949  0.9964  2.1590  2.1899
  446MPD2    H1 6648   2.694   2.229  11.200  0.4752  1.4030  0.5580
  446MPD2    H2 6649   2.289   2.132  11.217 -0.7475 -0.6222 -2.0250
  446MPD2    H3 6650   2.507   2.108  11.302  2.9888  0.3812 -0.7378
  446MPD2     N 6651   2.682   2.423  11.015 -0.8120 -0.6653  0.1397
  446MPD2    H5 6652   2.656   2.495  10.948  2.0128  1.0455  0.8905
  446MPD2    N1 6653   2.211   2.278  11.025  0.2047 -0.6498  0.0191
  446MPD2    H7 6654   2.149   2.220  11.081 -3.2878  2.1454 -0.9852
  447TMC3    C1 6655   2.889   2.515  10.994 -0.5294  1.4526  0.0311
  447TMC3    C2 6656   2.868   2.526  10.861  0.2109 -0.4445  0.4684
  447TMC3    C3 6657   2.973   2.570  10.784  0.2130 -0.0358 -0.4021
  447TMC3    C4 6658   3.011   2.532  11.053 -0.5400 -0.1002  0.6276
  447TMC3    C5 6659   3.116   2.581  10.979  1.3808  0.3908  0.0868
  447TMC3    C6 6660   3.100   2.593  10.839  0.0673 -0.6190 -0.4597
  447TMC3     C 6661   2.808   2.427  11.062  0.0358 -0.0120  0.8083
  447TMC3     O 6662   2.857   2.377  11.167 -0.1761  0.1264  0.0221
  447TMC3     H 6663   2.774   2.502  10.812  0.5307 -1.3954  0.3295
  447TMC3    H1 6664   3.020   2.504  11.158  1.6336  1.0108  0.7285
  447TMC3    H2 6665   3.187   2.606  10.775 -0.5913  1.2449 -0.9904
  447TMC3    C7 6666   3.255   2.551  11.025  0.4312  1.0083  0.2633
  447TMC3    C8 6667   2.959   2.561  10.636 -0.5987  0.4310  0.1834
  447TMC3    O1 6668   3.338   2.547  10.938 -0.4728  0.0859 -0.6915
  447TMC3    O2 6669   2.858   2.505  10.594 -0.2286  0.1618  0.2471
  448TMC3    C1 6670   0.411   1.238  17.222  0.1939  0.3916  0.6951
  448TMC3    C2 6671   0.507   1.215  17.126 -0.3146  0.1852  0.0925
  448TMC3    C3 6672   0.628   1.269  17.147 -0.3057 -0.1526  0.3846
  448TMC3    C4 6673   0.441   1.304  17.328  0.9035  0.2500 -0.4202
  448TMC3    C5 6674   0.565   1.353  17.352  0.2047  0.2254 -0.4471
  448TMC3    C6 6675   0.662   1.335  17.265  0.0173  0.2936 -0.0046
  448TMC3     C 6676   0.283   1.168  17.202 -0.3791 -0.5603  0.4454
  448TMC3     O 6677   0.292   1.094  17.106  0.0772  0.4258 -0.2508
  448TMC3     H 6678   0.486   1.167  17.031 -1.8991 -1.4293  1.2563
  448TMC3    H1 6679   0.368   1.309  17.408  0.0273  0.0902 -1.2245
  448TMC3    H2 6680   0.766   1.354  17.289  0.7535 -0.0854 -2.9306
  448TMC3    C7 6681   0.598   1.384  17.494  0.1503  0.4342 -0.4235
  448TMC3    C8 6682   0.737   1.240  17.051 -0.1220 -0.0351 -0.1383
  448TMC3    O1 6683   0.509   1.424  17.563  0.0789  0.0973 -0.0532
  448TMC3    O2 6684   0.855   1.237  17.096  0.5312  0.0109  0.3761
  449MPD2     C 6685   2.431   4.426  13.701  0.1589  0.2570  0.3726
  449MPD2    C1 6686   2.310   4.483  13.741  0.1019  0.2222  0.2919
  449MPD2    C2 6687   2.202   4.401  13.773 -0.3276  0.5728 -0.3390
  449MPD2    C3 6688   2.214   4.267  13.770  0.2512 -0.5925 -0.8140
  449MPD2    C4 6689   2.331   4.215  13.726 -0.7633 -0.2522  0.1261
  449MPD2    C5 6690   2.437   4.291  13.685 -0.2984  0.0135 -0.4369
  449MPD2     H 6691   2.114   4.460  13.798 -1.4805 -0.4797 -1.9427
  449MPD2    H1 6692   2.348   4.108  13.720  1.2848  0.0055  1.0903
  449MPD2    H2 6693   2.515   4.490  13.676 -0.4768  0.5989 -0.9220
  449MPD2    H3 6694   2.526   4.260  13.632 -0.0470 -2.2379  1.3341
  449MPD2     N 6695   2.097   4.191  13.773  0.2401  0.3921  0.5793
  449MPD2    H5 6696   2.008   4.237  13.789 -1.0316 -1.5664 -0.8249
  449MPD2    N1 6697   2.293   4.622  13.729 -0.4004 -0.2127 -0.1141
  449MPD2    H7 6698   2.199   4.651  13.751  0.5814  2.0741  1.0666
  450TMC3    C1 6699   2.292   0.112  13.639 -0.4758 -0.4485  0.3230
  450TMC3    C2 6700   2.325   0.171  13.518  0.5257  0.4401 -0.0779
  450TMC3    C3 6701   2.213   0.198  13.436 -0.0901  0.0766  0.1119
  450TMC3    C4 6702   2.166   0.111  13.682 -0.0557 -0.5286 -0.1432
  450TMC3    C5 6703   2.064   0.141  13.596 -0.2690 -0.6213  0.7073
  450TMC3    C6 6704   2.085   0.169  13.463 -0.0089  0.6767  0.7486
  450TMC3     C 6705   2.372   4.713  13.672 -0.8347  0.0297 -0.0721
  450TMC3     O 6706   2.484   4.707  13.621  0.1861 -0.5911  1.1086
  450TMC3     H 6707   2.429   0.184  13.488 -0.0200 -0.8703 -2.5132
  450TMC3    H1 6708   2.151   0.091  13.787 -0.2332  0.5581  0.0384
  450TMC3    H2 6709   2.006   0.211  13.401 -1.0693 -2.7120 -0.1695
  450TMC3    C7 6710   1.958   0.053  13.627  0.0896 -0.7529  0.1153
  450TMC3    C8 6711   2.227   0.303  13.340 -0.1942  0.3875  0.1773
  450TMC3    O1 6712   1.982   4.697  13.715  0.1294  0.3782 -0.7774
  450TMC3    O2 6713   2.140   0.388  13.337 -0.1578 -0.2314  0.7249
  451MPD2     C 6714   4.031   4.141   1.003 -0.3217 -0.0446  0.3952
  451MPD2    C1 6715   3.962   4.082   1.103 -0.1580 -0.3470  0.0837
  451MPD2    C2 6716   3.951   3.944   1.097 -0.1169 -0.1652  0.1783
  451MPD2    C3 6717   4.011   3.873   0.990 -0.5091  0.0307 -0.4674
  451MPD2    C4 6718   4.079   3.931   0.893  0.7273 -0.0313 -0.6079
  451MPD2    C5 6719   4.091   4.068   0.904 -0.0894 -0.0313  0.3640
  451MPD2     H 6720   3.875   3.903   1.163  0.4661 -1.4693  0.0315
  451MPD2    H1 6721   4.122   3.874   0.811  1.0694 -0.8231  0.1232
  451MPD2    H2 6722   4.027   4.249   1.003 -1.7062 -0.1106 -2.4134
  451MPD2    H3 6723   4.131   4.120   0.818 -0.0910  0.1506  0.4725
  451MPD2     N 6724   3.994   3.733   0.982  0.2211 -0.4219 -0.0141
  451MPD2    H5 6725   4.041   3.689   0.904  2.6191  0.3005  1.0346
  451MPD2    N1 6726   3.894   4.173   1.187  0.0202 -0.9568  0.7755
  451MPD2    H7 6727   3.901   4.272   1.167  2.1431 -1.2672 -0.0695
  452TMC3    C1 6728   3.927   3.513   1.046  0.4344 -0.8365 -0.0249
  452TMC3    C2 6729   3.876   3.443   1.146 -0.2333  1.1445  0.4057
  452TMC3    C3 6730   3.799   3.332   1.123 -0.7775 -0.0365  0.0462
  452TMC3    C4 6731   3.892   3.484   0.913  0.0708  0.0268 -0.4474
  452TMC3    C5 6732   3.796   3.382   0.892 -0.4957 -0.9105 -0.2234
  452TMC3    C6 6733   3.747   3.305   0.997 -0.2235 -0.0611  0.6850
  452TMC3     C 6734   3.937   3.654   1.084  0.7913  0.7193  0.0957
  452TMC3     O 6735   3.892   3.666   1.197  0.0902 -0.2592 -0.0596
  452TMC3     H 6736   3.918   3.458   1.244 -1.4565  1.6325  0.8568
  452TMC3    H1 6737   3.927   3.545   0.830 -1.6307  0.7358 -0.6534
  452TMC3    H2 6738   3.672   3.228   0.982 -1.1040  0.8488  0.4272
  452TMC3    C7 6739   3.750   3.378   0.753 -0.1396  0.0843 -0.0802
  452TMC3    C8 6740   3.730   3.284   1.241  0.5276  0.2281 -0.0921
  452TMC3    O1 6741   3.795   3.458   0.675 -0.1903  0.0224  0.2240
  452TMC3    O2 6742   3.798   3.281   1.343  0.1923  0.5570 -0.1934
  453TMC3    C1 6743   0.034   1.328  11.601 -0.2949 -1.2680  0.4692
  453TMC3    C2 6744   4.698   1.205  11.589 -0.0390 -0.4225 -1.3090
  453TMC3    C3 6745   4.641   1.167  11.466 -0.1384 -0.2911 -0.2471
  453TMC3    C4 6746   0.016   1.425  11.512  0.4410  0.0076  0.1075
  453TMC3    C5 6747   4.686   1.390  11.390 -0.5370  0.9253 -0.2947
  453TMC3    C6 6748   4.634   1.265  11.364 -0.0008 -0.7308 -0.0079
  453TMC3     C 6749   0.149   1.331  11.692  0.3655 -0.5602 -0.2531
  453TMC3     O 6750   0.190   1.439  11.719 -0.2790  0.0313  0.2379
  453TMC3     H 6751   4.695   1.133  11.670  1.9672 -0.6362 -1.4182
  453TMC3    H1 6752   0.070   1.516  11.536 -1.3454  0.4859  2.3306
  453TMC3    H2 6753   4.592   1.241  11.267 -1.9385  3.3754 -0.1821
  453TMC3    C7 6754   4.705   1.478  11.277  0.0655 -0.5222 -0.6668
  453TMC3    C8 6755   4.581   1.033  11.449 -0.5567 -0.3085  1.1195
  453TMC3    O1 6756   4.720   1.418  11.172 -0.2459  0.1702 -0.1862
  453TMC3    O2 6757   4.481   1.025  11.382 -0.1950  0.3496  0.2085
  454MPD2     C 6758   3.941   0.230  16.554 -0.3916  0.0591 -0.1509
  454MPD2    C1 6759   3.842   0.323  16.594  0.0539  0.8253 -0.0037
  454MPD2    C2 6760   3.764   0.293  16.706 -0.5177 -0.3967  0.1789
  454MPD2    C3 6761   3.777   0.175  16.776  0.4051 -0.1603 -1.4421
  454MPD2    C4 6762   3.882   0.090  16.745 -0.3189 -0.7368  0.1360
  454MPD2    C5 6763   3.954   0.110  16.629 -0.1341 -0.1482  0.1800
  454MPD2     H 6764   3.693   0.369  16.739 -0.4389 -0.0974 -0.3492
  454MPD2    H1 6765   3.897   4.718  16.795 -0.4997  0.5399  2.6236
  454MPD2    H2 6766   3.998   0.249  16.463  1.2055  1.9394  1.2475
  454MPD2    H3 6767   4.021   0.030  16.599  0.8924  0.4968  0.7613
  454MPD2     N 6768   3.695   0.133  16.884 -0.5279  0.5037  0.6968
  454MPD2    H5 6769   3.727   0.055  16.940 -1.3262 -1.5172 -1.6483
  454MPD2    N1 6770   3.819   0.443  16.529 -0.2571 -0.1689  0.1477
  454MPD2    H7 6771   3.748   0.509  16.562 -0.1591  0.4333 -0.8564
  455TMC3    C1 6772   3.507   0.275  16.860 -0.6082  0.0410 -0.1150
  455TMC3    C2 6773   3.447   0.369  16.934  0.3787  0.2896  0.3913
  455TMC3    C3 6774   3.352   0.441  16.873 -0.0773  0.3238  0.7973
  455TMC3    C4 6775   3.464   0.237  16.735 -0.0477 -0.0866  0.0513
  455TMC3    C5 6776   3.368   0.314  16.672 -0.2108 -0.4550  0.0801
  455TMC3    C6 6777   3.314   0.416  16.741 -0.2208  0.3715 -0.1645
  455TMC3     C 6778   3.587   0.186  16.944  0.4568 -0.3832  0.5109
  455TMC3     O 6779   3.527   0.137  17.039  0.0956 -0.0483 -0.0404
  455TMC3     H 6780   3.478   0.382  17.037  1.4031  1.0376 -0.0047
  455TMC3    H1 6781   3.519   0.156  16.690  0.2068  1.9145 -3.2578
  455TMC3    H2 6782   3.253   0.486  16.685 -0.1527  0.8822  0.3946
  455TMC3    C7 6783   3.323   0.269  16.546  0.4146 -0.1146 -0.0080
  455TMC3    C8 6784   3.347   0.578  16.923 -0.5293 -0.3957  0.1229
  455TMC3    O1 6785   3.401   0.211  16.468 -0.1724  0.2757  0.7627
  455TMC3    O2 6786   3.406   0.593  17.030 -0.1788  0.1449  0.2169
  456MPD2     C 6787   1.384   0.503  16.156 -0.1231 -0.6495 -0.6258
  456MPD2    C1 6788   1.502   0.538  16.217  0.3478  0.0799  0.3591
  456MPD2    C2 6789   1.497   0.581  16.344 -0.5379 -0.6136 -0.6484
  456MPD2    C3 6790   1.374   0.586  16.413 -0.6768  0.3383 -0.7108
  456MPD2    C4 6791   1.254   0.557  16.343  0.3494 -0.7838  0.5233
  456MPD2    C5 6792   1.262   0.512  16.214  0.1437  0.1158  0.5392
  456MPD2     H 6793   1.587   0.619  16.391 -0.7625 -0.9060  0.0189
  456MPD2    H1 6794   1.163   0.545  16.400  0.4592  1.4272  1.1564
  456MPD2    H2 6795   1.381   0.450  16.061 -0.4900 -0.4181 -0.7438
  456MPD2    H3 6796   1.177   0.470  16.160  0.2260 -1.1603  1.4140
  456MPD2     N 6797   1.365   0.626  16.552 -0.3305  0.3942  0.0492
  456MPD2    H5 6798   1.271   0.642  16.588  0.1528  0.9640  1.0787
  456MPD2    N1 6799   1.619   0.528  16.142 -0.4507  0.0931  0.0849
  456MPD2    H7 6800   1.612   0.503  16.044 -1.6992  0.7693  0.0084
  457TMC3    C1 6801   1.414   0.723  16.758 -0.3965 -0.8537  0.0282
  457TMC3    C2 6802   1.310   0.813  16.744 -0.5100 -0.3406  0.2861
  457TMC3    C3 6803   1.275   0.877  16.856  0.8608  0.7633  0.3255
  457TMC3    C4 6804   1.489   0.711  16.872  0.0592  0.3502 -0.0611
  457TMC3    C5 6805   1.449   0.787  16.979 -0.0394  0.3993 -0.2756
  457TMC3    C6 6806   1.336   0.854  16.974 -0.2497 -0.0127  0.0428
  457TMC3     C 6807   1.466   0.652  16.636  0.4412 -0.8152 -0.3699
  457TMC3     O 6808   1.589   0.638  16.627 -0.4359  0.5676 -0.7128
  457TMC3     H 6809   1.258   0.833  16.651 -1.1554 -0.8292  0.5386
  457TMC3    H1 6810   1.572   0.642  16.876  0.6518  1.2448  3.1280
  457TMC3    H2 6811   1.299   0.904  17.063  0.2307 -0.7501  0.6594
  457TMC3    C7 6812   1.516   0.763  17.106 -0.5242 -0.8348 -0.2179
  457TMC3    C8 6813   1.165   0.972  16.863  1.0778 -0.1125  0.3622
  457TMC3    O1 6814   1.579   0.657  17.117  0.2327  0.2975 -0.0402
  457TMC3    O2 6815   1.153   1.047  16.961  0.0352 -0.9438  0.5183
  458MPD2     C 6816   3.944   0.104  12.136  0.7643  0.0402  0.2483
  458MPD2    C1 6817   3.933   0.171  12.256  0.2268  0.2183 -0.5804
  458MPD2    C2 6818   3.824   0.254  12.275  0.4578 -0.8377 -0.1352
  458MPD2    C3 6819   3.726   0.277  12.174 -0.4916 -0.3543  0.2426
  458MPD2    C4 6820   3.741   0.206  12.055 -0.2109  0.6457 -0.2962
  458MPD2    C5 6821   3.845   0.121  12.045 -0.3764 -0.0313  0.0974
  458MPD2     H 6822   3.813   0.306  12.369  0.2913  2.1389 -1.7987
  458MPD2    H1 6823   3.665   0.205  11.977 -0.3363 -2.9425 -0.1439
  458MPD2    H2 6824   4.034   0.048  12.116  0.4072 -0.1956 -0.7065
  458MPD2    H3 6825   3.866   0.069  11.952 -2.0849 -0.2387 -0.1716
  458MPD2     N 6826   3.615   0.362  12.203  0.3497  0.5587 -0.3154
  458MPD2    H5 6827   3.599   0.382  12.302 -0.2053  2.5566 -0.8037
  458MPD2    N1 6828   4.041   0.155  12.351 -0.3355 -0.1922 -0.0978
  458MPD2    H7 6829   4.127   0.127  12.305 -1.9468 -1.8308 -2.0570
  459TMC3    C1 6830   4.163   0.234  12.542 -0.9487  0.1085 -0.7769
  459TMC3    C2 6831   4.259   0.294  12.466 -0.3393 -1.1883 -0.3693
  459TMC3    C3 6832   4.370   0.337  12.535  0.4123  0.2495  0.4244
  459TMC3    C4 6833   4.179   0.213  12.675  0.0178 -0.5603  0.4965
  459TMC3    C5 6834   4.290   0.259  12.736  0.1179 -0.1377  0.7502
  459TMC3    C6 6835   4.391   0.324  12.671  0.1378 -0.4625 -0.1295
  459TMC3     C 6836   4.033   0.194  12.485  0.0414  0.3203  0.0647
  459TMC3     O 6837   3.935   0.187  12.562  0.4439  0.0570  0.2821
  459TMC3     H 6838   4.253   0.297  12.358  2.3457 -2.3717 -0.5550
  459TMC3    H1 6839   4.102   0.171  12.740  0.7458  0.2827  1.9042
  459TMC3    H2 6840   4.480   0.356  12.723  0.9644 -0.0174 -1.8541
  459TMC3    C7 6841   4.292   0.236  12.880 -0.8115 -0.4480  0.5108
  459TMC3    C8 6842   4.444   0.435  12.473  0.0572 -0.2669 -0.5078
  459TMC3    O1 6843   4.211   0.163  12.934 -0.3913 -0.4620 -0.4221
  459TMC3    O2 6844   4.560   0.451  12.508  0.0537 -0.0212 -0.1380
  460MPD2     C 6845   3.131   2.773  10.387 -0.2842  0.5102 -0.0966
  460MPD2    C1 6846   3.033   2.686  10.440  0.1227  0.1628 -0.0906
  460MPD2    C2 6847   2.910   2.668  10.365  0.3904  0.5207  0.0532
  460MPD2    C3 6848   2.903   2.720  10.244 -0.5744  0.1409 -0.1589
  460MPD2    C4 6849   2.996   2.807  10.202 -0.0164 -0.0899  0.0324
  460MPD2    C5 6850   3.110   2.839  10.272  0.4080 -0.4828 -0.3697
  460MPD2     H 6851   2.835   2.596  10.394  1.9116 -0.6832  1.0170
  460MPD2    H1 6852   2.982   2.851  10.103 -0.7328 -0.2580  0.0630
  460MPD2    H2 6853   3.224   2.789  10.440 -2.4360 -0.4164  3.9812
  460MPD2    H3 6854   3.187   2.906  10.234 -0.4024  1.3720  1.2653
  460MPD2     N 6855   2.785   2.692  10.169 -0.0134  0.0455  0.2051
  460MPD2    H5 6856   2.737   2.603  10.184  1.7144 -0.5177  2.3168
  460MPD2    N1 6857   3.056   2.627  10.564  0.0244  0.2002  0.2223
  460MPD2    H7 6858   3.138   2.662  10.613  0.4983  0.6476 -0.8999
  461TMC3    C1 6859   2.593   2.767  10.041  1.0447 -0.0997 -0.3193
  461TMC3    C2 6860   2.567   2.643   9.993  0.0662 -0.0680 -0.3248
  461TMC3    C3 6861   2.451   2.627   9.935 -0.3892  0.5228 -0.6422
  461TMC3    C4 6862   2.500   2.869  10.050 -0.5977 -0.3139  0.3669
  461TMC3    C5 6863   2.381   2.841   9.986  0.1538 -0.8080 -0.1152
  461TMC3    C6 6864   2.355   2.720   9.924 -0.5591 -0.0223  0.3883
  461TMC3     C 6865   2.726   2.791  10.094 -0.4404  0.7377 -0.2647
  461TMC3     O 6866   2.757   2.910  10.087 -0.0653  0.0892 -0.7469
  461TMC3     H 6867   2.636   2.559   9.993 -0.2693 -0.3491  0.3552
  461TMC3    H1 6868   2.528   2.967  10.087 -1.6298  1.2267 -2.9642
  461TMC3    H2 6869   2.265   2.702   9.866 -0.3424  1.8177 -0.5195
  461TMC3    C7 6870   2.279   2.945   9.966  0.2255  1.1692  0.0431
  461TMC3    C8 6871   2.436   2.513   9.850  0.0623  0.8197  0.6767
  461TMC3    O1 6872   2.190   2.911   9.892  0.3334 -0.6798 -0.4194
  461TMC3    O2 6873   2.332   2.450   9.857  0.0849 -0.3761  0.4121
  462TMC3    C1 6874   2.814   2.277   0.180 -0.0111 -0.3363  0.5164
  462TMC3    C2 6875   2.769   2.261   0.052 -0.4584  0.2868  1.1420
  462TMC3    C3 6876   2.648   2.205   0.034  0.4695 -0.8574  0.3437
  462TMC3    C4 6877   2.739   2.237   0.284 -0.0194  0.1256  0.2264
  462TMC3    C5 6878   2.626   2.166   0.262  0.5707  0.2044 -0.9959
  462TMC3    C6 6879   2.568   2.161   0.136 -0.1150 -0.3578  0.3517
  462TMC3     C 6880   2.940   2.332   0.206  0.5669  0.1672 -0.1808
  462TMC3     O 6881   2.973   2.412   0.122  0.2648 -0.1141  0.3043
  462TMC3     H 6882   2.807   2.326  17.670 -1.8619 -1.2140 -0.7959
  462TMC3    H1 6883   2.780   2.258   0.383 -1.5975  0.3127  0.8396
  462TMC3    H2 6884   2.479   2.103   0.114 -0.4406  0.6379 -0.9354
  462TMC3    C7 6885   2.547   2.127   0.373 -0.3505 -0.0622 -0.1793
  462TMC3    C8 6886   2.606   2.204  17.590  0.0978 -0.5260 -0.0520
  462TMC3    O1 6887   2.443   2.067   0.355 -0.3996  0.0786 -0.2780
  462TMC3    O2 6888   2.528   2.290  17.556  0.0276 -0.3594 -0.6620
  463MPD2     C 6889   3.678   2.577   2.110 -0.0651  0.2788  0.2211
  463MPD2    C1 6890   3.617   2.559   1.985  0.3751 -0.3583  0.3966
  463MPD2    C2 6891   3.661   2.630   1.874 -0.0037  0.2288  0.0735
  463MPD2    C3 6892   3.768   2.721   1.884  0.4493 -0.7088 -0.9208
  463MPD2    C4 6893   3.832   2.732   2.002  0.3308 -0.2058  0.0325
  463MPD2    C5 6894   3.786   2.668   2.110  0.0817 -0.0260  0.5237
  463MPD2     H 6895   3.610   2.611   1.781  1.2828  1.3097 -0.8490
  463MPD2    H1 6896   3.911   2.806   2.010 -0.3836  0.2862  2.7339
  463MPD2    H2 6897   3.649   2.527   2.202 -1.0048 -0.5024 -0.4846
  463MPD2    H3 6898   3.831   2.679   2.208  0.0983  0.5966  0.4444
  463MPD2     N 6899   3.813   2.802   1.781 -0.0001  0.1571  0.4132
  463MPD2    H5 6900   3.895   2.859   1.800 -0.5372  1.2634 -0.5591
  463MPD2    N1 6901   3.505   2.472   1.973  0.4555  0.2423 -1.2236
  463MPD2    H7 6902   3.459   2.461   1.883 -1.8732  0.6064 -0.0696
  464TMC3    C1 6903   3.358   2.290   2.034  0.0598 -0.4205  0.0200
  464TMC3    C2 6904   3.277   2.331   1.932  0.1032  0.0166  0.1455
  464TMC3    C3 6905   3.171   2.244   1.918  0.0090 -0.1951  0.1337
  464TMC3    C4 6906   3.355   2.171   2.099  0.5191  0.4582 -0.2214
  464TMC3    C5 6907   3.255   2.088   2.076  0.0206  0.3106  0.1492
  464TMC3    C6 6908   3.163   2.121   1.978  0.3321  0.2295  0.1712
  464TMC3     C 6909   3.449   2.388   2.076 -0.2680  0.0743 -0.3742
  464TMC3     O 6910   3.485   2.374   2.195  0.7397 -0.1030 -0.4861
  464TMC3     H 6911   3.278   2.421   1.871 -1.3724 -1.2648 -1.7701
  464TMC3    H1 6912   3.432   2.150   2.172 -1.8636  1.4804  2.5968
  464TMC3    H2 6913   3.074   2.060   1.970  0.6434 -0.3211  0.9182
  464TMC3    C7 6914   3.272   1.951   2.119 -0.3287  0.4879  0.4526
  464TMC3    C8 6915   3.105   2.264   1.793 -0.3066 -0.1847  0.0678
  464TMC3    O1 6916   3.331   1.926   2.219  0.1573  0.2526  0.4371
  464TMC3    O2 6917   3.180   2.274   1.694 -0.3682 -0.2243  1.0137
  465MPD2     C 6918   0.583   0.367  16.773 -0.0590  0.1816 -0.4956
  465MPD2    C1 6919   0.537   0.399  16.899 -0.8012  0.6398  0.3116
  465MPD2    C2 6920   0.399   0.423  16.915 -0.2766  0.0824 -0.3990
  465MPD2    C3 6921   0.313   0.415  16.806 -0.2225  0.4251  0.9577
  465MPD2    C4 6922   0.362   0.389  16.677  0.3677 -0.4954 -0.2353
  465MPD2    C5 6923   0.495   0.362  16.672  0.1005 -0.3054  0.2327
  465MPD2     H 6924   0.359   0.436  17.016  0.1001 -1.0861 -0.1071
  465MPD2    H1 6925   0.312   0.377  16.582 -0.2163  0.9055 -0.1033
  465MPD2    H2 6926   0.688   0.352  16.752 -0.1471 -1.4387  0.2275
  465MPD2    H3 6927   0.533   0.344  16.572 -3.8170  0.2237 -1.3617
  465MPD2     N 6928   0.173   0.430  16.830 -0.4696 -0.0807 -0.5529
  465MPD2    H5 6929   0.142   0.446  16.925  2.0292  0.7017  0.1297
  465MPD2    N1 6930   0.634   0.398  17.003  0.3697 -0.3548  0.4239
  465MPD2    H7 6931   0.722   0.361  16.970 -0.2270 -0.2370 -1.3356
  466TMC3    C1 6932   4.532   0.571  16.936  0.4277  0.0984 -1.2034
  466TMC3    C2 6933   4.448   0.635  16.841 -0.2204 -0.6120  0.3027
  466TMC3    C3 6934   4.489   0.626  16.712  0.3570 -0.2036  0.2354
  466TMC3    C4 6935   4.642   0.496  16.906  0.2906 -0.0857 -0.0618
  466TMC3    C5 6936   4.670   0.480  16.777 -0.2583 -0.1046 -0.1212
  466TMC3    C6 6937   4.598   0.542  16.681 -0.1643 -0.7140  0.1802
  466TMC3     C 6938   4.474   0.561  17.066  0.5275 -0.1056  0.1551
  466TMC3     O 6939   4.546   0.519  17.157 -0.4446  0.1269 -0.1601
  466TMC3     H 6940   4.369   0.707  16.864  0.2527  0.1586 -0.4775
  466TMC3    H1 6941   4.690   0.444  16.988 -0.2084  2.0353  1.5755
  466TMC3    H2 6942   4.627   0.545  16.576  0.7714 -2.0479  0.4071
  466TMC3    C7 6943   0.079   0.438  16.734  0.0666  0.0449 -0.1082
  466TMC3    C8 6944   4.452   0.734  16.617  0.1088  0.2142 -0.5635
  466TMC3    O1 6945   0.095   0.421  16.615  0.5035 -0.6231  0.2824
  466TMC3    O2 6946   4.503   0.727  16.506 -0.0580 -0.4017  0.0270
  467TMC3    C1 6947   1.470   4.092  14.060  0.1925 -0.3131  0.7228
  467TMC3    C2 6948   1.406   4.163  13.962  0.4726 -0.4414 -0.0984
  467TMC3    C3 6949   1.268   4.144  13.960  0.5128 -0.5284  0.1730
  467TMC3    C4 6950   1.412   3.998  14.141  0.4460  0.6498 -0.3129
  467TMC3    C5 6951   1.275   3.987  14.134 -0.8575 -0.2980 -0.5023
  467TMC3    C6 6952   1.201   4.058  14.042 -0.2857 -0.0896 -0.2579
  467TMC3     C 6953   1.617   4.095  14.063  0.4044  0.1198  0.8080
  467TMC3     O 6954   1.666   4.202  14.026 -0.2527  0.3810 -0.3929
  467TMC3     H 6955   1.453   4.247  13.912 -3.2232  1.8244  0.2218
  467TMC3    H1 6956   1.463   3.940  14.217 -0.3209 -2.8044 -2.4702
  467TMC3    H2 6957   1.093   4.049  14.034 -0.3067 -0.0062 -0.0703
  467TMC3    C7 6958   1.204   3.926  14.242  0.1632  0.1448 -1.0518
  467TMC3    C8 6959   1.193   4.180  13.840  0.0910 -0.4548 -0.3865
  467TMC3    O1 6960   1.268   3.866  14.326 -0.1209 -0.3666 -0.6568
  467TMC3    O2 6961   1.075   4.146  13.830  0.4341 -0.9380  0.5143
  468MPD2     C 6962   4.642   2.569  10.222  0.1070  0.5512 -0.0162
  468MPD2    C1 6963   4.552   2.516  10.312  0.4724 -0.1336 -0.4820
  468MPD2    C2 6964   4.559   2.379  10.344 -0.7429  0.3644  0.1906
  468MPD2    C3 6965   4.662   2.302  10.298 -0.2511 -0.2267  0.2164
  468MPD2    C4 6966   0.029   2.352  10.212 -0.0381  0.8463 -0.3424
  468MPD2    C5 6967   0.017   2.484  10.173  0.1511  0.5911  0.1978
  468MPD2     H 6968   4.480   2.336  10.405 -0.7209 -1.8072 -1.3250
  468MPD2    H1 6969   0.109   2.290  10.172 -0.7986  0.4696 -1.2701
  468MPD2    H2 6970   4.640   2.673  10.192  0.6925  0.6749  0.3664
  468MPD2    H3 6971   0.081   2.528  10.097  1.3304  0.8376  1.3476
  468MPD2     N 6972   4.684   2.179  10.352 -0.0614 -0.0370  0.5373
  468MPD2    H5 6973   0.033   2.123  10.307 -1.5363  0.4730 -2.4829
  468MPD2    N1 6974   4.459   2.599  10.381  0.3537 -0.5633  0.4493
  468MPD2    H7 6975   4.400   2.547  10.446  0.9794 -0.2951  1.2391
  469TMC3    C1 6976   4.389   2.791  10.508 -0.1661  0.6976  0.2012
  469TMC3    C2 6977   4.416   2.729  10.624 -0.2173 -0.4284 -0.1437
  469TMC3    C3 6978   4.431   2.811  10.732  0.2627 -0.3963  0.1974
  469TMC3    C4 6979   4.345   2.921  10.503 -0.1640 -0.8804 -0.2599
  469TMC3    C5 6980   4.347   2.994  10.619  0.2573  0.2437 -0.3783
  469TMC3    C6 6981   4.400   2.944  10.734  0.7219  0.3994 -0.0902
  469TMC3     C 6982   4.446   2.734  10.383 -0.1117  0.1489  0.8672
  469TMC3     O 6983   4.472   2.810  10.290 -0.1863  0.0730  0.1350
  469TMC3     H 6984   4.459   2.629  10.629 -1.0830 -0.7607  0.5488
  469TMC3    H1 6985   4.314   2.967  10.410  0.2315 -1.1268 -0.5176
  469TMC3    H2 6986   4.405   3.004  10.824 -2.6855  0.0899  0.3014
  469TMC3    C7 6987   4.343   3.138  10.605  0.2142  0.0300 -0.0975
  469TMC3    C8 6988   4.484   2.753  10.850 -0.1390  0.3017  0.5087
  469TMC3    O1 6989   4.287   3.187  10.509 -0.1266 -0.3099 -0.3648
  469TMC3    O2 6990   4.515   2.636  10.845  0.4456  0.2145  0.4071
  470TMC3    C1 6991   2.695   3.148   0.380 -0.0298 -0.3161  0.0335
  470TMC3    C2 6992   2.724   3.271   0.429 -0.4580  0.3652  0.5190
  470TMC3    C3 6993   2.839   3.279   0.508 -0.1717 -0.2065  0.5536
  470TMC3    C4 6994   2.776   3.035   0.390 -0.1739  0.0013  0.5477
  470TMC3    C5 6995   2.888   3.055   0.461  0.2974  0.5137 -0.0370
  470TMC3    C6 6996   2.922   3.171   0.523  0.3094  0.2665 -0.6746
  470TMC3     C 6997   2.575   3.123   0.297  0.5725  0.5924 -0.1154
  470TMC3     O 6998   2.553   3.206   0.215 -0.2315  0.2231  0.0571
  470TMC3     H 6999   2.657   3.356   0.425 -1.1777 -0.1988  0.6787
  470TMC3    H1 7000   2.744   2.938   0.353  1.9935 -0.6463  0.4175
  470TMC3    H2 7001   3.005   3.173   0.593  1.0887 -0.8785 -1.5613
  470TMC3    C7 7002   2.971   2.940   0.479  0.4344  0.1400  0.7109
  470TMC3    C8 7003   2.852   3.395   0.599  0.3377  0.6944  1.0767
  470TMC3    O1 7004   2.975   2.865   0.381 -0.3963  0.2264 -0.1502
  470TMC3    O2 7005   2.752   3.438   0.651  0.5903 -0.2710  0.0698
  471MPD2     C 7006   2.765   4.452  16.781 -0.0702  0.2246 -0.6062
  471MPD2    C1 7007   2.719   4.320  16.803  0.3603  0.4083 -0.4694
  471MPD2    C2 7008   2.733   4.255  16.919  0.4295  0.4722 -0.0344
  471MPD2    C3 7009   2.826   4.306  17.007  0.3995 -0.6728  0.3987
  471MPD2    C4 7010   2.892   4.425  16.977  0.0893  0.4170  0.4136
  471MPD2    C5 7011   2.853   4.503  16.876  0.2330 -0.1083  0.0913
  471MPD2     H 7012   2.680   4.163  16.937  0.6082  0.4918  0.6161
  471MPD2    H1 7013   2.970   4.459  17.045  1.2072 -0.2150 -0.5397
  471MPD2    H2 7014   2.742   4.511  16.693 -0.0596  3.0420  1.3106
  471MPD2    H3 7015   2.905   4.595  16.852 -0.6324  0.9482  2.2136
  471MPD2     N 7016   2.865   4.238  17.122  0.0871  0.5083 -0.6481
  471MPD2    H5 7017   2.946   4.270  17.175 -0.4708 -1.0110  1.1453
  471MPD2    N1 7018   2.644   4.256  16.705 -0.1488  0.0123  0.1956
  471MPD2    H7 7019   2.596   4.171  16.732 -0.9092  0.1961 -0.5757
  472TMC3    C1 7020   2.550   4.198  16.509 -0.0463 -0.0940 -0.1329
  472TMC3    C2 7021   2.452   4.238  16.426 -0.7504  0.1141  0.2060
  472TMC3    C3 7022   2.396   4.139  16.357 -0.3294 -0.6315 -0.0372
  472TMC3    C4 7023   2.587   4.063  16.528 -0.2790  0.1041 -0.3100
  472TMC3    C5 7024   2.516   3.969  16.460  0.1408 -0.5111  0.3139
  472TMC3    C6 7025   2.427   4.007  16.365 -0.4404 -0.8376 -0.7790
  472TMC3     C 7026   2.614   4.298  16.580  0.2636 -0.1811  0.0107
  472TMC3     O 7027   2.626   4.407  16.527 -0.5260  0.1939  1.3001
  472TMC3     H 7028   2.429   4.341  16.401 -0.5037  0.5313  1.7178
  472TMC3    H1 7029   2.681   4.024  16.567  0.4512  0.1504 -2.0097
  472TMC3    H2 7030   2.388   3.936  16.293 -0.3385 -0.2882 -1.3735
  472TMC3    C7 7031   2.505   3.836  16.525 -0.8839  0.1928 -0.2090
  472TMC3    C8 7032   2.261   4.154  16.297  0.2480  0.3079  0.2674
  472TMC3    O1 7033   2.567   3.828  16.630  0.1588  0.3449 -0.9441
  472TMC3    O2 7034   2.237   4.237  16.203  0.0927 -0.6539 -0.3979
  473MPD2     C 7035   2.575   1.589  13.841 -0.6113 -0.3221  0.5002
  473MPD2    C1 7036   2.487   1.693  13.808  0.0851 -0.3532 -0.2538
  473MPD2    C2 7037   2.496   1.811  13.879 -0.3651  0.2885  0.3587
  473MPD2    C3 7038   2.589   1.826  13.977 -0.3629  0.5886  0.5367
  473MPD2    C4 7039   2.674   1.721  14.010 -0.8679  0.3444  0.3227
  473MPD2    C5 7040   2.664   1.603  13.940 -0.2495  0.1427 -0.1500
  473MPD2     H 7041   2.429   1.893  13.857  0.6046  0.5865 -1.4959
  473MPD2    H1 7042   2.747   1.732  14.089  0.1697 -1.4179 -0.3939
  473MPD2    H2 7043   2.563   1.486  13.809 -0.9083 -0.0193 -0.3697
  473MPD2    H3 7044   2.732   1.523  13.966  0.4940  0.8951  0.2318
  473MPD2     N 7045   2.612   1.951  14.042  0.1747  0.2262  0.5343
  473MPD2    H5 7046   2.687   1.955  14.110 -0.0204 -0.5728  0.7937
  473MPD2    N1 7047   2.388   1.692  13.708  0.0787 -0.2242  0.3471
  473MPD2    H7 7048   2.341   1.780  13.686  0.8116 -0.5444 -2.5327
  474TMC3    C1 7049   2.585   2.177  14.092 -0.6796 -0.4580 -0.1746
  474TMC3    C2 7050   2.481   2.253  14.136  0.2783  0.0892  0.0608
  474TMC3    C3 7051   2.502   2.355  14.225  0.2063 -0.5965  0.3229
  474TMC3    C4 7052   2.708   2.189  14.145 -0.0825 -0.4322  0.4562
  474TMC3    C5 7053   2.721   2.287  14.242 -0.6607  0.4870  0.3151
  474TMC3    C6 7054   2.626   2.381  14.279  0.4095 -0.2604  0.1387
  474TMC3     C 7055   2.546   2.069  14.013 -0.1748 -0.0380 -0.6925
  474TMC3     O 7056   2.462   2.100  13.932  0.5727 -0.1254  0.2072
  474TMC3     H 7057   2.382   2.233  14.096 -0.5307  0.3507  1.9189
  474TMC3    H1 7058   2.788   2.120  14.119  0.6618  0.3873  0.5664
  474TMC3    H2 7059   2.644   2.472  14.334  4.1007 -1.2100  0.5318
  474TMC3    C7 7060   2.849   2.289  14.302  0.3541 -0.5432 -0.2365
  474TMC3    C8 7061   2.408   2.459  14.204  0.2022 -0.2419  0.1794
  474TMC3    O1 7062   2.942   2.252  14.230  0.5217 -0.3034 -0.0390
  474TMC3    O2 7063   2.291   2.428  14.210 -0.1945 -0.1777  0.4118
  475MPD2     C 7064   1.273   0.010   9.927  0.4600 -0.2408  0.4085
  475MPD2    C1 7065   1.178   0.097   9.968  0.6966 -0.2933  0.3054
  475MPD2    C2 7066   1.080   0.059  10.059  0.1585 -0.5761 -0.0357
  475MPD2    C3 7067   1.074   4.650  10.086  0.2128 -0.9030 -0.4598
  475MPD2    C4 7068   1.175   4.559  10.052 -0.1816  0.0845 -0.2425
  475MPD2    C5 7069   1.275   4.610   9.974 -1.1300  0.0996  0.4915
  475MPD2     H 7070   1.004   0.127  10.095 -1.1316 -2.4311  0.6991
  475MPD2    H1 7071   1.177   4.453  10.076  1.7266 -0.0415 -0.9903
  475MPD2    H2 7072   1.355   0.046   9.866 -0.7755  0.8147 -0.6320
  475MPD2    H3 7073   1.342   4.532   9.939 -0.6653  0.3635  0.7974
  475MPD2     N 7074   0.954   4.609  10.155 -0.3144  0.0172 -0.5458
  475MPD2    H5 7075   0.884   4.678  10.182 -0.0135 -0.3753  1.2083
  475MPD2    N1 7076   1.178   0.237   9.933  0.6657 -0.1900 -0.1301
  475MPD2    H7 7077   1.106   0.293   9.978 -0.4085  0.5111 -2.6984
  476TMC3    C1 7078   1.244   0.444   9.849 -0.0997  0.6662 -0.0598
  476TMC3    C2 7079   1.116   0.479   9.846  0.6996  0.2589  0.4717
  476TMC3    C3 7080   1.090   0.613   9.846  0.6289 -0.1041 -0.1629
  476TMC3    C4 7081   1.351   0.535   9.841  0.5051  0.4873 -0.2924
  476TMC3    C5 7082   1.320   0.663   9.839  0.3469  0.1386  0.3412
  476TMC3    C6 7083   1.191   0.702   9.835  0.5434 -0.0373 -0.1375
  476TMC3     C 7084   1.280   0.306   9.869  0.3258 -0.0972 -0.0281
  476TMC3     O 7085   1.392   0.281   9.836 -0.0723  0.3469 -0.1655
  476TMC3     H 7086   1.033   0.410   9.850  0.0420  1.1169  1.3979
  476TMC3    H1 7087   1.449   0.492   9.855  0.9412  1.9110  0.9947
  476TMC3    H2 7088   1.169   0.808   9.830 -1.3739 -0.5133 -1.6572
  476TMC3    C7 7089   1.407   0.766   9.888 -0.6213 -0.6869  0.3694
  476TMC3    C8 7090   0.953   0.663   9.861  0.4722 -0.1134  0.2936
  476TMC3    O1 7091   1.367   0.870   9.933 -0.0480 -0.7845 -0.0556
  476TMC3    O2 7092   0.936   0.786   9.874  0.5631  0.2994 -0.4581
  477MPD2     C 7093   3.664   2.078  11.680 -0.0476  0.1877  0.5713
  477MPD2    C1 7094   3.550   2.004  11.675  1.1430 -0.2593 -0.0079
  477MPD2    C2 7095   3.533   1.904  11.767  0.0090  0.0975 -0.8928
  477MPD2    C3 7096   3.631   1.866  11.855 -0.3518  0.1164  0.3462
  477MPD2    C4 7097   3.751   1.933  11.838 -0.3069  0.2075 -0.3673
  477MPD2    C5 7098   3.765   2.045  11.762  0.1810 -0.2250 -0.3384
  477MPD2     H 7099   3.444   1.844  11.784 -1.0294  2.0407  0.5698
  477MPD2    H1 7100   3.837   1.925  11.903 -1.0372  0.0027  0.5642
  477MPD2    H2 7101   3.681   2.165  11.617 -0.9062 -1.8128 -2.4298
  477MPD2    H3 7102   3.854   2.107  11.761  0.2645 -0.3471 -0.8725
  477MPD2     N 7103   3.615   1.757  11.944  0.3759 -0.4447 -0.3421
  477MPD2    H5 7104   3.519   1.728  11.957  0.3393 -0.8118 -1.4419
  477MPD2    N1 7105   3.448   2.038  11.582 -0.7815 -0.1630 -0.7374
  477MPD2    H7 7106   3.467   2.119  11.524 -1.4895 -0.1703 -0.9690
  478TMC3    C1 7107   3.239   2.048  11.468  0.3188  0.0925  0.1143
  478TMC3    C2 7108   3.107   2.046  11.496  0.1924 -0.3277 -0.8023
  478TMC3    C3 7109   3.021   2.110  11.414  0.3745 -0.9960 -0.2725
  478TMC3    C4 7110   3.298   2.107  11.356 -0.2978 -0.3643  0.2497
  478TMC3    C5 7111   3.204   2.160  11.270  0.4321 -0.3349 -0.4029
  478TMC3    C6 7112   3.070   2.175  11.302 -0.6407  0.3679 -0.2331
  478TMC3     C 7113   3.318   1.988  11.574 -0.8448 -0.0469 -1.1095
  478TMC3     O 7114   3.272   1.891  11.631 -0.3980  0.3003  0.0123
  478TMC3     H 7115   3.079   2.002  11.590 -1.4201 -1.4327 -1.8032
  478TMC3    H1 7116   3.398   2.090  11.317 -0.9086 -3.6298  0.0655
  478TMC3    H2 7117   3.001   2.218  11.231 -1.0603  2.2299  1.3360
  478TMC3    C7 7118   3.230   2.145  11.130  0.0940 -0.7730 -0.6965
  478TMC3    C8 7119   2.912   2.176  11.488  0.6482 -0.1332  0.6682
  478TMC3    O1 7120   3.352   2.140  11.094  0.3870  0.3965 -0.3475
  478TMC3    O2 7121   2.876   2.128  11.599 -0.0331 -0.0747 -0.2185
  479MPD2     C 7122   2.756   3.928  14.835  0.2395  0.3765  0.7707
  479MPD2    C1 7123   2.676   3.839  14.906  0.4906  0.5001  0.2436
  479MPD2    C2 7124   2.712   3.816  15.038  0.6815  0.5218 -0.3566
  479MPD2    C3 7125   2.810   3.896  15.096  0.4232 -0.1804 -0.0423
  479MPD2    C4 7126   2.892   3.976  15.019  0.1406  0.4429 -0.7327
  479MPD2    C5 7127   2.871   3.981  14.884 -0.4511  0.3595  0.3592
  479MPD2     H 7128   2.648   3.750  15.096 -0.5490  0.6828 -1.5259
  479MPD2    H1 7129   2.973   4.039  15.054 -0.1135  0.7600 -0.7103
  479MPD2    H2 7130   2.726   3.942  14.731 -0.6251  2.4724  1.3078
  479MPD2    H3 7131   2.931   4.045  14.820  1.5783 -0.2055  1.7032
  479MPD2     N 7132   2.838   3.903  15.238  0.1728  0.3068  0.1437
  479MPD2    H5 7133   2.919   3.956  15.266 -0.1059  0.7481  0.1200
  479MPD2    N1 7134   2.552   3.793  14.860 -0.1462  0.1421  0.2346
  479MPD2    H7 7135   2.508   3.832  14.777  0.2692 -0.4072 -0.2393
  480TMC3    C1 7136   2.716   3.915  15.672  0.1314 -0.0151 -0.3782
  480TMC3    C2 7137   2.769   4.042  15.676 -0.5297 -0.1795  1.0471
  480TMC3    C3 7138   2.857   4.073  15.578  0.3183  0.3456  0.6219
  480TMC3    C4 7139   2.735   3.827  15.570  0.0402  0.5506 -0.1883
  480TMC3    C5 7140   2.816   3.875  15.470  0.6500  0.4497  1.2163
  480TMC3    C6 7141   2.892   3.986  15.481 -0.0023  0.5701  0.4557
  480TMC3     C 7142   2.587   3.907  15.735 -1.0357  0.3973  0.1462
  480TMC3     O 7143   2.547   4.009  15.785 -0.2958 -0.2005  0.2197
  480TMC3     H 7144   2.742   4.113  15.753  0.6391 -0.6686  1.9088
  480TMC3    H1 7145   2.694   3.727  15.565 -0.9640  0.9513  0.0668
  480TMC3    H2 7146   2.958   4.031  15.408  1.6463 -2.7910 -0.1552
  480TMC3    C7 7147   2.763   3.844  15.337  0.4457  0.4232  0.2072
  480TMC3    C8 7148   2.879   4.212  15.556  0.6385  0.5961 -0.1195
  480TMC3    O1 7149   2.669   3.765  15.325  0.0392 -0.7356  0.5469
  480TMC3    O2 7150   2.965   4.255  15.631  0.1374  0.0804  0.3667
  481MPD2     C 7151   4.033   3.425  14.114  0.2944  0.0917 -0.6963
  481MPD2    C1 7152   3.911   3.380  14.154  0.9257 -0.1038 -0.3292
  481MPD2    C2 7153   3.894   3.317  14.280  0.0950 -0.8788 -0.6434
  481MPD2    C3 7154   3.994   3.285  14.357 -0.0169 -0.3657  0.1970
  481MPD2    C4 7155   4.121   3.330  14.319  0.2575 -0.1042 -0.4722
  481MPD2    C5 7156   4.137   3.404  14.204 -0.4092  0.1109 -0.5428
  481MPD2     H 7157   3.794   3.293  14.316 -1.7304  0.6708 -4.6311
  481MPD2    H1 7158   4.207   3.310  14.381  0.8049  1.5403 -0.7031
  481MPD2    H2 7159   4.044   3.478  14.020  1.9268 -0.5597 -0.8754
  481MPD2    H3 7160   4.236   3.441  14.181  0.6502 -1.4427  1.5066
  481MPD2     N 7161   3.980   3.208  14.479 -0.4010 -1.0945 -0.0953
  481MPD2    H5 7162   4.054   3.215  14.548 -1.1537 -1.4177  0.7387
  481MPD2    N1 7163   3.809   3.415  14.069  0.3700  0.6176  0.2324
  481MPD2    H7 7164   3.818   3.490  14.001 -2.8705  0.4543 -0.3844
  482TMC3    C1 7165   3.597   3.390  13.971 -0.2112 -0.2590 -0.2644
  482TMC3    C2 7166   3.509   3.301  13.915 -0.2905  0.3633  0.6384
  482TMC3    C3 7167   3.421   3.345  13.818  0.1145  0.1708  0.1663
  482TMC3    C4 7168   3.598   3.524  13.936 -0.2906 -0.1306 -0.0934
  482TMC3    C5 7169   3.524   3.552  13.818 -0.8691 -0.2064 -0.4589
  482TMC3    C6 7170   3.427   3.467  13.761  0.9067 -0.1158  0.3725
  482TMC3     C 7171   3.694   3.348  14.066  0.0621 -0.3560  0.6017
  482TMC3     O 7172   3.659   3.248  14.122  0.4771 -0.0838 -0.6990
  482TMC3     H 7173   3.504   3.197  13.945  0.1073  0.5118  1.2153
  482TMC3    H1 7174   3.658   3.600  13.984 -1.8222  1.2108 -0.3205
  482TMC3    H2 7175   3.373   3.477  13.667 -3.0454 -0.9485  2.5717
  482TMC3    C7 7176   3.554   3.679  13.750 -0.8358 -0.1591 -0.5735
  482TMC3    C8 7177   3.319   3.245  13.775 -0.5787  0.4681  1.2600
  482TMC3    O1 7178   3.576   3.775  13.828 -0.4962 -0.0912  1.0278
  482TMC3    O2 7179   3.336   3.127  13.800  0.4626  0.0190 -0.3534
  483TMC3    C1 7180   1.871   2.065   1.959  0.2131 -0.8143  0.4336
  483TMC3    C2 7181   1.799   2.079   1.844 -0.0083  0.5999 -0.1210
  483TMC3    C3 7182   1.871   2.137   1.738  0.0734  0.0198  0.0597
  483TMC3    C4 7183   1.994   2.120   1.983 -0.6849  0.2222  0.4492
  483TMC3    C5 7184   2.046   2.197   1.888 -0.3350 -0.3647  0.1307
  483TMC3    C6 7185   1.996   2.196   1.761 -0.1684 -0.2757 -0.6430
  483TMC3     C 7186   1.860   1.936   2.016  0.7400  1.0424 -0.7002
  483TMC3     O 7187   1.952   1.873   2.050  0.1050 -0.1732  0.3834
  483TMC3     H 7188   1.694   2.057   1.837  0.3914 -1.7110  1.3323
  483TMC3    H1 7189   2.022   2.096   2.085  2.8699  0.6892 -0.4487
  483TMC3    H2 7190   2.048   2.235   1.675 -0.0441  0.6698 -0.1421
  483TMC3    C7 7191   2.195   2.218   1.896 -0.4772 -0.1740  0.1835
  483TMC3    C8 7192   1.852   2.081   1.611  0.4226  0.3934 -0.4344
  483TMC3    O1 7193   2.254   2.217   1.787 -0.1336  0.1063 -0.0729
  483TMC3    O2 7194   1.908   2.126   1.513 -0.2596 -0.1569 -0.3862
  484MPD2     C 7195   4.370   0.625  12.155 -0.2711  0.2101  0.3740
  484MPD2    C1 7196   4.446   0.561  12.249 -0.2165 -0.3247  0.2314
  484MPD2    C2 7197   4.574   0.562  12.229 -0.1313 -0.3659  0.1129
  484MPD2    C3 7198   4.626   0.632  12.117 -0.0542 -0.1344 -0.9705
  484MPD2    C4 7199   4.552   0.699  12.024 -0.1121  0.3938 -0.1436
  484MPD2    C5 7200   4.417   0.684  12.045  0.5049 -0.3397 -0.2471
  484MPD2     H 7201   4.637   0.513  12.302 -0.8198  0.7641  1.4842
  484MPD2    H1 7202   4.585   0.727  11.925 -0.4744 -0.5803 -0.5496
  484MPD2    H2 7203   4.262   0.616  12.158 -0.2344  0.3511  2.3838
  484MPD2    H3 7204   4.343   0.713  11.972 -0.3683 -0.3032  0.6644
  484MPD2     N 7205   0.043   0.629  12.095  0.0636  0.3020  0.7842
  484MPD2    H5 7206   0.081   0.707  12.044 -2.5144 -0.3611 -2.1600
  484MPD2    N1 7207   4.382   0.487  12.359 -0.0372  0.1730 -0.4455
  484MPD2    H7 7208   4.285   0.466  12.338 -0.5060  1.0666  0.8726
  485TMC3    C1 7209   0.264   0.597  12.154  0.4736 -0.0004  0.0819
  485TMC3    C2 7210   0.353   0.539  12.249  0.1653  0.8846  0.1665
  485TMC3    C3 7211   0.488   0.531  12.230 -0.2565  0.3205 -0.5813
  485TMC3    C4 7212   0.313   0.629  12.029  0.2088 -0.3406 -0.3844
  485TMC3    C5 7213   0.443   0.623  12.017  0.5859 -0.1283 -0.1587
  485TMC3    C6 7214   0.533   0.583  12.112  0.0140 -0.4519 -0.3771
  485TMC3     C 7215   0.129   0.549  12.158  0.7648 -0.5807 -0.2087
  485TMC3     O 7216   0.115   0.444  12.222  0.1078  0.2062 -0.3849
  485TMC3     H 7217   0.311   0.492  12.337  2.6954 -0.7723  0.4689
  485TMC3    H1 7218   0.245   0.667  11.952  0.3657  0.1598 -0.2754
  485TMC3    H2 7219   0.638   0.579  12.086 -0.1796  0.3793 -1.2839
  485TMC3    C7 7220   0.477   0.589  11.883 -0.3382  0.1616  0.0777
  485TMC3    C8 7221   0.536   0.398  12.245 -0.5490 -0.4053  0.0921
  485TMC3    O1 7222   0.434   0.653  11.785 -0.2260  0.0969  0.3734
  485TMC3    O2 7223   0.591   0.347  12.148 -0.6549  0.6346  0.6189
  486MPD2     C 7224   1.521   4.194  13.164 -0.1487 -0.1749 -0.3804
  486MPD2    C1 7225   1.542   4.130  13.043  0.2266  0.5061  0.7417
  486MPD2    C2 7226   1.539   4.208  12.928  0.7568  0.4272  0.6020
  486MPD2    C3 7227   1.511   4.342  12.929  0.8954 -0.5564 -0.4336
  486MPD2    C4 7228   1.488   4.407  13.052 -0.3297 -0.0642 -0.1043
  486MPD2    C5 7229   1.484   4.327  13.169  0.0397 -0.0244 -0.1638
  486MPD2     H 7230   1.556   4.169  12.828  0.2608  1.5320  0.0796
  486MPD2    H1 7231   1.475   4.513  13.069  4.1068  0.2130  1.5066
  486MPD2    H2 7232   1.524   4.146  13.261 -0.9290  0.7170  0.0863
  486MPD2    H3 7233   1.462   4.374  13.264 -1.1198  0.2219 -0.5558
  486MPD2     N 7234   1.510   4.414  12.812  0.0109  1.0180 -0.7606
  486MPD2    H5 7235   1.513   4.363  12.724 -0.8579  1.0568 -0.8152
  486MPD2    N1 7236   1.575   3.991  13.044 -0.0682  0.1587  0.2352
  486MPD2    H7 7237   1.560   3.939  13.129 -3.2727 -1.0831 -1.0733
  487TMC3    C1 7238   1.578   3.772  12.957  0.1089 -0.0971  0.0244
  487TMC3    C2 7239   1.517   3.680  12.879  0.0325  0.1620  0.1246
  487TMC3    C3 7240   1.545   3.545  12.907 -0.7894 -0.4496 -0.7161
  487TMC3    C4 7241   1.650   3.735  13.069 -0.0432 -0.6611 -0.0335
  487TMC3    C5 7242   1.686   3.603  13.077  0.4359  0.8182 -0.2499
  487TMC3    C6 7243   1.643   3.509  12.988 -0.2535 -0.0630  0.0729
  487TMC3     C 7244   1.578   3.913  12.925  0.5659 -0.0210  0.1600
  487TMC3     O 7245   1.591   3.941  12.809 -0.3347 -0.6821 -0.2066
  487TMC3     H 7246   1.456   3.709  12.794  0.7415 -3.2100 -1.5140
  487TMC3    H1 7247   1.699   3.807  13.134 -1.3322  0.1933 -0.0186
  487TMC3    H2 7248   1.655   3.403  13.007  0.0925 -0.2646 -1.2704
  487TMC3    C7 7249   1.687   3.549  13.215  0.3329  0.6232 -0.0829
  487TMC3    C8 7250   1.432   3.459  12.940 -0.0109  0.7526 -0.2238
  487TMC3    O1 7251   1.744   3.618  13.300 -0.1467  0.3454 -0.1545
  487TMC3    O2 7252   1.453   3.341  12.962  0.8075  0.3343  0.1839
  488MPD2     C 7253   2.285   0.514  16.761  0.3564  0.0163 -0.2572
  488MPD2    C1 7254   2.217   0.631  16.794 -0.5364  0.5820  0.0438
  488MPD2    C2 7255   2.159   0.641  16.920 -0.3210 -0.3819 -1.0239
  488MPD2    C3 7256   2.169   0.543  17.011  0.3642 -0.5851 -1.0337
  488MPD2    C4 7257   2.242   0.432  16.981  0.2068 -0.0922  0.6781
  488MPD2    C5 7258   2.291   0.415  16.853  0.0639  1.0737 -0.8725
  488MPD2     H 7259   2.119   0.738  16.947  0.2151 -0.6374  0.6716
  488MPD2    H1 7260   2.284   0.366  17.056 -1.2082 -1.7322  0.0258
  488MPD2    H2 7261   2.318   0.500  16.659 -2.6111  0.7515 -1.3361
  488MPD2    H3 7262   2.339   0.322  16.825  0.9156  1.3650 -0.3907
  488MPD2     N 7263   2.134   0.571  17.142  0.1121 -0.4420  0.0089
  488MPD2    H5 7264   2.119   0.666  17.173 -1.0296 -0.0651 -1.7103
  488MPD2    N1 7265   2.213   0.742  16.713  0.0152  0.1865 -0.1194
  488MPD2    H7 7266   2.182   0.827  16.759 -0.3432  1.2907 -2.3861
  489TMC3    C1 7267   2.076   0.533  17.366 -0.8058  0.4172  0.2775
  489TMC3    C2 7268   2.050   0.669  17.372 -0.3132  0.2114 -0.6975
  489TMC3    C3 7269   2.064   0.729  17.495  0.6315  0.1341 -0.5039
  489TMC3    C4 7270   2.094   0.459  17.485 -0.2007  0.0355  0.2952
  489TMC3    C5 7271   2.113   0.523  17.599 -0.4040 -0.5076 -0.0252
  489TMC3    C6 7272   2.105   0.660  17.611 -0.3387  0.2415 -0.1350
  489TMC3     C 7273   2.119   0.474  17.241 -0.1533  0.1708 -0.0425
  489TMC3     O 7274   2.117   0.352  17.227 -0.2752  0.0884  0.0092
  489TMC3     H 7275   2.014   0.737  17.296 -2.1280  0.7821  0.6681
  489TMC3    H1 7276   2.110   0.353  17.465  1.5867  0.2036  0.9132
  489TMC3    H2 7277   2.122   0.714   0.007  1.4035  1.1718 -1.0060
  489TMC3    C7 7278   2.224   0.470  17.672 -0.2325  0.3798 -0.6501
  489TMC3    C8 7279   2.067   0.873  17.495  0.0135  0.7638 -0.3133
  489TMC3    O1 7280   2.218   0.359   0.024 -0.6801 -0.2643  0.1844
  489TMC3    O2 7281   2.098   0.926  17.388  0.8800  0.4604 -0.3673
  490MPD2     C 7282   2.904   0.243  17.264  0.0660 -0.1659 -0.3460
  490MPD2    C1 7283   2.859   0.158  17.366  0.3564 -0.0324  0.3507
  490MPD2    C2 7284   2.899   0.172  17.496 -0.5522  0.5372 -0.2889
  490MPD2    C3 7285   2.990   0.269  17.531  0.7466 -0.2039 -0.3180
  490MPD2    C4 7286   3.031   0.360  17.435  0.3614  0.4344  0.1078
  490MPD2    C5 7287   2.996   0.342  17.305  0.3410 -0.2103 -0.0103
  490MPD2     H 7288   2.865   0.097  17.567  0.6594  1.5687  1.3669
  490MPD2    H1 7289   3.095   0.445  17.457 -0.4445  0.9431  0.4980
  490MPD2    H2 7290   2.898   0.237  17.156  1.1981  1.4490 -0.5104
  490MPD2    H3 7291   3.060   0.393  17.233  0.1649  1.0443  0.7200
  490MPD2     N 7292   3.060   0.269  17.654 -0.2491  0.0371  0.0186
  490MPD2    H5 7293   3.142   0.328  17.664  0.3080 -0.5095 -1.4292
  490MPD2    N1 7294   2.782   0.046  17.341  0.4703  0.0557  0.2808
  490MPD2    H7 7295   2.731   0.008  17.421  0.2757 -0.9075 -0.2913
  491TMC3    C1 7296   2.665   4.605  17.211 -0.0700  0.1702  0.1902
  491TMC3    C2 7297   2.662   4.515  17.316  0.1773 -0.0655 -0.8017
  491TMC3    C3 7298   2.584   4.399  17.292 -0.5263  0.6348 -0.4369
  491TMC3    C4 7299   2.592   4.586  17.099 -0.4047 -0.1189  0.6359
  491TMC3    C5 7300   2.506   4.476  17.086  0.1071 -0.1564 -0.2850
  491TMC3    C6 7301   2.507   4.380  17.180 -0.3864  0.3801  0.4884
  491TMC3     C 7302   2.750   4.720  17.214 -0.0695  0.0048 -0.5725
  491TMC3     O 7303   2.783   0.044  17.107  0.0020 -0.4622 -0.3597
  491TMC3     H 7304   2.737   4.536  17.391  0.2028 -1.2284 -0.5058
  491TMC3    H1 7305   2.597   4.662  17.021 -0.7168  0.0944  0.8254
  491TMC3    H2 7306   2.442   4.296  17.158  1.2351 -0.7805  0.1081
  491TMC3    C7 7307   2.414   4.469  16.971  0.5353  0.2154 -0.1040
  491TMC3    C8 7308   2.549   4.312  17.405 -0.8571  0.0341 -0.4059
  491TMC3    O1 7309   2.354   4.360  16.965 -0.9530 -0.0989 -0.3193
  491TMC3    O2 7310   2.545   4.361  17.514  0.0698 -0.1746 -0.2045
  492MPD2     C 7311   3.265   0.584  11.168 -0.1662 -0.7569 -0.2359
  492MPD2    C1 7312   3.144   0.542  11.120  0.1670 -0.4104  0.5042
  492MPD2    C2 7313   3.059   0.461  11.193 -0.5004  0.1321  0.3892
  492MPD2    C3 7314   3.087   0.445  11.329  0.0189 -0.2394  0.5901
  492MPD2    C4 7315   3.204   0.495  11.377  0.5721  0.7176  0.8557
  492MPD2    C5 7316   3.293   0.562  11.299  0.0506 -0.3964 -0.0806
  492MPD2     H 7317   2.962   0.432  11.153 -0.6546  0.6895  0.3624
  492MPD2    H1 7318   3.232   0.485  11.481 -1.6162 -0.5203  1.3155
  492MPD2    H2 7319   3.335   0.637  11.105  0.2576  0.2284  1.0899
  492MPD2    H3 7320   3.384   0.614  11.330  0.2459  0.5929 -2.3250
  492MPD2     N 7321   3.003   0.381  11.420 -0.4868 -0.4825  0.7194
  492MPD2    H5 7322   3.035   0.377  11.517  0.8051  0.2016  0.3224
  492MPD2    N1 7323   3.123   0.577  10.982 -0.7630 -0.6350 -0.4029
  492MPD2    H7 7324   3.199   0.618  10.929 -1.2526  1.5983  0.6173
  493TMC3    C1 7325   3.048   0.586  10.771 -0.2632  0.3293  0.6376
  493TMC3    C2 7326   3.072   0.718  10.766 -0.1664 -0.2190 -0.9217
  493TMC3    C3 7327   3.055   0.792  10.649 -0.4670 -0.2879  0.2179
  493TMC3    C4 7328   2.987   0.525  10.668  0.9388 -0.0119 -0.0924
  493TMC3    C5 7329   2.970   0.591  10.551 -0.7456  0.4976 -0.2601
  493TMC3    C6 7330   2.997   0.729  10.544 -0.3529  0.1096 -0.1367
  493TMC3     C 7331   3.022   0.535  10.901  0.2867 -0.4508  0.1318
  493TMC3     O 7332   2.939   0.446  10.903 -0.0100 -0.8777  0.2654
  493TMC3     H 7333   3.119   0.776  10.845  1.3415 -0.6965 -1.4752
  493TMC3    H1 7334   2.960   0.419  10.668  1.3680 -0.1265  0.7281
  493TMC3    H2 7335   2.968   0.783  10.455  1.9891 -2.1276 -2.2715
  493TMC3    C7 7336   2.859   0.552  10.460  0.2682 -0.0256 -1.3197
  493TMC3    C8 7337   3.073   0.943  10.650 -0.0780  0.3072 -0.6447
  493TMC3    O1 7338   2.863   0.594  10.345 -0.1291 -0.2634 -0.0662
  493TMC3    O2 7339   3.062   0.996  10.759 -0.6067 -0.7483 -0.1148
  494TMC3    C1 7340   3.526   1.575   0.595  0.7652 -0.6872 -0.3000
  494TMC3    C2 7341   3.631   1.498   0.612  0.7807  0.5365  0.1862
  494TMC3    C3 7342   3.703   1.470   0.503  0.5732  0.2572 -0.7049
  494TMC3    C4 7343   3.489   1.625   0.475  0.0132 -0.0971 -0.1047
  494TMC3    C5 7344   3.552   1.581   0.362 -0.7359  0.0471 -0.0931
  494TMC3    C6 7345   3.661   1.505   0.375  0.3990 -0.2788  0.3371
  494TMC3     C 7346   3.470   1.656   0.703  0.7307 -0.3167  0.2250
  494TMC3     O 7347   3.454   1.774   0.677  0.1085  0.6279  0.4113
  494TMC3     H 7348   3.655   1.468   0.713 -1.1215  0.8416  0.7371
  494TMC3    H1 7349   3.408   1.697   0.477  0.0748 -0.0337  0.1484
  494TMC3    H2 7350   3.703   1.478   0.279  0.8988 -3.2142  1.3851
  494TMC3    C7 7351   3.557   1.667   0.243  0.5861 -0.4443 -0.0598
  494TMC3    C8 7352   3.784   1.349   0.514 -0.1212 -0.4167  0.9325
  494TMC3    O1 7353   3.569   1.611   0.136 -0.1889  0.3826 -0.7910
  494TMC3    O2 7354   3.795   1.302   0.625 -0.6338  0.1392 -0.1667
  495TMC3    C1 7355   2.796   4.294  14.585  0.0478 -0.4617  0.3572
  495TMC3    C2 7356   2.677   4.302  14.521  0.0972  0.3421 -0.0990
  495TMC3    C3 7357   2.567   4.297  14.601 -0.4912  0.1530 -0.6096
  495TMC3    C4 7358   2.810   4.302  14.717 -0.3242  0.0877 -0.4267
  495TMC3    C5 7359   2.697   4.314  14.786  0.5218  0.2259  0.1707
  495TMC3    C6 7360   2.571   4.309  14.738 -0.0278  0.2353 -0.4255
  495TMC3     C 7361   2.854   4.169  14.540 -0.1898 -0.4430 -0.1100
  495TMC3     O 7362   2.775   4.089  14.499 -0.8860 -0.1925  0.0730
  495TMC3     H 7363   2.670   4.306  14.413 -0.1761 -1.2153 -0.1326
  495TMC3    H1 7364   2.909   4.298  14.762  0.2071 -2.4828 -1.8529
  495TMC3    H2 7365   2.481   4.310  14.797 -0.8757  1.3308 -1.7376
  495TMC3    C7 7366   2.722   4.325  14.927  0.5586  0.1646  0.1398
  495TMC3    C8 7367   2.447   4.225  14.559 -0.2534  0.4007 -0.4044
  495TMC3    O1 7368   2.812   4.398  14.969  0.4586  0.7941  0.7282
  495TMC3    O2 7369   2.339   4.254  14.608  0.4574 -0.2054 -0.3486
  496MPD2     C 7370   4.628   4.206  15.905  0.3131 -0.1497  1.0101
  496MPD2    C1 7371   4.502   4.189  15.860 -0.1099  0.4966  0.1996
  496MPD2    C2 7372   4.412   4.112  15.935  0.0965 -0.1562 -0.6138
  496MPD2    C3 7373   4.457   4.060  16.055  0.8439 -0.4601  0.0746
  496MPD2    C4 7374   4.593   4.063  16.082 -0.0508 -0.6177  0.1849
  496MPD2    C5 7375   4.675   4.149  16.014 -0.2200 -0.3939 -0.7832
  496MPD2     H 7376   4.306   4.114  15.912  0.5167 -2.8701 -2.8107
  496MPD2    H1 7377   4.630   4.022  16.176 -2.1550 -1.0353  0.8264
  496MPD2    H2 7378   4.709   4.246  15.845 -0.7428  0.3459 -0.0898
  496MPD2    H3 7379   0.057   4.161  16.036 -0.2118  0.9406 -1.5524
  496MPD2     N 7380   4.376   3.993  16.144 -0.4747  0.1538  0.1785
  496MPD2    H5 7381   4.418   3.957  16.229 -0.6510 -1.6095 -0.4702
  496MPD2    N1 7382   4.478   4.243  15.730  0.5289  0.0371 -0.0020
  496MPD2    H7 7383   4.554   4.297  15.689  0.0416 -0.0759 -1.0535
  497TMC3    C1 7384   4.190   3.866  16.206 -0.1053 -0.2484 -0.0446
  497TMC3    C2 7385   4.103   3.772  16.157 -0.6906 -0.1793 -0.2721
  497TMC3    C3 7386   4.065   3.670  16.233 -0.1965  1.0120  0.4838
  497TMC3    C4 7387   4.217   3.867  16.339 -1.3357 -0.3938  0.5470
  497TMC3    C5 7388   4.163   3.767  16.415  0.0083  0.6897 -0.3354
  497TMC3    C6 7389   4.085   3.665  16.366  0.6824 -0.7015  0.4199
  497TMC3     C 7390   4.245   3.960  16.119  0.1324 -0.3972  0.0024
  497TMC3     O 7391   4.169   3.999  16.030  0.0084  0.0598  0.3387
  497TMC3     H 7392   4.093   3.761  16.050 -2.1748 -1.0057 -0.0517
  497TMC3    H1 7393   4.283   3.938  16.387 -1.7832 -1.6253  2.9499
  497TMC3    H2 7394   4.049   3.581  16.424 -1.9687 -2.0671 -3.2181
  497TMC3    C7 7395   4.203   3.748  16.556 -0.1509 -0.0252 -0.1047
  497TMC3    C8 7396   3.983   3.568  16.171 -0.2105  0.3780 -0.5525
  497TMC3    O1 7397   4.130   3.680  16.626  0.5324  0.4059 -0.4007
  497TMC3    O2 7398   3.984   3.455  16.214  0.0459  0.7802  0.1954
  498MPD2     C 7399   4.516   0.595   9.777  0.9022  0.0163  0.0037
  498MPD2    C1 7400   4.619   0.526   9.829  0.1211 -0.3532  0.1228
  498MPD2    C2 7401   4.601   0.435   9.932 -0.0266  0.0657 -0.5380
  498MPD2    C3 7402   4.477   0.403   9.980  0.0434  0.3046 -0.0164
  498MPD2    C4 7403   4.372   0.467   9.923 -0.8917 -0.3073  0.3195
  498MPD2    C5 7404   4.391   0.562   9.828  0.2056 -0.4903  0.8711
  498MPD2     H 7405   4.682   0.373   9.968  0.5437  0.8756 -0.4279
  498MPD2    H1 7406   4.271   0.440   9.950 -1.1268  1.5179  1.2867
  498MPD2    H2 7407   4.527   0.676   9.705 -0.5372  0.1072 -0.1001
  498MPD2    H3 7408   4.304   0.613   9.788  0.8776  0.6354  0.8231
  498MPD2     N 7409   4.463   0.304  10.087  0.2964  0.6848  0.0973
  498MPD2    H5 7410   4.551   0.274  10.128  0.2646 -2.2134 -1.9214
  498MPD2    N1 7411   0.028   0.544   9.772  0.0471 -0.0004  0.7793
  498MPD2    H7 7412   0.105   0.495   9.816 -0.5185 -1.5909 -0.0285
  499TMC3    C1 7413   0.207   0.597   9.634  0.3778 -0.4174 -0.2790
  499TMC3    C2 7414   0.262   0.472   9.654 -0.1327 -0.0950  0.0537
  499TMC3    C3 7415   0.385   0.451   9.598  0.4804  0.0004 -0.1475
  499TMC3    C4 7416   0.269   0.696   9.566 -0.2044 -0.6985 -0.3930
  499TMC3    C5 7417   0.393   0.676   9.524 -0.0940 -0.8072 -0.9334
  499TMC3    C6 7418   0.454   0.555   9.533 -0.7974  0.5933 -0.2641
  499TMC3     C 7419   0.066   0.614   9.659  0.5996  0.3432  0.3686
  499TMC3     O 7420   0.002   0.700   9.599 -0.0330  0.8734  0.0013
  499TMC3     H 7421   0.210   0.391   9.705 -0.9101  1.8593  2.3817
  499TMC3    H1 7422   0.211   0.784   9.538  1.7331  0.8688  0.4896
  499TMC3    H2 7423   0.549   0.542   9.481 -0.7802  2.0303 -0.6027
  499TMC3    C7 7424   0.458   0.798   9.466  0.2571  0.0730 -0.2969
  499TMC3    C8 7425   0.409   0.310   9.573  0.1108 -0.3108  0.4691
  499TMC3    O1 7426   0.394   0.880   9.400  0.1845 -0.4520  0.7025
  499TMC3    O2 7427   0.355   0.232   9.655 -0.0189 -0.4324 -0.6244
  500MPD2     C 7428   2.353   1.484   9.297 -0.2661 -0.3416 -0.0129
  500MPD2    C1 7429   2.303   1.574   9.393 -0.4194  0.5492 -0.5865
  500MPD2    C2 7430   2.200   1.662   9.355 -0.1417  0.0327  0.6581
  500MPD2    C3 7431   2.158   1.662   9.225 -0.1020  0.0858 -0.1933
  500MPD2    C4 7432   2.208   1.568   9.138 -0.1377 -0.1548 -0.1401
  500MPD2    C5 7433   2.301   1.479   9.174 -0.2454  0.6541  0.3482
  500MPD2     H 7434   2.154   1.724   9.430 -0.7779  0.5459 -0.1524
  500MPD2    H1 7435   2.184   1.571   9.032 -2.1031  1.1241  0.3455
  500MPD2    H2 7436   2.435   1.416   9.315 -1.6845 -1.2702  2.8953
  500MPD2    H3 7437   2.336   1.408   9.100  0.6886  0.1217  1.2908
  500MPD2     N 7438   2.058   1.755   9.179 -0.4898 -0.8734  0.3756
  500MPD2    H5 7439   2.042   1.759   9.078 -0.9712  0.2683  0.4984
  500MPD2    N1 7440   2.350   1.574   9.524 -0.2050 -0.0854 -0.3984
  500MPD2    H7 7441   2.328   1.646   9.592  1.2118 -0.9761  0.9861
  501TMC3    C1 7442   2.417   1.490   9.729 -0.5602 -0.2874  0.0171
  501TMC3    C2 7443   2.474   1.604   9.775 -0.3270 -0.4641  0.4851
  501TMC3    C3 7444   2.467   1.637   9.906 -0.0080 -0.1820 -0.2147
  501TMC3    C4 7445   2.390   1.381   9.811  0.3452 -0.0354  0.5057
  501TMC3    C5 7446   2.401   1.412   9.942  0.7726 -0.2533 -0.3184
  501TMC3    C6 7447   2.422   1.539   9.986 -0.1514 -0.3541  0.3998
  501TMC3     C 7448   2.399   1.467   9.589  0.4805 -0.1259  0.0846
  501TMC3     O 7449   2.393   1.351   9.557  0.1886  0.1047  0.3169
  501TMC3     H 7450   2.509   1.677   9.703  0.0205  0.1932  1.3254
  501TMC3    H1 7451   2.353   1.286   9.774 -1.9853  0.4801  1.4702
  501TMC3    H2 7452   2.390   1.551  10.089  1.0093  2.1809  0.4640
  501TMC3    C7 7453   2.353   1.315  10.037  0.1445  0.1409  0.0232
  501TMC3    C8 7454   2.486   1.777   9.960 -0.5937  0.5847 -0.1436
  501TMC3    O1 7455   2.283   1.224   9.991 -0.0351 -0.0855 -0.2547
  501TMC3    O2 7456   2.437   1.789  10.072  0.0306 -0.1344 -0.6705
  502TMC3    C1 7457   2.012   0.098  14.661  0.7394 -0.0840  0.0181
  502TMC3    C2 7458   1.977   0.191  14.562  0.3604  0.9089  0.5953
  502TMC3    C3 7459   1.841   0.200  14.537  0.5948 -0.2150  0.0113
  502TMC3    C4 7460   1.928   0.011  14.726  0.1169  0.2021  0.5732
  502TMC3    C5 7461   1.795   0.034  14.698 -0.7450  0.5100 -0.4304
  502TMC3    C6 7462   1.747   0.121  14.610 -0.3199  0.2627  0.3168
  502TMC3     C 7463   2.133   0.144  14.725  0.3764 -0.9644  0.5238
  502TMC3     O 7464   2.204   0.225  14.665 -0.2028  0.2709  0.3095
  502TMC3     H 7465   2.048   0.256  14.512 -0.1137  0.2844 -0.8900
  502TMC3    H1 7466   1.962   4.668  14.805  1.6755  1.4938  0.9845
  502TMC3    H2 7467   1.641   0.129  14.588 -0.4770 -0.4821  0.7922
  502TMC3    C7 7468   1.705   4.687  14.793  0.3331  0.1625  0.1955
  502TMC3    C8 7469   1.800   0.324  14.480 -0.3755  0.4233 -0.2905
  502TMC3    O1 7470   1.749   4.595  14.860 -0.3191  1.1095  0.1530
  502TMC3    O2 7471   1.718   0.396  14.538  0.0394  0.2866 -0.2103
  503MPD2     C 7472   3.915   0.887  16.615 -0.0331  0.8494 -0.5092
  503MPD2    C1 7473   3.855   0.826  16.727  0.7655 -0.3461  0.2454
  503MPD2    C2 7474   3.900   0.704  16.777  0.3879  0.0369 -0.4977
  503MPD2    C3 7475   4.009   0.631  16.716 -0.0413 -0.2344  0.1516
  503MPD2    C4 7476   4.075   0.703  16.625  0.1102  0.2929  0.1571
  503MPD2    C5 7477   4.031   0.825  16.574  0.3577  0.3678 -0.1183
  503MPD2     H 7478   3.851   0.648  16.857 -1.4792  2.7969  0.3210
  503MPD2    H1 7479   4.164   0.669  16.573 -0.5365 -0.5901 -0.3651
  503MPD2    H2 7480   3.869   0.975  16.572 -0.3552  0.1719 -1.5398
  503MPD2    H3 7481   4.094   0.869  16.498  0.1178 -0.3619 -0.7353
  503MPD2     N 7482   4.053   0.511  16.777 -0.2854 -0.2435 -0.0697
  503MPD2    H5 7483   3.994   0.474  16.851 -0.7178 -3.4999 -2.0389
  503MPD2    N1 7484   3.740   0.886  16.793  0.5013  0.3830  0.2961
  503MPD2    H7 7485   3.710   0.835  16.876 -1.2238  1.4489  0.3318
  504TMC3    C1 7486   4.200   0.321  16.818 -0.7726 -0.1554  0.3122
  504TMC3    C2 7487   4.152   0.310  16.944  0.7137  0.2150  0.5779
  504TMC3    C3 7488   4.208   0.216  17.026  0.0582  0.2986  0.0300
  504TMC3    C4 7489   4.310   0.254  16.781  0.4578  0.8517  0.0869
  504TMC3    C5 7490   4.367   0.167  16.870  0.4663 -0.4446 -0.0549
  504TMC3    C6 7491   4.318   0.150  17.001 -0.0394 -0.1709 -0.1803
  504TMC3     C 7492   4.154   0.428  16.730 -0.2012 -0.1945 -0.4091
  504TMC3     O 7493   4.240   0.458  16.645  0.1331 -0.2605 -0.0327
  504TMC3     H 7494   4.049   0.340  16.960 -0.3771 -2.3523 -1.7258
  504TMC3    H1 7495   4.357   0.277  16.686  1.6207 -0.5845  0.3169
  504TMC3    H2 7496   4.369   0.078  17.064 -0.6752 -1.8141 -1.5511
  504TMC3    C7 7497   4.495   0.103  16.835 -0.1994 -0.0142  0.5359
  504TMC3    C8 7498   4.151   0.234  17.162 -0.2828 -0.1339  0.5627
  504TMC3    O1 7499   4.510   0.073  16.717 -0.6407  0.5854  0.0333
  504TMC3    O2 7500   4.046   0.292  17.179 -0.1779  0.5822 -0.0962
  505MPD2     C 7501   3.906   0.057  11.344  0.7120 -0.0912 -0.3151
  505MPD2    C1 7502   4.021   4.708  11.366  0.6408  0.4292  0.1067
  505MPD2    C2 7503   4.137   0.059  11.395 -0.9346 -0.0639 -0.4884
  505MPD2    C3 7504   4.141   0.193  11.400 -0.0840  0.2396 -0.1500
  505MPD2    C4 7505   4.024   0.262  11.376 -0.1326 -0.4368 -0.4719
  505MPD2    C5 7506   3.903   0.196  11.351  0.0832 -0.0777 -0.4357
  505MPD2     H 7507   4.233   0.009  11.407 -1.4979 -1.6075 -2.3240
  505MPD2    H1 7508   4.012   0.370  11.377  3.4739 -0.1128  4.0603
  505MPD2    H2 7509   3.810   0.007  11.335  0.9070 -0.6440  0.6756
  505MPD2    H3 7510   3.809   0.250  11.348 -0.1771 -0.3944  2.3548
  505MPD2     N 7511   4.264   0.255  11.421 -0.0340 -0.0813 -0.1011
  505MPD2    H5 7512   4.342   0.191  11.424  0.5408  0.5451 -2.0665
  505MPD2    N1 7513   4.016   4.571  11.372  0.0293 -0.2733 -0.0968
  505MPD2    H7 7514   3.929   4.531  11.336 -0.3050  1.0631 -0.7563
  506TMC3    C1 7515   4.107   4.344  11.366 -0.4174  0.6576  0.5563
  506TMC3    C2 7516   4.033   4.319  11.252 -0.3652 -0.4291  0.8808
  506TMC3    C3 7517   4.084   4.244  11.156  0.0631  0.3147 -0.4544
  506TMC3    C4 7518   4.231   4.298  11.384 -0.1897  0.2405 -0.1649
  506TMC3    C5 7519   4.282   4.216  11.283 -0.0479  0.3218 -0.0719
  506TMC3    C6 7520   4.213   4.196  11.163  0.1065  0.2090  0.1037
  506TMC3     C 7521   4.119   4.488  11.394  0.5643 -0.8845 -0.3111
  506TMC3     O 7522   4.235   4.514  11.417  0.5412  0.4082  0.0509
  506TMC3     H 7523   3.939   4.371  11.232  0.6484  1.3982  0.8758
  506TMC3    H1 7524   4.281   4.298  11.480 -0.2365 -3.3178 -0.1079
  506TMC3    H2 7525   4.236   4.123  11.086 -2.0378  0.8895 -1.1610
  506TMC3    C7 7526   4.421   4.231  11.258  0.2652 -0.7492 -0.1560
  506TMC3    C8 7527   4.021   4.257  11.027  0.1814 -0.1171  0.4448
  506TMC3    O1 7528   4.475   4.169  11.167 -0.1797 -0.0735 -0.6786
  506TMC3    O2 7529   3.903   4.226  11.016  0.5856  0.0060  0.4088
  507TMC3    C1 7530   4.705   0.262  15.038  0.4229  0.3143 -0.7389
  507TMC3    C2 7531   4.613   0.167  14.996  0.0577 -0.1213  0.4879
  507TMC3    C3 7532   4.658   0.085  14.898 -0.0421  0.0352  0.4078
  507TMC3    C4 7533   0.107   0.269  15.003 -0.7244  0.4791  0.3881
  507TMC3    C5 7534   0.159   0.183  14.904  0.4567 -0.0303  0.2656
  507TMC3    C6 7535   0.068   0.087  14.866  0.0878  0.5633 -0.7736
  507TMC3     C 7536   4.664   0.365  15.129  0.2816  0.2954 -0.0748
  507TMC3     O 7537   4.713   0.476  15.112 -0.2922  0.2403 -0.7411
  507TMC3     H 7538   4.507   0.176  15.018  0.0288  1.7863 -0.4668
  507TMC3    H1 7539   0.170   0.351  15.037  2.3660 -1.0731 -1.5899
  507TMC3    H2 7540   0.107   0.025  14.786  1.5035  2.3999 -1.5244
  507TMC3    C7 7541   0.233   0.229  14.784  0.4806 -0.7472 -0.9483
  507TMC3    C8 7542   4.570   0.067  14.784  0.4158  0.4607  0.2415
  507TMC3    O1 7543   0.178   0.202  14.677 -0.0881 -0.1231  0.0959
  507TMC3    O2 7544   4.456   0.027  14.803 -0.3583 -0.0192 -0.4690
  508MPD2     C 7545   0.620   2.755  15.995 -0.2454  0.0517 -0.0458
  508MPD2    C1 7546   0.748   2.798  15.975  0.3493  0.5753 -0.9305
  508MPD2    C2 7547   0.771   2.867  15.849  1.0981 -0.4320 -0.1463
  508MPD2    C3 7548   0.675   2.895  15.753 -0.7740  0.2078  0.2104
  508MPD2    C4 7549   0.548   2.859  15.787 -0.2004 -0.2261 -0.1922
  508MPD2    C5 7550   0.523   2.788  15.903 -0.2034 -0.0335 -0.1334
  508MPD2     H 7551   0.870   2.905  15.823  1.5693 -2.6612 -1.6688
  508MPD2    H1 7552   0.466   2.877  15.718  0.3847 -3.0330 -1.6207
  508MPD2    H2 7553   0.589   2.688  16.073  0.2100  0.8981  0.8622
  508MPD2    H3 7554   0.422   2.752  15.920  0.0467 -0.5656  0.2379
  508MPD2     N 7555   0.713   2.963  15.635 -0.3564 -0.1270 -0.2321
  508MPD2    H5 7556   0.813   2.977  15.623 -0.6943  2.1058 -0.4991
  508MPD2    N1 7557   0.843   2.783  16.079 -0.0687 -0.2232  0.4472
  508MPD2    H7 7558   0.824   2.732  16.165 -0.6160  2.6255  2.0239
  509TMC3    C1 7559   0.713   3.259  15.268  0.0114 -0.0642 -0.5795
  509TMC3    C2 7560   0.848   3.244  15.263  0.2443  0.1001  0.4597
  509TMC3    C3 7561   0.904   3.150  15.337 -0.0392  0.4141 -0.1506
  509TMC3    C4 7562   0.638   3.188  15.359 -0.5370  0.5227 -0.4553
  509TMC3    C5 7563   0.703   3.097  15.437  0.0272  0.1217  0.2497
  509TMC3    C6 7564   0.834   3.073  15.423  0.2755  0.1080  0.7980
  509TMC3     C 7565   0.648   3.351  15.179 -0.1226 -0.1870 -0.6183
  509TMC3     O 7566   0.530   3.337  15.157 -0.4663 -0.5436  0.3626
  509TMC3     H 7567   0.902   3.289  15.181 -1.0178 -1.1003 -1.0257
  509TMC3    H1 7568   0.535   3.209  15.383 -1.2055 -0.9259 -2.0452
  509TMC3    H2 7569   0.878   2.978  15.451  0.5694 -0.6655 -2.3549
  509TMC3    C7 7570   0.634   3.028  15.548  0.2671 -0.0935  0.4167
  509TMC3    C8 7571   1.037   3.117  15.317  0.0070  0.1755 -0.0103
  509TMC3    O1 7572   0.516   3.058  15.568  0.4283  0.6352 -0.0390
  509TMC3    O2 7573   1.075   3.006  15.352  0.2000  0.2614 -0.6757
  510MPD2     C 7574   3.921   4.693  14.515  0.7943 -0.7676 -0.1689
  510MPD2    C1 7575   3.982   4.596  14.589 -0.8695 -0.5533  0.4640
  510MPD2    C2 7576   4.110   4.568  14.554 -0.2177  0.5258  0.3174
  510MPD2    C3 7577   4.165   4.602  14.429  0.1414  0.4209 -0.4340
  510MPD2    C4 7578   4.085   4.666  14.338  0.3269  0.0134 -0.0572
  510MPD2    C5 7579   3.964   4.706  14.383 -0.3157  0.0783  0.0852
  510MPD2     H 7580   4.178   4.512  14.617 -0.3168  0.0378 -0.0091
  510MPD2    H1 7581   4.098   4.680  14.232 -2.4224 -1.8044 -0.6489
  510MPD2    H2 7582   3.821   0.004  14.538  0.6554 -1.0699 -0.3128
  510MPD2    H3 7583   3.904   0.042  14.315  2.1170  3.2508  0.6986
  510MPD2     N 7584   4.294   4.567  14.408 -0.0376 -0.3694  0.5280
  510MPD2    H5 7585   4.343   4.527  14.488  0.7084  0.9580  0.7176
  510MPD2    N1 7586   3.919   4.537  14.703 -0.0545 -0.0427  0.1254
  510MPD2    H7 7587   3.822   4.565  14.718  0.4110  1.3053  0.6340
  511TMC3    C1 7588   3.881   4.361  14.866 -1.3643  0.0468  0.8584
  511TMC3    C2 7589   3.796   4.436  14.940  0.2960  0.0625  0.3292
  511TMC3    C3 7590   3.705   4.366  15.013 -0.5474  0.3780  0.8923
  511TMC3    C4 7591   3.871   4.229  14.837  0.1558  0.2281  0.3329
  511TMC3    C5 7592   3.770   4.163  14.903  0.1786 -0.4641 -1.0976
  511TMC3    C6 7593   3.685   4.228  14.992  0.6572 -0.4049 -0.2429
  511TMC3     C 7594   3.972   4.435  14.778  0.5220 -0.1616 -0.0699
  511TMC3     O 7595   4.071   4.365  14.765 -0.6524  0.0423 -0.6120
  511TMC3     H 7596   3.826   4.538  14.959  0.6655 -0.1152  0.7057
  511TMC3    H1 7597   3.934   4.172  14.769 -0.7296 -1.1569  0.6931
  511TMC3    H2 7598   3.591   4.186  15.026 -0.6165  2.9778  0.4109
  511TMC3    C7 7599   3.731   4.034  14.848 -0.0778  0.0061 -0.1283
  511TMC3    C8 7600   3.640   4.445  15.120  0.3059  0.2267 -0.1829
  511TMC3    O1 7601   3.760   4.005  14.731 -0.0952 -0.2972 -0.8850
  511TMC3    O2 7602   3.656   4.567  15.118 -0.3191  0.1778 -0.0068
  512TMC3    C1 7603   2.491   3.984  13.337  0.6015  0.0171  0.1286
  512TMC3    C2 7604   2.616   3.942  13.389 -0.3767  0.7126 -0.1613
  512TMC3    C3 7605   2.655   3.810  13.362  0.7341 -0.8579  0.2987
  512TMC3    C4 7606   2.410   3.898  13.261 -0.0312 -0.6201  0.3301
  512TMC3    C5 7607   2.457   3.773  13.234 -0.3099  0.3665 -0.1109
  512TMC3    C6 7608   2.576   3.731  13.287  0.2235 -0.4315  1.0652
  512TMC3     C 7609   2.444   4.124  13.362  0.6005 -0.4993 -0.3486
  512TMC3     O 7610   2.530   4.208  13.388  0.3196  0.3523  0.1507
  512TMC3     H 7611   2.656   3.994  13.475 -2.5864  1.2660  0.5502
  512TMC3    H1 7612   2.322   3.934  13.210 -0.9174  1.2726  3.1661
  512TMC3    H2 7613   2.608   3.628  13.269 -1.1001 -0.8526  1.1532
  512TMC3    C7 7614   2.387   3.697  13.131 -0.2298  0.1105 -0.5206
  512TMC3    C8 7615   2.772   3.751  13.404 -0.6132  0.0158 -0.6402
  512TMC3    O1 7616   2.294   3.749  13.076 -0.6628 -0.0552  0.3216
  512TMC3    O2 7617   2.804   3.636  13.379 -0.4393  0.0961 -0.2517
  513MPD2     C 7618   4.364   3.701  13.426 -0.2569 -0.2944  0.2179
  513MPD2    C1 7619   4.460   3.673  13.328  0.1614  0.2998 -0.2835
  513MPD2    C2 7620   4.579   3.750  13.333  0.2984  0.1585 -0.0983
  513MPD2    C3 7621   4.605   3.841  13.438 -0.7248  0.7592 -0.7798
  513MPD2    C4 7622   4.503   3.865  13.529 -0.2906 -0.2512 -0.0718
  513MPD2    C5 7623   4.386   3.798  13.518  0.4921  0.4543  0.1845
  513MPD2     H 7624   4.663   3.729  13.269 -0.5950  0.2188 -1.2799
  513MPD2    H1 7625   4.519   3.948  13.598  1.7871 -2.4895  2.1456
  513MPD2    H2 7626   4.270   3.647  13.419 -0.6437  0.3844  0.2212
  513MPD2    H3 7627   4.309   3.822  13.591 -1.3873  0.3570 -1.7902
  513MPD2     N 7628   4.723   3.910  13.426 -0.2586 -0.1313 -0.8746
  513MPD2    H5 7629   0.051   3.883  13.342  1.3705 -0.4758  0.2289
  513MPD2    N1 7630   4.422   3.578  13.231 -0.1941  0.1715 -0.9395
  513MPD2    H7 7631   4.336   3.523  13.232 -0.4594  0.6168  2.2455
  514TMC3    C1 7632   4.471   3.431  13.051 -0.3562 -0.0014 -0.5769
  514TMC3    C2 7633   4.402   3.466  12.941  0.8460  0.3833 -0.6107
  514TMC3    C3 7634   4.448   3.414  12.815  0.0390 -0.3455  0.4095
  514TMC3    C4 7635   4.578   3.346  13.039 -0.0717 -0.3903  0.7874
  514TMC3    C5 7636   4.628   3.303  12.919 -0.4404 -0.0599  0.5674
  514TMC3    C6 7637   4.559   3.341  12.805 -0.1418 -0.3720 -0.0689
  514TMC3     C 7638   4.508   3.545  13.132  0.6468  0.2912  0.2060
  514TMC3     O 7639   4.622   3.583  13.102 -0.2515 -0.0484 -0.0037
  514TMC3     H 7640   4.312   3.526  12.934  0.8287  0.6580  1.9637
  514TMC3    H1 7641   4.632   3.326  13.131  2.8857 -1.1836 -1.1230
  514TMC3    H2 7642   4.600   3.315  12.708 -1.8132 -2.1704 -0.2913
  514TMC3    C7 7643   0.047   3.309  12.906  0.1300 -0.2548  0.0978
  514TMC3    C8 7644   4.365   3.462  12.699  0.8131  0.6574  0.4036
  514TMC3    O1 7645   0.106   3.236  12.832  0.4854 -0.2323  0.1323
  514TMC3    O2 7646   4.264   3.520  12.726 -0.1105 -0.4409  0.2987
  515MPD2     C 7647   2.550   0.936  14.596  0.7433  0.0864  0.3993
  515MPD2    C1 7648   2.604   0.839  14.672 -0.1460 -0.0883  0.7679
  515MPD2    C2 7649   2.639   0.873  14.800  0.2761  0.1965 -0.3641
  515MPD2    C3 7650   2.613   0.995  14.860 -0.1727  0.2874  0.2822
  515MPD2    C4 7651   2.548   1.091  14.785  0.3202  0.5205 -0.4645
  515MPD2    C5 7652   2.520   1.060  14.658 -0.3351  0.1695 -0.7183
  515MPD2     H 7653   2.688   0.798  14.860 -1.7626 -1.5477 -0.8732
  515MPD2    H1 7654   2.519   1.193  14.810 -0.0116  1.0160 -2.9132
  515MPD2    H2 7655   2.518   0.922  14.493 -0.4033  1.4328  0.5737
  515MPD2    H3 7656   2.462   1.138  14.610 -3.0822 -0.6551  1.2714
  515MPD2     N 7657   2.636   1.025  14.994 -0.4074 -0.1685  0.3841
  515MPD2    H5 7658   2.620   1.119  15.031  2.0034  0.1189  0.7025
  515MPD2    N1 7659   2.632   0.710  14.625  0.0628  0.0305 -0.7661
  515MPD2    H7 7660   2.669   0.643  14.692  1.5142  1.2655 -0.3294
  516TMC3    C1 7661   2.669   0.548  14.462  0.0812  0.5242 -0.1307
  516TMC3    C2 7662   2.715   0.522  14.335 -0.2215 -0.4519 -0.3786
  516TMC3    C3 7663   2.721   0.394  14.293 -0.2663  0.0684  0.4768
  516TMC3    C4 7664   2.657   0.452  14.551 -0.0877  0.1387 -0.3838
  516TMC3    C5 7665   2.661   0.320  14.506 -0.6789  0.3392  0.1297
  516TMC3    C6 7666   2.678   0.295  14.372  0.3339  0.4746  0.2286
  516TMC3     C 7667   2.633   0.683  14.492 -0.3307 -0.5316 -0.0801
  516TMC3     O 7668   2.652   0.763  14.396 -0.0478 -0.5978 -0.2326
  516TMC3     H 7669   2.743   0.601  14.267 -0.9717 -0.9784 -1.2967
  516TMC3    H1 7670   2.634   0.473  14.655 -1.0219 -0.3864 -0.4903
  516TMC3    H2 7671   2.678   0.195  14.330  1.8644  0.4338  0.3076
  516TMC3    C7 7672   2.619   0.215  14.592 -0.0439  0.3738  0.9906
  516TMC3    C8 7673   2.705   0.363  14.153  0.0186 -0.9558 -0.3180
  516TMC3    O1 7674   2.612   0.239  14.710  0.5070 -0.3320 -0.7840
  516TMC3    O2 7675   2.612   0.295  14.113  0.1515  0.6087  0.5142
  517MPD2     C 7676   2.050   1.008   0.476 -0.8623  0.2018 -0.7255
  517MPD2    C1 7677   2.107   1.131   0.440 -0.0278  0.5783  0.2432
  517MPD2    C2 7678   2.107   1.236   0.532 -0.3134  0.0681  0.7251
  517MPD2    C3 7679   2.052   1.216   0.658  0.2682 -0.4048  0.1507
  517MPD2    C4 7680   1.999   1.091   0.695  0.3826  0.0227 -0.2425
  517MPD2    C5 7681   1.998   0.996   0.598 -0.0188  0.2036  0.0873
  517MPD2     H 7682   2.141   1.333   0.497 -1.4457 -0.4996 -1.9446
  517MPD2    H1 7683   1.973   1.056   0.794 -0.5009  1.7750  0.1513
  517MPD2    H2 7684   2.050   0.925   0.406 -3.5678  2.4781 -3.4577
  517MPD2    H3 7685   1.943   0.906   0.622  0.9489  0.0929  1.9054
  517MPD2     N 7686   2.039   1.324   0.748  1.3319 -0.1828  0.2171
  517MPD2    H5 7687   1.988   1.304   0.833  0.1820 -0.6166 -0.5724
  517MPD2    N1 7688   2.174   1.154   0.319  0.0143 -0.0564  0.0986
  517MPD2    H7 7689   2.195   1.251   0.297 -1.4790  0.0737 -0.7329
  518TMC3    C1 7690   2.302   1.101   0.130 -0.0419 -0.1948  0.0336
  518TMC3    C2 7691   2.338   1.015   0.025  0.6818  0.0842 -0.1557
  518TMC3    C3 7692   2.412   1.062  17.612 -0.3824 -0.3522  0.0964
  518TMC3    C4 7693   2.349   1.229   0.124 -0.1175  0.6755 -0.1504
  518TMC3    C5 7694   2.428   1.271   0.017 -0.1338  0.6209  0.4114
  518TMC3    C6 7695   2.456   1.190  17.612 -0.0416  0.0300 -0.5055
  518TMC3     C 7696   2.236   1.053   0.250 -0.3002 -0.4517  0.8444
  518TMC3     O 7697   2.243   0.935   0.276  0.1340  0.3852 -0.2499
  518TMC3     H 7698   2.300   0.914   0.022 -0.1967  0.4716 -2.2742
  518TMC3    H1 7699   2.349   1.292   0.212 -2.8514  0.3365  0.0938
  518TMC3    H2 7700   2.504   1.227  17.522  1.1216  1.0774  0.5593
  518TMC3    C7 7701   2.519   1.379   0.041 -0.1440  0.1140  0.0540
  518TMC3    C8 7702   2.477   0.961  17.526  0.0461  0.1404  0.9344
  518TMC3    O1 7703   2.483   1.453   0.131 -0.1576  0.0456 -0.4214
  518TMC3    O2 7704   2.415   0.870  17.476 -0.1937  0.1366  0.3802
  519MPD2     C 7705   4.219   0.864  14.023  0.0236  0.0215  0.0579
  519MPD2    C1 7706   4.110   0.783  14.046  0.5854 -0.1377  0.5060
  519MPD2    C2 7707   4.118   0.644  14.026 -0.5079  0.3842 -0.2220
  519MPD2    C3 7708   4.238   0.588  13.983 -0.3332 -0.2083 -0.2287
  519MPD2    C4 7709   4.342   0.671  13.954  0.1186  0.3781 -0.1189
  519MPD2    C5 7710   4.331   0.804  13.980  0.2951  0.7997 -0.0294
  519MPD2     H 7711   4.040   0.582  14.069  0.3087 -0.4995  0.0004
  519MPD2    H1 7712   4.433   0.635  13.906 -1.4625 -0.0078 -2.8456
  519MPD2    H2 7713   4.217   0.964  14.067 -0.0680  0.0375  0.0166
  519MPD2    H3 7714   4.418   0.868  13.978  1.6727 -1.1427 -2.5118
  519MPD2     N 7715   4.258   0.448  13.978 -0.9275  0.1389 -0.9305
  519MPD2    H5 7716   4.354   0.415  13.966  0.5228  2.7591  3.3849
  519MPD2    N1 7717   3.988   0.852  14.082  0.3097  0.2246 -0.3497
  519MPD2    H7 7718   3.987   0.953  14.096 -1.0076  0.1105  0.4095
  520TMC3    C1 7719   4.212   0.223  13.967  0.6477  0.4235 -0.0636
  520TMC3    C2 7720   4.126   0.128  13.907 -0.2399  0.0305  0.6158
  520TMC3    C3 7721   4.183   0.012  13.860  0.0295 -0.5665  0.1307
  520TMC3    C4 7722   4.345   0.195  13.976 -0.2057 -0.5058 -0.1650
  520TMC3    C5 7723   4.389   0.079  13.934 -0.1679  0.1113 -0.3081
  520TMC3    C6 7724   4.315   4.707  13.878  0.1401  0.0536 -0.6430
  520TMC3     C 7725   4.159   0.354  13.987  0.5487  0.2644 -0.0972
  520TMC3     O 7726   4.038   0.367  13.976 -0.2523  0.3769  0.2476
  520TMC3     H 7727   4.022   0.155  13.888 -0.6734 -1.5587  0.7172
  520TMC3    H1 7728   4.413   0.252  14.038  0.0586 -1.6403  0.5853
  520TMC3    H2 7729   4.368   4.619  13.842 -0.1617 -0.1280 -0.6378
  520TMC3    C7 7730   4.533   0.070  13.938 -0.0076 -0.5811 -0.5172
  520TMC3    C8 7731   4.150   4.713  13.721 -1.1589 -0.0805 -0.1915
  520TMC3    O1 7732   4.597   4.689  13.961  0.1537  0.3861  0.5601
  520TMC3    O2 7733   4.233   4.674  13.638 -0.4153  0.0978  0.0678
  521MPD2     C 7734   0.068   2.985  17.270  0.1115  0.6266  0.0723
  521MPD2    C1 7735   4.710   2.880  17.252 -0.1359 -0.3324 -0.2891
  521MPD2    C2 7736   0.041   2.753  17.258 -0.4237 -0.2213 -0.5318
  521MPD2    C3 7737   0.178   2.733  17.285 -0.6776  0.4311 -0.3302
  521MPD2    C4 7738   0.251   2.847  17.304  0.1545  0.4146 -0.2548
  521MPD2    C5 7739   0.196   2.971  17.295  0.5619 -0.2273  0.5889
  521MPD2     H 7740   4.698   2.668  17.252 -0.0472 -0.5377 -0.2761
  521MPD2    H1 7741   0.357   2.838  17.328  0.0034 -0.8426 -0.0278
  521MPD2    H2 7742   0.034   3.088  17.263 -1.4078  0.0281 -1.3333
  521MPD2    H3 7743   0.250   3.064  17.309  0.3942  0.0218 -0.4130
  521MPD2     N 7744   0.229   2.601  17.268  0.0031  0.1835 -0.0966
  521MPD2    H5 7745   0.165   2.528  17.236  1.1945 -0.5940 -0.7318
  521MPD2    N1 7746   4.568   2.898  17.239 -0.4132 -0.0724 -0.9049
  521MPD2    H7 7747   4.539   2.994  17.223 -1.3197 -0.3079 -0.6876
  522TMC3    C1 7748   0.411   2.456  17.208  0.1220 -0.4138 -0.1121
  522TMC3    C2 7749   0.547   2.442  17.209 -0.3091 -0.5122  0.1388
  522TMC3    C3 7750   0.607   2.396  17.097  0.3747 -0.1401  0.2262
  522TMC3    C4 7751   0.338   2.404  17.102  0.4294 -0.0277  0.0581
  522TMC3    C5 7752   0.405   2.353  16.996  0.3745  0.5054  0.0466
  522TMC3    C6 7753   0.545   2.347  16.989  0.3680  0.2494 -0.5158
  522TMC3     C 7754   0.365   2.571  17.289 -0.3385  0.7213 -0.3748
  522TMC3     O 7755   0.456   2.632  17.344  0.1089 -0.2723  0.3484
  522TMC3     H 7756   0.618   2.498  17.269  2.0642 -3.4169  0.0713
  522TMC3    H1 7757   0.229   2.408  17.110  0.3853  1.9814 -1.5988
  522TMC3    H2 7758   0.588   2.323  16.893 -0.3467 -3.3308  0.0724
  522TMC3    C7 7759   0.335   2.342  16.867  0.8782 -0.3198  0.1266
  522TMC3    C8 7760   0.749   2.419  17.088 -0.3404  0.6302  0.4709
  522TMC3    O1 7761   0.387   2.278  16.777 -0.1423 -0.0223  0.0201
  522TMC3    O2 7762   0.810   2.415  17.193  0.0400  0.0424 -0.2789
  523MPD2     C 7763   2.234   3.278  10.112  0.2099 -0.8094 -0.3493
  523MPD2    C1 7764   2.210   3.173  10.031  0.9143 -0.2676  0.0941
  523MPD2    C2 7765   2.112   3.194   9.930  0.0394  0.0544 -0.6222
  523MPD2    C3 7766   2.039   3.318   9.920 -0.3889 -0.4462  0.2638
  523MPD2    C4 7767   2.061   3.405  10.025  0.4328  0.5977 -0.0181
  523MPD2    C5 7768   2.157   3.389  10.122 -0.7862 -0.2313 -0.1469
  523MPD2     H 7769   2.091   3.124   9.850 -2.2201 -2.0578  1.8097
  523MPD2    H1 7770   2.002   3.495  10.042  1.1977  1.3692 -1.4231
  523MPD2    H2 7771   2.305   3.273  10.194 -0.3977  2.9245  0.4306
  523MPD2    H3 7772   2.178   3.457  10.204 -0.2258  2.2326 -2.3476
  523MPD2     N 7773   1.938   3.359   9.829  0.5431  0.6459 -0.4939
  523MPD2    H5 7774   1.900   3.452   9.838  2.0685  1.4562 -2.3979
  523MPD2    N1 7775   2.301   3.059  10.038 -0.4762  0.0640  0.1963
  523MPD2    H7 7776   2.361   3.053  10.120 -1.8176  1.1891  1.2649
  524TMC3    C1 7777   1.751   3.331   9.683 -0.7767  0.1272 -0.4264
  524TMC3    C2 7778   1.710   3.289   9.558  0.6644  0.0316 -0.3184
  524TMC3    C3 7779   1.609   3.360   9.494 -0.6407  0.1407 -0.1665
  524TMC3    C4 7780   1.685   3.430   9.747 -0.2685  0.4716 -0.6411
  524TMC3    C5 7781   1.583   3.489   9.690 -0.1538  0.5580 -0.2714
  524TMC3    C6 7782   1.546   3.468   9.559  0.7363  0.3653 -0.1291
  524TMC3     C 7783   1.880   3.278   9.734  0.5864  0.5526  0.5094
  524TMC3     O 7784   1.931   3.189   9.672  0.0177 -0.4551  0.0070
  524TMC3     H 7785   1.773   3.217   9.506  1.5024  0.2596  0.3946
  524TMC3    H1 7786   1.711   3.466   9.846 -0.5072  0.0902 -0.4404
  524TMC3    H2 7787   1.460   3.517   9.515  0.2051  0.2799  0.8329
  524TMC3    C7 7788   1.521   3.590   9.776 -0.2471  0.3511 -0.0593
  524TMC3    C8 7789   1.568   3.333   9.357  0.2114 -0.6839 -0.1727
  524TMC3    O1 7790   1.509   3.557   9.895  0.5599  0.1482  0.0605
  524TMC3    O2 7791   1.512   3.425   9.302  0.0784  0.6360 -0.9004
  525MPD2     C 7792   0.645   0.306  14.280 -0.5153  0.0856  0.3964
  525MPD2    C1 7793   0.774   0.336  14.315 -0.1394  0.3697  0.0657
  525MPD2    C2 7794   0.827   0.457  14.274  0.6323  0.3637 -0.2759
  525MPD2    C3 7795   0.749   0.556  14.208  0.6325 -1.0852  0.0021
  525MPD2    C4 7796   0.624   0.519  14.170 -0.1606 -1.2168  0.3402
  525MPD2    C5 7797   0.572   0.400  14.205  0.1774  0.2571 -0.6387
  525MPD2     H 7798   0.926   0.477  14.312  0.3498 -3.2602  2.3531
  525MPD2    H1 7799   0.561   0.584  14.110 -0.8353 -1.9380  0.2741
  525MPD2    H2 7800   0.591   0.214  14.297 -0.6386  0.9538  4.7448
  525MPD2    H3 7801   0.477   0.366  14.164 -0.2156  1.2534 -0.5674
  525MPD2     N 7802   0.791   0.689  14.177 -0.0730  0.4847  0.2664
  525MPD2    H5 7803   0.719   0.747  14.134  0.7395 -0.0830 -1.8268
  525MPD2    N1 7804   0.855   0.245  14.386 -0.3024  0.2058  0.1707
  525MPD2    H7 7805   0.948   0.281  14.404  0.2620 -0.2818 -1.7326
  526TMC3    C1 7806   0.906   0.079  14.538  0.1403 -0.1290 -0.4886
  526TMC3    C2 7807   0.863   4.711  14.627  0.7653 -0.1012 -0.2975
  526TMC3    C3 7808   0.955   4.620  14.669 -0.1968  0.5189 -0.2489
  526TMC3    C4 7809   1.038   0.076  14.481  0.2790  0.1238 -0.2025
  526TMC3    C5 7810   1.120   4.704  14.533 -0.4371 -0.5524  0.1180
  526TMC3    C6 7811   1.082   4.612  14.626 -0.1782 -0.7757 -0.1163
  526TMC3     C 7812   0.802   0.154  14.471  0.3612  0.9570  0.2664
  526TMC3     O 7813   0.687   0.108  14.469  0.0083  0.3018 -0.5469
  526TMC3     H 7814   0.767   4.722  14.676  1.1192  2.0938 -0.1139
  526TMC3    H1 7815   1.076   0.139  14.401 -1.2681  1.1634 -0.1387
  526TMC3    H2 7816   1.152   4.545  14.675  0.2872  0.4296  0.8508
  526TMC3    C7 7817   1.259   4.696  14.480  0.7157 -0.5648 -0.4940
  526TMC3    C8 7818   0.927   4.533  14.790  0.9793  0.2312 -0.0764
  526TMC3    O1 7819   1.303   0.072  14.418 -0.0670 -0.9069 -0.2490
  526TMC3    O2 7820   1.026   4.509  14.859  0.0544  0.4439  0.1393
  527MPD2     C 7821   3.170   2.468   0.967  0.0806 -0.0559 -0.7238
  527MPD2    C1 7822   3.207   2.448   1.097 -0.5429 -0.0315 -0.3158
  527MPD2    C2 7823   3.317   2.368   1.133  0.6179 -0.2280  0.0439
  527MPD2    C3 7824   3.388   2.306   1.035 -0.1898 -0.2642  0.4835
  527MPD2    C4 7825   3.354   2.328   0.903  0.1273 -0.0188  1.0063
  527MPD2    C5 7826   3.250   2.413   0.869 -0.0867  0.4496  0.2060
  527MPD2     H 7827   3.338   2.346   1.238 -0.5696  1.7189  0.6897
  527MPD2    H1 7828   3.404   2.288   0.815 -0.4027 -0.8624  1.0907
  527MPD2    H2 7829   3.088   2.529   0.930  0.6145  1.4364  0.5490
  527MPD2    H3 7830   3.234   2.428   0.763 -1.5109 -0.2289  0.3183
  527MPD2     N 7831   3.487   2.207   1.060 -0.1594  0.5363 -0.1342
  527MPD2    H5 7832   3.518   2.160   0.976 -0.1427  2.0270 -0.9504
  527MPD2    N1 7833   3.125   2.486   1.204 -0.0188  0.0248  0.4638
  527MPD2    H7 7834   3.161   2.467   1.297  0.0227  0.3418  0.5138
  528TMC3    C1 7835   2.961   2.588   1.333 -0.2908 -0.2005 -0.2421
  528TMC3    C2 7836   3.043   2.605   1.438  0.0183  0.0904 -0.0051
  528TMC3    C3 7837   2.988   2.603   1.563  0.0675  0.2292 -0.4056
  528TMC3    C4 7838   2.824   2.602   1.344 -0.4730 -0.7016 -0.3828
  528TMC3    C5 7839   2.770   2.611   1.469 -0.3065  0.0768  0.0032
  528TMC3    C6 7840   2.852   2.614   1.583  0.1892  0.7421  0.2002
  528TMC3     C 7841   3.009   2.559   1.200 -0.6528 -0.0495 -0.1509
  528TMC3     O 7842   2.933   2.583   1.107  0.2681  0.0706  0.4020
  528TMC3     H 7843   3.149   2.590   1.429 -0.6321 -2.8284 -2.8073
  528TMC3    H1 7844   2.767   2.562   1.261  0.4214 -2.2304 -0.2646
  528TMC3    H2 7845   2.818   2.635   1.684  0.0468  1.4572  0.0025
  528TMC3    C7 7846   2.632   2.590   1.500  0.7875 -0.2088 -0.4611
  528TMC3    C8 7847   3.083   2.595   1.671 -0.0365 -0.5324 -0.2661
  528TMC3    O1 7848   2.601   2.609   1.616  0.1453  0.0152 -0.4349
  528TMC3    O2 7849   3.201   2.613   1.642 -0.3281 -0.3706 -0.2937
  529MPD2     C 7850   1.908   0.603   0.542  0.1793  0.8001  0.2114
  529MPD2    C1 7851   1.774   0.566   0.566  0.1748 -0.0117 -0.3862
  529MPD2    C2 7852   1.675   0.624   0.490  0.1240  0.1809  0.2684
  529MPD2    C3 7853   1.712   0.722   0.391 -0.0613 -0.8054  0.0107
  529MPD2    C4 7854   1.843   0.753   0.364 -0.3624  0.2548  0.5129
  529MPD2    C5 7855   1.940   0.691   0.440  0.1353 -0.2576  0.3537
  529MPD2     H 7856   1.571   0.602   0.512  0.6890  0.0178  2.8258
  529MPD2    H1 7857   1.876   0.821   0.286 -0.5699 -1.1759 -0.8229
  529MPD2    H2 7858   1.992   0.569   0.601 -0.5946 -0.8636  0.3442
  529MPD2    H3 7859   2.046   0.708   0.427 -0.5413  3.1483 -0.6965
  529MPD2     N 7860   1.611   0.782   0.314  0.3617  0.8299  1.0660
  529MPD2    H5 7861   1.647   0.827   0.230  0.3528 -1.2678 -0.0666
  529MPD2    N1 7862   1.736   0.475   0.669  0.3578 -0.2554  0.2075
  529MPD2    H7 7863   1.636   0.454   0.674  0.4053 -0.5806 -0.1989
  530TMC3    C1 7864   1.750   0.334   0.858  0.7702  0.0672  0.4296
  530TMC3    C2 7865   1.836   0.300   0.964 -0.0926 -0.2397 -0.2851
  530TMC3    C3 7866   1.774   0.250   1.073 -0.6532  0.3376 -0.3197
  530TMC3    C4 7867   1.613   0.317   0.852 -0.3449  0.1604  0.1567
  530TMC3    C5 7868   1.559   0.259   0.969  0.0355 -0.0056 -0.3546
  530TMC3    C6 7869   1.640   0.223   1.075  0.3864  0.7608 -0.3511
  530TMC3     C 7870   1.825   0.409   0.753  0.0288 -1.0550 -0.4346
  530TMC3     O 7871   1.944   0.423   0.767 -0.2625  0.4307 -0.3148
  530TMC3     H 7872   1.944   0.313   0.960 -0.1222 -0.2816 -1.1452
  530TMC3    H1 7873   1.554   0.354   0.769 -1.0006 -1.6280 -0.1739
  530TMC3    H2 7874   1.588   0.190   1.164  1.6867  0.3947  0.2636
  530TMC3    C7 7875   1.427   0.202   0.957  0.8364  0.2775  0.1862
  530TMC3    C8 7876   1.867   0.224   1.180 -0.3338 -0.2648 -0.2336
  530TMC3    O1 7877   1.375   0.205   0.845 -0.2967 -0.2963 -0.1534
  530TMC3    O2 7878   1.980   0.196   1.146 -0.7756  0.2021  0.6203
  531MPD2     C 7879   0.490   3.517  13.068  0.0439  0.0840  0.4106
  531MPD2    C1 7880   0.380   3.601  13.104  0.1620  0.7021 -0.0487
  531MPD2    C2 7881   0.252   3.558  13.080 -0.1519  0.2815 -0.1332
  531MPD2    C3 7882   0.234   3.451  13.000  0.2741  0.4987  0.9784
  531MPD2    C4 7883   0.345   3.378  12.949  0.0963 -0.1603  1.0134
  531MPD2    C5 7884   0.472   3.407  12.990  0.2281  1.1265 -1.3443
  531MPD2     H 7885   0.170   3.618  13.116 -1.2431 -0.3597 -1.5401
  531MPD2    H1 7886   0.334   3.290  12.887  2.0221 -0.1802  0.6914
  531MPD2    H2 7887   0.592   3.538  13.097  0.5629  0.9973 -2.0894
  531MPD2    H3 7888   0.554   3.349  12.950 -1.1501 -1.7449 -0.0191
  531MPD2     N 7889   0.100   3.420  12.977  0.2787 -0.3717  0.2450
  531MPD2    H5 7890   0.032   3.485  13.015  0.7787  0.7762 -0.8219
  531MPD2    N1 7891   0.401   3.725  13.177 -0.6835 -0.5909 -0.1533
  531MPD2    H7 7892   0.492   3.743  13.217 -0.8887 -0.4701  0.2611
  532TMC3    C1 7893   0.326   3.924  13.288 -0.8752 -0.2846 -0.4491
  532TMC3    C2 7894   0.209   3.991  13.321  1.4030  0.0836 -0.5830
  532TMC3    C3 7895   0.193   4.030  13.453 -0.0405  0.4446 -0.6880
  532TMC3    C4 7896   0.427   3.898  13.382 -0.1673 -0.4912 -0.0732
  532TMC3    C5 7897   0.411   3.946  13.508 -0.3908 -0.3241  0.0835
  532TMC3    C6 7898   0.290   4.012  13.541 -0.4651  0.1182  0.2300
  532TMC3     C 7899   0.297   3.819  13.189 -1.0722  0.0912 -1.1387
  532TMC3     O 7900   0.184   3.826  13.147 -0.1725  0.3820  0.2099
  532TMC3     H 7901   0.128   4.017  13.253  1.6332  0.2539 -0.7929
  532TMC3    H1 7902   0.519   3.848  13.354  0.5728  0.0695  1.3789
  532TMC3    H2 7903   0.261   4.017  13.645 -2.0803  0.3816 -0.2366
  532TMC3    C7 7904   0.469   3.865  13.609  0.0075  0.4531  0.3497
  532TMC3    C8 7905   0.066   3.996  13.510  0.2412  0.6072 -0.1094
  532TMC3    O1 7906   0.462   3.903  13.723  0.1955  0.6485 -0.4287
  532TMC3    O2 7907   0.024   4.037  13.618  0.9818  0.0060 -0.0799
  533TMC3    C1 7908   0.887   0.891  14.244  0.3480 -0.0077 -0.3577
  533TMC3    C2 7909   1.006   0.951  14.254 -0.3101 -0.2949  0.2624
  533TMC3    C3 7910   1.021   1.060  14.337 -0.2405 -0.3885  0.2558
  533TMC3    C4 7911   0.794   0.917  14.334  0.0365  0.1061 -0.5128
  533TMC3    C5 7912   0.815   1.011  14.432  0.0506 -0.1785 -0.0288
  533TMC3    C6 7913   0.925   1.091  14.432 -0.1064 -0.0277  0.1600
  533TMC3     C 7914   0.906   0.745  14.228 -0.0261  0.4856  0.1684
  533TMC3     O 7915   1.005   0.702  14.290 -0.3242  0.0852  0.3883
  533TMC3     H 7916   1.097   0.923  14.203  0.4569  2.0702  0.3512
  533TMC3    H1 7917   0.694   0.876  14.331  0.0725  0.0695 -1.3747
  533TMC3    H2 7918   0.933   1.179  14.495 -2.7199  0.3984 -0.1329
  533TMC3    C7 7919   0.768   0.966  14.556 -0.7799 -0.0942  0.0002
  533TMC3    C8 7920   1.155   1.118  14.361 -0.0418 -0.2956  0.6899
  533TMC3    O1 7921   0.703   0.865  14.556  0.2543  0.5646  0.2283
  533TMC3    O2 7922   1.256   1.055  14.324  0.3734  0.6164 -0.1494
  534MPD2     C 7923   3.229   1.658   2.161 -0.4924 -0.5823 -0.3634
  534MPD2    C1 7924   3.199   1.723   2.043  0.0692 -0.2565 -0.5147
  534MPD2    C2 7925   3.150   1.650   1.934  0.7105  0.2966 -0.2428
  534MPD2    C3 7926   3.130   1.511   1.942  0.3046  0.1350  0.0175
  534MPD2    C4 7927   3.162   1.452   2.058 -0.9016  1.2357 -0.0994
  534MPD2    C5 7928   3.212   1.526   2.161 -0.6620 -0.1533  0.0275
  534MPD2     H 7929   3.138   1.694   1.835  0.1180  1.3668  0.3053
  534MPD2    H1 7930   3.157   1.344   2.063  3.8822  1.0809  0.7120
  534MPD2    H2 7931   3.263   1.713   2.247 -1.6055 -0.9873  0.3420
  534MPD2    H3 7932   3.248   1.468   2.245 -0.7907 -0.7338 -0.3131
  534MPD2     N 7933   3.066   1.435   1.836  0.2046  0.0326  0.4824
  534MPD2    H5 7934   3.047   1.339   1.866  0.8041 -0.0281  0.6662
  534MPD2    N1 7935   3.208   1.866   2.027 -0.2508  0.4475  0.3581
  534MPD2    H7 7936   3.181   1.909   1.939  1.1953  0.2753 -0.1593
  535TMC3    C1 7937   2.992   1.378   1.628 -0.1809  1.1470  0.7671
  535TMC3    C2 7938   2.933   1.272   1.691  0.3228 -0.9196 -0.2558
  535TMC3    C3 7939   2.915   1.163   1.611 -0.7003  0.1376  0.0863
  535TMC3    C4 7940   3.014   1.390   1.489 -0.3352  0.6435 -0.0719
  535TMC3    C5 7941   3.000   1.273   1.419  0.1853  0.2854  0.5599
  535TMC3    C6 7942   2.936   1.158   1.474 -0.0316 -0.2202  0.0138
  535TMC3     C 7943   3.042   1.485   1.708 -0.3536  0.1450 -0.0790
  535TMC3     O 7944   3.070   1.591   1.654 -0.0507  0.2372  0.1865
  535TMC3     H 7945   2.909   1.255   1.795 -0.3532  1.5086 -0.0287
  535TMC3    H1 7946   3.060   1.477   1.444 -0.7252  0.7269 -0.3205
  535TMC3    H2 7947   2.916   1.062   1.427 -2.0448  0.7352 -1.0921
  535TMC3    C7 7948   3.024   1.269   1.277  0.4423  0.2431 -0.4133
  535TMC3    C8 7949   2.867   1.043   1.658 -0.6504  0.1096  0.0848
  535TMC3    O1 7950   3.030   1.161   1.220  0.3202  0.1310 -0.4142
  535TMC3    O2 7951   2.777   0.990   1.599  0.4994 -0.3022 -0.5292
  536MPD2     C 7952   1.641   4.212  15.862 -0.0571  0.2003  0.7477
  536MPD2    C1 7953   1.737   4.268  15.941  0.5182 -0.0137 -0.0362
  536MPD2    C2 7954   1.843   4.326  15.873  0.1807 -0.1342  0.1199
  536MPD2    C3 7955   1.847   4.351  15.737 -0.1482 -0.1018 -0.4444
  536MPD2    C4 7956   1.737   4.315  15.662 -0.7047  0.0521 -0.4178
  536MPD2    C5 7957   1.636   4.255  15.732 -0.0380  0.6042 -0.0701
  536MPD2     H 7958   1.917   4.377  15.934  2.7010 -1.9357 -1.4476
  536MPD2    H1 7959   1.724   4.338  15.557  1.8846  0.6726 -0.5989
  536MPD2    H2 7960   1.555   4.166  15.910 -1.0140  1.1948 -0.0171
  536MPD2    H3 7961   1.549   4.241  15.668 -0.0694  0.4662  0.0028
  536MPD2     N 7962   1.942   4.436  15.678  0.4670  0.6843 -0.4884
  536MPD2    H5 7963   1.919   4.484  15.592 -1.4677 -1.8289 -1.3880
  536MPD2    N1 7964   1.738   4.252  16.086 -0.4809  0.3469 -0.3467
  536MPD2    H7 7965   1.659   4.196  16.117 -0.1202  0.0578  0.0580
  537TMC3    C1 7966   1.812   4.281  16.309  0.1196 -0.3134  0.3284
  537TMC3    C2 7967   1.912   4.335  16.383 -0.5167  0.1015  0.3536
  537TMC3    C3 7968   1.943   4.277  16.508  0.0861  0.0932  0.6519
  537TMC3    C4 7969   1.748   4.164  16.334  0.1607 -0.1738  0.4170
  537TMC3    C5 7970   1.784   4.112  16.457  0.1385  0.0838 -0.1856
  537TMC3    C6 7971   1.877   4.164  16.545  0.9001  0.3928  0.0423
  537TMC3     C 7972   1.818   4.327  16.170 -0.6397  0.2038 -0.1691
  537TMC3     O 7973   1.860   4.440  16.147 -0.2075 -0.1739 -0.2735
  537TMC3     H 7974   1.952   4.434  16.365  1.7620 -0.7523  0.7199
  537TMC3    H1 7975   1.685   4.111  16.263 -1.0471  1.2112  0.4457
  537TMC3    H2 7976   1.899   4.112  16.637 -0.3086  0.0949  0.1633
  537TMC3    C7 7977   1.706   3.997  16.490  0.2648 -0.7565  0.1540
  537TMC3    C8 7978   2.054   4.323  16.592 -0.4077  0.0373  0.6232
  537TMC3    O1 7979   1.608   3.973  16.426  0.6888 -0.5283  0.6232
  537TMC3    O2 7980   2.079   4.269  16.701 -0.2384  0.1753  0.5200
  538TMC3    C1 7981   3.149   3.065  10.655 -0.3607  0.1169 -0.1387
  538TMC3    C2 7982   3.237   3.047  10.547  0.1370  0.4871 -0.0730
  538TMC3    C3 7983   3.224   3.133  10.436  0.1751 -0.0739 -0.0274
  538TMC3    C4 7984   3.059   3.173  10.654  0.1005 -0.0152  0.6311
  538TMC3    C5 7985   3.045   3.251  10.545 -0.9648  0.5292  0.1695
  538TMC3    C6 7986   3.135   3.241  10.433 -0.2074 -0.1580 -0.4887
  538TMC3     C 7987   3.172   2.999  10.782  0.6246  0.4793  0.2862
  538TMC3     O 7988   3.082   2.997  10.868 -0.0631 -0.2543 -0.0488
  538TMC3     H 7989   3.302   2.960  10.540  1.2211  1.2991 -0.1556
  538TMC3    H1 7990   2.988   3.182  10.735 -1.2635 -0.5291 -0.5032
  538TMC3    H2 7991   3.127   3.308  10.349 -0.5212 -0.0407 -0.3646
  538TMC3    C7 7992   2.952   3.362  10.551  1.0627  0.0692  0.0894
  538TMC3    C8 7993   3.341   3.133  10.352 -0.4902  0.4411  0.8788
  538TMC3    O1 7994   2.918   3.401  10.663 -0.6571  0.3266 -0.2364
  538TMC3    O2 7995   3.387   3.025  10.324 -0.3516  0.2681 -0.1426
  539MPD2     C 7996   2.740   2.388  11.630  0.3271 -0.4805  0.3953
  539MPD2    C1 7997   2.810   2.406  11.511 -0.0115 -0.7194 -0.4075
  539MPD2    C2 7998   2.816   2.532  11.465  0.5792  0.4197  0.0873
  539MPD2    C3 7999   2.742   2.634  11.523  0.1305  0.7561 -0.1861
  539MPD2    C4 8000   2.670   2.612  11.637 -0.1125  0.4069 -0.9926
  539MPD2    C5 8001   2.669   2.485  11.695  0.2819  0.4740 -0.3977
  539MPD2     H 8002   2.863   2.541  11.368 -1.4509  0.5545 -0.8623
  539MPD2    H1 8003   2.623   2.691  11.695 -0.3971 -1.9861  2.0260
  539MPD2    H2 8004   2.747   2.299  11.692 -0.4202  0.0336  1.2092
  539MPD2    H3 8005   2.621   2.464  11.789  0.7298 -2.8897 -0.9267
  539MPD2     N 8006   2.718   2.755  11.461  0.2608  0.5292 -0.3388
  539MPD2    H5 8007   2.639   2.813  11.491 -0.6171 -1.6022  1.4619
  539MPD2    N1 8008   2.879   2.303  11.438  0.3260  0.1220 -0.6982
  539MPD2    H7 8009   2.915   2.331  11.347  0.2793 -0.6776 -0.9607
  540TMC3    C1 8010   2.734   2.934  11.312  0.0856 -0.1566  0.1516
  540TMC3    C2 8011   2.701   2.953  11.175 -1.0455 -0.6522  0.0853
  540TMC3    C3 8012   2.637   3.072  11.151  0.1419 -0.0318  0.7462
  540TMC3    C4 8013   2.706   3.022  11.420  0.6456  0.0459 -0.3889
  540TMC3    C5 8014   2.636   3.135  11.381  0.0038  0.5289 -0.0815
  540TMC3    C6 8015   2.610   3.168  11.251  0.5516  0.5100 -0.6494
  540TMC3     C 8016   2.785   2.803  11.351 -0.7514 -0.0146 -0.8501
  540TMC3     O 8017   2.857   2.739  11.270  0.8331  0.3362  0.4154
  540TMC3     H 8018   2.724   2.882  11.096  0.6058 -0.3773  0.3207
  540TMC3    H1 8019   2.729   3.000  11.523  0.1804  1.4532  0.0160
  540TMC3    H2 8020   2.567   3.262  11.220 -0.9601  0.3581  1.0150
  540TMC3    C7 8021   2.577   3.208  11.490 -0.6029  0.7131 -0.0135
  540TMC3    C8 8022   2.644   3.112  11.011 -0.1963  0.1659 -0.1788
  540TMC3    O1 8023   2.636   3.192  11.597 -0.1126  0.0241 -0.5989
  540TMC3    O2 8024   2.707   3.211  10.977 -0.2837 -0.2762  0.5163
  541MPD2     C 8025   1.268   3.896  13.488 -0.2867 -0.0026 -0.0893
  541MPD2    C1 8026   1.229   3.798  13.396  0.7539  0.0811  0.0368
  541MPD2    C2 8027   1.219   3.830  13.261  0.4038 -0.5384 -0.1069
  541MPD2    C3 8028   1.238   3.964  13.217  0.5390  0.5380  0.9312
  541MPD2    C4 8029   1.258   4.063  13.309  0.2140 -0.5370  0.3844
  541MPD2    C5 8030   1.282   4.022  13.439 -0.4969 -0.2452  0.4985
  541MPD2     H 8031   1.179   3.756  13.192 -0.3389 -0.8147  0.6199
  541MPD2    H1 8032   1.279   4.166  13.280 -0.8495 -0.2898  0.4724
  541MPD2    H2 8033   1.280   3.878  13.595  0.3346  1.8481  0.1504
  541MPD2    H3 8034   1.303   4.092  13.518 -1.7434  0.0909  0.5410
  541MPD2     N 8035   1.225   4.009  13.084 -0.5839 -0.3049 -0.3224
  541MPD2    H5 8036   1.244   4.107  13.069 -0.1555 -0.6762 -2.2442
  541MPD2    N1 8037   1.184   3.670  13.435 -0.7781  0.8475  0.0428
  541MPD2    H7 8038   1.141   3.610  13.365 -0.6463  1.7839 -0.8335
  542TMC3    C1 8039   1.227   4.014  12.851 -0.5725  0.0881 -0.0573
  542TMC3    C2 8040   1.290   3.964  12.741 -0.2877 -0.3568  0.3431
  542TMC3    C3 8041   1.286   4.043  12.630 -0.1669 -0.3588  0.2042
  542TMC3    C4 8042   1.158   4.134  12.846  0.1880 -0.3148 -0.4796
  542TMC3    C5 8043   1.143   4.203  12.725  0.7698  0.0616 -0.5482
  542TMC3    C6 8044   1.209   4.156  12.615 -0.4107 -0.0492  0.3923
  542TMC3     C 8045   1.219   3.929  12.968 -0.4792 -1.2823  0.4391
  542TMC3     O 8046   1.256   3.813  12.963 -0.1351  0.0324 -0.4360
  542TMC3     H 8047   1.339   3.868  12.747  3.4037  1.3510 -1.9270
  542TMC3    H1 8048   1.089   4.160  12.925 -0.8416 -1.8512 -0.8907
  542TMC3    H2 8049   1.217   4.206  12.519 -1.1589 -1.1188 -0.2369
  542TMC3    C7 8050   1.090   4.341  12.727  0.9400  0.1347  0.6730
  542TMC3    C8 8051   1.356   4.000  12.508  0.5493 -0.0020 -0.0287
  542TMC3    O1 8052   1.072   4.391  12.838  0.2364  0.2791  0.1450
  542TMC3    O2 8053   1.313   4.040  12.404  0.0034 -0.4411 -0.2025
  543TMC3    C1 8054   0.722   4.532  16.792 -0.0749  0.5751 -0.0778
  543TMC3    C2 8055   0.742   4.403  16.834  0.4659 -0.2510 -0.2473
  543TMC3    C3 8056   0.742   4.367  16.964  0.7740 -0.3473 -0.3260
  543TMC3    C4 8057   0.689   4.624  16.886 -0.1708  0.0262 -0.7275
  543TMC3    C5 8058   0.698   4.584  17.017  0.5433 -0.7893 -0.8758
  543TMC3    C6 8059   0.726   4.454  17.062 -0.2213 -0.1533 -0.3263
  543TMC3     C 8060   0.801   4.580  16.680  0.4504  0.1032  0.1435
  543TMC3     O 8061   0.876   4.495  16.640  0.1243  0.5362 -0.4668
  543TMC3     H 8062   0.761   4.332  16.754 -0.1221 -1.1787  0.4274
  543TMC3    H1 8063   0.670   0.003  16.858 -0.1330  0.7150  1.7657
  543TMC3    H2 8064   0.714   4.414  17.162  1.0882  0.0849 -0.0756
  543TMC3    C7 8065   0.644   4.689  17.111  0.3959  0.2462  0.0160
  543TMC3    C8 8066   0.736   4.220  16.986  0.2858 -0.1173 -0.9288
  543TMC3    O1 8067   0.534   0.013  17.100  0.5970  0.2370 -0.4074
  543TMC3    O2 8068   0.722   4.152  16.887 -0.4598 -0.7785 -0.4802
  544MPD2     C 8069   0.906   3.805  17.254  0.7808 -0.9383 -0.0538
  544MPD2    C1 8070   0.859   3.821  17.117 -0.0126 -0.8284  0.0691
  544MPD2    C2 8071   0.827   3.946  17.073 -0.2186  0.3129  0.1017
  544MPD2    C3 8072   0.822   4.054  17.156  0.1023  0.2810  0.7822
  544MPD2    C4 8073   0.878   4.038  17.284  0.4165 -0.2616  0.8787
  544MPD2    C5 8074   0.904   3.915  17.337  0.1318 -0.5911  0.5173
  544MPD2     H 8075   0.788   3.952  16.972 -0.7654  1.8016  0.4134
  544MPD2    H1 8076   0.887   4.126  17.347 -0.6341  0.4791  0.0063
  544MPD2    H2 8077   0.942   3.709  17.290  0.9856 -1.0853 -0.6322
  544MPD2    H3 8078   0.949   3.917  17.436 -0.3193 -2.6559  0.7505
  544MPD2     N 8079   0.785   4.186  17.111 -0.2595 -0.1617 -0.3635
  544MPD2    H5 8080   0.819   4.264  17.167  1.7444 -0.0088 -1.7982
  544MPD2    N1 8081   0.851   3.705  17.040 -0.1404 -0.9844 -0.6643
  544MPD2    H7 8082   0.856   3.618  17.093  1.6241  0.1348  1.0192
  545TMC3    C1 8083   0.847   3.562  16.843  0.7150  0.3547 -0.4176
  545TMC3    C2 8084   0.814   3.544  16.709 -0.9808 -0.3257  0.4786
  545TMC3    C3 8085   0.799   3.421  16.658 -0.8012  0.5299 -0.3735
  545TMC3    C4 8086   0.876   3.450  16.919  0.2737 -0.3374 -0.3830
  545TMC3    C5 8087   0.857   3.329  16.865 -0.0308  0.5599 -0.3485
  545TMC3    C6 8088   0.811   3.315  16.736  0.6617  0.3458 -0.1149
  545TMC3     C 8089   0.843   3.697  16.902  0.1791 -0.2071  0.1916
  545TMC3     O 8090   0.826   3.788  16.822  0.3199  0.1678  0.0032
  545TMC3     H 8091   0.800   3.624  16.637  0.0109  0.3530  1.0409
  545TMC3    H1 8092   0.914   3.453  17.020  2.1496  0.3289 -1.1040
  545TMC3    H2 8093   0.785   3.215  16.705 -0.2257  0.2991  0.7756
  545TMC3    C7 8094   0.878   3.205  16.951  0.3162 -0.0235  0.6526
  545TMC3    C8 8095   0.716   3.405  16.545 -1.1560  0.1511 -0.0751
  545TMC3    O1 8096   0.807   3.110  16.937 -0.0614 -0.4413 -0.1233
  545TMC3    O2 8097   0.626   3.327  16.544  0.0712 -0.5916  0.1191
  546MPD2     C 8098   2.331   4.702  17.437 -0.2063 -0.1841  0.1262
  546MPD2    C1 8099   2.296   4.696  17.303  0.5874 -0.2382 -0.1733
  546MPD2    C2 8100   2.343   0.071  17.216 -0.1137  0.3436  0.2867
  546MPD2    C3 8101   2.426   0.174  17.265 -0.1619  0.5965 -0.2314
  546MPD2    C4 8102   2.441   0.191  17.402 -0.1861 -0.6776 -0.6681
  546MPD2    C5 8103   2.401   0.085  17.488 -0.1810 -0.3415 -0.4032
  546MPD2     H 8104   2.331   0.058  17.109  3.4086 -0.9890  0.0552
  546MPD2    H1 8105   2.495   0.273  17.447  1.7923 -0.9757 -2.4878
  546MPD2    H2 8106   2.292   4.630  17.508  0.3782 -0.8294 -0.1933
  546MPD2    H3 8107   2.434   0.080  17.591  0.0147  0.8778 -0.4107
  546MPD2     N 8108   2.500   0.262  17.179 -0.1940 -0.1588  0.3501
  546MPD2    H5 8109   2.554   0.325  17.237  0.8390 -0.6625 -0.0667
  546MPD2    N1 8110   2.212   4.589  17.268  0.0200 -0.2885  0.0337
  546MPD2    H7 8111   2.198   4.511  17.332 -0.2617 -2.0217 -2.1718
  547TMC3    C1 8112   2.020   4.502  17.143  0.6608  0.2645  0.1910
  547TMC3    C2 8113   1.969   4.480  17.020 -0.1979  0.2689  0.4323
  547TMC3    C3 8114   1.873   4.381  16.999 -0.2013 -1.3854  0.0305
  547TMC3    C4 8115   1.976   4.424  17.250  0.2629  0.0900  0.1179
  547TMC3    C5 8116   1.877   4.340  17.229 -0.2388 -0.8304  0.0711
  547TMC3    C6 8117   1.825   4.312  17.112 -0.5941  0.8278  0.3780
  547TMC3     C 8118   2.136   4.594  17.148 -0.7016 -1.2796 -0.0334
  547TMC3     O 8119   2.144   4.681  17.063 -0.5730  0.3845  0.0190
  547TMC3     H 8120   2.015   4.536  16.939 -0.5106 -1.1979 -0.7630
  547TMC3    H1 8121   2.015   4.428  17.351 -0.8674  1.7813  0.4798
  547TMC3    H2 8122   1.756   4.229  17.107  2.6021 -1.6795 -2.0728
  547TMC3    C7 8123   1.833   4.241  17.329  0.4397 -0.3577 -0.8243
  547TMC3    C8 8124   1.796   4.384  16.872  1.4509 -0.1162  0.1113
  547TMC3    O1 8125   1.722   4.202  17.329  0.3104  0.0869 -0.4511
  547TMC3    O2 8126   1.826   4.472  16.791 -0.8446 -0.9296 -0.4892
  548MPD2     C 8127   1.950   1.291  12.239  0.0589  0.1684  0.3437
  548MPD2    C1 8128   1.902   1.161  12.256  0.3916 -0.7314 -0.1224
  548MPD2    C2 8129   1.962   1.057  12.175  0.5736  0.4453 -0.2972
  548MPD2    C3 8130   2.057   1.087  12.084  0.0972 -0.1269 -0.3543
  548MPD2    C4 8131   2.096   1.218  12.066  0.0617 -0.0884 -0.6860
  548MPD2    C5 8132   2.048   1.316  12.150 -0.1108 -1.1992  0.1134
  548MPD2     H 8133   1.927   0.958  12.200  1.8136 -0.1936 -1.1566
  548MPD2    H1 8134   2.177   1.244  12.000 -1.2499 -0.0383 -2.2831
  548MPD2    H2 8135   1.904   1.371  12.296 -2.7956 -1.2070  0.0025
  548MPD2    H3 8136   2.087   1.413  12.122 -0.2668 -1.2890 -0.4147
  548MPD2     N 8137   2.132   0.985  12.018 -0.1352  0.1790 -0.2319
  548MPD2    H5 8138   2.209   1.016  11.961  2.4421 -0.8849  2.6622
  548MPD2    N1 8139   1.814   1.145  12.360  0.4551  0.3672  0.1656
  548MPD2    H7 8140   1.760   1.229  12.376 -1.0805 -0.6256  0.1523
  549TMC3    C1 8141   1.666   1.050  12.501  0.2953  0.2012  0.2146
  549TMC3    C2 8142   1.631   1.179  12.536  0.0497  0.2856 -0.2055
  549TMC3    C3 8143   1.514   1.203  12.591 -0.4003 -0.3197 -0.1944
  549TMC3    C4 8144   1.573   0.952  12.494  1.3784 -0.6132  0.1508
  549TMC3    C5 8145   1.447   0.978  12.547  0.3429 -0.6140 -0.0102
  549TMC3    C6 8146   1.414   1.104  12.589  0.4221 -0.3191 -0.1524
  549TMC3     C 8147   1.775   1.028  12.412 -0.0123  0.7938 -0.3703
  549TMC3     O 8148   1.804   0.913  12.375 -0.0507 -0.2226  0.5304
  549TMC3     H 8149   1.697   1.264  12.540  1.3554 -0.6702 -1.1677
  549TMC3    H1 8150   1.607   0.857  12.457 -1.5854 -0.9160 -1.8002
  549TMC3    H2 8151   1.312   1.127  12.620  0.7548 -0.9386  1.4151
  549TMC3    C7 8152   1.338   0.884  12.518 -0.3753 -0.8755  0.5773
  549TMC3    C8 8153   1.474   1.337  12.608  0.2411  0.3203 -0.2745
  549TMC3    O1 8154   1.222   0.927  12.504 -0.4311 -0.2684 -0.1346
  549TMC3    O2 8155   1.556   1.416  12.652 -0.2578  0.0456 -0.6660
  550TMC3    C1 8156   0.869   3.588  12.205 -0.1565  0.2992  0.4710
  550TMC3    C2 8157   0.832   3.655  12.317  0.0513 -0.1504  0.6425
  550TMC3    C3 8158   0.714   3.618  12.381  0.0967  0.6018  0.5085
  550TMC3    C4 8159   0.792   3.485  12.155  0.3658 -0.2063 -0.3613
  550TMC3    C5 8160   0.676   3.450  12.224  0.4792  0.7067  0.8270
  550TMC3    C6 8161   0.638   3.513  12.338  0.8499 -0.0229 -0.1270
  550TMC3     C 8162   0.978   3.637  12.126  0.1763  0.0999  0.7522
  550TMC3     O 8163   1.017   3.749  12.150  0.1344 -0.2230  0.5886
  550TMC3     H 8164   0.879   3.742  12.363  0.4094 -0.2303  0.4296
  550TMC3    H1 8165   0.803   3.447  12.054  2.6067 -1.8158  0.4800
  550TMC3    H2 8166   0.547   3.479  12.386 -1.0231  1.2423 -2.7927
  550TMC3    C7 8167   0.591   3.344  12.170 -0.3723  0.2335 -0.0600
  550TMC3    C8 8168   0.644   3.709  12.471 -0.1274 -0.5482  0.8228
  550TMC3    O1 8169   0.477   3.336  12.218  0.1202 -0.5891  0.7787
  550TMC3    O2 8170   0.671   3.824  12.459 -0.4528  0.1728  0.2612
  551TMC3    C1 8171   2.812   1.536  13.186 -0.2254  0.0483  0.2913
  551TMC3    C2 8172   2.909   1.604  13.111  0.3106  0.1671 -0.4589
  551TMC3    C3 8173   2.983   1.702  13.176  0.3099 -0.1804  0.1892
  551TMC3    C4 8174   2.799   1.565  13.323  0.2508  0.0977  0.4056
  551TMC3    C5 8175   2.884   1.652  13.384  0.0944  0.5096 -0.3764
  551TMC3    C6 8176   2.977   1.726  13.311 -0.0428 -0.2584 -0.2228
  551TMC3     C 8177   2.716   1.466  13.117 -0.4123 -0.1582 -0.3455
  551TMC3     O 8178   2.726   1.462  12.995  0.7345 -0.1768  0.0853
  551TMC3     H 8179   2.933   1.578  13.008  3.4294 -0.1849  0.3441
  551TMC3    H1 8180   2.714   1.526  13.378 -1.1307 -0.6625 -2.2626
  551TMC3    H2 8181   3.050   1.789  13.360 -1.2750  1.1671 -0.1915
  551TMC3    C7 8182   2.921   1.642  13.526 -0.0373  0.4465 -0.2310
  551TMC3    C8 8183   3.097   1.746  13.099 -0.2186 -1.2643  0.0233
  551TMC3    O1 8184   3.018   1.701  13.573 -0.5089  0.4080 -0.2790
  551TMC3    O2 8185   3.150   1.669  13.023  0.1371 -0.0390  0.3660
  552MPD2     C 8186   0.484   3.740  14.068 -0.1750 -0.4564 -0.0498
  552MPD2    C1 8187   0.400   3.690  14.165  0.0782 -0.1095  0.3093
  552MPD2    C2 8188   0.450   3.625  14.280 -0.1293  0.0523  0.4617
  552MPD2    C3 8189   0.587   3.613  14.306 -0.1115 -0.3182  0.1286
  552MPD2    C4 8190   0.672   3.655  14.202  0.1239  0.0614 -0.5860
  552MPD2    C5 8191   0.619   3.717  14.093 -0.1327 -0.7667 -0.5287
  552MPD2     H 8192   0.376   3.592  14.352 -0.4012  2.1940  1.1601
  552MPD2    H1 8193   0.780   3.639  14.205  0.3200  1.2385 -1.1655
  552MPD2    H2 8194   0.456   3.801  13.983  0.7763  2.6566  1.8407
  552MPD2    H3 8195   0.680   3.748  14.008 -0.0570 -0.5004 -0.3785
  552MPD2     N 8196   0.645   3.553  14.423 -0.4931  0.5050 -0.1009
  552MPD2    H5 8197   0.746   3.556  14.432 -0.3592  2.0615 -2.1167
  552MPD2    N1 8198   0.257   3.702  14.150  0.2419  0.4302 -0.5108
  552MPD2    H7 8199   0.198   3.635  14.198 -1.9955  1.8130 -1.3390
  553TMC3    C1 8200   0.062   3.728  14.015  0.0810  0.2952 -0.5680
  553TMC3    C2 8201   0.046   3.730  13.870  0.5131 -0.3067  0.1516
  553TMC3    C3 8202   4.655   3.670  13.820  0.3699  0.0993 -0.0201
  553TMC3    C4 8203   4.699   3.657  14.099 -0.0645 -0.0339  0.2903
  553TMC3    C5 8204   4.583   3.611  14.037 -0.1126  0.0497  0.1266
  553TMC3    C6 8205   4.560   3.617  13.898 -0.2415 -0.8303 -0.4633
  553TMC3     C 8206   0.192   3.781  14.058 -0.2754 -0.4283  0.3485
  553TMC3     O 8207   0.227   3.877  13.994  0.8035 -0.3650  0.3559
  553TMC3     H 8208   0.120   3.779  13.807  1.7219 -2.2589  0.0429
  553TMC3    H1 8209   4.702   3.674  14.206  1.1691 -0.4887  0.3253
  553TMC3    H2 8210   4.481   3.554  13.859  0.3540 -1.9638  0.1555
  553TMC3    C7 8211   4.534   3.487  14.094  0.0392  0.7849  0.7708
  553TMC3    C8 8212   4.681   3.613  13.687 -0.0956  0.1369 -0.3258
  553TMC3    O1 8213   4.464   3.419  14.021 -0.3050  0.0961  0.3605
  553TMC3    O2 8214   0.074   3.621  13.653  0.0515 -0.3412 -0.0028
  554TMC3    C1 8215   1.771   2.441  11.422  0.2339 -0.3049 -0.5031
  554TMC3    C2 8216   1.686   2.434  11.316  0.0070 -0.3247  0.0226
  554TMC3    C3 8217   1.746   2.458  11.199 -0.1976  0.5042 -0.4980
  554TMC3    C4 8218   1.894   2.505  11.418 -0.0244 -0.2133 -0.1858
  554TMC3    C5 8219   1.939   2.553  11.298 -0.1828 -0.0424  0.4627
  554TMC3    C6 8220   1.866   2.520  11.186  0.1485 -0.7142 -0.1399
  554TMC3     C 8221   1.730   2.371  11.547  0.5564 -0.1853  0.7735
  554TMC3     O 8222   1.629   2.299  11.547  0.1514 -0.6280  0.0283
  554TMC3     H 8223   1.587   2.391  11.325 -0.0738  0.0667  0.9373
  554TMC3    H1 8224   1.966   2.519  11.498 -0.8174 -0.3159  0.5374
  554TMC3    H2 8225   1.910   2.537  11.088 -0.1270 -1.3196 -0.3698
  554TMC3    C7 8226   2.033   2.659  11.278 -0.1664  0.3138  0.4596
  554TMC3    C8 8227   1.661   2.484  11.082 -0.5800  0.1087  0.5350
  554TMC3    O1 8228   2.055   2.684  11.161  0.3606 -0.1688  0.0898
  554TMC3    O2 8229   1.702   2.570  11.008 -0.3715  0.1923  0.5677
  555TMC3    C1 8230   0.885   2.050  14.943 -0.3549  0.0380  0.2795
  555TMC3    C2 8231   0.808   2.102  15.040 -0.3580 -0.3820 -0.4843
  555TMC3    C3 8232   0.832   2.051  15.167  0.3570  0.0958 -0.0420
  555TMC3    C4 8233   0.980   1.947  14.970 -0.3727  0.3383 -0.2060
  555TMC3    C5 8234   0.993   1.908  15.105 -0.1775 -0.0855  0.3371
  555TMC3    C6 8235   0.923   1.960  15.208 -0.0368  0.1170  0.1616
  555TMC3     C 8236   0.929   2.141  14.838 -0.0071  0.5890  0.0714
  555TMC3     O 8237   1.044   2.128  14.792 -0.0692 -0.1379 -0.6992
  555TMC3     H 8238   0.731   2.174  15.018 -1.0192  0.2144  3.7695
  555TMC3    H1 8239   1.051   1.911  14.897 -1.0864 -0.5703 -0.4565
  555TMC3    H2 8240   0.923   1.911  15.304  1.3047  0.6937  0.4536
  555TMC3    C7 8241   1.057   1.786  15.130  0.1894 -0.7286  0.0350
  555TMC3    C8 8242   0.761   2.129  15.262  0.3598  0.5345 -0.3880
  555TMC3    O1 8243   1.039   1.734  15.242  0.8258  0.2561  0.2333
  555TMC3    O2 8244   0.668   2.199  15.227  0.2701 -0.4213 -0.0343
  556MPD2     C 8245   3.482   4.263  10.706  0.2112  0.3672  0.5959
  556MPD2    C1 8246   3.556   4.146  10.717 -0.1727  0.1216  0.6270
  556MPD2    C2 8247   3.638   4.106  10.621 -0.3795 -0.4947  0.6686
  556MPD2    C3 8248   3.640   4.163  10.494  0.0208 -0.1174 -0.2520
  556MPD2    C4 8249   3.548   4.258  10.475  0.2849 -0.3524  0.6346
  556MPD2    C5 8250   3.478   4.317  10.577  0.5516  0.8537  0.0967
  556MPD2     H 8251   3.716   4.032  10.631  0.0184 -0.1677 -0.0391
  556MPD2    H1 8252   3.539   4.311  10.381  3.4633 -1.3740 -0.2692
  556MPD2    H2 8253   3.426   4.315  10.782 -1.9676  1.7071 -1.9551
  556MPD2    H3 8254   3.418   4.405  10.556 -2.0482 -1.3623 -1.7086
  556MPD2     N 8255   3.715   4.095  10.402  0.1717  0.2031  0.0947
  556MPD2    H5 8256   3.786   4.028  10.431  3.4745  3.2441 -0.8516
  556MPD2    N1 8257   3.565   4.075  10.841 -0.0161 -0.2312  0.6274
  556MPD2    H7 8258   3.629   3.998  10.853  0.1971 -0.3250 -1.1287
  557TMC3    C1 8259   3.754   4.022  10.190 -0.0003  0.6165  0.0728
  557TMC3    C2 8260   3.803   4.040  10.068 -0.0844  0.1771  0.0582
  557TMC3    C3 8261   3.822   3.935   9.988  0.8236  0.1239 -0.3281
  557TMC3    C4 8262   3.730   3.898  10.239 -0.4187  0.4110 -0.7431
  557TMC3    C5 8263   3.744   3.792  10.154  0.6831 -0.0170  0.0223
  557TMC3    C6 8264   3.781   3.809  10.023 -0.1972 -0.1415  0.1134
  557TMC3     C 8265   3.713   4.130  10.269  0.0503  0.1794 -0.9155
  557TMC3     O 8266   3.674   4.233  10.216  0.2151 -0.1303 -0.1009
  557TMC3     H 8267   3.824   4.137  10.023  1.2579  0.1214  0.5956
  557TMC3    H1 8268   3.689   3.876  10.337  0.4368 -0.9928 -0.6958
  557TMC3    H2 8269   3.798   3.719   9.964  0.4001  0.7962 -1.1351
  557TMC3    C7 8270   3.671   3.671  10.194 -0.0409  0.1513 -0.0760
  557TMC3    C8 8271   3.866   3.961   9.849 -0.1772  0.0247 -0.4612
  557TMC3    O1 8272   3.618   3.680  10.304 -0.2800 -0.3761 -0.4333
  557TMC3    O2 8273   3.931   4.063   9.830  0.3058 -0.1133 -1.0202
  558TMC3    C1 8274   1.877   1.913   9.197  0.1211 -0.7270 -0.1387
  558TMC3    C2 8275   1.816   1.991   9.295 -0.0703  0.2931 -0.5123
  558TMC3    C3 8276   1.689   2.035   9.267  0.1831 -0.1113 -0.5180
  558TMC3    C4 8277   1.815   1.880   9.082 -0.1331  0.0573 -0.2052
  558TMC3    C5 8278   1.683   1.917   9.069  0.5625  0.7290  0.6173
  558TMC3    C6 8279   1.614   1.990   9.164  0.1263  0.5217 -0.1131
  558TMC3     C 8280   1.986   1.841   9.259 -0.5256 -0.5217 -0.1657
  558TMC3     O 8281   1.989   1.854   9.379 -0.5618  0.0086  0.2820
  558TMC3     H 8282   1.870   2.035   9.378  1.1246 -3.6362  0.7882
  558TMC3    H1 8283   1.859   1.802   9.021 -2.5378 -1.6777  0.2455
  558TMC3    H2 8284   1.513   2.023   9.142 -0.2355 -0.5270 -0.0364
  558TMC3    C7 8285   1.606   1.857   8.964 -0.2787 -0.1457 -0.2168
  558TMC3    C8 8286   1.619   2.087   9.379  0.4217  0.2331 -0.2091
  558TMC3    O1 8287   1.674   1.814   8.872  0.4381 -0.2643  0.0076
  558TMC3    O2 8288   1.534   2.170   9.360  0.0864 -0.9232  0.5836
  559MPD2     C 8289   1.477   2.630  10.289  0.4801 -0.4249  0.1376
  559MPD2    C1 8290   1.408   2.547  10.372  0.5395 -0.1791  0.4541
  559MPD2    C2 8291   1.472   2.494  10.476  0.8860  0.1422 -0.4148
  559MPD2    C3 8292   1.598   2.536  10.515  0.5913  0.2308 -0.3477
  559MPD2    C4 8293   1.668   2.624  10.440  0.2515  0.1140  0.1505
  559MPD2    C5 8294   1.607   2.665  10.323  0.1619  0.0489 -0.1778
  559MPD2     H 8295   1.432   2.408  10.528 -0.7207 -0.8062 -3.2323
  559MPD2    H1 8296   1.771   2.651  10.462  0.0926  1.0140 -0.1908
  559MPD2    H2 8297   1.431   2.684  10.207  5.4727  0.0561 -2.3245
  559MPD2    H3 8298   1.658   2.737  10.260 -1.1568 -0.1583 -1.4963
  559MPD2     N 8299   1.657   2.464  10.620 -0.0973  0.4844 -0.0058
  559MPD2    H5 8300   1.611   2.381  10.657 -2.5067  2.3010  1.0684
  559MPD2    N1 8301   1.272   2.525  10.337 -0.3430 -0.2288  0.2633
  559MPD2    H7 8302   1.246   2.575  10.253 -0.1157 -1.0733 -0.3078
  560TMC3    C1 8303   1.841   2.378  10.753 -0.4211  0.6460  0.0476
  560TMC3    C2 8304   1.791   2.254  10.747  0.1957  0.3565  0.0920
  560TMC3    C3 8305   1.865   2.155  10.801  0.3474 -0.0441  0.5975
  560TMC3    C4 8306   1.947   2.416  10.828  0.6985  0.2948  0.0186
  560TMC3    C5 8307   2.021   2.311  10.888  0.0766 -0.6441  0.2097
  560TMC3    C6 8308   1.983   2.178  10.868 -0.8914 -0.2001  0.3482
  560TMC3     C 8309   1.779   2.486  10.670  0.5006  0.7346 -0.3273
  560TMC3     O 8310   1.833   2.594  10.665 -0.1525  0.4867 -0.6387
  560TMC3     H 8311   1.693   2.229  10.708 -0.6887 -2.4901  4.1569
  560TMC3    H1 8312   1.972   2.521  10.842 -0.4175  0.3954  1.2401
  560TMC3    H2 8313   2.033   2.101  10.926 -0.2324  2.3862  3.2158
  560TMC3    C7 8314   2.161   2.341  10.916  0.7501  0.3407 -0.2625
  560TMC3    C8 8315   1.833   2.015  10.763 -0.2922  0.1476 -0.0241
  560TMC3    O1 8316   2.207   2.427  10.844 -0.2612 -0.7274 -0.4841
  560TMC3    O2 8317   1.726   1.993  10.706  0.3319 -0.2637 -0.5917
  561TMC3    C1 8318   4.228   1.031  11.108 -0.4744 -0.1535 -0.0051
  561TMC3    C2 8319   4.166   0.980  11.225 -0.1728 -0.5381  0.6320
  561TMC3    C3 8320   4.172   1.054  11.338  0.5920 -1.2212  0.1868
  561TMC3    C4 8321   4.278   1.158  11.112  1.1909 -0.3322  0.6344
  561TMC3    C5 8322   4.283   1.229  11.231  0.0554 -0.7691 -0.1018
  561TMC3    C6 8323   4.230   1.178  11.347  0.3361 -0.3516  0.2250
  561TMC3     C 8324   4.178   0.977  10.988  0.6258  0.1617  0.4387
  561TMC3     O 8325   4.081   0.897  10.992 -0.0408  0.0664 -0.1555
  561TMC3     H 8326   4.128   0.879  11.226  0.3559 -0.7407 -0.3854
  561TMC3    H1 8327   4.304   1.213  11.022  2.2196 -1.8575  0.0096
  561TMC3    H2 8328   4.238   1.232  11.440  0.5281 -0.2972  0.1765
  561TMC3    C7 8329   4.296   1.373  11.228  0.0103 -0.6938 -0.4609
  561TMC3    C8 8330   4.126   0.996  11.467  0.2785 -0.2272 -0.2111
  561TMC3    O1 8331   4.263   1.432  11.332  0.2751 -0.1336 -0.2781
  561TMC3    O2 8332   4.122   0.874  11.458 -0.2205  0.1310  0.1311
  562TMC3    C1 8333   0.873   2.164  16.251 -0.4843  0.0555  0.1079
  562TMC3    C2 8334   0.752   2.222  16.245  0.4448 -0.3428 -0.2220
  562TMC3    C3 8335   0.683   2.233  16.125  0.4805 -0.8596 -0.2408
  562TMC3    C4 8336   0.922   2.099  16.138  0.1510  0.5341 -1.0704
  562TMC3    C5 8337   0.849   2.099  16.024 -0.0325  0.3789 -0.0753
  562TMC3    C6 8338   0.731   2.170  16.014 -0.1875 -0.3072 -0.2438
  562TMC3     C 8339   0.976   2.221  16.340 -0.4108  0.1367 -0.3349
  562TMC3     O 8340   0.950   2.335  16.371 -0.1826 -0.1956  0.0456
  562TMC3     H 8341   0.718   2.271  16.336  1.1007  1.5939 -1.0108
  562TMC3    H1 8342   1.021   2.056  16.145  1.7895  4.6680  0.9979
  562TMC3    H2 8343   0.682   2.171  15.917  1.9785 -1.8602 -1.3645
  562TMC3    C7 8344   0.896   2.043  15.898  0.2772  0.7921  0.0757
  562TMC3    C8 8345   0.552   2.295  16.132 -0.3416  0.1619 -1.0418
  562TMC3    O1 8346   0.816   2.038  15.804  0.1248  0.2102 -0.8662
  562TMC3    O2 8347   0.499   2.303  16.245 -0.3302  0.2400 -0.2713
  563MPD2     C 8348   2.931   3.645  15.860 -0.5973  0.3300  0.0025
  563MPD2    C1 8349   2.946   3.523  15.929 -0.4862 -0.2501 -0.2919
  563MPD2    C2 8350   3.066   3.496  15.984 -0.0560  0.6686 -0.2674
  563MPD2    C3 8351   3.166   3.587  15.980  0.4217 -0.2916 -0.5098
  563MPD2    C4 8352   3.149   3.710  15.922  0.0549  0.5845 -0.0510
  563MPD2    C5 8353   3.031   3.734  15.854 -0.0323  0.9097 -0.5136
  563MPD2     H 8354   3.077   3.405  16.042  0.2604  1.1096  0.3599
  563MPD2    H1 8355   3.218   3.794  15.914  1.4350 -0.3910  1.5673
  563MPD2    H2 8356   2.833   3.667  15.819 -0.3342  1.0527 -0.2364
  563MPD2    H3 8357   3.015   3.833  15.812 -0.4863  0.6390 -0.9792
  563MPD2     N 8358   3.288   3.550  16.045  0.5862  0.2079  0.7945
  563MPD2    H5 8359   3.303   3.453  16.071 -0.6878  0.1402  1.2784
  563MPD2    N1 8360   2.843   3.423  15.956 -0.6210 -0.1397 -0.4125
  563MPD2    H7 8361   2.866   3.345  16.016 -0.1469  1.2205  1.1876
  564TMC3    C1 8362   2.642   3.406  16.054  0.2269  0.5573 -0.0140
  564TMC3    C2 8363   2.550   3.304  16.037  0.3347  0.3920  0.0388
  564TMC3    C3 8364   2.538   3.227  16.143  0.4232 -0.8686 -0.2687
  564TMC3    C4 8365   2.708   3.433  16.166 -0.0434 -0.2584 -0.0320
  564TMC3    C5 8366   2.689   3.345  16.270 -0.8284 -0.3470  0.3769
  564TMC3    C6 8367   2.603   3.250  16.259  0.2161  0.4211  0.7281
  564TMC3     C 8368   2.713   3.440  15.926  0.1132  0.0402 -0.2721
  564TMC3     O 8369   2.660   3.508  15.840  0.0986 -0.1484  0.7599
  564TMC3     H 8370   2.499   3.286  15.943 -1.0525  0.4691  0.7922
  564TMC3    H1 8371   2.781   3.512  16.180  3.9763 -3.5514 -2.1544
  564TMC3    H2 8372   2.596   3.185  16.345  1.7280 -0.9693 -0.1905
  564TMC3    C7 8373   2.808   3.313  16.347 -0.2678 -0.4060 -0.7835
  564TMC3    C8 8374   2.452   3.111  16.134  0.0053  0.5296  0.1415
  564TMC3    O1 8375   2.841   3.195  16.345  0.0945 -0.0626 -0.2462
  564TMC3    O2 8376   2.405   3.073  16.239 -0.1940  0.2117  0.0451
  565TMC3    C1 8377   2.728   4.680   9.923  0.4444  0.0844  0.0331
  565TMC3    C2 8378   2.804   4.619  10.016  0.0305 -0.2983 -0.4498
  565TMC3    C3 8379   2.745   4.544  10.113 -0.0574 -0.1891  0.4203
  565TMC3    C4 8380   2.592   4.672   9.925  0.2453 -0.0521 -0.3503
  565TMC3    C5 8381   2.536   4.596  10.026  0.5606  0.1366  0.4389
  565TMC3    C6 8382   2.609   4.527  10.116  0.2165  0.2064  0.6456
  565TMC3     C 8383   2.806   0.053   9.849  0.3442  0.4487 -0.1636
  565TMC3     O 8384   2.917   0.087   9.882 -0.2274 -0.0304 -0.0740
  565TMC3     H 8385   2.912   4.627  10.007  0.1657 -0.8593  0.7795
  565TMC3    H1 8386   2.538   4.716   9.841  0.0500 -1.0742 -0.7640
  565TMC3    H2 8387   2.557   4.491  10.203 -0.1395  2.2172  1.2679
  565TMC3    C7 8388   2.406   4.546   9.998  1.0216  0.4788 -0.2707
  565TMC3    C8 8389   2.823   4.503  10.229 -0.0207  0.7206 -0.1220
  565TMC3    O1 8390   2.366   4.441  10.042  0.1397  0.1706  0.0242
  565TMC3    O2 8391   2.933   4.547  10.247 -0.1327 -0.1410  0.2074
  566MPD2     C 8392   4.506   2.020  14.127  0.2017  0.2969  0.0046
  566MPD2    C1 8393   4.639   2.034  14.133 -0.6945 -0.3613 -0.2488
  566MPD2    C2 8394   4.719   1.969  14.041  0.2981 -0.0446 -0.1317
  566MPD2    C3 8395   4.658   1.885  13.951 -0.5429 -0.1730  0.0639
  566MPD2    C4 8396   4.524   1.878  13.943 -0.4713  0.2402  0.5711
  566MPD2    C5 8397   4.444   1.940  14.037 -0.8111  1.4587  0.1627
  566MPD2     H 8398   0.103   1.976  14.037  0.2202  1.5271  0.6143
  566MPD2    H1 8399   4.477   1.817  13.866  0.1519  0.2753  0.1691
  566MPD2    H2 8400   4.449   2.093  14.185  2.8862  1.6950  0.8719
  566MPD2    H3 8401   4.338   1.949  14.018 -0.4580  1.7039 -1.6199
  566MPD2     N 8402   0.012   1.819  13.853 -0.6801 -1.0444  0.6141
  566MPD2    H5 8403   4.681   1.767  13.785 -0.7731  0.2394 -0.2848
  566MPD2    N1 8404   4.695   2.119  14.234  0.0336  0.0480  0.1776
  566MPD2    H7 8405   4.643   2.198  14.271 -0.0322 -0.4827  1.2076
  567TMC3    C1 8406   0.162   2.256  14.245 -0.0445  0.1404 -0.2872
  567TMC3    C2 8407   0.136   2.326  14.125 -0.9664  0.6943 -0.5527
  567TMC3    C3 8408   0.244   2.398  14.063 -0.5406  0.3320 -0.2033
  567TMC3    C4 8409   0.290   2.250  14.296  0.0913 -0.0291  0.2537
  567TMC3    C5 8410   0.389   2.316  14.229  0.2559  0.3178  0.5097
  567TMC3    C6 8411   0.377   2.392  14.114 -0.1741  0.3070  0.1419
  567TMC3     C 8412   0.105   2.129  14.253  0.8275  0.2886 -0.0166
  567TMC3     O 8413   0.185   2.035  14.249  0.1824  0.4181  0.3409
  567TMC3     H 8414   0.035   2.321  14.084 -0.9958  0.2912 -0.4345
  567TMC3    H1 8415   0.289   2.193  14.388  1.1477 -0.6540 -0.1283
  567TMC3    H2 8416   0.465   2.434  14.066 -0.2487 -0.9692 -1.1175
  567TMC3    C7 8417   0.521   2.259  14.254  0.1030 -0.0785  0.0388
  567TMC3    C8 8418   0.204   2.459  13.936  0.4902  0.1030 -0.8556
  567TMC3    O1 8419   0.621   2.319  14.216  0.2771  0.1818  0.5600
  567TMC3    O2 8420   0.091   2.446  13.890 -0.2123 -0.0024 -0.7314
  568MPD2     C 8421   2.248   1.613  16.534  0.0032  0.3369  0.7397
  568MPD2    C1 8422   2.277   1.698  16.639  0.7960 -0.1250  0.0259
  568MPD2    C2 8423   2.238   1.833  16.622  0.0869 -0.2230 -0.0790
  568MPD2    C3 8424   2.173   1.877  16.505  0.2237 -0.4121  0.3222
  568MPD2    C4 8425   2.142   1.781  16.407  0.3493  0.0256 -0.5490
  568MPD2    C5 8426   2.179   1.651  16.432 -0.1261  0.6760 -0.3520
  568MPD2     H 8427   2.251   1.903  16.704  1.4992 -1.0554  0.4083
  568MPD2    H1 8428   2.087   1.803  16.316 -0.0408  0.7571 -0.1396
  568MPD2    H2 8429   2.269   1.507  16.541 -0.0835  0.3095  0.5828
  568MPD2    H3 8430   2.147   1.564  16.375  0.8305 -0.5687  0.9941
  568MPD2     N 8431   2.149   2.020  16.483 -0.2056  0.2536 -0.6331
  568MPD2    H5 8432   2.168   2.070  16.570  2.4083 -0.5913 -0.7171
  568MPD2    N1 8433   2.355   1.648  16.751 -0.0478  0.0384  0.0923
  568MPD2    H7 8434   2.403   1.558  16.749  2.8307  1.5554  0.6625
  569TMC3    C1 8435   2.110   2.234  16.377 -0.1761  0.5005  0.0613
  569TMC3    C2 8436   2.130   2.299  16.495 -0.2303 -0.5780  0.1962
  569TMC3    C3 8437   2.157   2.437  16.503  0.6722 -0.5794 -0.5485
  569TMC3    C4 8438   2.119   2.304  16.261 -0.3969  0.4642 -0.4653
  569TMC3    C5 8439   2.172   2.434  16.274 -0.0026 -0.6133 -0.4900
  569TMC3    C6 8440   2.187   2.506  16.387 -0.4076 -0.1595  0.9419
  569TMC3     C 8441   2.108   2.089  16.369 -0.6092  0.1790  0.8279
  569TMC3     O 8442   2.093   2.036  16.260  0.2688  0.5769 -0.9499
  569TMC3     H 8443   2.120   2.246  16.589  0.2874 -1.9128 -0.5088
  569TMC3    H1 8444   2.102   2.264  16.161 -1.9375  0.3969 -0.1864
  569TMC3    H2 8445   2.234   2.602  16.401  2.3479 -1.7962  2.8969
  569TMC3    C7 8446   2.218   2.492  16.145 -0.1431 -0.3432 -0.0531
  569TMC3    C8 8447   2.165   2.493  16.632  0.1544  0.2285  0.5201
  569TMC3    O1 8448   2.191   2.425  16.046  0.6974  0.2422  0.1317
  569TMC3    O2 8449   2.089   2.440  16.716  0.7191 -0.1409  0.1333
  570TMC3    C1 8450   2.234   0.880  16.526  0.5782 -0.4339  0.0380
  570TMC3    C2 8451   2.320   0.937  16.435 -0.1542  0.2178 -0.3964
  570TMC3    C3 8452   2.285   1.056  16.375  0.6278 -0.8612 -0.2782
  570TMC3    C4 8453   2.128   0.946  16.568 -1.2014  0.4185 -0.3990
  570TMC3    C5 8454   2.095   1.070  16.514 -0.3030 -0.5993 -0.8296
  570TMC3    C6 8455   2.170   1.127  16.418  0.2025  0.1940  0.1596
  570TMC3     C 8456   2.269   0.755  16.589  0.3624 -0.0723 -0.3026
  570TMC3     O 8457   2.354   0.687  16.536  0.0858 -0.5165 -0.0474
  570TMC3     H 8458   2.391   0.867  16.393  1.8373  0.1424  3.0425
  570TMC3    H1 8459   2.061   0.893  16.636  0.0905  2.0627  2.1383
  570TMC3    H2 8460   2.152   1.226  16.378  1.0966 -0.4241 -1.8015
  570TMC3    C7 8461   2.050   1.158  16.616 -0.8158 -0.2752  0.4980
  570TMC3    C8 8462   2.378   1.120  16.283 -1.0664  0.4398  1.1367
  570TMC3    O1 8463   2.018   1.110  16.723  0.0583  0.0415  0.3302
  570TMC3    O2 8464   2.354   1.238  16.256 -0.3563  0.0093  0.6719
  571MPD2     C 8465   0.906   2.254  17.663 -0.6974  0.1896  0.3044
  571MPD2    C1 8466   0.776   2.208  17.645  0.2125  0.3869 -0.1806
  571MPD2    C2 8467   0.670   2.302  17.656 -0.1125 -0.4373  0.3820
  571MPD2    C3 8468   0.691   2.437  17.666  0.1689 -0.5334 -0.7128
  571MPD2    C4 8469   0.824   2.475  17.678 -0.0182 -0.8585 -0.1923
  571MPD2    C5 8470   0.933   2.390  17.680  0.3443 -0.8455  0.3563
  571MPD2     H 8471   0.568   2.267  17.650 -0.5070  0.6354  1.0078
  571MPD2    H1 8472   0.849   2.580  17.685  1.1231 -1.0855 -0.9422
  571MPD2    H2 8473   0.990   2.187  17.653 -1.5622 -0.7789 -0.4192
  571MPD2    H3 8474   1.035   2.425  17.693  0.2177 -0.9122  1.5608
  571MPD2     N 8475   0.586   2.535  17.675 -0.5668 -0.0457  0.2713
  571MPD2    H5 8476   0.614   2.632  17.684  1.0192 -0.3803 -0.9593
  571MPD2    N1 8477   0.759   2.069  17.617  0.3200 -0.1990 -0.1231
  571MPD2    H7 8478   0.845   2.024  17.587  1.0865  2.2260 -1.5871
  572TMC3    C1 8479   0.368   2.628  17.658 -0.4676  0.2043  0.1181
  572TMC3    C2 8480   0.233   2.615  17.675  0.3948 -0.0738 -0.6157
  572TMC3    C3 8481   0.166   2.730  17.695  0.0665  1.1075 -0.3826
  572TMC3    C4 8482   0.430   2.750  17.633 -0.4777 -0.9630 -0.0886
  572TMC3    C5 8483   0.356   2.862  17.636  0.0768  0.7920 -0.0469
  572TMC3    C6 8484   0.223   2.852  17.677  0.2569 -0.1388  0.9845
  572TMC3     C 8485   0.449   2.509  17.660 -0.8500  0.3095  0.2932
  572TMC3     O 8486   0.394   2.401  17.671  0.2812  0.8394 -1.0013
  572TMC3     H 8487   0.189   2.522   0.013 -0.3753 -0.6178 -3.1101
  572TMC3    H1 8488   0.526   2.747  17.583 -0.0489  2.0817  0.5585
  572TMC3    H2 8489   0.168   2.945  17.673 -0.5522 -0.5831  1.8721
  572TMC3    C7 8490   0.418   2.993  17.624 -0.4400 -0.0639 -0.4184
  572TMC3    C8 8491   0.023   2.709  17.694  0.2193  0.1698 -0.0120
  572TMC3    O1 8492   0.349   3.088  17.648  0.2052 -0.2891 -0.0098
  572TMC3    O2 8493   4.705   2.598  17.668 -0.0911  0.6543 -0.3029
  573MPD2     C 8494   1.369   2.840   0.656 -0.6567  0.3669  0.3717
  573MPD2    C1 8495   1.448   2.952   0.669 -0.3585  0.5387 -0.7793
  573MPD2    C2 8496   1.470   3.030   0.556  1.0344 -0.4344  0.2292
  573MPD2    C3 8497   1.392   2.990   0.439  0.2678  1.3978  0.0554
  573MPD2    C4 8498   1.303   2.891   0.435  0.2961 -0.0404 -0.0580
  573MPD2    C5 8499   1.301   2.808   0.544 -0.5539 -0.6931 -0.3522
  573MPD2     H 8500   1.522   3.126   0.554  0.2749 -0.0092  0.8787
  573MPD2    H1 8501   1.235   2.879   0.352  0.3996 -1.4233  0.0612
  573MPD2    H2 8502   1.359   2.785   0.749 -0.0365  0.0306  0.2405
  573MPD2    H3 8503   1.229   2.728   0.553 -1.7625  0.5816  1.4470
  573MPD2     N 8504   1.407   3.053   0.316  0.4872  0.3910 -0.5189
  573MPD2    H5 8505   1.352   3.019   0.237 -1.4461  1.0000  0.5483
  573MPD2    N1 8506   1.506   2.985   0.786  0.6107 -0.2153  0.0709
  573MPD2    H7 8507   1.490   2.924   0.866 -0.2229  1.0373  0.8673
  574TMC3    C1 8508   1.465   3.201   0.144  0.3052 -0.7519  0.8361
  574TMC3    C2 8509   1.376   3.141   0.058  0.2593 -0.0035  0.1462
  574TMC3    C3 8510   1.371   3.187  17.625  0.3021  0.2215 -0.0070
  574TMC3    C4 8511   1.542   3.305   0.100  0.2312 -0.0750  0.4089
  574TMC3    C5 8512   1.537   3.345  17.664  0.7557 -1.3055  0.8025
  574TMC3    C6 8513   1.453   3.286  17.571  0.0000 -0.2438  0.1930
  574TMC3     C 8514   1.482   3.159   0.285 -0.4272 -0.1392 -0.4313
  574TMC3     O 8515   1.566   3.215   0.353  0.1385 -0.1562 -0.3106
  574TMC3     H 8516   1.307   3.069   0.099  0.6861 -0.9694 -0.8333
  574TMC3    H1 8517   1.600   3.370   0.165 -0.2291  0.7654 -0.0228
  574TMC3    H2 8518   1.460   3.306  17.465  0.4271 -0.8029  0.1123
  574TMC3    C7 8519   1.643   3.432  17.611  0.2056  0.6866 -0.6600
  574TMC3    C8 8520   1.299   3.105  17.531 -0.3047  0.4168  0.2466
  574TMC3    O1 8521   1.629   3.488  17.500 -0.2001  0.1962  0.1078
  574TMC3    O2 8522   1.284   2.990  17.574  0.1268 -0.6271  0.2037
  575TMC3    C1 8523   3.474   4.631  10.827 -0.0825 -1.0219  0.9305
  575TMC3    C2 8524   3.452   4.595  10.960 -0.0262  0.5316  0.7216
  575TMC3    C3 8525   3.332   4.541  10.989 -0.5902  0.0679  0.4013
  575TMC3    C4 8526   3.376   4.613  10.726  0.3460  0.1600  0.4122
  575TMC3    C5 8527   3.252   4.563  10.769  0.3455 -0.4331 -0.3021
  575TMC3    C6 8528   3.230   4.531  10.898  0.2765 -0.6849 -0.4006
  575TMC3     C 8529   3.594   4.689  10.784  0.4545 -0.6656 -0.6748
  575TMC3     O 8530   3.594   0.034  10.681 -0.1596  0.8157  0.3021
  575TMC3     H 8531   3.529   4.609  11.035  1.8553 -0.1766 -1.0701
  575TMC3    H1 8532   3.390   4.627  10.620 -1.1667 -0.4761  0.1332
  575TMC3    H2 8533   3.133   4.510  10.942 -0.4455  0.8103 -1.2618
  575TMC3    C7 8534   3.150   4.524  10.669  0.5396  0.0037  0.0553
  575TMC3    C8 8535   3.318   4.504  11.129  0.3182 -0.1479 -0.1523
  575TMC3    O1 8536   3.173   4.574  10.557 -0.1144 -0.2192  0.5264
  575TMC3    O2 8537   3.395   4.557  11.209  0.3461  0.3648  0.3681
  576MPD2     C 8538   3.159   1.373  12.380  0.1239  0.0406 -0.5345
  576MPD2    C1 8539   3.223   1.494  12.382 -0.9326 -0.2517 -0.2893
  576MPD2    C2 8540   3.168   1.597  12.456 -0.4527 -0.4098  0.7308
  576MPD2    C3 8541   3.043   1.589  12.514 -0.0381  0.1728  0.2559
  576MPD2    C4 8542   2.973   1.475  12.492 -0.1424  0.2069  0.8420
  576MPD2    C5 8543   3.034   1.370  12.426 -1.0333 -0.3703 -0.4089
  576MPD2     H 8544   3.228   1.685  12.477 -2.6956  1.1923  0.5388
  576MPD2    H1 8545   2.868   1.471  12.520 -0.3546 -1.1681 -0.1282
  576MPD2    H2 8546   3.193   1.283  12.331 -0.5796 -0.6789  0.2928
  576MPD2    H3 8547   2.989   1.271  12.422 -2.0893  0.0918  0.0042
  576MPD2     N 8548   2.990   1.692  12.601 -0.1360 -0.3540  0.3494
  576MPD2    H5 8549   3.051   1.772  12.616  0.1709 -0.3063 -1.1560
  576MPD2    N1 8550   3.349   1.508  12.321 -0.3123  0.1289  0.3320
  576MPD2    H7 8551   3.393   1.600  12.317  1.5364 -0.7015  1.3988
  577TMC3    C1 8552   3.549   1.422  12.211  0.2997  0.4305 -0.4180
  577TMC3    C2 8553   3.636   1.320  12.195  0.3667 -0.4060  0.2870
  577TMC3    C3 8554   3.740   1.344  12.110 -0.5126  0.2259 -0.5064
  577TMC3    C4 8555   3.569   1.546  12.149 -1.0617 -0.2630 -0.0233
  577TMC3    C5 8556   3.677   1.562  12.070  0.1657 -0.3063  0.2818
  577TMC3    C6 8557   3.767   1.466  12.050  0.3824  0.1305 -0.0919
  577TMC3     C 8558   3.423   1.397  12.283 -0.3845  0.5211 -0.1103
  577TMC3     O 8559   3.413   1.280  12.310 -0.5214  0.1982  0.3194
  577TMC3     H 8560   3.617   1.220  12.232 -1.2864  0.0338  0.6391
  577TMC3    H1 8561   3.498   1.626  12.165  0.1197  0.7711  0.0270
  577TMC3    H2 8562   3.839   1.481  11.971  0.4520 -0.1367 -0.0794
  577TMC3    C7 8563   3.719   1.684  11.999  0.1691 -0.0162 -0.4327
  577TMC3    C8 8564   3.828   1.234  12.082 -0.0569 -0.8637  0.2264
  577TMC3    O1 8565   3.839   1.702  11.986 -0.0587 -0.4849  0.4415
  577TMC3    O2 8566   3.814   1.136  12.156  0.3869 -0.4074 -0.2060
  578MPD2     C 8567   1.965   0.706   2.036  0.0894  0.2359  0.6088
  578MPD2    C1 8568   2.026   0.741   1.920  0.0650 -0.0632 -0.0784
  578MPD2    C2 8569   2.114   0.646   1.868 -0.7133  0.2168  0.0832
  578MPD2    C3 8570   2.111   0.520   1.914 -0.2758  0.3803  0.4656
  578MPD2    C4 8571   2.041   0.493   2.032 -0.2163 -0.0812 -0.0956
  578MPD2    C5 8572   1.978   0.589   2.101  0.1464  0.0191 -1.0388
  578MPD2     H 8573   2.183   0.665   1.786  1.4637 -0.8330  1.6731
  578MPD2    H1 8574   2.046   0.392   2.072 -0.0172  0.5584  1.5029
  578MPD2    H2 8575   1.903   0.781   2.082 -2.4195 -0.0993 -2.2172
  578MPD2    H3 8576   1.920   0.581   2.193 -1.1700 -0.0969 -1.8883
  578MPD2     N 8577   2.193   0.415   1.872  0.0825 -0.1534 -0.9711
  578MPD2    H5 8578   2.197   0.336   1.935  1.5829  0.6386 -0.0833
  578MPD2    N1 8579   1.998   0.860   1.858  0.2446 -0.2492 -0.0698
  578MPD2    H7 8580   1.921   0.918   1.891  0.8255 -0.1628  1.1503
  579TMC3    C1 8581   2.382   0.327   1.766 -0.3586 -0.7464  0.6882
  579TMC3    C2 8582   2.457   0.354   1.876 -0.1542  0.1932  1.0814
  579TMC3    C3 8583   2.590   0.371   1.856 -0.2632 -0.5374  0.0421
  579TMC3    C4 8584   2.439   0.311   1.639 -0.1340  0.1253 -0.0500
  579TMC3    C5 8585   2.569   0.329   1.620  0.0750  0.2260 -0.1825
  579TMC3    C6 8586   2.643   0.362   1.732 -0.3341  1.8813  0.2370
  579TMC3     C 8587   2.261   0.403   1.751  0.7025 -0.9601  0.2959
  579TMC3     O 8588   2.231   0.457   1.647 -0.3701  0.1007  0.2493
  579TMC3     H 8589   2.424   0.386   1.974 -1.4209 -0.2413  0.7883
  579TMC3    H1 8590   2.377   0.302   1.551  0.7538 -0.5162 -0.6106
  579TMC3    H2 8591   2.750   0.378   1.721 -0.2823  0.8467 -0.8212
  579TMC3    C7 8592   2.641   0.278   1.506 -0.0370  0.0931 -0.4463
  579TMC3    C8 8593   2.658   0.470   1.945  0.5318 -0.8384 -0.0725
  579TMC3    O1 8594   2.764   0.279   1.499  0.4038  0.1881  0.9360
  579TMC3    O2 8595   2.642   0.462   2.066  0.2345  0.6657 -0.3052
  580TMC3    C1 8596   1.167   0.367  11.642  0.1516 -0.3897  0.0612
  580TMC3    C2 8597   1.208   0.326  11.520  0.2002  0.1094  0.1116
  580TMC3    C3 8598   1.190   0.198  11.488  0.2251  0.5469  0.5678
  580TMC3    C4 8599   1.084   0.289  11.721  0.0294 -0.2097 -0.9328
  580TMC3    C5 8600   1.063   0.156  11.691 -0.2310  0.5672 -0.0061
  580TMC3    C6 8601   1.114   0.117  11.570 -0.4562  0.0725 -0.0906
  580TMC3     C 8602   1.220   0.491  11.685  0.6298 -0.0096 -0.0377
  580TMC3     O 8603   1.244   0.579  11.605  0.0421 -0.0962 -0.1554
  580TMC3     H 8604   1.268   0.397  11.464  0.8009 -0.1976  0.3557
  580TMC3    H1 8605   1.059   0.316  11.823 -1.4373 -1.7611 -0.8861
  580TMC3    H2 8606   1.100   0.013  11.542  2.3599 -0.4076  0.3118
  580TMC3    C7 8607   1.126   0.091  11.802  0.2001  0.2576  0.3122
  580TMC3    C8 8608   1.264   0.145  11.378  0.3254 -0.3607  0.2713
  580TMC3    O1 8609   1.206   0.152  11.874 -0.1576 -0.0682  0.0302
  580TMC3    O2 8610   1.216   0.045  11.329  0.1719  0.1904  0.3568
  581MPD2     C 8611   4.190   0.261  14.714 -0.0483 -0.6180  0.1099
  581MPD2    C1 8612   4.083   0.190  14.766 -0.8573  0.3939 -0.1036
  581MPD2    C2 8613   3.956   0.214  14.713  0.4094 -0.0934  0.2768
  581MPD2    C3 8614   3.929   0.319  14.616 -0.8523 -0.3318 -0.2311
  581MPD2    C4 8615   4.037   0.382  14.561 -0.5905 -0.2572 -0.4715
  581MPD2    C5 8616   4.165   0.351  14.611  0.3333 -0.6541  0.2126
  581MPD2     H 8617   3.872   0.153  14.745  0.4507 -1.0270 -1.3916
  581MPD2    H1 8618   4.021   0.469  14.498 -0.0942  0.1296 -0.0623
  581MPD2    H2 8619   4.292   0.256  14.752  1.0949  2.1377 -2.5347
  581MPD2    H3 8620   4.250   0.399  14.565 -1.9625  1.1182 -2.1711
  581MPD2     N 8621   3.797   0.352  14.569  0.9410 -0.4478  0.0665
  581MPD2    H5 8622   3.796   0.411  14.487  0.9659 -1.7848 -0.9076
  581MPD2    N1 8623   4.112   0.104  14.874 -0.2999  0.4785 -0.2156
  581MPD2    H7 8624   4.207   0.100  14.912 -0.3686  2.7249  0.2031
  582TMC3    C1 8625   4.068   4.704  15.071  0.1060 -0.1768 -0.0074
  582TMC3    C2 8626   4.194   4.644  15.084 -0.2724  0.0480 -0.3644
  582TMC3    C3 8627   4.230   4.574  15.197  0.8256  0.2541 -0.3882
  582TMC3    C4 8628   3.977   4.693  15.167  0.4522 -0.0414 -0.2773
  582TMC3    C5 8629   4.006   4.605  15.267  0.2821  0.6418  0.3827
  582TMC3    C6 8630   4.131   4.555  15.295 -0.4109 -0.4588 -0.7222
  582TMC3     C 8631   4.022   0.038  14.953  0.4281  0.4050 -0.2686
  582TMC3     O 8632   3.896   0.038  14.938  0.0976  0.3253 -0.0370
  582TMC3     H 8633   4.270   4.652  15.007  0.1457  0.2784  0.0804
  582TMC3    H1 8634   3.875   4.723  15.149 -0.5406 -2.2387  1.6884
  582TMC3    H2 8635   4.144   4.499  15.387  3.5409  0.0244 -0.9923
  582TMC3    C7 8636   3.915   4.629  15.380 -0.3985 -0.1732  0.7381
  582TMC3    C8 8637   4.367   4.593  15.244 -0.5424 -0.1656 -0.3838
  582TMC3    O1 8638   3.874   4.528  15.439  0.0021 -0.0100  0.1461
  582TMC3    O2 8639   4.455   4.588  15.159 -0.2383  0.6846 -0.4853
  583MPD2     C 8640   3.975   1.402  16.651 -0.5623  0.5183 -0.1045
  583MPD2    C1 8641   4.007   1.537  16.639  0.1344 -0.8080 -0.4386
  583MPD2    C2 8642   3.978   1.623  16.748 -0.2512 -0.0892  0.3240
  583MPD2    C3 8643   3.907   1.569  16.854  0.2616 -0.3520 -0.2826
  583MPD2    C4 8644   3.869   1.441  16.859  0.7599 -0.1356 -0.5588
  583MPD2    C5 8645   3.917   1.348  16.767 -0.2299  0.3278 -0.4240
  583MPD2     H 8646   4.004   1.727  16.736  1.5499 -0.4575  1.0015
  583MPD2    H1 8647   3.822   1.396  16.946  1.7037 -0.1989 -0.0818
  583MPD2    H2 8648   3.999   1.342  16.564 -0.0689 -0.6657  0.8438
  583MPD2    H3 8649   3.898   1.241  16.761 -0.8706  0.4307 -0.1644
  583MPD2     N 8650   3.862   1.663  16.954  0.0337 -0.1465  0.2454
  583MPD2    H5 8651   3.867   1.761  16.929  2.5669 -0.7514 -1.6689
  583MPD2    N1 8652   4.095   1.591  16.536 -0.5069 -0.2210  0.1208
  583MPD2    H7 8653   4.115   1.690  16.546  0.6556 -0.3598 -0.7751
  584TMC3    C1 8654   3.743   1.770  17.130 -0.1518 -0.2025 -0.3322
  584TMC3    C2 8655   3.725   1.880  17.052 -0.0763 -0.2235  0.1925
  584TMC3    C3 8656   3.714   2.005  17.117  1.0114  0.2879 -0.2060
  584TMC3    C4 8657   3.754   1.779  17.264  0.0492 -0.3230  0.4153
  584TMC3    C5 8658   3.724   1.897  17.325 -0.3829 -0.1067  0.0219
  584TMC3    C6 8659   3.709   2.018  17.255  0.6141  0.5478  0.6842
  584TMC3     C 8660   3.798   1.649  17.076 -0.0410  0.3716  0.0785
  584TMC3     O 8661   3.792   1.546  17.143  0.0570 -0.3017 -0.3150
  584TMC3     H 8662   3.743   1.876  16.945  1.9650  0.7165  0.4918
  584TMC3    H1 8663   3.750   1.685  17.317  3.0663  0.1674  1.5035
  584TMC3    H2 8664   3.686   2.112  17.304  1.3338  0.9827  0.1689
  584TMC3    C7 8665   3.712   1.889  17.467  0.1688 -0.0669 -0.1284
  584TMC3    C8 8666   3.708   2.115  17.028  0.7390 -0.6069  0.5690
  584TMC3    O1 8667   3.757   1.788  17.523 -0.5289 -0.2716  0.9824
  584TMC3    O2 8668   3.618   2.116  16.945  0.4707 -0.0166 -0.0138
  585MPD2     C 8669   3.047   0.687   0.787 -0.5069  0.2845  0.4384
  585MPD2    C1 8670   3.164   0.701   0.720  0.3648 -0.4291  0.0776
  585MPD2    C2 8671   3.192   0.602   0.624  0.2817 -0.1991  0.0576
  585MPD2    C3 8672   3.109   0.488   0.607  0.6641  0.1460 -0.4163
  585MPD2    C4 8673   2.996   0.475   0.690  0.4515 -0.3156 -0.1561
  585MPD2    C5 8674   2.965   0.576   0.777 -0.2175  0.4018 -1.2916
  585MPD2     H 8675   3.279   0.617   0.562 -0.0285 -1.1449 -0.6071
  585MPD2    H1 8676   2.925   0.395   0.678  0.3965 -0.3280  0.2591
  585MPD2    H2 8677   3.022   0.767   0.856 -2.8427  0.4666 -0.6374
  585MPD2    H3 8678   2.885   0.568   0.850  0.3228  0.2971 -0.7111
  585MPD2     N 8679   3.129   0.387   0.505 -0.3036 -0.1850  0.4600
  585MPD2    H5 8680   3.054   0.321   0.485 -0.2624  0.3873 -1.5320
  585MPD2    N1 8681   3.240   0.822   0.731 -0.5717 -1.4334 -0.2494
  585MPD2    H7 8682   3.187   0.893   0.782  0.2737 -1.2332  0.3433
  586TMC3    C1 8683   3.249   0.270   0.339 -0.0281 -0.0838  0.0857
  586TMC3    C2 8684   3.374   0.248   0.281  0.0647 -0.3364  0.2703
  586TMC3    C3 8685   3.371   0.184   0.160  0.0870 -0.6292  0.4170
  586TMC3    C4 8686   3.123   0.245   0.272 -0.1284  0.5482 -0.1212
  586TMC3    C5 8687   3.138   0.189   0.146 -0.4827 -0.3333  0.2684
  586TMC3    C6 8688   3.256   0.162   0.091  0.7209  0.1349 -0.2697
  586TMC3     C 8689   3.257   0.368   0.444  0.1483 -0.4164  0.2975
  586TMC3     O 8690   3.363   0.422   0.470  0.0868  0.2803  0.2986
  586TMC3     H 8691   3.467   0.260   0.335  0.6668 -1.8325 -0.4438
  586TMC3    H1 8692   3.029   0.271   0.318  0.8866  1.2112  1.5568
  586TMC3    H2 8693   3.263   0.120  17.687 -2.3743  1.3124 -0.9532
  586TMC3    C7 8694   3.033   0.190   0.061 -0.1622  0.5665  0.1350
  586TMC3    C8 8695   3.494   0.142   0.103 -0.8859 -0.9597 -0.3745
  586TMC3    O1 8696   2.930   0.134   0.096  0.7293 -0.3507 -0.1982
  586TMC3    O2 8697   3.567   0.076   0.174 -0.1732  0.0203 -0.1692
  587TMC3    C1 8698   1.148   4.071  16.301  0.8650  0.4034  0.0666
  587TMC3    C2 8699   1.121   4.199  16.265 -0.1991 -0.6011 -1.3695
  587TMC3    C3 8700   1.219   4.266  16.191 -0.6060 -0.2259 -0.3907
  587TMC3    C4 8701   1.256   4.009  16.253 -0.6784 -0.2889  0.0188
  587TMC3    C5 8702   1.344   4.071  16.174  0.3929  0.7319  0.1837
  587TMC3    C6 8703   1.327   4.201  16.146  0.4391  0.9136 -0.1249
  587TMC3     C 8704   1.052   3.980  16.355 -0.0465  0.0629 -0.0201
  587TMC3     O 8705   1.061   3.869  16.306 -0.3211  0.4988  0.9118
  587TMC3     H 8706   1.039   4.255  16.310  1.1455  0.0674  0.2350
  587TMC3    H1 8707   1.271   3.904  16.279 -0.4639 -0.6806 -1.6927
  587TMC3    H2 8708   1.411   4.256  16.106  0.4320  0.6135 -0.5508
  587TMC3    C7 8709   1.435   3.989  16.095  0.1319 -0.4342 -0.2230
  587TMC3    C8 8710   1.189   4.388  16.123  0.0203  0.6611  0.0730
  587TMC3    O1 8711   1.544   4.037  16.089  0.4324  0.4044 -0.2521
  587TMC3    O2 8712   1.281   4.457  16.081 -0.0434 -0.4817 -0.1733
  588TMC3    C1 8713   3.001   2.527   9.729  0.4413  0.2013 -0.1943
  588TMC3    C2 8714   2.956   2.404   9.695  0.2915 -0.3388 -0.3296
  588TMC3    C3 8715   3.052   2.314   9.652  0.3687  0.0853  0.1389
  588TMC3    C4 8716   3.128   2.561   9.717  0.9512  0.5484 -0.1304
  588TMC3    C5 8717   3.222   2.469   9.687 -0.0603  0.5020 -0.1708
  588TMC3    C6 8718   3.184   2.340   9.662  0.4356  0.1670 -0.3332
  588TMC3     C 8719   2.897   2.627   9.754 -0.0723 -0.1906  0.1982
  588TMC3     O 8720   2.785   2.604   9.799 -0.6965  0.6121 -0.2319
  588TMC3     H 8721   2.850   2.386   9.696  0.2904 -0.2250  3.8068
  588TMC3    H1 8722   3.160   2.655   9.762  1.7990 -0.7645  1.9781
  588TMC3    H2 8723   3.262   2.270   9.635  0.7250  0.4290 -0.1895
  588TMC3    C7 8724   3.362   2.508   9.692 -0.0249  0.0846 -0.0209
  588TMC3    C8 8725   3.007   2.180   9.610 -0.3172 -0.7799  0.1258
  588TMC3    O1 8726   3.448   2.432   9.733 -0.0008 -0.7716  0.2784
  588TMC3    O2 8727   2.896   2.183   9.560  0.3788 -0.0789  0.0933
  589TMC3    C1 8728   2.554   3.986   1.147 -0.5077  0.0237 -0.5932
  589TMC3    C2 8729   2.622   4.018   1.262  0.3601  0.0511  0.4453
  589TMC3    C3 8730   2.755   3.971   1.280  0.3977 -0.1604 -0.0483
  589TMC3    C4 8731   2.620   3.913   1.048 -0.0964 -0.1287 -0.6488
  589TMC3    C5 8732   2.748   3.875   1.069  0.1060 -0.3600  0.5455
  589TMC3    C6 8733   2.823   3.897   1.190 -0.1290 -0.2601  0.3688
  589TMC3     C 8734   2.415   4.023   1.114 -0.2353 -0.0576  0.7103
  589TMC3     O 8735   2.382   4.000   0.998  0.7619 -0.4644  0.0789
  589TMC3     H 8736   2.578   4.085   1.335  0.3368 -2.3372  2.6431
  589TMC3    H1 8737   2.567   3.881   0.958 -1.4681  0.1404  0.0547
  589TMC3    H2 8738   2.929   3.876   1.200 -0.0494  0.4374  1.0068
  589TMC3    C7 8739   2.798   3.778   0.981  0.1169 -0.5651  0.1801
  589TMC3    C8 8740   2.826   4.022   1.398 -0.7539 -0.0815  0.1859
  589TMC3    O1 8741   2.715   3.704   0.924 -0.1555 -1.0913 -0.1935
  589TMC3    O2 8742   2.749   4.040   1.492 -0.0289 -0.7912  0.2767
  590MPD2     C 8743   1.643   2.937  16.569  0.3173  0.1093  0.5440
  590MPD2    C1 8744   1.587   2.944  16.440 -0.2898  0.0956 -0.1527
  590MPD2    C2 8745   1.669   2.971  16.332  0.0986  0.4013 -0.3075
  590MPD2    C3 8746   1.807   3.001  16.347  0.3745  0.1724 -0.0905
  590MPD2    C4 8747   1.856   3.004  16.474  0.2368  0.2328  0.7980
  590MPD2    C5 8748   1.777   2.967  16.579 -0.3957 -0.1967  0.3530
  590MPD2     H 8749   1.630   2.980  16.231 -1.7441 -0.8461  0.2926
  590MPD2    H1 8750   1.963   3.017  16.488 -0.0103  0.8478  2.0973
  590MPD2    H2 8751   1.590   2.904  16.658 -1.4554  0.7726 -0.2602
  590MPD2    H3 8752   1.823   2.961  16.677  1.5161 -0.3930 -0.5553
  590MPD2     N 8753   1.897   3.033  16.244 -0.3358 -0.5245  0.7704
  590MPD2    H5 8754   1.989   3.064  16.273  1.4667 -3.9086 -1.2415
  590MPD2    N1 8755   1.447   2.911  16.421 -0.4659  0.1536  0.0956
  590MPD2    H7 8756   1.392   2.892  16.503 -2.5551 -1.3624 -1.6614
  591TMC3    C1 8757   1.977   3.061  16.029  0.2322 -0.0679 -0.2544
  591TMC3    C2 8758   1.983   3.006  15.905 -0.4294 -0.3568 -0.1046
  591TMC3    C3 8759   2.071   3.063  15.822  1.1037 -0.4327  0.1116
  591TMC3    C4 8760   2.019   3.186  16.061 -0.0632 -0.7067  0.5537
  591TMC3    C5 8761   2.101   3.241  15.965 -0.3717  0.0116  0.3037
  591TMC3    C6 8762   2.137   3.180  15.847 -0.4321 -0.1557  0.5837
  591TMC3     C 8763   1.870   3.008  16.109  0.3652 -0.4005 -0.4438
  591TMC3     O 8764   1.786   2.936  16.059 -0.2658  0.0527  0.1496
  591TMC3     H 8765   1.941   2.906  15.895  0.5805 -0.8229  0.3559
  591TMC3    H1 8766   1.971   3.242  16.140 -1.7896 -0.5766 -0.5911
  591TMC3    H2 8767   2.211   3.220  15.779 -2.0873  0.3300 -0.9241
  591TMC3    C7 8768   2.136   3.377  15.983  0.0869  0.2962  1.1221
  591TMC3    C8 8769   2.124   2.972  15.719 -0.5917 -0.0976 -0.1967
  591TMC3    O1 8770   2.071   3.428  16.071 -0.3778  0.3467  0.7536
  591TMC3    O2 8771   2.113   2.853  15.752  0.2216 -0.1231 -0.0298
  592MPD2     C 8772   2.473   0.027  11.255  0.3312 -0.5176  0.0489
  592MPD2    C1 8773   2.415   0.089  11.364  0.6307  0.0697  0.1945
  592MPD2    C2 8774   2.338   0.025  11.457  0.1656  0.3474  0.3212
  592MPD2    C3 8775   2.321   4.611  11.443 -0.1949 -0.6727 -0.0121
  592MPD2    C4 8776   2.365   4.553  11.331 -0.6143 -0.3164  0.1687
  592MPD2    C5 8777   2.444   4.618  11.240 -0.3062  0.3068  1.0721
  592MPD2     H 8778   2.299   0.076  11.544 -0.1467  2.2954 -0.9557
  592MPD2    H1 8779   2.356   4.445  11.321  1.1151 -0.3074 -1.5103
  592MPD2    H2 8780   2.511   0.080  11.169  0.8277 -0.6556  0.1871
  592MPD2    H3 8781   2.487   4.557  11.162 -2.0206 -1.1442  1.2547
  592MPD2     N 8782   2.253   4.547  11.553  0.3155  0.2411 -0.1065
  592MPD2    H5 8783   2.210   4.607  11.623  0.9846  1.7721 -0.9874
  592MPD2    N1 8784   2.438   0.228  11.379  0.7723  0.3866 -0.1815
  592MPD2    H7 8785   2.474   0.277  11.298  1.4782 -0.3776 -0.3348
  593TMC3    C1 8786   2.453   0.434  11.493  0.0922  0.6561  0.5917
  593TMC3    C2 8787   2.462   0.485  11.620 -0.0292  0.2402 -0.3566
  593TMC3    C3 8788   2.569   0.559  11.659  0.4332 -0.0283  0.1564
  593TMC3    C4 8789   2.538   0.471  11.393  0.2495  0.3827 -0.0053
  593TMC3    C5 8790   2.633   0.570  11.428  0.1513 -0.8158  0.2259
  593TMC3    C6 8791   2.664   0.592  11.561 -0.6358 -0.3593  0.6558
  593TMC3     C 8792   2.404   0.298  11.493  0.2352  0.2014 -0.0379
  593TMC3     O 8793   2.373   0.264  11.606 -0.6028 -0.3723 -0.2341
  593TMC3     H 8794   2.386   0.472  11.695 -0.8177 -1.1649 -1.4100
  593TMC3    H1 8795   2.522   0.431  11.294  1.2269  0.1956 -0.0903
  593TMC3    H2 8796   2.730   0.669  11.598  0.9630 -1.5595  0.2706
  593TMC3    C7 8797   2.718   0.622  11.326 -0.4299  0.0138 -0.4069
  593TMC3    C8 8798   2.541   0.664  11.756 -0.3477  0.2000  0.3493
  593TMC3    O1 8799   2.676   0.628  11.214 -0.2385  0.7471 -0.3795
  593TMC3    O2 8800   2.428   0.705  11.754  0.0726 -0.2944 -0.4697
  594MPD2     C 8801   1.302   3.443  14.962  0.2207  0.0317  0.0718
  594MPD2    C1 8802   1.237   3.475  14.844 -0.3656 -0.2855 -0.1776
  594MPD2    C2 8803   1.310   3.552  14.750  0.8160 -0.1584 -0.1090
  594MPD2    C3 8804   1.442   3.584  14.769  0.4616  0.1278 -0.7375
  594MPD2    C4 8805   1.493   3.562  14.896 -0.7419  0.1005 -0.4304
  594MPD2    C5 8806   1.423   3.492  14.991 -0.5775 -0.8277  0.3342
  594MPD2     H 8807   1.274   3.566  14.649  1.4646  1.2127 -0.1457
  594MPD2    H1 8808   1.591   3.593  14.930 -1.6346 -0.8263  2.9322
  594MPD2    H2 8809   1.249   3.381  15.034 -2.6436 -1.1324 -3.0265
  594MPD2    H3 8810   1.452   3.475  15.094 -2.7053 -1.2696  0.8518
  594MPD2     N 8811   1.510   3.659  14.672  0.0454  0.1545 -0.0746
  594MPD2    H5 8812   1.463   3.669  14.582  1.2552  0.5082 -0.6581
  594MPD2    N1 8813   1.103   3.435  14.822  0.0020  0.3559 -0.4159
  594MPD2    H7 8814   1.063   3.368  14.887  2.1855 -0.6632 -0.1372
  595TMC3    C1 8815   1.856   3.906  14.479 -0.0925 -0.6768 -0.5228
  595TMC3    C2 8816   1.814   3.796  14.556  0.5899  0.2615  1.1103
  595TMC3    C3 8817   1.680   3.782  14.574  0.0349 -0.1263 -0.6265
  595TMC3    C4 8818   1.769   4.003  14.432 -0.1695 -0.3649 -0.2125
  595TMC3    C5 8819   1.639   3.991  14.462  0.4084 -0.2955 -0.0532
  595TMC3    C6 8820   1.591   3.883  14.532  0.2768  0.4202 -0.9779
  595TMC3     C 8821   1.989   3.951  14.479  0.1384 -0.8245 -0.0092
  595TMC3     O 8822   2.015   4.072  14.480 -0.0930  0.4660  0.0244
  595TMC3     H 8823   1.883   3.726  14.602  1.6151  1.0050  0.7165
  595TMC3    H1 8824   1.815   4.073  14.363 -2.0193  0.5265 -0.5419
  595TMC3    H2 8825   1.491   3.887  14.575  0.9354 -1.8699  0.7251
  595TMC3    C7 8826   1.563   4.113  14.453 -0.4852  0.1643 -0.1358
  595TMC3    C8 8827   1.639   3.703  14.684 -0.4160  0.4604 -0.5246
  595TMC3    O1 8828   1.441   4.105  14.454  0.1472 -0.1312 -0.2255
  595TMC3    O2 8829   1.732   3.660  14.752  0.0250  0.1114  0.5019
  596MPD2     C 8830   4.656   1.348  16.624  0.4134 -1.4195  0.1946
  596MPD2    C1 8831   4.721   1.468  16.598  1.0496 -0.1646  0.3475
  596MPD2    C2 8832   0.069   1.480  16.478 -0.1978  0.8715  0.6400
  596MPD2    C3 8833   0.073   1.384  16.383  0.0570  0.0749 -0.5239
  596MPD2    C4 8834   4.723   1.268  16.395 -0.3074 -0.1685 -0.4154
  596MPD2    C5 8835   4.660   1.258  16.517  0.1940  0.0732 -0.5785
  596MPD2     H 8836   0.111   1.579  16.463  2.6799 -0.7228 -1.8240
  596MPD2    H1 8837   4.710   1.204  16.308  1.7433 -1.2637  0.0824
  596MPD2    H2 8838   4.594   1.323  16.710 -0.7562  3.8130  0.8506
  596MPD2    H3 8839   4.606   1.165  16.526  1.9073 -0.7620  1.0543
  596MPD2     N 8840   0.139   1.402  16.258  0.7040 -0.9758 -0.0239
  596MPD2    H5 8841   0.138   1.323  16.194  1.3719 -0.8723 -0.1581
  596MPD2    N1 8842   0.010   1.577  16.694 -0.0375  0.2572 -0.3302
  596MPD2    H7 8843   0.062   1.662  16.675  0.7742 -0.0100  0.6604
  597TMC3    C1 8844   4.698   1.689  16.898  0.1259  0.7321  0.4661
  597TMC3    C2 8845   0.086   1.766  16.873 -0.8241 -0.7004 -0.4475
  597TMC3    C3 8846   0.120   1.863  16.965 -0.7919  0.0381 -0.2260
  597TMC3    C4 8847   4.623   1.705  17.011  0.4418 -0.7129  0.1773
  597TMC3    C5 8848   4.644   1.816  17.083  0.3571 -0.0060 -0.3997
  597TMC3    C6 8849   0.040   1.891  17.073 -0.5750  0.4760  0.2921
  597TMC3     C 8850   4.669   1.573  16.819 -0.0106 -0.6047  0.6803
  597TMC3     O 8851   4.606   1.488  16.875 -0.6573 -0.2552 -0.0865
  597TMC3     H 8852   0.160   1.720  16.808 -2.2852  0.3741 -2.8657
  597TMC3    H1 8853   4.546   1.631  17.031  0.1628 -0.3172  0.5551
  597TMC3    H2 8854   0.061   1.973  17.141  1.6792  0.8283 -0.8401
  597TMC3    C7 8855   4.547   1.839  17.196  0.4586 -1.0846 -0.5206
  597TMC3    C8 8856   0.261   1.907  16.959  0.4265 -0.2371  0.0134
  597TMC3    O1 8857   4.439   1.797  17.178 -0.0753 -0.1274 -0.0170
  597TMC3    O2 8858   0.332   1.892  16.860  0.2234 -0.4652 -0.2058
  598TMC3    C1 8859   3.455   3.310  15.414 -0.5270  0.2782  0.4314
  598TMC3    C2 8860   3.346   3.233  15.437  0.0952  0.6032  0.1277
  598TMC3    C3 8861   3.237   3.257  15.363 -0.1704  0.6965  0.3551
  598TMC3    C4 8862   3.455   3.415  15.328  0.0224 -0.8446 -0.6384
  598TMC3    C5 8863   3.339   3.428  15.251 -0.2855 -0.2359  0.6372
  598TMC3    C6 8864   3.229   3.351  15.265  0.1426  0.2486  0.0135
  598TMC3     C 8865   3.591   3.260  15.446  0.1406 -0.1463 -0.3958
  598TMC3     O 8866   3.683   3.319  15.388 -0.0088  0.0258 -0.1552
  598TMC3     H 8867   3.346   3.141  15.495 -0.1100 -0.6078 -1.7780
  598TMC3    H1 8868   3.550   3.459  15.299 -2.0717  3.2585 -1.1709
  598TMC3    H2 8869   3.133   3.375  15.221  0.1499  1.6420  0.7425
  598TMC3    C7 8870   3.355   3.488  15.119 -0.4568  0.0363  0.0846
  598TMC3    C8 8871   3.129   3.174  15.392 -0.4253 -0.0612 -0.0175
  598TMC3    O1 8872   3.302   3.423  15.030 -0.4176  0.0827  0.6462
  598TMC3    O2 8873   3.115   3.129  15.505  0.3110  0.1435 -0.0659
  599MPD2     C 8874   3.293   0.956  16.186  0.1919 -0.4707 -0.0625
  599MPD2    C1 8875   3.325   0.859  16.276  0.5767  0.2327  0.4287
  599MPD2    C2 8876   3.221   0.822  16.369  0.5861  0.0269 -0.0739
  599MPD2    C3 8877   3.101   0.894  16.378 -0.9310  0.6218  0.0231
  599MPD2    C4 8878   3.084   1.002  16.295  0.2102  0.2905  0.1402
  599MPD2    C5 8879   3.177   1.026  16.198  0.1738 -0.4075  0.3680
  599MPD2     H 8880   3.245   0.731  16.423  1.0178  0.9171  1.2380
  599MPD2    H1 8881   2.993   1.061  16.293 -0.6078 -0.9355  0.5017
  599MPD2    H2 8882   3.352   0.974  16.097 -0.3432  0.3972 -0.2443
  599MPD2    H3 8883   3.159   1.097  16.118 -1.5146 -2.5459 -1.1306
  599MPD2     N 8884   2.994   0.844  16.454 -0.2730  0.7121 -0.2081
  599MPD2    H5 8885   2.911   0.902  16.456  0.4167  1.6239  1.8624
  599MPD2    N1 8886   3.443   0.780  16.254 -0.7742  0.1123 -0.8100
  599MPD2    H7 8887   3.494   0.802  16.170  2.6597 -0.7264  1.0638
  600TMC3    C1 8888   2.875   0.703  16.606 -0.4650 -0.4051  0.0074
  600TMC3    C2 8889   2.829   0.573  16.610 -0.2688  0.0967 -0.5397
  600TMC3    C3 8890   2.704   0.553  16.659  0.6506  0.1015  0.3003
  600TMC3    C4 8891   2.798   0.809  16.654 -0.2524  0.1551 -0.2345
  600TMC3    C5 8892   2.677   0.779  16.710 -0.8497  0.4218  0.3696
  600TMC3    C6 8893   2.625   0.654  16.710 -0.9130  0.2702 -0.2736
  600TMC3     C 8894   2.995   0.724  16.527 -0.2894  0.4297 -0.8003
  600TMC3     O 8895   3.084   0.635  16.539  0.1045  0.4969  0.6604
  600TMC3     H 8896   2.888   0.496  16.561 -2.6030 -0.4719 -2.4612
  600TMC3    H1 8897   2.839   0.910  16.662 -0.6719  0.0834  2.8541
  600TMC3    H2 8898   2.529   0.643  16.757  0.1409  0.2083  1.8538
  600TMC3    C7 8899   2.626   0.880  16.809  0.2486 -0.0655 -0.3299
  600TMC3    C8 8900   2.645   0.434  16.599  0.5236  0.2473  0.8243
  600TMC3    O1 8901   2.509   0.877  16.841  0.1611 -0.2438  0.7983
  600TMC3    O2 8902   2.714   0.331  16.609  0.5890  0.9016 -0.0429
  601MPD2     C 8903   0.810   3.314  17.505 -0.9390 -0.4792  0.2424
  601MPD2    C1 8904   0.689   3.347  17.562 -0.2318 -0.4437  0.4037
  601MPD2    C2 8905   0.601   3.242  17.572  0.2235 -0.3153  0.1477
  601MPD2    C3 8906   0.638   3.107  17.551 -0.0187 -0.7875  0.3464
  601MPD2    C4 8907   0.759   3.079  17.499 -0.2631  0.0333  0.5730
  601MPD2    C5 8908   0.848   3.184  17.477  0.2306  0.1914 -0.2548
  601MPD2     H 8909   0.502   3.248  17.616 -0.1286 -0.1428 -0.6842
  601MPD2    H1 8910   0.788   2.978  17.473 -0.0238 -0.0427  1.1458
  601MPD2    H2 8911   0.885   3.392  17.496 -0.2753 -0.8030  2.7618
  601MPD2    H3 8912   0.948   3.167  17.438 -1.8475 -0.7798 -5.1086
  601MPD2     N 8913   0.550   2.998  17.579  0.4019 -0.4826  0.0611
  601MPD2    H5 8914   0.586   2.906  17.559 -0.2325 -0.5631 -0.7222
  601MPD2    N1 8915   0.651   3.473  17.602  0.0247  0.4265 -0.0214
  601MPD2    H7 8916   0.558   3.480  17.643  0.6571 -0.0131  1.4878
  602TMC3    C1 8917   0.630   3.707  17.607  1.0989  0.0143  0.6104
  602TMC3    C2 8918   0.687   3.829  17.606 -0.6218 -0.1589  0.4253
  602TMC3    C3 8919   0.608   3.938  17.582  0.2530  0.1241 -0.2681
  602TMC3    C4 8920   0.494   3.692  17.584  0.4401 -0.1486  0.1091
  602TMC3    C5 8921   0.418   3.804  17.562 -0.2749 -0.3664 -0.5030
  602TMC3    C6 8922   0.473   3.929  17.564  0.4428  0.1584 -0.0737
  602TMC3     C 8923   0.721   3.590  17.586 -0.0416  0.5432 -1.1284
  602TMC3     O 8924   0.824   3.615  17.520 -0.5580 -0.2534  0.3987
  602TMC3     H 8925   0.793   3.845  17.620  0.0196 -1.3664 -2.8799
  602TMC3    H1 8926   0.446   3.596  17.563 -1.7870  1.7775 -3.5778
  602TMC3    H2 8927   0.409   4.017  17.560 -1.1896 -0.9558  1.8979
  602TMC3    C7 8928   0.282   3.797  17.511  1.3963 -0.3675  0.5017
  602TMC3    C8 8929   0.672   4.064  17.558  0.0014 -0.2937 -0.3162
  602TMC3    O1 8930   0.215   3.694  17.518  0.2406  0.2075 -0.4560
  602TMC3    O2 8931   0.730   4.113  17.653 -0.2653 -0.3494 -0.1335
  603TMC3    C1 8932   2.915   4.628  11.187 -0.4363 -0.3828  0.1429
  603TMC3    C2 8933   2.939   4.622  11.322 -0.5311  1.1870  0.6074
  603TMC3    C3 8934   3.039   4.706  11.373  0.0649  0.2051  0.2878
  603TMC3    C4 8935   2.976   4.705  11.102 -0.4969 -0.4129  0.1981
  603TMC3    C5 8936   3.072   0.067  11.158  0.8346 -0.1617 -0.8883
  603TMC3    C6 8937   3.110   0.063  11.291 -0.1749 -0.1375 -0.7745
  603TMC3     C 8938   2.844   4.512  11.136  0.2750 -0.3382  0.8174
  603TMC3     O 8939   2.868   4.484  11.020 -0.0131 -0.0224 -0.4181
  603TMC3     H 8940   2.883   4.562  11.392 -0.3236 -2.1333 -2.0426
  603TMC3    H1 8941   2.939   4.706  11.000  1.6420 -1.2915 -0.5669
  603TMC3    H2 8942   3.186   0.134  11.322  0.1737 -0.3001 -1.2475
  603TMC3    C7 8943   3.153   0.144  11.063  0.6875 -0.1878 -0.0429
  603TMC3    C8 8944   3.082   4.682  11.508  0.6920  0.5519 -0.1024
  603TMC3    O1 8945   3.250   0.201  11.112 -0.1961  0.4447  0.1620
  603TMC3    O2 8946   3.010   4.603  11.572  0.4465  0.0492  0.4574
  604MPD2     C 8947   3.799   2.449  16.385  0.6781 -0.2825  0.2830
  604MPD2    C1 8948   3.703   2.509  16.303  0.1616  0.4883 -0.0991
  604MPD2    C2 8949   3.737   2.530  16.170 -0.5421 -0.0841  0.1127
  604MPD2    C3 8950   3.871   2.514  16.129  0.0890 -0.1847  0.1073
  604MPD2    C4 8951   3.960   2.450  16.211 -0.5423  0.3989  0.0427
  604MPD2    C5 8952   3.921   2.411  16.336 -0.2918 -0.0900  0.2534
  604MPD2     H 8953   3.659   2.579  16.114 -0.9994  1.8950  2.5019
  604MPD2    H1 8954   4.057   2.412  16.181 -0.5802  0.2438  0.1163
  604MPD2    H2 8955   3.780   2.432  16.490 -0.4191 -2.0300 -0.1920
  604MPD2    H3 8956   3.998   2.363  16.395 -0.1937  0.1525  0.3221
  604MPD2     N 8957   3.908   2.549  16.002 -0.2352  0.2502  0.3341
  604MPD2    H5 8958   3.830   2.578  15.944  0.1500 -0.0599 -0.3531
  604MPD2    N1 8959   3.585   2.557  16.366 -0.8996 -0.5792  0.2294
  604MPD2    H7 8960   3.570   2.521  16.459  2.1661 -0.6415  0.6945
  605TMC3    C1 8961   3.459   2.737  16.438 -0.1046  0.2007 -0.3090
  605TMC3    C2 8962   3.550   2.750  16.542  0.3153 -0.5056  0.5311
  605TMC3    C3 8963   3.551   2.871  16.599 -0.0614  0.7872 -0.3358
  605TMC3    C4 8964   3.362   2.832  16.396 -0.1935  0.7136  0.3944
  605TMC3    C5 8965   3.377   2.950  16.463  0.2797  0.4965  0.6724
  605TMC3    C6 8966   3.469   2.972  16.564 -0.3997 -0.3877  0.6295
  605TMC3     C 8967   3.511   2.656  16.329 -1.6023  0.6192 -0.1153
  605TMC3     O 8968   3.512   2.724  16.224 -0.1952  0.4955  0.5516
  605TMC3     H 8969   3.603   2.666  16.585  1.2296 -0.3177 -0.2299
  605TMC3    H1 8970   3.309   2.817  16.303 -3.6940  1.2566  2.2925
  605TMC3    H2 8971   3.467   3.064  16.621 -2.4564 -0.0777  0.0518
  605TMC3    C7 8972   3.275   3.056  16.438  0.1782  0.3973 -0.2249
  605TMC3    C8 8973   3.679   2.898  16.659 -0.5884  0.1363  1.3656
  605TMC3    O1 8974   3.172   3.023  16.382  0.1655  0.2109 -0.1637
  605TMC3    O2 8975   3.752   2.804  16.676  0.2972  0.2865 -0.0956
  606TMC3    C1 8976   0.578   0.800  16.948 -0.3010  0.1611  0.0683
  606TMC3    C2 8977   0.713   0.801  16.971 -0.7127  0.8151  0.0454
  606TMC3    C3 8978   0.752   0.835  17.095 -0.0040  0.1529  0.7517
  606TMC3    C4 8979   0.491   0.815  17.051 -0.7318  0.9517 -0.1660
  606TMC3    C5 8980   0.539   0.843  17.173  0.6010  0.3843 -0.2666
  606TMC3    C6 8981   0.668   0.859  17.198  0.3737 -0.0162 -0.1934
  606TMC3     C 8982   0.524   0.794  16.819  0.1581 -0.4919 -0.1132
  606TMC3     O 8983   0.425   0.856  16.783 -0.7442  0.0562 -0.5864
  606TMC3     H 8984   0.790   0.816  16.895 -0.2278  0.2964  0.4308
  606TMC3    H1 8985   0.385   0.818  17.030 -0.2562  3.3572 -2.1081
  606TMC3    H2 8986   0.711   0.873  17.297  0.8645 -2.8722 -0.0155
  606TMC3    C7 8987   0.449   0.865  17.281 -0.3794 -0.1979  0.1208
  606TMC3    C8 8988   0.886   0.864  17.125 -0.0082 -0.0187  0.0004
  606TMC3    O1 8989   0.355   0.788  17.281 -0.3806  0.7452  0.7477
  606TMC3    O2 8990   0.895   0.947  17.218 -0.5354 -0.1537 -0.2667
  607MPD2     C 8991   2.540   4.394  11.682 -0.3150  0.2620 -0.0405
  607MPD2    C1 8992   2.546   4.508  11.757 -0.7417  0.2924 -0.1869
  607MPD2    C2 8993   2.484   4.509  11.880  0.1986 -0.4417 -0.1072
  607MPD2    C3 8994   2.441   4.390  11.943 -0.4785 -0.4980  0.1240
  607MPD2    C4 8995   2.457   4.270  11.875 -0.7946  0.4764 -0.8822
  607MPD2    C5 8996   2.505   4.279  11.744  0.1084  0.3619  0.5544
  607MPD2     H 8997   2.479   4.597  11.943  0.8245 -0.5944  0.1550
  607MPD2    H1 8998   2.429   4.172  11.913 -1.1167  0.9189  0.0147
  607MPD2    H2 8999   2.561   4.400  11.576  0.0261 -2.2272 -0.1174
  607MPD2    H3 9000   2.508   4.190  11.683  0.6960  1.9461 -1.7163
  607MPD2     N 9001   2.387   4.400  12.071 -0.3425 -0.1993  0.0150
  607MPD2    H5 9002   2.372   4.493  12.109  0.2703 -0.0091 -0.2082
  607MPD2    N1 9003   2.591   4.628  11.713 -0.3460 -0.1342  0.6070
  607MPD2    H7 9004   2.587   4.700  11.785 -1.1545 -0.4941  0.9204
  608TMC3    C1 9005   2.699   0.077  11.602 -0.2052 -0.3880  0.4193
  608TMC3    C2 9006   2.717   0.137  11.725  0.5289  0.4008 -0.0957
  608TMC3    C3 9007   2.765   0.265  11.731 -0.0096  0.6418 -0.0179
  608TMC3    C4 9008   2.753   0.140  11.489  0.0888  0.2644  0.5318
  608TMC3    C5 9009   2.828   0.257  11.504  0.7195 -0.4963  0.6705
  608TMC3    C6 9010   2.822   0.323  11.624  0.3205 -0.2784  0.4931
  608TMC3     C 9011   2.651   4.664  11.595  0.3014 -0.5138  0.4559
  608TMC3     O 9012   2.676   4.593  11.496  0.6540 -0.0276 -0.2297
  608TMC3     H 9013   2.718   0.077  11.816  0.3049 -1.3402 -1.2310
  608TMC3    H1 9014   2.744   0.092  11.393 -0.4681 -1.7350  1.5756
  608TMC3    H2 9015   2.884   0.411  11.635 -0.0245 -0.2172  1.8766
  608TMC3    C7 9016   2.886   0.311  11.387  0.3471 -0.5711  1.0032
  608TMC3    C8 9017   2.760   0.341  11.856  0.3854  0.6296  0.2261
  608TMC3    O1 9018   2.819   0.290  11.286  0.0990 -0.0042 -0.0776
  608TMC3    O2 9019   2.821   0.447  11.874 -0.6377  0.9375  0.0754
  609TMC3    C1 9020   0.588   3.972   8.970  0.2961  0.4130  0.4500
  609TMC3    C2 9021   0.536   4.037   8.864 -0.1235  0.4595 -0.9746
  609TMC3    C3 9022   0.605   4.013   8.745  1.2332 -0.7795 -0.0432
  609TMC3    C4 9023   0.685   3.881   8.961  0.8824 -0.8114 -0.8517
  609TMC3    C5 9024   0.749   3.853   8.844 -0.1348  0.1221 -0.5065
  609TMC3    C6 9025   0.705   3.921   8.732  0.1505  0.0330 -0.6963
  609TMC3     C 9026   0.505   3.969   9.087  0.1894 -0.7750  0.0035
  609TMC3     O 9027   0.537   3.891   9.177  0.2329 -0.0372 -0.5634
  609TMC3     H 9028   0.438   4.083   8.871 -0.2466  0.0144  0.0983
  609TMC3    H1 9029   0.717   3.837   9.055  1.2521 -0.9415 -1.0384
  609TMC3    H2 9030   0.748   3.903   8.635  1.8753  1.2709 -0.1635
  609TMC3    C7 9031   0.853   3.761   8.841 -0.0322 -0.2707 -0.2325
  609TMC3    C8 9032   0.563   4.065   8.611  0.2876 -0.0242 -0.1270
  609TMC3    O1 9033   0.884   3.723   8.953 -0.0050 -0.7140 -0.1012
  609TMC3    O2 9034   0.593   4.000   8.508 -0.1670 -0.0006  0.0605
  610TMC3    C1 9035   2.827   4.640  12.807 -0.6107 -0.2845  0.1128
  610TMC3    C2 9036   2.824   4.673  12.673  0.4250  0.0923 -0.1458
  610TMC3    C3 9037   2.938   4.699  12.610 -0.7571 -0.5305 -0.8279
  610TMC3    C4 9038   2.938   4.651  12.875 -0.4189  0.1301  0.0843
  610TMC3    C5 9039   3.056   4.674  12.812  0.0600 -1.2152 -0.6179
  610TMC3    C6 9040   3.055   4.711  12.680 -1.2308 -0.8494 -0.0135
  610TMC3     C 9041   2.725   4.566  12.869  0.0549  0.0825  0.3776
  610TMC3     O 9042   2.750   4.502  12.968 -0.5336 -0.0405  0.1628
  610TMC3     H 9043   2.729   4.656  12.623 -0.6642  0.0882  1.8978
  610TMC3    H1 9044   2.956   4.613  12.975 -0.8586  1.2914  0.6037
  610TMC3    H2 9045   3.145   4.720  12.621  0.0503 -1.4949  1.8649
  610TMC3    C7 9046   3.162   4.575  12.841  0.7322  0.2843  0.1415
  610TMC3    C8 9047   2.943   0.001  12.474 -0.0655 -0.1255 -0.0257
  610TMC3    O1 9048   3.153   4.497  12.933 -0.6958 -0.0028 -0.7977
  610TMC3    O2 9049   3.025   0.080  12.430  0.4021  0.1690 -0.2600
  611MPD2     C 9050   2.339   4.651  10.426  0.0232  0.2863  0.4172
  611MPD2    C1 9051   2.328   0.008  10.315 -0.5469 -0.5973 -0.2485
  611MPD2    C2 9052   2.444   0.069  10.260 -0.0541 -0.0108 -0.1557
  611MPD2    C3 9053   2.566   0.051  10.329  0.2174  0.2031  0.4546
  611MPD2    C4 9054   2.570   4.693  10.438  0.7482  0.2222  0.5669
  611MPD2    C5 9055   2.456   4.624  10.479  0.7101  0.1975 -0.4011
  611MPD2     H 9056   2.439   0.126  10.168  0.3638 -0.6175 -0.5519
  611MPD2    H1 9057   2.659   4.670  10.494  0.0903 -1.9815  0.7284
  611MPD2    H2 9058   2.256   4.594  10.465 -1.9115  1.5848 -1.7809
  611MPD2    H3 9059   2.460   4.546  10.554 -1.1111  1.3464  0.8938
  611MPD2     N 9060   2.689   0.109  10.293  0.0554 -0.2926 -0.0438
  611MPD2    H5 9061   2.755   0.119  10.369 -0.3553 -1.0655  0.4043
  611MPD2    N1 9062   2.193   0.032  10.270  0.6255 -0.2059  0.2830
  611MPD2    H7 9063   2.117   4.700  10.310  1.3363 -1.3295  0.0640
  612TMC3    C1 9064   2.829   0.260  10.173 -0.3808  0.4774  0.2375
  612TMC3    C2 9065   2.937   0.221  10.250  0.6867 -0.8680 -0.0983
  612TMC3    C3 9066   3.051   0.300  10.239 -0.3086  0.3377 -0.1268
  612TMC3    C4 9067   2.833   0.362  10.081 -0.9876 -0.4736 -0.6118
  612TMC3    C5 9068   2.944   0.445  10.091  0.0147  0.4027  0.0266
  612TMC3    C6 9069   3.048   0.416  10.169 -0.5235 -0.0868  0.4889
  612TMC3     C 9070   2.707   0.188  10.174  0.6282  0.2184  0.0022
  612TMC3     O 9071   2.636   0.212  10.078  0.1401 -1.0920 -0.2593
  612TMC3     H 9072   2.955   0.127  10.301 -0.5591 -0.4893  1.0496
  612TMC3    H1 9073   2.742   0.390  10.029 -0.4371  2.0990 -0.1798
  612TMC3    H2 9074   3.135   0.479  10.156 -1.8729  1.7642  0.5820
  612TMC3    C7 9075   2.960   0.552   9.994  0.3413  0.0773 -0.0738
  612TMC3    C8 9076   3.148   0.298  10.346  0.4943 -0.5657 -0.1839
  612TMC3    O1 9077   3.078   0.568   9.957 -0.2796  0.0378 -0.0439
  612TMC3    O2 9078   3.236   0.377  10.331  0.1804 -0.1723 -0.0648
  613MPD2     C 9079   1.587   2.350  16.344  0.1710 -0.5965  0.7007
  613MPD2    C1 9080   1.515   2.317  16.240  0.6690 -0.3408 -0.7409
  613MPD2    C2 9081   1.561   2.224  16.151  0.1993  0.2987  0.2352
  613MPD2    C3 9082   1.679   2.158  16.175 -0.5355  0.6196 -0.0821
  613MPD2    C4 9083   1.757   2.205  16.287  0.7509 -0.2763 -0.3828
  613MPD2    C5 9084   1.717   2.307  16.361  0.5976  0.5700 -0.1746
  613MPD2     H 9085   1.499   2.196  16.067  0.8011 -0.0410 -0.0943
  613MPD2    H1 9086   1.859   2.171  16.300 -0.0073 -2.5130 -0.2434
  613MPD2    H2 9087   1.559   2.411  16.429  2.9661 -0.1569  1.2756
  613MPD2    H3 9088   1.775   2.328  16.450  1.0571 -1.0491 -0.1003
  613MPD2     N 9089   1.733   2.054  16.096 -0.5380 -0.0419 -0.2373
  613MPD2    H5 9090   1.827   2.022  16.118 -0.3592  0.9461  0.4596
  613MPD2    N1 9091   1.390   2.374  16.236 -0.2260 -0.1295 -0.2060
  613MPD2    H7 9092   1.385   2.455  16.297 -0.5260  0.6247 -1.2399
  614TMC3    C1 9093   1.209   2.460  16.131  0.1863  0.2135 -0.8101
  614TMC3    C2 9094   1.286   2.552  16.078 -0.2270  0.4911  0.4244
  614TMC3    C3 9095   1.242   2.618  15.960  0.9158 -0.5677 -0.3828
  614TMC3    C4 9096   1.095   2.427  16.063 -0.0158 -0.8515 -0.2367
  614TMC3    C5 9097   1.067   2.472  15.938 -0.4254 -0.5394  0.6160
  614TMC3    C6 9098   1.143   2.565  15.882 -0.2584 -0.3647 -0.0552
  614TMC3     C 9099   1.290   2.348  16.149  0.1086  0.2397 -0.6338
  614TMC3     O 9100   1.263   2.244  16.092 -0.2111  0.4580  0.6011
  614TMC3     H 9101   1.373   2.592  16.129  0.8164 -1.8528  0.4702
  614TMC3    H1 9102   1.030   2.344  16.090  0.7544 -1.3862 -0.0265
  614TMC3    H2 9103   1.103   2.595  15.786  2.8988  0.0875 -1.2192
  614TMC3    C7 9104   0.952   2.431  15.882  0.7771  0.6599  0.0043
  614TMC3    C8 9105   1.353   2.658  15.876 -0.0792 -0.2048 -0.0017
  614TMC3    O1 9106   0.859   2.441  15.961  0.1118 -0.3217 -0.0471
  614TMC3    O2 9107   1.462   2.670  15.928 -0.8663 -0.5092  0.4152
  615MPD2     C 9108   1.029   3.282  15.726 -0.7152 -0.3495  0.6429
  615MPD2    C1 9109   0.899   3.299  15.772  0.2482 -0.5639  0.2176
  615MPD2    C2 9110   0.815   3.374  15.691  0.3895 -0.1652  0.4438
  615MPD2    C3 9111   0.856   3.446  15.580  0.3350  0.8241  0.0174
  615MPD2    C4 9112   0.987   3.441  15.554 -0.0887  0.6493  0.7174
  615MPD2    C5 9113   1.072   3.350  15.617  0.2708  0.4771 -0.3613
  615MPD2     H 9114   0.715   3.388  15.731  1.7224 -0.4160  3.9098
  615MPD2    H1 9115   1.040   3.498  15.478 -0.7702  1.2462  0.6907
  615MPD2    H2 9116   1.095   3.226  15.791  1.2908 -0.0381 -1.1424
  615MPD2    H3 9117   1.172   3.349  15.577  0.9580 -2.4777  1.4601
  615MPD2     N 9118   0.776   3.541  15.513 -0.7904  0.3481  0.1099
  615MPD2    H5 9119   0.826   3.603  15.450 -1.0785  0.0420 -0.4217
  615MPD2    N1 9120   0.847   3.237  15.891 -0.1923  0.3642  0.4626
  615MPD2    H7 9121   0.748   3.255  15.904 -0.5805 -1.6725  0.1954
  616TMC3    C1 9122   0.838   3.166  16.108  0.7144 -0.5002  0.0408
  616TMC3    C2 9123   0.915   3.162  16.223 -0.7492  0.6004 -0.4710
  616TMC3    C3 9124   0.852   3.107  16.335 -0.6835  0.1213  0.6547
  616TMC3    C4 9125   0.703   3.127  16.106  0.5189  0.3900 -0.3422
  616TMC3    C5 9126   0.655   3.069  16.220  0.3151 -0.1269 -0.4904
  616TMC3    C6 9127   0.728   3.050  16.333 -0.0458  0.4777  0.1868
  616TMC3     C 9128   0.918   3.177  15.989 -0.0712 -0.3887 -0.7024
  616TMC3     O 9129   1.042   3.163  15.997 -0.3833 -0.2919 -0.0214
  616TMC3     H 9130   1.020   3.190  16.220 -1.0279  1.8428  1.3419
  616TMC3    H1 9131   0.656   3.107  16.010 -0.9769 -1.7897  0.8469
  616TMC3    H2 9132   0.698   3.009  16.429 -0.9569  0.3916 -0.1349
  616TMC3    C7 9133   0.514   3.027  16.234 -0.6990  0.2385  0.1025
  616TMC3    C8 9134   0.921   3.104  16.462 -0.2881 -0.6365 -0.0766
  616TMC3    O1 9135   0.482   2.993  16.345  0.0263 -0.3621  0.2195
  616TMC3    O2 9136   0.868   3.052  16.556 -0.2344  0.0857  0.3070
  617MPD2     C 9137   3.842   1.684  13.792 -0.5326 -0.2611  0.1273
  617MPD2    C1 9138   3.837   1.580  13.880 -0.4468 -0.7449 -0.0305
  617MPD2    C2 9139   3.718   1.518  13.892  0.4197 -0.3900 -0.1361
  617MPD2    C3 9140   3.604   1.551  13.810 -0.0849  0.7342  0.1839
  617MPD2    C4 9141   3.615   1.650  13.715 -0.1107 -0.1762  0.0669
  617MPD2    C5 9142   3.737   1.717  13.706 -0.8689 -0.1286 -0.4816
  617MPD2     H 9143   3.704   1.441  13.966 -2.3585 -0.2567 -0.5057
  617MPD2    H1 9144   3.527   1.681  13.659  0.2410  0.0232 -0.3708
  617MPD2    H2 9145   3.933   1.741  13.778 -1.1135  0.5499 -0.2936
  617MPD2    H3 9146   3.757   1.805  13.645 -0.4333  0.3604  0.3684
  617MPD2     N 9147   3.476   1.491  13.825  0.1312  0.0486  0.9231
  617MPD2    H5 9148   3.405   1.511  13.755  1.0076  2.5038  0.7264
  617MPD2    N1 9149   3.951   1.547  13.958  0.4637 -0.1992 -0.2859
  617MPD2    H7 9150   4.031   1.609  13.953 -0.4937  1.0756  0.0739
  618TMC3    C1 9151   4.104   1.419  14.073  0.5492  0.1187 -0.1892
  618TMC3    C2 9152   4.137   1.290  14.039 -0.6018  1.0919 -0.3082
  618TMC3    C3 9153   4.268   1.260  14.014  0.4192 -0.3218  0.8896
  618TMC3    C4 9154   4.192   1.518  14.085  0.1932  0.2159  0.4104
  618TMC3    C5 9155   4.324   1.490  14.056 -0.6098  0.1491 -0.4742
  618TMC3    C6 9156   4.361   1.358  14.030  0.0182 -0.2511  0.2124
  618TMC3     C 9157   3.965   1.443  14.051  0.2998 -0.5494  0.8620
  618TMC3     O 9158   3.891   1.348  14.078  0.3568 -0.8098 -0.1780
  618TMC3     H 9159   4.055   1.222  14.016 -0.0996  0.4581 -0.2296
  618TMC3    H1 9160   4.176   1.611  14.138 -1.9228  0.8772 -1.4151
  618TMC3    H2 9161   4.465   1.328  14.041 -0.7388 -2.7983  0.4925
  618TMC3    C7 9162   4.430   1.584  14.096 -0.2889  0.2553 -0.3911
  618TMC3    C8 9163   4.289   1.170  13.900 -0.0854  0.6774 -0.4275
  618TMC3    O1 9164   4.416   1.643  14.200  0.6793  0.4056  0.3135
  618TMC3    O2 9165   4.190   1.135  13.836 -0.3700  0.0147 -0.2998
  619MPD2     C 9166   0.083   3.130  13.677 -0.7847 -0.2711  0.4755
  619MPD2    C1 9167   0.079   3.017  13.592  0.4118  0.0850  0.5225
  619MPD2    C2 9168   4.687   2.942  13.587 -0.5902 -0.0709 -0.9001
  619MPD2    C3 9169   4.573   2.979  13.657  0.1852  1.3331  0.4585
  619MPD2    C4 9170   4.583   3.086  13.742 -0.0207  0.1867 -0.2180
  619MPD2    C5 9171   4.692   3.162  13.745 -0.4290 -0.1238  0.1699
  619MPD2     H 9172   4.684   2.848  13.534 -1.6955 -0.4570 -0.1485
  619MPD2    H1 9173   4.500   3.126  13.800 -0.0858 -0.4840  0.1516
  619MPD2    H2 9174   0.160   3.206  13.686 -1.1312  0.1353  0.0124
  619MPD2    H3 9175   4.681   3.249  13.809  0.8997 -1.1260  1.7645
  619MPD2     N 9176   4.449   2.901  13.656 -0.5080  0.3763  0.1781
  619MPD2    H5 9177   4.375   2.938  13.715 -0.6271 -0.0949  0.3203
  619MPD2    N1 9178   0.177   2.979  13.494  0.0722 -0.0298 -0.1161
  619MPD2    H7 9179   0.157   2.908  13.424 -0.8969  1.0916 -0.9782
  620TMC3    C1 9180   0.376   3.016  13.380  0.5559  0.0259 -0.5309
  620TMC3    C2 9181   0.293   3.080  13.289 -0.6282 -0.3239 -0.3684
  620TMC3    C3 9182   0.310   3.213  13.251 -0.3546  0.2877  0.0958
  620TMC3    C4 9183   0.502   3.065  13.398 -1.3459 -0.5255 -0.0460
  620TMC3    C5 9184   0.537   3.181  13.337 -0.0405 -0.3159 -0.0797
  620TMC3    C6 9185   0.441   3.257  13.276  0.2797  0.6039 -0.7108
  620TMC3     C 9186   0.307   3.006  13.506 -0.4043 -0.1133 -0.4681
  620TMC3     O 9187   0.376   3.049  13.605  0.1936 -0.2763 -0.6059
  620TMC3     H 9188   0.197   3.032  13.273 -0.9927  0.1931  0.3111
  620TMC3    H1 9189   0.570   3.021  13.471 -1.5977 -0.3871  0.2732
  620TMC3    H2 9190   0.468   3.362  13.272  0.0631  0.6807 -0.1405
  620TMC3    C7 9191   0.621   3.267  13.416 -0.0862  0.3837 -0.6539
  620TMC3    C8 9192   0.214   3.301  13.316  0.2478  0.2649  0.1153
  620TMC3    O1 9193   0.677   3.358  13.359 -0.1042 -0.1664  1.0520
  620TMC3    O2 9194   0.250   3.403  13.377  0.0682  0.0964 -0.0783
  621MPD2     C 9195   0.394   2.458  10.125 -0.8962  0.2661 -0.4658
  621MPD2    C1 9196   0.449   2.455   9.994  0.0357  0.7798 -0.0415
  621MPD2    C2 9197   0.467   2.571   9.922  0.1817  0.1802 -0.4885
  621MPD2    C3 9198   0.434   2.692   9.965  0.2303 -0.0906  0.2264
  621MPD2    C4 9199   0.373   2.693  10.086  0.5785 -0.0205  0.2661
  621MPD2    C5 9200   0.352   2.576  10.165  0.1525  0.0489  1.5040
  621MPD2     H 9201   0.507   2.571   9.822  3.0167  0.6223  0.6429
  621MPD2    H1 9202   0.327   2.783  10.124  1.4708  0.2921  0.5949
  621MPD2    H2 9203   0.381   2.368  10.184  0.4977  0.6710  0.4486
  621MPD2    H3 9204   0.290   2.590  10.252 -1.7203 -2.4952  0.6053
  621MPD2     N 9205   0.448   2.802   9.878  0.6688  0.0261  0.7500
  621MPD2    H5 9206   0.483   2.788   9.784 -1.9291  1.6898 -0.4544
  621MPD2    N1 9207   0.487   2.339   9.934 -0.2255 -0.9463  0.5431
  621MPD2    H7 9208   0.526   2.352   9.842  0.4129  0.3534  1.0061
  622TMC3    C1 9209   0.503   2.106   9.888 -0.9476  0.4807  0.0223
  622TMC3    C2 9210   0.469   1.984   9.939 -0.2110 -0.0815 -0.1947
  622TMC3    C3 9211   0.448   1.881   9.854 -0.4065  0.3716  0.2391
  622TMC3    C4 9212   0.536   2.127   9.758  0.7004  0.2160  0.7437
  622TMC3    C5 9213   0.520   2.015   9.678  0.8083 -0.3278 -0.0751
  622TMC3    C6 9214   0.465   1.902   9.718  0.0268 -0.1517 -1.0710
  622TMC3     C 9215   0.462   2.214   9.980 -0.4757 -0.3592  0.4470
  622TMC3     O 9216   0.400   2.177  10.082 -0.0774  0.0998  0.2302
  622TMC3     H 9217   0.437   1.974  10.042  0.6165  2.0286  0.2647
  622TMC3    H1 9218   0.570   2.224   9.723 -1.4909  0.8680  0.4464
  622TMC3    H2 9219   0.439   1.827   9.645 -0.6180 -0.4466 -0.5397
  622TMC3    C7 9220   0.534   2.023   9.530  0.0349 -0.5362  0.7489
  622TMC3    C8 9221   0.392   1.751   9.890  0.8804 -0.1171  1.1963
  622TMC3    O1 9222   0.546   1.913   9.479 -0.4957  0.4953  0.5898
  622TMC3    O2 9223   0.461   1.653   9.866 -0.2496 -1.2023 -0.1619
  623MPD2     C 9224   3.738   3.000  16.301 -0.0235 -0.4064 -0.6232
  623MPD2    C1 9225   3.804   3.115  16.307  0.3099 -0.0135 -0.3683
  623MPD2    C2 9226   3.940   3.112  16.330 -0.6408  0.1091 -0.2219
  623MPD2    C3 9227   4.009   2.989  16.344 -0.2085  0.2769 -0.5175
  623MPD2    C4 9228   3.938   2.872  16.327 -0.0770  0.6903 -0.2769
  623MPD2    C5 9229   3.803   2.876  16.303 -0.0449  0.6807 -0.0257
  623MPD2     H 9230   4.003   3.199  16.346  0.5797 -0.2457 -3.0041
  623MPD2    H1 9231   3.967   2.769  16.344  0.5771  1.3497  2.6351
  623MPD2    H2 9232   3.632   2.983  16.289 -0.2519  0.6662 -0.0638
  623MPD2    H3 9233   3.748   2.783  16.301 -0.8309  1.1202  0.8329
  623MPD2     N 9234   4.142   2.991  16.383  0.0688 -0.2620 -0.1745
  623MPD2    H5 9235   4.190   3.079  16.398 -0.0894 -0.2092  0.0162
  623MPD2    N1 9236   3.745   3.240  16.290  0.3167  0.3946  0.1610
  623MPD2    H7 9237   3.807   3.320  16.300  2.1018 -1.4023  3.4967
  624TMC3    C1 9238   4.494   2.866  16.645 -0.1017 -0.9872  0.0765
  624TMC3    C2 9239   4.465   2.972  16.725  0.1386  0.2109  0.1290
  624TMC3    C3 9240   4.372   3.061  16.687  0.0653  0.1565 -0.3198
  624TMC3    C4 9241   4.434   2.841  16.524  0.3047  0.6279  0.7043
  624TMC3    C5 9242   4.343   2.939  16.487 -0.0125 -0.2630  0.6446
  624TMC3    C6 9243   4.312   3.050  16.571  0.3442 -0.0214  0.2769
  624TMC3     C 9244   4.603   2.774  16.682 -0.1966  0.0730  1.1066
  624TMC3     O 9245   4.645   2.785  16.795  0.5925  0.5066  0.4129
  624TMC3     H 9246   4.513   2.976  16.821 -1.7200 -2.8502  1.1913
  624TMC3    H1 9247   4.440   2.744  16.475 -1.1076  1.5623 -1.3101
  624TMC3    H2 9248   4.249   3.135  16.549 -1.9293 -1.2341  2.1628
  624TMC3    C7 9249   4.223   2.890  16.424  0.1054 -0.5906 -0.3711
  624TMC3    C8 9250   4.278   3.088  16.790  0.0209 -0.4500  0.0992
  624TMC3    O1 9251   4.200   2.771  16.431 -0.1215  0.6513 -0.7072
  624TMC3    O2 9252   4.325   3.098  16.901 -0.6843 -0.8347 -0.2637
  625MPD2     C 9253   4.532   4.071   0.310 -0.2231  0.3283 -0.9572
  625MPD2    C1 9254   4.655   4.131   0.338 -0.6635  0.1492  0.1505
  625MPD2    C2 9255   0.033   4.062   0.402 -0.6262 -0.0319  0.2887
  625MPD2    C3 9256   0.017   3.928   0.445 -0.5257 -0.6275 -0.0579
  625MPD2    C4 9257   4.624   3.865   0.409 -0.3101 -0.3040  1.2572
  625MPD2    C5 9258   4.526   3.938   0.341 -0.2308  0.3612 -0.0850
  625MPD2     H 9259   0.124   4.114   0.431 -0.9257 -0.4402  1.9847
  625MPD2    H1 9260   4.608   3.758   0.416  0.8673 -0.4519  1.6899
  625MPD2    H2 9261   4.453   4.123   0.255  0.6093  0.8956 -1.6108
  625MPD2    H3 9262   4.431   3.896   0.311 -1.1577  1.9454  0.5955
  625MPD2     N 9263   0.112   3.866   0.520 -0.1898  0.0079  0.1870
  625MPD2    H5 9264   0.201   3.910   0.541 -0.8397  1.2142  0.3803
  625MPD2    N1 9265   4.678   4.268   0.301 -0.5285 -0.3538  0.1069
  625MPD2    H7 9266   0.042   4.305   0.336 -0.6541  1.3529 -1.4187
  626TMC3    C1 9267   4.645   4.478   0.186 -0.3289  0.0746  0.7629
  626TMC3    C2 9268   4.567   4.555   0.102  0.5078 -0.1182 -0.4648
  626TMC3    C3 9269   4.608   4.677   0.068  0.2432  0.5469  0.6271
  626TMC3    C4 9270   0.036   4.534   0.240  0.4340  0.8760 -0.9537
  626TMC3    C5 9271   0.073   4.659   0.201 -0.6254  0.1145 -0.2201
  626TMC3    C6 9272   0.009   0.003   0.103 -0.7027 -0.4007 -0.2140
  626TMC3     C 9273   4.592   4.352   0.223 -0.8032  0.7207 -0.2812
  626TMC3     O 9274   4.485   4.326   0.175  0.0577 -0.1972 -0.3922
  626TMC3     H 9275   4.478   4.517   0.053  0.3023 -2.4817  1.7395
  626TMC3    H1 9276   0.108   4.482   0.302 -0.0296  2.2130  0.7063
  626TMC3    H2 9277   0.039   0.100   0.065 -1.8350 -0.0884 -0.3036
  626TMC3    C7 9278   0.151   0.025   0.282  0.0784 -0.0563  1.1384
  626TMC3    C8 9279   4.534   0.031  17.673 -0.5609 -0.4653  0.1664
  626TMC3    O1 9280   0.187   0.132   0.238 -0.2516  0.2828  0.0334
  626TMC3    O2 9281   4.602   0.103  17.600 -0.3971 -0.2947 -0.1917
  627MPD2     C 9282   2.996   0.086  14.583 -0.5773 -0.5603  0.0933
  627MPD2    C1 9283   3.115   0.079  14.521 -0.5728 -0.0827 -0.1292
  627MPD2    C2 9284   3.127   4.700  14.433 -0.0027 -0.5687 -0.1120
  627MPD2    C3 9285   3.030   4.605  14.405 -0.8393 -0.6312  0.3917
  627MPD2    C4 9286   2.914   4.608  14.476 -0.2549 -0.2724  0.3190
  627MPD2    C5 9287   2.895   4.716  14.558  0.1403 -0.2609  0.3645
  627MPD2     H 9288   3.220   4.696  14.378  1.0894 -0.8895  1.7487
  627MPD2    H1 9289   2.840   4.529  14.470  0.8679 -1.3886  1.1353
  627MPD2    H2 9290   2.966   0.160  14.657  0.4754 -0.6552  0.6261
  627MPD2    H3 9291   2.800   0.002  14.609 -0.2952  2.0659 -0.8908
  627MPD2     N 9292   3.069   4.505  14.314 -0.1628  0.1378  0.5699
  627MPD2    H5 9293   3.162   4.516  14.273  0.1826 -1.3041  0.9606
  627MPD2    N1 9294   3.219   0.169  14.534  0.5936  0.3343 -0.9044
  627MPD2    H7 9295   3.306   0.136  14.496 -0.0701 -3.0965  0.5088
  628TMC3    C1 9296   3.327   0.363  14.607 -0.7621  0.1978  0.0371
  628TMC3    C2 9297   3.447   0.298  14.592 -0.8295 -0.3314  0.2176
  628TMC3    C3 9298   3.559   0.362  14.566 -0.7735 -0.0042 -0.5098
  628TMC3    C4 9299   3.325   0.503  14.588 -0.1531 -0.5042 -0.1979
  628TMC3    C5 9300   3.444   0.562  14.549  1.0445 -0.3873 -0.7722
  628TMC3    C6 9301   3.560   0.492  14.519 -0.2326 -0.4363 -0.7127
  628TMC3     C 9302   3.198   0.299  14.584 -0.3835  0.4164  0.1987
  628TMC3     O 9303   3.092   0.358  14.608  0.9007 -0.2669  0.0544
  628TMC3     H 9304   3.460   0.193  14.618  2.0094 -0.2231 -0.7422
  628TMC3    H1 9305   3.236   0.565  14.591  0.1479  0.0106 -2.4214
  628TMC3    H2 9306   3.648   0.554  14.511 -1.6013  1.4909 -0.7058
  628TMC3    C7 9307   3.428   0.690  14.486 -0.7294  0.2115  0.1368
  628TMC3    C8 9308   3.678   0.295  14.617  0.4544 -0.2354  0.0127
  628TMC3    O1 9309   3.486   0.707  14.379 -0.3387  0.1792  0.0484
  628TMC3    O2 9310   3.666   0.197  14.690 -0.0677  0.0941  0.6603
  629MPD2     C 9311   1.333   3.160  16.746  0.2133 -0.2319  0.0420
  629MPD2    C1 9312   1.352   3.227  16.630 -0.0952  0.3041  0.0097
  629MPD2    C2 9313   1.246   3.229  16.534  0.5202 -0.2310 -0.5500
  629MPD2    C3 9314   1.140   3.149  16.562  0.3446  0.3798 -0.0749
  629MPD2    C4 9315   1.120   3.081  16.683 -0.4500  1.1219 -0.0822
  629MPD2    C5 9316   1.222   3.089  16.774 -0.5717  0.0095 -0.4045
  629MPD2     H 9317   1.257   3.286  16.442  2.5846  0.8987  0.3891
  629MPD2    H1 9318   1.037   3.013  16.701  0.5581 -0.1557 -0.2620
  629MPD2    H2 9319   1.401   3.165  16.831  1.8045  0.7573 -1.2940
  629MPD2    H3 9320   1.215   3.040  16.870 -2.3894 -1.1343 -1.1208
  629MPD2     N 9321   1.045   3.159  16.458  0.1993  0.2597  0.2390
  629MPD2    H5 9322   1.073   3.212  16.376  1.6087 -0.3771  0.3072
  629MPD2    N1 9323   1.471   3.287  16.614  0.6546  0.2710  0.7873
  629MPD2    H7 9324   1.533   3.281  16.694 -2.3430 -1.0524  3.0118
  630TMC3    C1 9325   1.666   3.401  16.526 -0.2461 -0.2412  0.6540
  630TMC3    C2 9326   1.719   3.466  16.419 -0.3824  0.0833 -0.3300
  630TMC3    C3 9327   1.851   3.476  16.419  0.3418 -0.4981  0.6637
  630TMC3    C4 9328   1.745   3.336  16.619  0.1836  0.1473 -0.3231
  630TMC3    C5 9329   1.879   3.335  16.609  0.2563  0.5381  0.4299
  630TMC3    C6 9330   1.937   3.399  16.502 -0.5787  0.3889  0.3600
  630TMC3     C 9331   1.524   3.362  16.510 -0.0659 -0.0756 -0.0200
  630TMC3     O 9332   1.476   3.385  16.400 -0.2016  0.2272 -0.2897
  630TMC3     H 9333   1.648   3.523  16.360  0.5684 -0.9968 -2.4733
  630TMC3    H1 9334   1.700   3.262  16.684 -1.2541  0.7634 -0.6168
  630TMC3    H2 9335   2.044   3.409  16.489 -0.6907  1.3590  0.2253
  630TMC3    C7 9336   1.942   3.360  16.738  0.3442 -0.0367  1.5765
  630TMC3    C8 9337   1.916   3.608  16.407 -0.8483 -0.4307 -0.0098
  630TMC3    O1 9338   1.898   3.295  16.830 -0.3173 -0.8946  0.1363
  630TMC3    O2 9339   1.980   3.640  16.506 -0.0894 -0.0954  0.1987
  631MPD2     C 9340   4.475   3.763  15.217  0.3749  0.3402 -0.4583
  631MPD2    C1 9341   4.538   3.883  15.246 -0.3398 -0.4910 -0.5744
  631MPD2    C2 9342   4.678   3.892  15.256  0.2703  0.0967 -0.4245
  631MPD2    C3 9343   0.033   3.777  15.236 -0.3173 -0.6147  0.5353
  631MPD2    C4 9344   4.688   3.659  15.202 -0.2874 -0.4750 -0.5176
  631MPD2    C5 9345   4.548   3.646  15.189 -1.0328 -0.4084 -0.0351
  631MPD2     H 9346   0.013   3.977  15.289 -1.1692  1.8479 -2.4045
  631MPD2    H1 9347   0.023   3.570  15.184  1.1434  0.0419  1.5552
  631MPD2    H2 9348   4.368   3.747  15.218  0.3923  0.2087 -1.7856
  631MPD2    H3 9349   4.487   3.558  15.176 -0.7799 -0.2123 -2.4398
  631MPD2     N 9350   0.172   3.786  15.276  0.4676  0.0197 -0.0913
  631MPD2    H5 9351   0.205   3.875  15.314 -1.5311 -0.0081  1.7213
  631MPD2    N1 9352   4.465   4.002  15.264  0.0495  0.1826  0.0062
  631MPD2    H7 9353   4.523   4.077  15.301 -0.2629  1.6257 -2.4197
  632TMC3    C1 9354   4.315   4.163  15.308  0.2774  0.3817 -0.4073
  632TMC3    C2 9355   4.279   4.183  15.440  1.4781 -0.4466 -0.0064
  632TMC3    C3 9356   4.362   4.265  15.513 -1.0531 -0.0138  0.1779
  632TMC3    C4 9357   4.417   4.223  15.248 -0.5568  0.4759  0.0581
  632TMC3    C5 9358   4.497   4.300  15.327 -0.7271 -0.0350  0.4021
  632TMC3    C6 9359   4.474   4.323  15.460  0.2110 -0.8645  0.2472
  632TMC3     C 9360   4.328   4.022  15.267  0.4780  0.2103  0.1814
  632TMC3     O 9361   4.226   3.956  15.259 -0.5760  0.4211 -0.1291
  632TMC3     H 9362   4.195   4.130  15.484 -1.3582  1.6729 -2.9026
  632TMC3    H1 9363   4.430   4.225  15.140  1.5804  1.0571  0.3202
  632TMC3    H2 9364   4.547   4.387  15.510  1.4199 -0.3403 -2.2209
  632TMC3    C7 9365   4.638   4.298  15.279 -0.3466 -0.0014  0.0193
  632TMC3    C8 9366   4.359   4.226  15.658  0.4255 -0.3932 -0.7095
  632TMC3    O1 9367   4.722   4.339  15.357 -0.0594  0.9335 -0.2452
  632TMC3    O2 9368   4.258   4.173  15.708  1.0852  0.1329 -0.2739
  633MPD2     C 9369   4.216   1.610  17.465  0.3553  0.3235  0.3513
  633MPD2    C1 9370   4.218   1.493  17.399  0.3604  0.4432  0.0302
  633MPD2    C2 9371   4.241   1.372  17.461  0.5573 -0.6839 -0.1293
  633MPD2    C3 9372   4.273   1.365  17.597 -0.5088  0.3796 -0.0645
  633MPD2    C4 9373   4.269   1.482  17.670 -0.6317  0.5504  0.1983
  633MPD2    C5 9374   4.245   1.604  17.603  0.5926  0.5859 -0.0774
  633MPD2     H 9375   4.263   1.284  17.401  3.6045 -0.9345  1.3383
  633MPD2    H1 9376   4.298   1.481   0.079 -1.9583  3.5192  0.6071
  633MPD2    H2 9377   4.199   1.707  17.421 -0.8810  0.1413  0.4217
  633MPD2    H3 9378   4.234   1.695  17.661 -0.3853  0.9895 -0.8977
  633MPD2     N 9379   4.325   1.254  17.662  0.3670  0.1621  0.4733
  633MPD2    H5 9380   4.372   1.275   0.054  0.4762 -3.2138  1.2549
  633MPD2    N1 9381   4.202   1.483  17.259 -0.1392  0.7469  0.6301
  633MPD2    H7 9382   4.234   1.394  17.221 -0.9560  0.6100  0.2678
  634TMC3    C1 9383   4.177   1.579  17.047 -0.0165 -0.2691  1.2333
  634TMC3    C2 9384   4.194   1.454  16.993 -0.1660 -0.2296 -0.4335
  634TMC3    C3 9385   4.263   1.446  16.877 -0.3766 -0.3090 -0.2274
  634TMC3    C4 9386   4.222   1.692  16.980 -0.0551 -0.2971  0.2064
  634TMC3    C5 9387   4.284   1.680  16.863 -0.2572 -0.1750  0.8251
  634TMC3    C6 9388   4.309   1.557  16.813 -0.7943  0.7432  0.3316
  634TMC3     C 9389   4.152   1.588  17.181  0.8879 -0.0158  0.2246
  634TMC3     O 9390   4.118   1.698  17.217 -0.2722 -0.3826  0.3500
  634TMC3     H 9391   4.149   1.364  17.034 -4.1398  0.6754 -2.7434
  634TMC3    H1 9392   4.192   1.790  17.014  0.4473 -0.0943  0.0557
  634TMC3    H2 9393   4.365   1.544  16.721  0.8846 -0.4128  1.5186
  634TMC3    C7 9394   4.339   1.793  16.788 -0.2906 -0.1403  0.0709
  634TMC3    C8 9395   4.303   1.312  16.828  0.3526 -0.2960  0.0842
  634TMC3    O1 9396   4.371   1.772  16.671 -0.4965  0.8097 -0.0824
  634TMC3    O2 9397   4.350   1.231  16.904 -0.1303 -0.1022 -0.5858
  635TMC3    C1 9398   0.662   1.867  17.544 -0.0842 -0.0194  0.3502
  635TMC3    C2 9399   0.786   1.814  17.523  0.0200 -0.4432  0.4471
  635TMC3    C3 9400   0.794   1.698  17.435 -0.7116 -0.3560 -0.1799
  635TMC3    C4 9401   0.562   1.817  17.474 -0.0074  0.5960 -1.0356
  635TMC3    C5 9402   0.573   1.730  17.380 -0.1178 -0.0694  0.9566
  635TMC3    C6 9403   0.691   1.673  17.351 -0.2466  0.0550 -0.4602
  635TMC3     C 9404   0.644   1.999  17.603 -0.6527  0.4431  1.1484
  635TMC3     O 9405   0.534   2.032  17.634 -0.4540  0.2065  0.5198
  635TMC3     H 9406   0.865   1.832  17.596  1.6974  0.4653 -1.5992
  635TMC3    H1 9407   0.464   1.861  17.491 -0.1192  0.3732 -1.0980
  635TMC3    H2 9408   0.708   1.594  17.278  0.2121 -0.9216  0.6971
  635TMC3    C7 9409   0.448   1.677  17.321  0.6351 -0.2240 -0.4345
  635TMC3    C8 9410   0.916   1.615  17.425  0.9113 -0.0843 -0.3977
  635TMC3    O1 9411   0.341   1.695  17.380 -0.4707  0.0948 -0.5297
  635TMC3    O2 9412   0.929   1.544  17.325 -0.1203  0.4374  0.4576
  636MPD2     C 9413   1.044   1.946  15.659 -0.0757  0.1136 -0.5715
  636MPD2    C1 9414   1.102   1.971  15.781  0.6222  0.5347 -0.7676
  636MPD2    C2 9415   1.237   1.958  15.792  0.0356 -0.0404  0.8198
  636MPD2    C3 9416   1.316   1.935  15.681 -0.3045 -0.0396  0.4396
  636MPD2    C4 9417   1.262   1.906  15.561  0.3618  0.0344  0.5524
  636MPD2    C5 9418   1.124   1.909  15.550  0.5473  0.5601 -0.1349
  636MPD2     H 9419   1.284   2.007  15.876  1.8989 -0.1949 -0.1390
  636MPD2    H1 9420   1.316   1.889  15.469  0.0256 -0.4452  0.4423
  636MPD2    H2 9421   0.938   1.949  15.633 -0.5930 -3.6414  1.0224
  636MPD2    H3 9422   1.086   1.878  15.453 -0.1322 -1.3802  0.7659
  636MPD2     N 9423   1.456   1.939  15.700 -0.3669  0.2090 -0.4485
  636MPD2    H5 9424   1.489   1.962  15.793  0.4948 -0.3884 -0.6039
  636MPD2    N1 9425   1.032   2.019  15.894  0.3723  0.5544 -0.4308
  636MPD2    H7 9426   1.084   2.020  15.981 -0.1148  1.6922 -0.1480
  637TMC3    C1 9427   1.671   1.984  15.661  0.1616 -0.1818 -0.1835
  637TMC3    C2 9428   1.688   1.930  15.785 -0.4035 -0.3139  0.2305
  637TMC3    C3 9429   1.755   2.007  15.873 -0.2926 -0.2789  0.3392
  637TMC3    C4 9430   1.720   2.102  15.616  0.1368  0.5082 -0.0340
  637TMC3    C5 9431   1.785   2.178  15.711 -0.2247 -0.0251 -0.0893
  637TMC3    C6 9432   1.798   2.129  15.836  0.0361  0.2414 -0.5786
  637TMC3     C 9433   1.542   1.963  15.603 -0.1630 -0.4216 -0.3450
  637TMC3     O 9434   1.520   1.994  15.484 -0.2075 -0.1704  0.0291
  637TMC3     H 9435   1.655   1.835  15.825  1.7061 -0.8660  0.6869
  637TMC3    H1 9436   1.702   2.127  15.512 -2.7955 -2.7530 -0.3131
  637TMC3    H2 9437   1.831   2.191  15.918  1.8257  0.1282 -1.2247
  637TMC3    C7 9438   1.734   2.321  15.713  0.8882 -0.2370  0.0978
  637TMC3    C8 9439   1.672   1.999  15.985 -0.7147 -0.6865 -0.3187
  637TMC3    O1 9440   1.700   2.365  15.822 -0.1118  0.1867 -0.5187
  637TMC3    O2 9441   1.551   1.988  15.971  0.2061  0.5936 -0.3721
  638MPD2     C 9442   0.917   1.038  14.877 -0.2062 -0.2608  0.2355
  638MPD2    C1 9443   0.866   0.951  14.783  0.9879 -0.6206  0.2833
  638MPD2    C2 9444   0.865   0.810  14.801 -0.3460 -0.0309  0.9837
  638MPD2    C3 9445   0.914   0.764  14.920 -0.5474  0.2268  0.3133
  638MPD2    C4 9446   0.954   0.858  15.017  0.3454  0.0921 -0.4615
  638MPD2    C5 9447   0.964   0.993  14.993  0.0965 -0.0578  0.0141
  638MPD2     H 9448   0.838   0.742  14.721 -3.1189  0.9183  1.0930
  638MPD2    H1 9449   0.995   0.822  15.111 -0.5397 -0.6385 -0.3516
  638MPD2    H2 9450   0.920   1.141  14.841  0.0041 -0.7737 -1.2321
  638MPD2    H3 9451   1.005   1.050  15.075 -1.5310  0.2144  0.6457
  638MPD2     N 9452   0.900   0.623  14.950  0.4735  0.1705 -0.2777
  638MPD2    H5 9453   0.857   0.568  14.876  0.5645  2.9981 -2.4717
  638MPD2    N1 9454   0.835   1.018  14.661 -0.1017  0.0136 -0.4975
  638MPD2    H7 9455   0.886   1.105  14.653  0.8096 -0.5418 -0.7214
  639TMC3    C1 9456   0.903   0.418  15.056  0.0280 -0.4666  0.4631
  639TMC3    C2 9457   0.778   0.382  15.010 -0.5397  0.0510 -0.0623
  639TMC3    C3 9458   0.737   0.249  15.030 -0.3087 -0.0280 -0.5806
  639TMC3    C4 9459   0.990   0.330  15.113 -0.3068  0.0156  0.2472
  639TMC3    C5 9460   0.956   0.197  15.101 -0.9203  0.3795 -0.2139
  639TMC3    C6 9461   0.824   0.156  15.082  0.2889  0.7244 -1.0885
  639TMC3     C 9462   0.944   0.558  15.058 -0.2158 -0.0787  0.4707
  639TMC3     O 9463   1.027   0.602  15.137  0.2739  0.2884  0.7035
  639TMC3     H 9464   0.706   0.462  14.997  0.5404  1.0200 -0.0529
  639TMC3    H1 9465   1.088   0.365  15.144 -0.4347  0.8999 -0.3471
  639TMC3    H2 9466   0.796   0.052  15.076  0.5946  0.4985  1.2718
  639TMC3    C7 9467   1.059   0.100  15.111 -0.4923 -0.0527 -0.3901
  639TMC3    C8 9468   0.662   0.193  14.923 -0.3893 -0.1242  0.3916
  639TMC3    O1 9469   1.028   0.000  15.169  0.1328 -0.3410 -0.1601
  639TMC3    O2 9470   0.707   0.222  14.814 -0.0651 -0.4658 -0.4194
  640MPD2     C 9471   0.671   4.113   9.992  0.3604 -0.4150  0.1204
  640MPD2    C1 9472   0.665   4.199   9.887 -0.3144  0.0274 -0.5674
  640MPD2    C2 9473   0.591   4.312   9.898  0.2856 -0.5302  0.3306
  640MPD2    C3 9474   0.505   4.332  10.009 -0.0199  0.6190  0.5027
  640MPD2    C4 9475   0.495   4.238  10.104 -0.1027 -0.6180  0.2850
  640MPD2    C5 9476   0.589   4.131  10.104  0.2037 -0.0862 -0.7889
  640MPD2     H 9477   0.596   4.385   9.818 -3.1820  0.7037  1.2633
  640MPD2    H1 9478   0.423   4.241  10.185 -1.6068  0.4300 -1.1061
  640MPD2    H2 9479   0.733   4.025   9.996  0.9534 -0.0655 -1.3289
  640MPD2    H3 9480   0.573   4.050  10.175 -2.2756  0.9483 -0.1403
  640MPD2     N 9481   0.407   4.442  10.023  0.2235 -0.0792  0.5564
  640MPD2    H5 9482   0.347   4.435  10.105 -1.9316  0.5173 -0.9849
  640MPD2    N1 9483   0.762   4.174   9.788 -0.2653 -0.0115  0.0059
  640MPD2    H7 9484   0.822   4.093   9.800 -0.0371 -0.0480 -1.3780
  641TMC3    C1 9485   0.897   4.193   9.595 -0.1630  0.0018  0.1831
  641TMC3    C2 9486   0.949   4.062   9.596 -0.3274  0.6430 -0.1103
  641TMC3    C3 9487   1.072   4.042   9.532  0.6342 -0.3282 -0.6806
  641TMC3    C4 9488   0.962   4.292   9.522  0.4067 -0.7200  0.1887
  641TMC3    C5 9489   1.078   4.262   9.447  0.1534  0.5593  0.2026
  641TMC3    C6 9490   1.135   4.135   9.450 -0.0651 -0.0993  0.0293
  641TMC3     C 9491   0.786   4.244   9.679 -0.3670  0.3704 -0.8407
  641TMC3     O 9492   0.725   4.339   9.639  0.5695  0.9197 -0.3999
  641TMC3     H 9493   0.893   3.982   9.644  1.4067 -0.8935 -0.6684
  641TMC3    H1 9494   0.933   4.396   9.525  2.4467 -0.1589  0.0439
  641TMC3    H2 9495   1.229   4.118   9.399 -0.3735  0.5946 -0.7470
  641TMC3    C7 9496   1.151   4.377   9.390 -0.0861  0.5528  0.0292
  641TMC3    C8 9497   1.123   3.912   9.510  0.5515  0.2975 -0.1972
  641TMC3    O1 9498   1.107   4.486   9.432 -0.6163  0.1709  0.3176
  641TMC3    O2 9499   1.195   3.897   9.408  0.5110 -0.3767  0.5174
  642TMC3    C1 9500   2.229   0.779  12.001  0.5430  0.2623  0.6381
  642TMC3    C2 9501   2.343   0.823  12.057 -0.2291 -0.2035  0.1692
  642TMC3    C3 9502   2.432   0.727  12.107  0.0555 -0.0204 -1.0372
  642TMC3    C4 9503   2.203   0.651  11.976  0.9977  0.3139 -0.1918
  642TMC3    C5 9504   2.296   0.561  12.024  0.5240  0.2841 -0.2802
  642TMC3    C6 9505   2.406   0.589  12.095  0.2559  0.0911  0.1037
  642TMC3     C 9506   2.106   0.856  12.033  0.3208 -0.8790  0.1079
  642TMC3     O 9507   2.010   0.793  12.076 -0.6825 -0.2432 -0.2830
  642TMC3     H 9508   2.369   0.927  12.074 -0.6667  0.1682 -1.4836
  642TMC3    H1 9509   2.108   0.623  11.932 -0.1696  2.5092  0.9488
  642TMC3    H2 9510   2.468   0.517  12.148 -0.1220 -1.0110 -0.9416
  642TMC3    C7 9511   2.264   0.424  12.009  0.4713  0.3141 -0.3452
  642TMC3    C8 9512   2.511   0.758  12.230  0.2048 -0.6501  0.1773
  642TMC3    O1 9513   2.244   0.388  11.896 -0.0590  0.1072 -0.0240
  642TMC3    O2 9514   2.545   0.664  12.303 -0.3984  0.0382  0.1172
  643TMC3    C1 9515   1.590   4.172   0.453 -0.4441 -0.2772 -0.9316
  643TMC3    C2 9516   1.471   4.237   0.454 -0.2828 -0.9887 -0.2601
  643TMC3    C3 9517   1.385   4.208   0.348 -0.4700 -0.3298 -0.1825
  643TMC3    C4 9518   1.621   4.087   0.347  0.0879  0.0357  0.4257
  643TMC3    C5 9519   1.536   4.066   0.244  0.6506 -0.0760  0.3788
  643TMC3    C6 9520   1.416   4.126   0.240  0.4081  0.5312 -0.4463
  643TMC3     C 9521   1.685   4.207   0.566 -0.0255 -0.3722  0.1797
  643TMC3     O 9522   1.641   4.288   0.641  0.4563 -0.2224  0.3747
  643TMC3     H 9523   1.448   4.322   0.517  0.4531 -1.2706  0.3875
  643TMC3    H1 9524   1.722   4.051   0.333 -0.4830 -1.8406  1.0155
  643TMC3    H2 9525   1.346   4.106   0.159  1.5960 -1.0005 -1.0882
  643TMC3    C7 9526   1.598   4.061   0.106  0.0774  0.3191  0.3342
  643TMC3    C8 9527   1.309   4.316   0.315  0.3581 -0.2163  0.2892
  643TMC3    O1 9528   1.544   4.118   0.012  0.1861 -0.4417  0.2453
  643TMC3    O2 9529   1.185   4.293   0.324  0.1588 -0.4665 -0.0292
  644MPD2     C 9530   0.953   0.081   9.649 -0.1567  0.0167 -0.4598
  644MPD2    C1 9531   1.071   0.125   9.599  0.6491  0.0331 -1.0725
  644MPD2    C2 9532   1.098   0.253   9.560 -0.6491  1.0708 -0.1307
  644MPD2    C3 9533   0.990   0.343   9.563 -0.1596  0.3192 -0.1755
  644MPD2    C4 9534   0.865   0.299   9.608  0.3720 -0.5975 -0.1220
  644MPD2    C5 9535   0.848   0.167   9.656  0.9881 -0.2594 -0.4407
  644MPD2     H 9536   1.199   0.291   9.547 -0.9918  1.0969 -2.6376
  644MPD2    H1 9537   0.773   0.355   9.605  0.4626 -0.3422  2.1878
  644MPD2    H2 9538   0.938   4.705   9.689 -0.5600  0.1336 -0.3138
  644MPD2    H3 9539   0.750   0.131   9.684  0.8947 -0.0952 -0.5564
  644MPD2     N 9540   1.013   0.481   9.527 -0.3802 -0.3193  0.2359
  644MPD2    H5 9541   1.109   0.506   9.503 -0.0524 -1.9307 -0.1375
  644MPD2    N1 9542   1.174   0.026   9.602  0.1176 -0.2301  0.1832
  644MPD2    H7 9543   1.137   4.664   9.644 -0.0572  1.2390  3.0230
  645TMC3    C1 9544   0.981   0.692   9.428 -0.8100  0.2254  0.3875
  645TMC3    C2 9545   1.089   0.749   9.496 -0.7490  0.2512 -0.6280
  645TMC3    C3 9546   1.134   0.869   9.451 -0.3494  0.2261  0.6756
  645TMC3    C4 9547   0.908   0.753   9.329  0.1338  0.4676  0.3034
  645TMC3    C5 9548   0.945   0.883   9.301 -0.3008 -0.1004  0.3572
  645TMC3    C6 9549   1.061   0.936   9.351  0.0339 -0.1059 -0.0580
  645TMC3     C 9550   0.921   0.569   9.484 -0.2767 -0.7095 -0.4870
  645TMC3     O 9551   0.801   0.550   9.461  0.1040 -0.1851  0.1928
  645TMC3     H 9552   1.127   0.705   9.588 -1.2407  0.7215 -0.1980
  645TMC3    H1 9553   0.831   0.702   9.272  0.7011 -0.5008  0.4202
  645TMC3    H2 9554   1.087   1.040   9.340 -0.1755 -0.0144  0.2984
  645TMC3    C7 9555   0.884   0.942   9.180 -0.4971  0.2648 -0.1900
  645TMC3    C8 9556   1.237   0.934   9.528 -0.0899  0.5420 -0.3182
  645TMC3    O1 9557   0.771   0.907   9.157 -0.3341  0.6692 -0.2868
  645TMC3    O2 9558   1.278   0.880   9.629 -0.1255 -0.4791  0.0918
  646MPD2     C 9559   1.242   4.311  14.284  0.2157  0.6217 -0.3909
  646MPD2    C1 9560   1.140   4.290  14.368  0.3040  0.0623  0.0303
  646MPD2    C2 9561   1.023   4.361  14.354  1.5991  0.4877  0.6714
  646MPD2    C3 9562   1.011   4.466  14.265  0.1895 -0.4094 -0.0126
  646MPD2    C4 9563   1.129   4.495  14.188 -0.0582  0.0298  0.1585
  646MPD2    C5 9564   1.241   4.422  14.207 -0.0329  0.3407 -0.2742
  646MPD2     H 9565   0.934   4.336  14.411  0.8678  1.7648  0.0895
  646MPD2    H1 9566   1.125   4.576  14.116  0.5919 -0.5783 -0.5669
  646MPD2    H2 9567   1.328   4.245  14.291 -1.4217 -1.4566  0.2609
  646MPD2    H3 9568   1.323   4.450  14.142  1.9871 -0.5827  1.8861
  646MPD2     N 9569   0.886   4.533  14.251 -0.6687 -0.3179 -0.7050
  646MPD2    H5 9570   0.808   4.499  14.306  2.0898 -3.0491  1.5584
  646MPD2    N1 9571   1.152   4.194  14.475 -0.7193 -0.1188  0.1744
  646MPD2    H7 9572   1.243   4.150  14.477 -1.2922 -1.3133  0.0853
  647TMC3    C1 9573   1.109   4.085  14.688  0.1326 -0.0804  0.1471
  647TMC3    C2 9574   1.015   4.028  14.777  0.2726  0.3766  0.2774
  647TMC3    C3 9575   1.066   3.950  14.880  0.3144  0.3199 -0.4316
  647TMC3    C4 9576   1.245   4.080  14.705  0.4027 -0.6413  0.2507
  647TMC3    C5 9577   1.293   3.997  14.811  0.5474  0.0585 -0.0124
  647TMC3    C6 9578   1.199   3.930  14.890  0.8682  0.3001  0.2627
  647TMC3     C 9579   1.058   4.163  14.577 -0.1053  0.2507 -0.2241
  647TMC3     O 9580   0.950   4.214  14.595 -0.5566  0.0530 -0.5538
  647TMC3     H 9581   0.910   4.032  14.752  0.2609 -0.3142  0.2137
  647TMC3    H1 9582   1.315   4.137  14.645 -1.8145  0.3588 -1.3941
  647TMC3    H2 9583   1.233   3.858  14.963 -1.6692 -1.0437  0.1308
  647TMC3    C7 9584   1.425   4.006  14.859  0.4351  0.1858 -0.1390
  647TMC3    C8 9585   0.981   3.844  14.933 -0.3536 -0.4098  0.0105
  647TMC3    O1 9586   1.470   3.904  14.907 -0.3754 -0.2269  0.7021
  647TMC3    O2 9587   1.039   3.766  15.008 -0.6117  0.3208 -0.6892
  648TMC3    C1 9588   0.207   1.519  16.064  0.1466 -0.5673  0.0730
  648TMC3    C2 9589   0.255   1.404  16.003  0.9464 -0.3059  0.0681
  648TMC3    C3 9590   0.277   1.402  15.872  0.8402  0.2594 -0.0512
  648TMC3    C4 9591   0.182   1.630  15.999  0.5333 -0.5519 -0.1844
  648TMC3    C5 9592   0.195   1.619  15.857 -0.2202  0.8111  0.4660
  648TMC3    C6 9593   0.257   1.514  15.797  0.2816  0.2707 -0.5703
  648TMC3     C 9594   0.189   1.524  16.209  0.3921  0.2970  0.5599
  648TMC3     O 9595   0.204   1.630  16.267 -0.0532 -0.5362 -0.2070
  648TMC3     H 9596   0.266   1.310  16.056  1.2392 -0.8240 -0.9084
  648TMC3    H1 9597   0.133   1.711  16.052 -0.4898  1.5767 -4.3762
  648TMC3    H2 9598   0.276   1.510  15.690  0.9806 -1.3684 -0.3841
  648TMC3    C7 9599   0.107   1.699  15.779 -0.7936 -0.4151 -0.0880
  648TMC3    C8 9600   0.282   1.271  15.808  0.6477  0.3809 -0.0157
  648TMC3    O1 9601   0.131   1.711  15.657 -0.4655  0.6467 -0.1417
  648TMC3    O2 9602   0.196   1.190  15.828  0.4561  0.2470 -0.2199
  649TMC3    C1 9603   3.578   2.844  12.915 -0.2651  0.4144 -0.0552
  649TMC3    C2 9604   3.714   2.830  12.948 -0.1589 -0.3407 -0.7847
  649TMC3    C3 9605   3.747   2.740  13.043  0.0404  0.0992 -0.5532
  649TMC3    C4 9606   3.486   2.772  12.979  0.2117  0.1981  0.0374
  649TMC3    C5 9607   3.527   2.674  13.065  0.0984  0.1830  0.4044
  649TMC3    C6 9608   3.655   2.663  13.108 -0.0896  0.4143 -0.4140
  649TMC3     C 9609   3.529   2.902  12.793  0.5086  0.2005 -1.2820
  649TMC3     O 9610   3.422   2.958  12.787  0.5112 -0.2443 -0.2104
  649TMC3     H 9611   3.777   2.906  12.902  0.1792 -0.3193 -0.2857
  649TMC3    H1 9612   3.385   2.769  12.939  0.4982 -1.6570 -0.5355
  649TMC3    H2 9613   3.698   2.586  13.172  0.5453  1.5549  0.5293
  649TMC3    C7 9614   3.423   2.604  13.137  0.5522  0.8778  0.6067
  649TMC3    C8 9615   3.852   2.787  13.138  0.8537 -0.0932 -0.4541
  649TMC3    O1 9616   3.311   2.649  13.131 -0.5510 -0.0293  0.2349
  649TMC3    O2 9617   3.893   2.706  13.223  0.0548  0.1373 -0.2451
  650TMC3    C1 9618   1.470   4.610  12.673 -0.6897 -0.6382 -0.2167
  650TMC3    C2 9619   1.440   0.015  12.677 -0.1449 -0.3926  0.2399
  650TMC3    C3 9620   1.385   0.077  12.568  0.2449 -0.3839  0.1566
  650TMC3    C4 9621   1.418   4.533  12.568 -0.1798 -0.0938  0.0482
  650TMC3    C5 9622   1.366   4.593  12.459 -0.3658  0.2435  0.0415
  650TMC3    C6 9623   1.341   0.005  12.454  0.0119  1.0242 -0.2534
  650TMC3     C 9624   1.492   4.548  12.804 -0.3088 -0.0560 -0.2003
  650TMC3     O 9625   1.521   4.631  12.890  0.2397  0.2863 -0.0051
  650TMC3     H 9626   1.468   0.071  12.765 -0.5241  0.5354 -0.2361
  650TMC3    H1 9627   1.419   4.425  12.570 -0.6721 -0.0596  1.7235
  650TMC3    H2 9628   1.304   0.059  12.368 -0.0806 -0.2010 -0.9832
  650TMC3    C7 9629   1.319   4.508  12.346  0.0456 -0.7990 -0.0463
  650TMC3    C8 9630   1.384   0.225  12.573  0.0057 -0.9532  1.0507
  650TMC3    O1 9631   1.281   4.397  12.371  1.0424  0.3110  0.1615
  650TMC3    O2 9632   1.476   0.278  12.636 -0.2503  0.0624  0.8482
  651MPD2     C 9633   0.504   1.765  10.242 -0.9506 -0.0605 -0.4233
  651MPD2    C1 9634   0.454   1.873  10.316  0.8719  0.1818  0.1739
  651MPD2    C2 9635   0.527   1.988  10.318 -0.2225 -0.8159 -0.2138
  651MPD2    C3 9636   0.655   1.996  10.267  0.8221 -0.7559  0.2898
  651MPD2    C4 9637   0.704   1.889  10.193  0.3038 -0.1734  0.2949
  651MPD2    C5 9638   0.627   1.770  10.183  0.2551  0.1432 -0.1457
  651MPD2     H 9639   0.483   2.073  10.369  0.1137 -0.9134  0.2365
  651MPD2    H1 9640   0.809   1.887  10.167 -0.0345 -0.3333 -1.0269
  651MPD2    H2 9641   0.451   1.672  10.228 -1.2193 -0.2686  1.9185
  651MPD2    H3 9642   0.673   1.686  10.130  1.2273  0.5812  0.0025
  651MPD2     N 9643   0.724   2.114  10.277 -0.6302  0.4501  0.6396
  651MPD2    H5 9644   0.677   2.190  10.325 -1.4696  0.3084  0.0478
  651MPD2    N1 9645   0.317   1.882  10.367 -0.5914 -0.6280  0.7205
  651MPD2    H7 9646   0.281   1.975  10.388  0.6296 -0.0677  0.3576
  652TMC3    C1 9647   1.070   2.423  10.326  0.1952  0.2296 -0.1875
  652TMC3    C2 9648   1.031   2.294  10.304 -0.1155  0.6371  0.3578
  652TMC3    C3 9649   0.894   2.275  10.279 -0.3215 -0.4242 -1.0474
  652TMC3    C4 9650   0.993   2.528  10.307  0.2532  0.1011 -0.5543
  652TMC3    C5 9651   0.861   2.509  10.262  1.0728  0.2277  0.0124
  652TMC3    C6 9652   0.813   2.383  10.243 -0.5129 -0.1967  0.2063
  652TMC3     C 9653   1.191   2.441  10.402 -0.1513  0.0317 -0.5560
  652TMC3     O 9654   1.213   2.341  10.471 -0.7556 -0.4264  1.0362
  652TMC3     H 9655   1.097   2.208  10.302 -0.6525  0.2309 -0.0190
  652TMC3    H1 9656   1.029   2.621  10.348  3.2107 -1.1859 -0.2595
  652TMC3    H2 9657   0.712   2.363  10.210 -0.1121 -0.6962 -0.7125
  652TMC3    C7 9658   0.782   2.617  10.302  0.7820 -0.6801  0.1452
  652TMC3    C8 9659   0.851   2.139  10.247 -0.0635 -0.7050  0.6700
  652TMC3    O1 9660   0.838   2.723  10.311  0.0649  0.2452  0.4009
  652TMC3    O2 9661   0.936   2.054  10.217  0.8595  0.8069 -0.4876
  653MPD2     C 9662   3.943   1.329  17.658 -1.2439  0.0200 -0.1932
  653MPD2    C1 9663   3.891   1.438  17.591  0.0996 -0.1844 -0.2204
  653MPD2    C2 9664   3.844   1.412  17.468 -0.6442  0.3714  0.3470
  653MPD2    C3 9665   3.840   1.284  17.409 -0.5674  0.7872  0.0853
  653MPD2    C4 9666   3.893   1.179  17.476  0.4068  0.3775  0.2716
  653MPD2    C5 9667   3.951   1.206  17.600 -0.1208  0.1567 -0.5065
  653MPD2     H 9668   3.812   1.493  17.404  0.0228 -0.6415 -1.2680
  653MPD2    H1 9669   3.899   1.076  17.444  0.2967  0.2523  0.6522
  653MPD2    H2 9670   3.981   1.339   0.064  0.9901 -1.5237 -0.8760
  653MPD2    H3 9671   3.993   1.127  17.660  0.6690 -0.6032 -2.0725
  653MPD2     N 9672   3.779   1.265  17.281 -0.3648  0.4197  0.4490
  653MPD2    H5 9673   3.755   1.351  17.232  2.4883  0.1173 -1.4152
  653MPD2    N1 9674   3.889   1.566  17.639  0.5133  0.5529  0.1260
  653MPD2    H7 9675   3.851   1.642  17.584  2.1439  2.4018  1.5405
  654TMC3    C1 9676   3.695   1.166  17.091  0.1013 -0.1207  0.1141
  654TMC3    C2 9677   3.592   1.252  17.087  0.9158  0.6067  0.3721
  654TMC3    C3 9678   3.532   1.277  16.962 -0.1995  0.0007  0.1194
  654TMC3    C4 9679   3.707   1.065  17.000 -0.5435 -0.3255  0.6134
  654TMC3    C5 9680   3.641   1.075  16.881 -0.6312  0.2805 -0.0114
  654TMC3    C6 9681   3.553   1.180  16.858 -0.6614 -0.4702  0.0438
  654TMC3     C 9682   3.756   1.144  17.215 -0.5494  0.7857 -0.4627
  654TMC3     O 9683   3.781   1.030  17.249 -0.0288 -0.3450 -0.2201
  654TMC3     H 9684   3.580   1.324  17.167 -2.2313  0.4615  0.0086
  654TMC3    H1 9685   3.784   0.990  17.011 -0.7160 -0.4807  0.7674
  654TMC3    H2 9686   3.524   1.203  16.756  1.4759  0.5160 -0.3511
  654TMC3    C7 9687   3.693   1.009  16.764  0.3409  0.4740  0.0263
  654TMC3    C8 9688   3.430   1.372  16.963  0.1460  0.2221 -0.1394
  654TMC3    O1 9689   3.699   1.074  16.662 -0.0708  0.6669 -0.7987
  654TMC3    O2 9690   3.350   1.366  17.056 -0.1906  0.4729 -0.0208
  655MPD2     C 9691   0.730   1.740  15.651 -0.2710  0.8402  0.0525
  655MPD2    C1 9692   0.606   1.784  15.610 -0.5780 -0.2004  0.0629
  655MPD2    C2 9693   0.581   1.767  15.472  0.2178  0.5179  0.3997
  655MPD2    C3 9694   0.666   1.700  15.383  0.2574  0.2583 -0.1183
  655MPD2    C4 9695   0.782   1.657  15.436 -0.0491  0.5735 -0.1564
  655MPD2    C5 9696   0.816   1.672  15.566  0.1365  0.6532 -1.2108
  655MPD2     H 9697   0.490   1.812  15.432  2.0833  1.3277 -2.9800
  655MPD2    H1 9698   0.849   1.596  15.376  1.5199  0.9036  1.2496
  655MPD2    H2 9699   0.758   1.752  15.755 -1.4752  0.7005  0.3930
  655MPD2    H3 9700   0.913   1.637  15.599 -0.8269  0.0958  1.0187
  655MPD2     N 9701   0.643   1.677  15.244  0.5728 -0.3024 -0.8850
  655MPD2    H5 9702   0.710   1.629  15.185  1.2528 -1.0004  0.4617
  655MPD2    N1 9703   0.505   1.841  15.694  0.3448  0.3380  0.0754
  655MPD2    H7 9704   0.424   1.877  15.644 -0.4241  0.5416  1.4605
  656TMC3    C1 9705   0.415   1.954  15.869  0.1310  0.4143 -0.2586
  656TMC3    C2 9706   0.364   1.956  15.992 -0.7219 -0.4206 -0.1615
  656TMC3    C3 9707   0.258   2.047  16.015 -0.4274 -0.2070 -0.0895
  656TMC3    C4 9708   0.377   2.048  15.779  0.1822 -0.2866 -0.1810
  656TMC3    C5 9709   0.271   2.132  15.792 -0.5793  0.6738  0.0764
  656TMC3    C6 9710   0.204   2.129  15.918  0.2476  0.0002 -0.5636
  656TMC3     C 9711   0.514   1.863  15.827 -0.6862 -0.5917  0.0053
  656TMC3     O 9712   0.595   1.821  15.914  0.2525 -0.3046  0.2717
  656TMC3     H 9713   0.388   1.884  16.070  2.0932  0.3397 -0.3049
  656TMC3    H1 9714   0.415   2.049  15.677 -1.4590  0.4937 -0.7842
  656TMC3    H2 9715   0.112   2.184  15.936 -0.0835 -1.6035  2.7583
  656TMC3    C7 9716   0.214   2.213  15.678  0.6723 -0.0934  0.6616
  656TMC3    C8 9717   0.155   2.005  16.110  0.6265 -0.2990 -0.1751
  656TMC3    O1 9718   0.289   2.213  15.586  0.0616 -0.0476 -0.0488
  656TMC3    O2 9719   0.036   2.008  16.076 -0.1334  0.1436  0.0314
  657TMC3    C1 9720   4.346   1.126  14.885  0.0797  0.3631  0.4718
  657TMC3    C2 9721   4.394   1.182  15.001 -0.2172 -0.8644  0.9241
  657TMC3    C3 9722   4.310   1.275  15.054 -0.3517  0.0842  0.2232
  657TMC3    C4 9723   4.227   1.155  14.821 -0.5932 -0.4779  0.2240
  657TMC3    C5 9724   4.159   1.269  14.869  0.0941 -0.2440  0.3024
  657TMC3    C6 9725   4.201   1.329  14.987  0.0353 -1.1094 -0.1613
  657TMC3     C 9726   4.432   1.034  14.809  0.2566  0.5522  0.3480
  657TMC3     O 9727   4.369   0.960  14.736 -0.9988 -0.2737  0.1092
  657TMC3     H 9728   4.481   1.141  15.051 -1.0584 -0.2871  2.8351
  657TMC3    H1 9729   4.203   1.129  14.718 -0.3440  0.1713 -0.0032
  657TMC3    H2 9730   4.129   1.391  15.039  2.1478  1.1647  0.0393
  657TMC3    C7 9731   4.060   1.338  14.788 -0.0595  0.6105 -0.0587
  657TMC3    C8 9732   4.348   1.346  15.172 -0.2394  0.0393 -0.2766
  657TMC3    O1 9733   4.006   1.273  14.701  0.0206 -0.1653  0.0531
  657TMC3    O2 9734   4.265   1.426  15.216 -0.3680 -0.0565  0.2075
  658MPD2     C 9735   0.806   1.946  14.549 -0.1209  0.4534 -0.0112
  658MPD2    C1 9736   0.671   1.913  14.559 -0.0169  0.0753  0.0155
  658MPD2    C2 9737   0.581   1.985  14.491 -1.0520  0.5027 -0.0462
  658MPD2    C3 9738   0.611   2.087  14.404  0.2509  0.3560  0.2272
  658MPD2    C4 9739   0.745   2.119  14.394  0.6648 -0.1250  0.4130
  658MPD2    C5 9740   0.844   2.049  14.463  0.2696 -0.3046 -0.5305
  658MPD2     H 9741   0.479   1.950  14.505 -1.1184  1.1306  1.1035
  658MPD2    H1 9742   0.788   2.189  14.323 -1.4908  0.8888  0.1132
  658MPD2    H2 9743   0.888   1.902  14.605  1.2653  1.3325 -1.3265
  658MPD2    H3 9744   0.947   2.082  14.453  0.1194  0.3175 -0.0395
  658MPD2     N 9745   0.507   2.153  14.334 -0.1861 -0.5778 -0.1144
  658MPD2    H5 9746   0.414   2.113  14.331  0.4414 -1.8882 -1.9996
  658MPD2    N1 9747   0.620   1.804  14.639  0.3829  0.2121 -0.7464
  658MPD2    H7 9748   0.520   1.794  14.623  0.2364  0.9819 -0.3009
  659TMC3    C1 9749   0.593   1.671  14.825  0.7806  0.2526 -0.1607
  659TMC3    C2 9750   0.627   1.697  14.959 -0.0122 -0.4176  0.4078
  659TMC3    C3 9751   0.520   1.677  15.046  0.6317  0.1412 -0.2627
  659TMC3    C4 9752   0.472   1.630  14.776  0.7388 -0.0448  0.0834
  659TMC3    C5 9753   0.378   1.617  14.869 -0.0052 -0.8392 -0.0856
  659TMC3    C6 9754   0.393   1.650  14.995  0.5075  0.0331  0.2790
  659TMC3     C 9755   0.685   1.742  14.739 -0.3889 -0.7664 -0.4469
  659TMC3     O 9756   0.796   1.758  14.779 -0.0201  0.3497  0.6692
  659TMC3     H 9757   0.720   1.737  14.999  1.0914 -0.4965 -2.0937
  659TMC3    H1 9758   0.459   1.604  14.671  0.7270  0.4762 -0.0444
  659TMC3    H2 9759   0.309   1.648  15.063 -0.6333  0.1581 -1.1292
  659TMC3    C7 9760   0.244   1.601  14.830  0.2390 -0.2093 -0.0509
  659TMC3    C8 9761   0.529   1.726  15.180 -0.7196 -0.5754  0.4177
  659TMC3    O1 9762   0.163   1.667  14.887 -0.2676  0.4962 -0.7119
  659TMC3    O2 9763   0.434   1.795  15.222  0.2253  0.2568 -0.1782
  660MPD2     C 9764   3.595   0.729  12.528  0.0684  0.1156  0.0016
  660MPD2    C1 9765   3.458   0.744  12.511 -0.4909  0.3411  0.2512
  660MPD2    C2 9766   3.372   0.696  12.608  0.1810  0.9892 -0.2995
  660MPD2    C3 9767   3.416   0.620  12.716 -0.7056 -0.6752 -0.7884
  660MPD2    C4 9768   3.546   0.597  12.728  0.1637 -0.2380 -0.6188
  660MPD2    C5 9769   3.637   0.648  12.639 -0.3912  0.1330  0.5250
  660MPD2     H 9770   3.264   0.698  12.599  0.0345  0.0197  1.1551
  660MPD2    H1 9771   3.588   0.551  12.817 -2.8937  2.1722  2.0603
  660MPD2    H2 9772   3.675   0.767  12.466 -1.1981  0.6515 -1.3100
  660MPD2    H3 9773   3.743   0.632  12.655  0.1487  0.8239 -2.3162
  660MPD2     N 9774   3.325   0.546  12.801  0.8947 -0.0528  0.6756
  660MPD2    H5 9775   3.370   0.487  12.871 -0.7693 -2.6392 -0.4421
  660MPD2    N1 9776   3.416   0.823  12.399 -0.1039 -0.7589  0.3102
  660MPD2    H7 9777   3.490   0.861  12.340 -0.6247 -0.1283  0.0526
  661TMC3    C1 9778   3.274   0.943  12.247 -0.5629  0.3147  0.1064
  661TMC3    C2 9779   3.373   0.955  12.149  0.5322  0.2355 -0.3771
  661TMC3    C3 9780   3.343   1.043  12.051 -0.1352  0.3904 -0.3288
  661TMC3    C4 9781   3.155   1.011  12.247 -0.3616 -0.5043  0.4624
  661TMC3    C5 9782   3.134   1.094  12.137 -0.4750  0.0184  0.0242
  661TMC3    C6 9783   3.225   1.113  12.039  0.3850  0.5392  0.0158
  661TMC3     C 9784   3.285   0.859  12.370 -0.0590 -0.7186 -0.9573
  661TMC3     O 9785   3.183   0.833  12.428 -0.4391  0.0484  0.0126
  661TMC3     H 9786   3.459   0.889  12.141 -0.1469 -0.7181  0.2529
  661TMC3    H1 9787   3.084   1.013  12.328 -1.4272  2.0221 -0.5246
  661TMC3    H2 9788   3.198   1.167  11.949  0.3106  1.1512  0.3966
  661TMC3    C7 9789   2.998   1.117  12.097  0.6384  0.4592  0.0181
  661TMC3    C8 9790   3.444   1.083  11.954 -0.0545 -0.4197 -0.2161
  661TMC3    O1 9791   2.966   1.216  12.034 -0.1764  0.1480  0.4535
  661TMC3    O2 9792   3.535   1.004  11.947 -0.4815 -0.0015 -0.3678
  662MPD2     C 9793   3.765   0.111  17.362 -1.0965 -0.2237 -0.2179
  662MPD2    C1 9794   3.752   0.019  17.464  0.2669 -0.3933  0.6055
  662MPD2    C2 9795   3.669   0.044  17.576 -0.2715 -0.0260  0.9010
  662MPD2    C3 9796   3.600   0.167  17.574  0.1426  0.0826  0.3799
  662MPD2    C4 9797   3.615   0.259  17.470  0.7846  0.0130  0.2835
  662MPD2    C5 9798   3.699   0.227  17.369  0.4105 -0.8875  0.0457
  662MPD2     H 9799   3.660   4.696  17.658  1.0116 -0.1039  0.9790
  662MPD2    H1 9800   3.558   0.352  17.465  0.0508 -0.5256 -1.1921
  662MPD2    H2 9801   3.818   0.098  17.269 -1.8294 -0.4536 -0.6007
  662MPD2    H3 9802   3.713   0.296  17.287 -0.6647 -1.1279 -0.3400
  662MPD2     N 9803   3.513   0.201  17.676 -0.2903 -0.6448  0.1191
  662MPD2    H5 9804   3.451   0.280  17.658  0.6785 -0.0201 -0.4744
  662MPD2    N1 9805   3.818   4.617  17.463  0.3635  0.0507 -0.1443
  662MPD2    H7 9806   3.787   4.549  17.532 -1.4381  0.6831 -0.3201
  663TMC3    C1 9807   3.945   4.435  17.389 -0.2315 -1.3551  0.4407
  663TMC3    C2 9808   3.964   4.392  17.518 -0.6646  0.0699 -0.0588
  663TMC3    C3 9809   3.995   4.262  17.527  0.3612 -0.3700  0.0637
  663TMC3    C4 9810   3.964   4.365  17.276  0.1934 -0.0379  0.6278
  663TMC3    C5 9811   3.988   4.230  17.293 -0.5466  0.3357  0.4785
  663TMC3    C6 9812   4.023   4.182  17.419  0.1526  0.5482  0.5770
  663TMC3     C 9813   3.912   4.576  17.370 -0.2530 -0.2536  0.0573
  663TMC3     O 9814   3.944   4.630  17.267  0.2220 -0.3671  0.4621
  663TMC3     H 9815   3.939   4.450  17.606 -0.7987 -0.6337  0.3646
  663TMC3    H1 9816   3.939   4.408  17.180  1.8537 -0.2621  0.0985
  663TMC3    H2 9817   4.031   4.076  17.440  2.4281  0.7331  0.5832
  663TMC3    C7 9818   3.924   4.134  17.205  0.3037 -0.1547 -0.7238
  663TMC3    C8 9819   3.890   4.189  17.604 -0.1484 -0.3107 -0.9704
  663TMC3    O1 9820   3.935   4.160  17.085  0.0721  0.6211 -1.2745
  663TMC3    O2 9821   3.828   4.106  17.546  0.3365  0.0176  0.1408
  664MPD2     C 9822   1.622   3.012  17.457  0.0871  0.8448 -0.0327
  664MPD2    C1 9823   1.731   3.085  17.476 -0.5056  0.2669 -0.8857
  664MPD2    C2 9824   1.802   3.073  17.590  0.4035  0.0781  0.4424
  664MPD2    C3 9825   1.755   3.004   0.001  0.1002 -0.2169 -0.1076
  664MPD2    C4 9826   1.648   2.922  17.679  0.6493 -0.5378 -0.0295
  664MPD2    C5 9827   1.583   2.928  17.563  0.0525  0.1559 -0.1426
  664MPD2     H 9828   1.889   3.137  17.602  0.7356 -0.4708  0.9618
  664MPD2    H1 9829   1.620   2.843   0.053  1.3866 -1.3265 -0.6371
  664MPD2    H2 9830   1.567   3.016  17.363 -2.1476 -1.8964  1.1428
  664MPD2    H3 9831   1.495   2.867  17.548  0.7351 -0.5092 -1.4004
  664MPD2     N 9832   1.834   3.000   0.118  0.1496  0.0914 -0.1994
  664MPD2    H5 9833   1.928   3.037   0.118  0.7698 -1.5265 -1.4897
  664MPD2    N1 9834   1.776   3.180  17.385 -0.3065 -0.3029  0.5631
  664MPD2    H7 9835   1.850   3.244  17.413 -1.1203  0.7316  0.3498
  665TMC3    C1 9836   1.903   2.998   0.334  0.3493  0.6315 -0.2205
  665TMC3    C2 9837   1.898   2.924   0.449  0.1611 -0.4732 -0.0292
  665TMC3    C3 9838   2.003   2.953   0.533  0.0086 -0.0338  0.8419
  665TMC3    C4 9839   1.989   3.106   0.309  0.0822  0.1605  0.0742
  665TMC3    C5 9840   2.085   3.133   0.397  0.1020  0.7250  0.7574
  665TMC3    C6 9841   2.103   3.052   0.510 -0.4123  0.1064  0.0269
  665TMC3     C 9842   1.800   2.961   0.244 -0.0291 -0.8682 -0.2990
  665TMC3     O 9843   1.696   2.909   0.283 -0.5717  0.0709 -0.6382
  665TMC3     H 9844   1.829   2.842   0.462 -1.9537  1.3907  0.6046
  665TMC3    H1 9845   1.978   3.174   0.225  1.3794 -0.7359 -0.8377
  665TMC3    H2 9846   2.186   3.073   0.577  1.0678 -2.3426 -1.0282
  665TMC3    C7 9847   2.175   3.259   0.391 -0.2186 -0.7954 -0.1078
  665TMC3    C8 9848   2.012   2.888   0.660  0.1599  0.5634 -0.3076
  665TMC3    O1 9849   2.153   3.330   0.292  0.1169  0.2161 -0.0790
  665TMC3    O2 9850   2.118   2.901   0.716  0.0083  0.0699 -0.1487
  666TMC3    C1 9851   0.441   3.031   9.800 -0.1403 -0.0614  0.2590
  666TMC3    C2 9852   0.531   2.999   9.708  0.1029 -0.5561  0.3060
  666TMC3    C3 9853   0.562   3.103   9.619 -0.1999 -0.2201 -0.7132
  666TMC3    C4 9854   0.386   3.159   9.818 -1.0290  0.6113  0.1541
  666TMC3    C5 9855   0.408   3.256   9.723  0.8005  0.4519 -0.9403
  666TMC3    C6 9856   0.496   3.223   9.621  0.7961 -0.4694 -0.0176
  666TMC3     C 9857   0.419   2.935   9.911  0.1495 -0.0412  0.4862
  666TMC3     O 9858   0.390   2.995  10.017 -0.2527 -0.6630  0.1636
  666TMC3     H 9859   0.595   2.911   9.715  1.9995  0.6856 -1.7140
  666TMC3    H1 9860   0.310   3.181   9.893 -0.4603  0.5695  0.7406
  666TMC3    H2 9861   0.505   3.287   9.534 -0.2060 -0.2917  0.0075
  666TMC3    C7 9862   0.375   3.390   9.751  0.2252  0.1258 -0.0460
  666TMC3    C8 9863   0.684   3.092   9.535  0.4590  0.0085 -0.1761
  666TMC3    O1 9864   0.287   3.398   9.836  0.3433 -0.6425 -0.4418
  666TMC3    O2 9865   0.702   2.980   9.483  0.1650  0.2902  0.0044
  667MPD2     C 9866   3.054   3.298  14.562  0.7711 -0.0748 -0.7144
  667MPD2    C1 9867   2.963   3.321  14.669 -0.1630 -0.0912  0.0750
  667MPD2    C2 9868   2.852   3.236  14.689 -1.1326 -0.0859  0.0073
  667MPD2    C3 9869   2.832   3.137  14.598 -0.6441  0.1058  0.0247
  667MPD2    C4 9870   2.924   3.106  14.500 -0.6952 -0.2531  0.4946
  667MPD2    C5 9871   3.034   3.186  14.484  0.3088  0.1888 -0.2864
  667MPD2     H 9872   2.779   3.268  14.762 -0.6292 -0.8651  0.8565
  667MPD2    H1 9873   2.921   3.016  14.440 -0.3030 -0.9591  1.5388
  667MPD2    H2 9874   3.138   3.357  14.528 -0.2674  0.0071 -3.1563
  667MPD2    H3 9875   3.107   3.158  14.410  1.8542  2.6292  0.3220
  667MPD2     N 9876   2.709   3.059  14.606  0.9416  0.3380  0.3210
  667MPD2    H5 9877   2.645   3.084  14.680  0.8537  0.3763  0.2308
  667MPD2    N1 9878   2.973   3.423  14.763 -0.6190 -0.3329 -0.1487
  667MPD2    H7 9879   2.897   3.433  14.830 -0.7965  0.3666 -0.4582
  668TMC3    C1 9880   3.071   3.621  14.863  0.1482 -0.1462  0.2672
  668TMC3    C2 9881   3.135   3.742  14.837 -0.4494  0.7063  0.0082
  668TMC3    C3 9882   3.187   3.811  14.941  0.6873  0.7574  0.3463
  668TMC3    C4 9883   3.026   3.585  14.985  0.0624  0.6782  0.1349
  668TMC3    C5 9884   3.064   3.670  15.086 -0.0351  0.0112  0.3370
  668TMC3    C6 9885   3.146   3.780  15.068  0.0970 -0.2701 -0.1693
  668TMC3     C 9886   3.072   3.520  14.762 -0.8383  0.3389 -0.4700
  668TMC3     O 9887   3.166   3.549  14.681  0.1264 -0.5547 -0.0894
  668TMC3     H 9888   3.155   3.773  14.735 -2.1648  0.8032 -0.3008
  668TMC3    H1 9889   2.977   3.490  15.000 -1.5524  1.8373  2.2042
  668TMC3    H2 9890   3.190   3.837  15.150 -2.5728  0.3196  0.8559
  668TMC3    C7 9891   3.031   3.638  15.221  0.1119  0.7948  0.6445
  668TMC3    C8 9892   3.234   3.946  14.935 -0.1440 -0.0614  0.2326
  668TMC3    O1 9893   3.087   3.700  15.311  0.0275 -0.0250  0.1794
  668TMC3    O2 9894   3.227   4.013  15.036  0.2884 -0.1251  0.6435
  669TMC3    C1 9895   0.706   3.304  14.808  0.1579  0.3737 -0.0321
  669TMC3    C2 9896   0.618   3.349  14.717 -0.0540 -0.5051  0.2495
  669TMC3    C3 9897   0.665   3.448  14.633 -0.2211  0.0458 -0.1252
  669TMC3    C4 9898   0.834   3.345  14.818 -0.1738 -0.5077 -0.1047
  669TMC3    C5 9899   0.875   3.437  14.730  0.6687 -0.1404  0.3753
  669TMC3    C6 9900   0.795   3.484  14.632 -0.1586  0.0723 -0.2008
  669TMC3     C 9901   0.665   3.178  14.878 -0.2732 -0.5163  0.0741
  669TMC3     O 9902   0.542   3.169  14.899 -0.7498  0.2763  0.2884
  669TMC3     H 9903   0.517   3.310  14.729 -0.2291 -0.1390 -0.0143
  669TMC3    H1 9904   0.901   3.321  14.900  0.0017  0.7319  0.1118
  669TMC3    H2 9905   0.829   3.562  14.564 -0.8333 -0.2903 -0.9463
  669TMC3    C7 9906   1.021   3.482  14.719  0.4274  0.8917 -0.3322
  669TMC3    C8 9907   0.577   3.495  14.527  0.0394 -0.5245 -0.4441
  669TMC3    O1 9908   1.053   3.534  14.608  0.2728  0.4643  0.3704
  669TMC3    O2 9909   0.457   3.469  14.539 -0.0049  0.3550  0.1602
  670MPD2     C 9910   3.663   1.431  13.456  0.2083  0.3373 -0.8814
  670MPD2    C1 9911   3.785   1.394  13.504 -0.0338  0.6511 -0.2161
  670MPD2    C2 9912   3.791   1.295  13.599  0.4019 -0.1966  0.6373
  670MPD2    C3 9913   3.682   1.225  13.653 -0.0754  0.1852 -0.5088
  670MPD2    C4 9914   3.557   1.267  13.598  0.4961 -0.8955 -0.5270
  670MPD2    C5 9915   3.549   1.373  13.510 -0.6842  0.2619 -1.0851
  670MPD2     H 9916   3.889   1.272  13.640 -0.0424  1.6248  2.7935
  670MPD2    H1 9917   3.464   1.227  13.636  0.4886  0.5786  0.9899
  670MPD2    H2 9918   3.653   1.510  13.383 -1.6489  2.3220  1.5332
  670MPD2    H3 9919   3.451   1.403  13.474 -0.1027  1.2847 -1.8091
  670MPD2     N 9920   3.698   1.134  13.761 -0.3515  0.5979 -0.2848
  670MPD2    H5 9921   3.792   1.121  13.798 -0.9274 -1.8167  0.3640
  670MPD2    N1 9922   3.900   1.464  13.462 -0.6019  0.3152  0.3385
  670MPD2    H7 9923   3.987   1.454  13.514  0.1297  2.4262 -0.4730
  671TMC3    C1 9924   3.615   0.997  13.940  1.1117  0.0207  0.1124
  671TMC3    C2 9925   3.740   0.977  14.004  0.2110  0.1512 -0.3975
  671TMC3    C3 9926   3.756   0.881  14.105 -0.4988  0.3718 -0.0013
  671TMC3    C4 9927   3.510   0.923  13.983 -0.0996 -0.2765  0.3804
  671TMC3    C5 9928   3.530   0.821  14.069  0.4761 -0.5026 -0.0546
  671TMC3    C6 9929   3.648   0.807  14.138  0.1024  0.2486 -0.9879
  671TMC3     C 9930   3.585   1.076  13.817  0.6390  0.0587 -0.2392
  671TMC3     O 9931   3.476   1.061  13.765 -0.4935  0.5687  0.2110
  671TMC3     H 9932   3.829   1.027  13.965  0.5842  0.8887  1.3916
  671TMC3    H1 9933   3.413   0.936  13.935  0.4427 -2.6347 -1.3564
  671TMC3    H2 9934   3.659   0.724  14.207  0.4856 -1.0197 -2.5906
  671TMC3    C7 9935   3.440   0.711  14.037  0.5374 -0.3020 -0.1538
  671TMC3    C8 9936   3.868   0.790  14.092  0.1849 -0.9975  0.1231
  671TMC3    O1 9937   3.391   0.719  13.925  0.3706 -0.1717  0.1336
  671TMC3    O2 9938   3.840   0.671  14.104  0.1968 -0.3052 -0.4972
  672MPD2     C 9939   3.499   0.644   0.927 -0.0394  1.0242  0.2076
  672MPD2    C1 9940   3.628   0.633   0.957 -0.1372  0.5700 -0.1641
  672MPD2    C2 9941   3.661   0.674   1.089  0.1528  0.4237 -0.1163
  672MPD2    C3 9942   3.564   0.706   1.181 -0.0608 -0.2289  0.4892
  672MPD2    C4 9943   3.431   0.699   1.149 -0.1072  0.4980 -0.3310
  672MPD2    C5 9944   3.404   0.658   1.021  0.7948  0.3241 -0.0787
  672MPD2     H 9945   3.767   0.683   1.110  0.0934 -0.3480  0.4783
  672MPD2    H1 9946   3.349   0.723   1.216  0.5000 -3.7300  1.9083
  672MPD2    H2 9947   3.461   0.622   0.828 -1.3767  0.3896  0.8689
  672MPD2    H3 9948   3.300   0.664   0.992  0.9930  1.5057 -0.5709
  672MPD2     N 9949   3.596   0.747   1.308  0.4640 -0.3868  0.4170
  672MPD2    H5 9950   3.510   0.761   1.359  1.2715  1.1442  1.3563
  672MPD2    N1 9951   3.724   0.614   0.850 -0.0560 -0.6391  0.6010
  672MPD2    H7 9952   3.693   0.596   0.755  1.2526 -0.7513  0.1891
  673TMC3    C1 9953   3.934   0.589   0.736 -0.3497  0.0724 -0.0824
  673TMC3    C2 9954   4.044   0.517   0.749  0.5349 -0.1468 -0.3779
  673TMC3    C3 9955   4.109   0.492   0.628 -0.2920 -0.1626  0.1005
  673TMC3    C4 9956   3.887   0.646   0.627  0.4735 -0.5433  0.0546
  673TMC3    C5 9957   3.959   0.625   0.512 -0.6809  0.5509  0.4512
  673TMC3    C6 9958   4.063   0.538   0.508 -0.0355  0.1179 -0.0196
  673TMC3     C 9959   3.862   0.608   0.867 -0.9239 -0.3745  0.2282
  673TMC3     O 9960   3.938   0.604   0.965 -0.2165  0.0630 -0.0574
  673TMC3     H 9961   4.083   0.475   0.842  1.1763  2.3476  0.4645
  673TMC3    H1 9962   3.796   0.704   0.624  2.2970  2.2402 -1.1561
  673TMC3    H2 9963   4.124   0.519   0.421 -1.0513 -0.9421 -0.4960
  673TMC3    C7 9964   3.972   0.731   0.418 -0.5201  0.8877  0.2128
  673TMC3    C8 9965   4.250   0.457   0.632  1.0026 -1.3524 -0.0874
  673TMC3    O1 9966   4.024   0.700   0.315  0.3784 -0.0390 -0.1376
  673TMC3    O2 9967   4.301   0.425   0.532  0.2589 -0.0065  0.0123
  674MPD2     C 9968   3.754   0.797   0.036  0.0331  0.3908 -0.4496
  674MPD2    C1 9969   3.698   0.721   0.140 -0.8431 -0.9348 -0.5055
  674MPD2    C2 9970   3.643   0.784   0.252 -0.2940  0.7406 -0.0910
  674MPD2    C3 9971   3.632   0.924   0.251  0.8236  0.0657  0.2036
  674MPD2    C4 9972   3.676   0.999   0.147  0.1858  0.7610 -0.5070
  674MPD2    C5 9973   3.742   0.941   0.041  0.5518 -0.3030 -0.1175
  674MPD2     H 9974   3.628   0.740   0.350 -0.9303 -1.1670 -1.0527
  674MPD2    H1 9975   3.667   1.107   0.142 -0.8389  0.7782  1.9579
  674MPD2    H2 9976   3.823   0.754  17.660  0.5778 -0.1672  0.4189
  674MPD2    H3 9977   3.781   1.000  17.655  0.1169  2.5099  1.7292
  674MPD2     N 9978   3.579   0.982   0.363  0.2612 -0.2666  0.5114
  674MPD2    H5 9979   3.559   0.923   0.444  1.2369 -2.5736 -0.9237
  674MPD2    N1 9980   3.731   0.582   0.145 -0.3313 -0.5238 -0.1854
  674MPD2    H7 9981   3.795   0.542   0.079  0.5877 -0.2929  0.5695
  675TMC3    C1 9982   3.749   0.362   0.252  0.1361  0.0095 -0.3288
  675TMC3    C2 9983   3.742   0.317   0.380 -0.1577 -0.0541 -0.0262
  675TMC3    C3 9984   3.846   0.252   0.439  0.3339 -0.3499 -0.2617
  675TMC3    C4 9985   3.867   0.354   0.183  0.7762  0.3081 -0.8419
  675TMC3    C5 9986   3.974   0.296   0.244  0.1942  0.0895  0.4174
  675TMC3    C6 9987   3.972   0.249   0.373 -1.1389  0.0290 -0.0296
  675TMC3     C 9988   3.680   0.496   0.246  0.1834  0.6140 -0.6786
  675TMC3     O 9989   3.603   0.521   0.339 -0.2043 -0.1204 -0.1229
  675TMC3     H 9990   3.645   0.319   0.428 -1.0631  2.8088 -1.9520
  675TMC3    H1 9991   3.864   0.398   0.084  1.0527 -0.3207 -1.1273
  675TMC3    H2 9992   4.056   0.201   0.423 -1.8483 -0.1592  0.9898
  675TMC3    C7 9993   4.102   0.339   0.193  0.1217  0.9566  0.3591
  675TMC3    C8 9994   3.831   0.233   0.583 -0.1641  0.4365  0.3891
  675TMC3    O1 9995   4.099   0.402   0.086  0.0247  0.2856 -0.0038
  675TMC3    O2 9996   3.722   0.260   0.633  0.0037  0.0221  0.5797
  676MPD2     C 9997   2.160   4.219  11.042 -0.0722 -0.9029  0.9337
  676MPD2    C1 9998   2.021   4.220  11.041  0.3826  0.2867 -0.3321
  676MPD2    C2 9999   1.953   4.139  10.957 -0.2451  0.4367  0.2499
  676MPD2    C310000   2.020   4.063  10.865 -0.2099  0.2139  0.2269
  676MPD2    C410001   2.161   4.057  10.869 -0.0859  0.2910 -0.0474
  676MPD2    C510002   2.231   4.132  10.964 -0.0641 -0.0073  0.9983
  676MPD2     H10003   1.846   4.136  10.974 -0.1348  0.1857  0.9001
  676MPD2    H110004   2.222   3.999  10.801  0.1670 -1.5411  1.7328
  676MPD2    H210005   2.209   4.292  11.105 -1.4380  0.1291  0.8087
  676MPD2    H310006   2.339   4.134  10.955 -0.2392 -1.0230 -1.1696
  676MPD2     N10007   1.943   3.981  10.776  0.1969  0.0403 -0.8754
  676MPD2    H510008   1.842   3.982  10.786  0.4663  0.9719  1.7105
  676MPD2    N110009   1.943   4.292  11.131  0.2022 -0.8194  0.1659
  676MPD2    H710010   1.847   4.265  11.147  0.7093 -1.5798  1.8557
  677TMC3    C110011   1.868   4.488  11.245  0.4653  0.4265  0.0565
  677TMC3    C210012   1.739   4.456  11.202  1.1891 -0.2260  1.0854
  677TMC3    C310013   1.642   4.530  11.263 -0.3636  0.5711  0.6975
  677TMC3    C410014   1.901   4.587  11.334  0.4961  0.2928 -0.4907
  677TMC3    C510015   1.797   4.668  11.363  0.1869 -0.1522  0.6793
  677TMC3    C610016   1.668   4.637  11.342 -0.8595 -0.2500 -0.1399
  677TMC3     C10017   1.981   4.414  11.184 -0.4871  0.3464 -0.6870
  677TMC3     O10018   2.076   4.489  11.160  0.1992  0.2015  0.3406
  677TMC3     H10019   1.702   4.375  11.140  1.1898  0.8460 -0.3133
  677TMC3    H110020   2.004   4.597  11.367  1.3882  1.2524 -3.5876
  677TMC3    H210021   1.593   4.703  11.385 -0.2182  0.3104  0.1106
  677TMC3    C710022   1.812   0.054  11.458  0.3227  0.4019 -0.0139
  677TMC3    C810023   1.505   4.476  11.260  0.8268 -0.4148  0.1737
  677TMC3    O110024   1.714   0.085  11.528 -0.0722  0.4274 -0.3827
  677TMC3    O210025   1.462   4.443  11.149 -0.7099  0.0974 -0.3095
  678MPD2     C10026   3.222   4.228   1.647  0.0661 -0.0155  0.4116
  678MPD2    C110027   3.253   4.198   1.522  0.5806 -0.4215 -0.5830
  678MPD2    C210028   3.170   4.120   1.449 -0.4390  0.1145 -0.0342
  678MPD2    C310029   3.041   4.094   1.489 -0.5462  0.4296  0.1107
  678MPD2    C410030   3.008   4.125   1.615 -0.1438 -0.1313 -0.0414
  678MPD2    C510031   3.101   4.181   1.696 -0.1652  0.6529 -0.0265
  678MPD2     H10032   3.200   4.100   1.346 -0.5643 -0.4140  0.0292
  678MPD2    H110033   2.912   4.111   1.665  0.5263 -0.3034  1.2024
  678MPD2    H210034   3.287   4.276   1.719 -0.2315  1.1216 -0.0722
  678MPD2    H310035   3.069   4.209   1.796  1.3235  0.0799  0.6072
  678MPD2     N10036   2.963   4.038   1.389  0.0964  0.9419 -0.6477
  678MPD2    H510037   3.005   4.021   1.298 -1.7145  0.8356 -1.4688
  678MPD2    N110038   3.367   4.246   1.466  0.7484 -0.1619 -0.1705
  678MPD2    H710039   3.386   4.200   1.377  0.2750  0.1377 -0.4268
  679TMC3    C110040   3.756   4.246   1.360  1.1051 -1.0980 -1.1505
  679TMC3    C210041   3.625   4.237   1.397  0.1919 -0.0753 -0.2207
  679TMC3    C310042   3.568   4.352   1.448 -1.3759  0.1811 -0.7344
  679TMC3    C410043   3.821   4.366   1.369 -0.0219  0.4870 -0.9560
  679TMC3    C510044   3.758   4.480   1.416  0.3725  1.1440 -0.3779
  679TMC3    C610045   3.632   4.477   1.459 -0.1204 -0.4512 -0.5964
  679TMC3     C10046   3.808   4.134   1.288 -0.4175 -0.0596 -0.6267
  679TMC3     O10047   3.773   4.022   1.319  0.3682  0.1594 -0.0591
  679TMC3     H10048   3.569   4.145   1.385  1.5330 -1.0208  0.7891
  679TMC3    H110049   3.926   4.358   1.346 -0.1460  0.4536 -1.5092
  679TMC3    H210050   3.589   4.563   1.508  0.9317  0.2403 -0.8717
  679TMC3    C710051   3.766   4.591   1.325  0.2514  1.0391  0.2656
  679TMC3    C810052   3.446   4.345   1.514  1.0906 -0.1333 -0.0094
  679TMC3    O110053   3.829   4.558   1.226 -0.0955 -0.6196 -1.0086
  679TMC3    O210054   3.433   4.409   1.616  0.2426 -0.3033  0.1260
  680MPD2     C10055   2.858   3.113  13.568  0.1243 -0.3167 -0.3279
  680MPD2    C110056   2.954   3.029  13.631  0.2799  0.3108 -0.6122
  680MPD2    C210057   3.073   3.092  13.668  0.7390 -0.0891  1.1841
  680MPD2    C310058   3.099   3.229  13.652 -0.6586  0.3403  0.3301
  680MPD2    C410059   2.998   3.303  13.593 -0.4650 -0.5435  0.9880
  680MPD2    C510060   2.884   3.246  13.543  0.0940 -0.1915 -0.0461
  680MPD2     H10061   3.154   3.027  13.700  1.4463  0.0931 -0.2281
  680MPD2    H110062   3.013   3.409  13.576 -0.5377 -0.6827  0.0411
  680MPD2    H210063   2.760   3.080  13.534 -0.5363  0.4470  0.8498
  680MPD2    H310064   2.822   3.303  13.475 -0.6829  0.8115  1.5002
  680MPD2     N10065   3.217   3.300  13.700 -0.1424 -0.1243 -0.1577
  680MPD2    H510066   3.205   3.401  13.691  0.4658 -0.0739 -0.4345
  680MPD2    N110067   2.938   2.891  13.658 -0.1277  0.6750  0.4201
  680MPD2    H710068   3.024   2.838  13.671 -1.4001 -1.3438  0.4925
  681TMC3    C110069   2.832   2.705  13.725 -0.0075  0.7359  0.0800
  681TMC3    C210070   2.791   2.679  13.851 -0.1907  0.1131  0.4769
  681TMC3    C310071   2.859   2.578  13.922  1.5519  0.3847 -0.3585
  681TMC3    C410072   2.932   2.637  13.667  0.3584 -0.5476 -0.1985
  681TMC3    C510073   2.983   2.530  13.732  0.1558 -0.4422 -0.4625
  681TMC3    C610074   2.959   2.507  13.862  0.6555 -0.5776 -0.0693
  681TMC3     C10075   2.814   2.835  13.686 -0.1904  0.7124 -0.5213
  681TMC3     O10076   2.718   2.898  13.733 -0.5946  0.3599  0.2025
  681TMC3     H10077   2.734   2.756  13.902 -3.5632 -2.4777  0.5913
  681TMC3    H110078   2.958   2.677  13.569 -0.9400 -0.5978 -0.5565
  681TMC3    H210079   3.003   2.430  13.924  0.2836 -1.1861 -0.5697
  681TMC3    C710080   3.072   2.432  13.667 -0.1847  0.6986 -0.7173
  681TMC3    C810081   2.860   2.604  14.062 -0.1125  0.0577 -0.3770
  681TMC3    O110082   3.094   2.327  13.717 -0.2634 -0.2057 -0.4304
  681TMC3    O210083   2.750   2.623  14.114  0.0611 -0.6156  0.8277
  682MPD2     C10084   0.342   4.382  10.527  0.2413  0.5789  0.1235
  682MPD2    C110085   0.316   4.246  10.525  0.2388  1.0427  0.3426
  682MPD2    C210086   0.370   4.159  10.612 -0.0203 -0.0660 -0.5123
  682MPD2    C310087   0.443   4.203  10.719 -0.2409 -0.1434  0.0257
  682MPD2    C410088   0.460   4.340  10.736 -0.4365  0.5537 -0.2547
  682MPD2    C510089   0.409   4.430  10.638 -1.0407 -0.0564 -0.6227
  682MPD2     H10090   0.354   4.053  10.592 -0.7633 -0.4292  2.0667
  682MPD2    H110091   0.496   4.382  10.829 -1.5389  0.2073  0.3326
  682MPD2    H210092   0.302   4.452  10.454 -0.0330 -0.0249 -0.3037
  682MPD2    H310093   0.422   4.537  10.647  2.0037 -0.5221  0.4089
  682MPD2     N10094   0.476   4.118  10.829  0.0563  0.2237 -0.2334
  682MPD2    H510095   0.492   4.159  10.920  0.6614 -0.7316  0.0845
  682MPD2    N110096   0.234   4.194  10.419  0.4865  0.5151 -0.5215
  682MPD2    H710097   0.197   4.100  10.430  2.3351 -0.1246  0.2406
  683TMC3    C110098   0.567   3.919  11.183  0.2135 -0.3706 -0.8193
  683TMC3    C210099   0.576   3.779  11.177 -0.1566 -0.5356  0.2292
  683TMC3    C310100   0.547   3.715  11.062  0.3266 -0.1985 -0.5210
  683TMC3    C410101   0.535   3.993  11.072 -0.2066  0.0690 -0.0351
  683TMC3    C510102   0.501   3.919  10.954 -0.0695 -0.1673 -0.1833
  683TMC3    C610103   0.498   3.780  10.953  0.1594  0.3864  1.0332
  683TMC3     C10104   0.519   3.978  11.315  0.1625  0.9203  0.2433
  683TMC3     O10105   0.496   4.099  11.330  0.3394  0.0162 -0.3714
  683TMC3     H10106   0.597   3.717  11.264  1.1472 -1.4164 -0.7119
  683TMC3    H110107   0.544   4.101  11.077 -0.5843  0.0057  1.9454
  683TMC3    H210108   0.448   3.718  10.879 -1.4314  1.5713  1.1141
  683TMC3    C710109   0.469   3.981  10.826  0.2547  0.2781 -0.5063
  683TMC3    C810110   0.563   3.570  11.049  0.1102 -0.3493  0.1309
  683TMC3    O110111   0.459   3.900  10.731  0.8022 -0.0406 -0.4963
  683TMC3    O210112   0.467   3.512  11.005  0.0916 -0.6479  0.3722
  684MPD2     C10113   3.820   3.904  16.602 -0.0050 -1.0819  0.8816
  684MPD2    C110114   3.809   3.902  16.468 -0.3049 -1.1572  0.2884
  684MPD2    C210115   3.884   3.997  16.398  0.3470 -0.6541  0.1018
  684MPD2    C310116   3.979   4.087  16.454  0.1714 -0.1901 -0.1859
  684MPD2    C410117   3.997   4.078  16.588 -0.2260  0.5566  0.0688
  684MPD2    C510118   3.925   3.977  16.659  0.0585 -0.0279  0.8981
  684MPD2     H10119   3.867   3.989  16.291 -0.5984 -2.5105  0.3949
  684MPD2    H110120   4.067   4.138  16.644  1.3789 -0.7035 -0.5793
  684MPD2    H210121   3.768   3.833  16.665 -0.1112 -0.9655  0.9244
  684MPD2    H310122   3.933   3.977  16.767 -2.1932  1.2958  1.0669
  684MPD2     N10123   4.043   4.176  16.374  0.5001 -0.0845 -0.1418
  684MPD2    H510124   4.121   4.226  16.414 -1.8395  2.6525  0.9730
  684MPD2    N110125   3.730   3.811  16.397  0.5252  0.0492  0.3377
  684MPD2    H710126   3.712   3.830  16.299 -1.2989 -1.1165  0.4448
  685TMC3    C110127   3.614   3.608  16.355 -0.4071 -0.1527  1.0095
  685TMC3    C210128   3.552   3.668  16.252  0.1042  1.1134  0.3768
  685TMC3    C310129   3.496   3.583  16.155  0.2045  0.1324 -0.1687
  685TMC3    C410130   3.636   3.472  16.356  0.2551  0.4459 -0.0650
  685TMC3    C510131   3.587   3.396  16.252  0.2680 -0.2037  0.2395
  685TMC3    C610132   3.513   3.450  16.148 -0.8622 -0.1615  0.2923
  685TMC3     C10133   3.685   3.695  16.455 -0.9140 -0.0437 -0.3945
  685TMC3     O10134   3.729   3.640  16.554  0.6722 -0.0115 -0.0960
  685TMC3     H10135   3.506   3.763  16.276  0.6057  1.4789 -0.1201
  685TMC3    H110136   3.708   3.443  16.433  1.1153  0.6774 -0.7783
  685TMC3    H210137   3.488   3.392  16.060 -0.2384 -0.6172  0.4181
  685TMC3    C710138   3.622   3.257  16.241 -0.2446 -0.1769  0.6152
  685TMC3    C810139   3.387   3.643  16.076 -0.1180 -0.0204  0.1715
  685TMC3    O110140   3.544   3.186  16.177 -0.3832 -0.4810  0.4753
  685TMC3    O210141   3.389   3.763  16.053 -0.1333  0.7298  0.6265
  686MPD2     C10142   0.399   3.859  16.120 -0.0102 -0.0122  0.0628
  686MPD2    C110143   0.341   3.768  16.033  0.4495  0.2559  0.5627
  686MPD2    C210144   0.366   3.779  15.891 -0.7873 -0.5493  0.2098
  686MPD2    C310145   0.464   3.868  15.851 -0.2278  0.2537 -0.5628
  686MPD2    C410146   0.531   3.945  15.943 -0.0388 -1.1596 -0.2291
  686MPD2    C510147   0.496   3.945  16.076 -0.0729  0.0064  0.1022
  686MPD2     H10148   0.317   3.728  15.809 -0.3270 -3.0847  1.4946
  686MPD2    H110149   0.615   4.009  15.918 -2.1395  1.2925 -1.0128
  686MPD2    H210150   0.381   3.855  16.227  0.7236 -0.3297  0.1750
  686MPD2    H310151   0.558   4.005  16.141  0.1218 -1.7375  1.5309
  686MPD2     N10152   0.507   3.883  15.718 -0.4383  0.3699 -0.2421
  686MPD2    H510153   0.604   3.913  15.710 -0.7064  0.9179 -1.5653
  686MPD2    N110154   0.251   3.676  16.092  0.3573 -0.3311  0.1270
  686MPD2    H710155   0.245   3.671  16.193 -0.9234 -2.0511 -0.0156
  687TMC3    C110156   0.508   3.854  15.477 -0.3582 -0.0281  0.5168
  687TMC3    C210157   0.408   3.844  15.384  0.8260  0.0850 -0.0734
  687TMC3    C310158   0.395   3.719  15.320 -0.1166 -0.0940 -0.1802
  687TMC3    C410159   0.610   3.761  15.490  0.0180 -0.4394  1.1178
  687TMC3    C510160   0.592   3.645  15.427  0.0153 -0.1613  0.7326
  687TMC3    C610161   0.486   3.618  15.342 -0.5358  0.2355 -0.6498
  687TMC3     C10162   0.432   3.860  15.605 -0.2047  0.3714 -0.2276
  687TMC3     O10163   0.312   3.839  15.597 -0.2702  0.5534  0.1410
  687TMC3     H10164   0.339   3.927  15.371 -0.4829 -0.7040  1.8982
  687TMC3    H110165   0.675   3.764  15.577 -0.3079  1.0537  1.3055
  687TMC3    H210166   0.464   3.520  15.302  2.3220  0.4570 -2.7081
  687TMC3    C710167   0.642   3.531  15.497  0.2740  0.0494 -0.5115
  687TMC3    C810168   0.264   3.685  15.264 -0.2352 -0.2130  0.2255
  687TMC3    O110169   0.563   3.439  15.536 -0.3689  0.3268 -0.3333
  687TMC3    O210170   0.252   3.577  15.202 -0.0089  0.3863  0.2835
  688MPD2     C10171   4.441   2.044  17.662 -0.4248  0.4642  0.1483
  688MPD2    C110172   4.352   1.994  17.574  0.2710  0.0943  0.5424
  688MPD2    C210173   4.405   1.938  17.454 -0.2326  0.4877  0.1710
  688MPD2    C310174   4.542   1.955  17.423 -0.8292 -0.9427 -1.2517
  688MPD2    C410175   4.630   2.011  17.516 -0.6912 -0.5798 -0.7729
  688MPD2    C510176   4.578   2.049  17.639  0.6683 -0.1214 -0.5485
  688MPD2     H10177   4.332   1.908  17.379 -0.0725  0.7905 -0.1064
  688MPD2    H110178   0.013   2.011  17.499 -0.0756  0.7369  3.1149
  688MPD2    H210179   4.416   2.077   0.067 -0.0223  0.6671  0.1781
  688MPD2    H310180   4.647   2.078   0.022  0.8600  2.6595 -1.7381
  688MPD2     N10181   4.604   1.907  17.302 -0.9546 -0.0626 -0.3675
  688MPD2    H510182   4.706   1.908  17.301 -0.9539 -0.0990 -0.2766
  688MPD2    N110183   4.214   1.978  17.605  0.7618 -0.4717 -0.5162
  688MPD2    H710184   4.155   1.935  17.535  1.5915 -0.8184 -0.9984
  689TMC3    C110185   4.027   1.954   0.056  0.0338 -0.5356  0.0101
  689TMC3    C210186   3.976   1.993   0.181  0.2921  0.0805  0.9851
  689TMC3    C310187   3.921   1.902   0.265  0.1198  0.6154 -0.0350
  689TMC3    C410188   4.005   1.826   0.008 -0.0622 -0.0917 -0.8027
  689TMC3    C510189   3.938   1.741   0.100  0.0942  0.0594  0.1768
  689TMC3    C610190   3.908   1.771   0.229 -0.0470 -0.2651  1.2341
  689TMC3     C10191   4.150   2.025   0.024 -1.3128  0.2308 -0.7127
  689TMC3     O10192   4.189   2.120   0.092  0.2876 -0.5971  0.0245
  689TMC3     H10193   3.998   2.090   0.225  4.0607 -0.0297 -0.6307
  689TMC3    H110194   4.039   1.780  17.611 -2.1027 -0.6271 -1.2747
  689TMC3    H210195   3.860   1.694   0.289  0.0820 -0.6901  0.7924
  689TMC3    C710196   3.925   1.593   0.077 -0.3426  0.1303 -0.0927
  689TMC3    C810197   3.925   1.918   0.411 -0.6297  0.3138 -0.0398
  689TMC3    O110198   3.949   1.524   0.177 -0.4149  0.0723 -0.2594
  689TMC3    O210199   3.900   2.026   0.463 -0.1582 -0.5562 -0.2744
  690MPD2     C10200   2.096   4.037  15.705 -0.5444 -0.1890 -0.5681
  690MPD2    C110201   2.025   4.086  15.599  0.3937 -0.2726  0.2799
  690MPD2    C210202   2.082   4.187  15.524 -0.1595  0.3258 -0.4336
  690MPD2    C310203   2.207   4.240  15.557 -0.5245  0.1749 -0.2359
  690MPD2    C410204   2.268   4.195  15.666 -0.8199 -0.1856  0.7419
  690MPD2    C510205   2.213   4.099  15.748 -0.0799  0.4915  0.9642
  690MPD2     H10206   2.029   4.236  15.443 -2.8358 -1.3601  0.3105
  690MPD2    H110207   2.362   4.234  15.701 -1.6667  3.3029 -0.8705
  690MPD2    H210208   2.049   3.968  15.773  1.0492  0.9791  1.7652
  690MPD2    H310209   2.250   4.090  15.849 -3.6021  1.3237  2.3426
  690MPD2     N10210   2.278   4.319  15.460 -0.4854  0.2544  0.9579
  690MPD2    H510211   2.227   4.328  15.372 -0.2683 -1.8739  0.5999
  690MPD2    N110212   1.906   4.019  15.565  0.6344  0.5684  0.3797
  690MPD2    H710213   1.850   4.064  15.494 -0.4449 -0.2098  0.7526
  691TMC3    C110214   1.761   3.844  15.548 -0.8479  1.1436 -0.3867
  691TMC3    C210215   1.647   3.919  15.572 -0.4829 -0.5759  0.6321
  691TMC3    C310216   1.529   3.862  15.537 -0.1366  0.0700 -0.4061
  691TMC3    C410217   1.761   3.725  15.488 -0.0829 -0.1386 -0.0482
  691TMC3    C510218   1.636   3.678  15.450  0.3203 -0.2782  0.4073
  691TMC3    C610219   1.517   3.741  15.468  0.0728 -0.0316  0.5366
  691TMC3     C10220   1.889   3.890  15.602  0.2626  0.0767  0.3647
  691TMC3     O10221   1.957   3.804  15.654  0.2678  0.1550 -0.2091
  691TMC3     H10222   1.654   4.015  15.621 -3.9065  0.2536 -0.5193
  691TMC3    H110223   1.855   3.677  15.464  0.8259  0.1985  2.8561
  691TMC3    H210224   1.420   3.694  15.462  0.3802 -0.3641 -1.6592
  691TMC3    C710225   1.636   3.539  15.400 -0.0585  0.4331  0.0647
  691TMC3    C810226   1.410   3.892  15.613  0.1861  0.2481  0.6085
  691TMC3    O110227   1.735   3.473  15.436  0.0375 -0.1389  0.3131
  691TMC3    O210228   1.333   3.802  15.627  0.4215  0.3251  0.0131
  692TMC3    C110229   3.631   0.663  16.288 -0.3379 -1.0259 -0.0812
  692TMC3    C210230   3.728   0.644  16.381 -0.2797  0.3738  0.5571
  692TMC3    C310231   3.849   0.598  16.339 -0.6395  0.1424  0.2765
  692TMC3    C410232   3.643   0.634  16.156 -0.3844  0.0194  0.7316
  692TMC3    C510233   3.757   0.579  16.125  0.1764  1.0101 -0.6716
  692TMC3    C610234   3.867   0.575  16.205 -0.9626 -0.1378  0.2548
  692TMC3     C10235   3.506   0.694  16.340 -0.2452 -0.9642 -0.0367
  692TMC3     O10236   3.474   0.661  16.452 -0.4506 -0.2062 -0.1518
  692TMC3     H10237   3.702   0.678  16.481 -0.3851  0.4351  0.5089
  692TMC3    H110238   3.565   0.623  16.082  0.4707  1.7348 -0.4267
  692TMC3    H210239   3.958   0.532  16.166  0.2497  3.1048 -0.4764
  692TMC3    C710240   3.774   0.500  16.002 -0.1298 -0.1174 -0.1298
  692TMC3    C810241   3.899   0.493  16.426 -0.1610  0.2129 -0.1640
  692TMC3    O110242   3.783   0.554  15.893  0.0633 -0.0194 -0.1781
  692TMC3    O210243   4.014   0.456  16.404 -0.0400 -0.7604  0.3339
  693MPD2     C10244   2.501   3.529  10.353 -0.3797 -0.4019 -0.1407
  693MPD2    C110245   2.540   3.487  10.481  0.1954  0.1130 -0.7658
  693MPD2    C210246   2.670   3.443  10.512  0.0001  0.0971 -0.5172
  693MPD2    C310247   2.770   3.449  10.416  0.0336  0.2789  0.0400
  693MPD2    C410248   2.731   3.498  10.288  0.7833 -0.0958 -0.8476
  693MPD2    C510249   2.603   3.533  10.253  0.3998 -0.0592  0.3985
  693MPD2     H10250   2.690   3.399  10.609 -0.7420  0.3869 -0.2322
  693MPD2    H110251   2.806   3.503  10.211  0.7266  2.0390 -0.7712
  693MPD2    H210252   2.399   3.558  10.330 -0.3225  1.4625  1.9651
  693MPD2    H310253   2.581   3.567  10.153 -1.3545 -0.5895  0.5850
  693MPD2     N10254   2.902   3.390  10.427 -0.5186  0.7376  0.2162
  693MPD2    H510255   2.939   3.356  10.339  0.7214  4.0065 -0.5128
  693MPD2    N110256   2.439   3.487  10.585  0.4738 -0.2922 -0.3078
  693MPD2    H710257   2.346   3.509  10.553  0.8710 -0.3793 -1.5141
  694TMC3    C110258   2.341   3.393  10.787 -0.9419  0.3479  0.6134
  694TMC3    C210259   2.236   3.340  10.711 -0.1866 -0.9164 -0.1597
  694TMC3    C310260   2.142   3.261  10.776  0.2857  0.3721 -0.0278
  694TMC3    C410261   2.359   3.362  10.923  0.3610 -0.2386 -0.3372
  694TMC3    C510262   2.265   3.280  10.983 -0.3452  0.2972 -0.1521
  694TMC3    C610263   2.161   3.227  10.903  0.0585  0.1466 -0.3149
  694TMC3     C10264   2.460   3.447  10.721  0.4060 -0.0486 -0.1195
  694TMC3     O10265   2.563   3.455  10.786  0.1552  0.4205 -0.4249
  694TMC3     H10266   2.210   3.385  10.616 -0.8461  1.0020  0.9247
  694TMC3    H110267   2.447   3.397  10.976  0.1958 -0.7859  0.3085
  694TMC3    H210268   2.075   3.187  10.955  3.5685 -2.8550  3.2378
  694TMC3    C710269   2.267   3.247  11.119  0.8771 -0.0005 -0.3198
  694TMC3    C810270   2.033   3.204  10.695  0.4149  0.0150  0.8896
  694TMC3    O110271   2.336   3.317  11.191 -0.1371  0.8155 -0.3608
  694TMC3    O210272   1.925   3.171  10.749  0.1521  0.2336  0.4262
  695MPD2     C10273   4.002   0.029  13.456  0.7383 -0.6765  0.0122
  695MPD2    C110274   3.944   0.040  13.579 -0.4780 -1.3264 -0.3419
  695MPD2    C210275   3.815   0.081  13.590 -0.9177  0.0153 -0.7179
  695MPD2    C310276   3.736   0.088  13.475  0.5140 -0.3462  0.2471
  695MPD2    C410277   3.790   0.050  13.354  0.0306 -0.2046  0.2547
  695MPD2    C510278   3.924   0.035  13.345  0.1950 -0.4552  0.2445
  695MPD2     H10279   3.778   0.107  13.688 -1.1848 -3.0046 -0.0122
  695MPD2    H110280   3.728   0.045  13.265 -0.0258 -2.8305  0.4316
  695MPD2    H210281   4.105   4.719  13.449  1.2358  0.9012 -0.1922
  695MPD2    H310282   3.973   0.014  13.251  0.7653 -1.7349  0.8274
  695MPD2     N10283   3.597   0.127  13.490  0.5678  0.4504 -0.4118
  695MPD2    H510284   3.568   0.131  13.588  0.1009 -1.0225 -0.4898
  695MPD2    N110285   4.018   0.021  13.697 -0.7998  0.1914 -0.2668
  695MPD2    H710286   3.970   0.052  13.781  0.9699  1.8540  0.1399
  696TMC3    C110287   3.394   0.239  13.443  0.4677 -0.7304 -0.5641
  696TMC3    C210288   3.342   0.196  13.554 -0.1199  0.1467 -0.1451
  696TMC3    C310289   3.222   0.250  13.594 -0.0457  0.4278  0.0333
  696TMC3    C410290   3.330   0.320  13.354 -0.3181  0.7447 -0.0367
  696TMC3    C510291   3.211   0.370  13.397  0.0999  0.0571  0.5610
  696TMC3    C610292   3.149   0.332  13.513 -0.1367 -0.1861  0.1475
  696TMC3     C10293   3.522   0.186  13.394 -0.7195  0.3675 -0.7256
  696TMC3     O10294   3.560   0.228  13.286  0.9158 -0.2271  0.3484
  696TMC3     H10295   3.382   0.113  13.612  0.4030 -0.3554 -1.2315
  696TMC3    H110296   3.384   0.375  13.279  0.8430 -1.3175 -0.7222
  696TMC3    H210297   3.056   0.373  13.552 -0.2271  0.1558 -0.4397
  696TMC3    C710298   3.163   0.492  13.334  0.3419  0.3043  0.4054
  696TMC3    C810299   3.244   0.325  13.713  0.3618  0.2230 -0.8226
  696TMC3    O110300   3.193   0.515  13.220 -0.0295 -0.9176  0.1829
  696TMC3    O210301   3.223   0.444  13.699 -0.0850 -0.3633 -0.2462
  697MPD2     C10302   2.516   2.162  15.670  0.0828 -0.2516 -0.0412
  697MPD2    C110303   2.606   2.102  15.583  0.0277  0.0374 -0.1184
  697MPD2    C210304   2.677   2.180  15.488 -0.0444 -0.4099  0.6148
  697MPD2    C310305   2.660   2.315  15.482 -0.2048  0.3653  0.0357
  697MPD2    C410306   2.573   2.376  15.573 -0.0543  0.1955 -0.0949
  697MPD2    C510307   2.503   2.299  15.658 -0.3630  0.2980 -0.4369
  697MPD2     H10308   2.745   2.132  15.419 -0.8475 -0.0410 -0.4258
  697MPD2    H110309   2.564   2.484  15.572 -1.4883  0.0768 -0.5181
  697MPD2    H210310   2.450   2.110  15.739 -0.4344 -1.5007 -1.4618
  697MPD2    H310311   2.431   2.339  15.729  1.4542  2.3803  0.2330
  697MPD2     N10312   2.749   2.385  15.397 -0.0471 -0.1949  0.0162
  697MPD2    H510313   2.810   2.340  15.330  1.7415  1.5483  0.4834
  697MPD2    N110314   2.635   1.961  15.589  0.4911 -0.0281 -0.7825
  697MPD2    H710315   2.701   1.934  15.517 -0.7346  1.3160 -2.4134
  698TMC3    C110316   2.830   2.575  15.279 -0.2762 -0.1553 -0.1289
  698TMC3    C210317   2.912   2.684  15.307 -0.4078 -0.3453  0.0616
  698TMC3    C310318   3.009   2.717  15.219  0.4667 -0.4886 -0.1036
  698TMC3    C410319   2.841   2.502  15.164  0.3592 -0.5317  0.3974
  698TMC3    C510320   2.929   2.544  15.068 -0.1385  0.7216  0.4961
  698TMC3    C610321   3.015   2.649  15.098 -0.1697 -0.0279 -0.7976
  698TMC3     C10322   2.753   2.521  15.387  0.0268 -0.2421  0.2539
  698TMC3     O10323   2.715   2.606  15.466 -0.0990 -0.8607  0.1526
  698TMC3     H10324   2.905   2.728  15.406 -1.9263  0.4360 -0.3920
  698TMC3    H110325   2.767   2.424  15.145 -1.0958  1.1343 -0.7281
  698TMC3    H210326   3.080   2.687  15.021  1.2036  0.1102  0.4363
  698TMC3    C710327   2.931   2.473  14.938  0.3100 -0.1257 -0.0033
  698TMC3    C810328   3.125   2.792  15.276  0.3075  0.0659  0.0457
  698TMC3    O110329   2.831   2.400  14.923  0.2348  0.0937 -0.2467
  698TMC3    O210330   3.134   2.783  15.399  0.7298  0.1131  0.2914
  699TMC3    C110331   3.119   0.448  12.885 -1.1198  0.1509 -0.1999
  699TMC3    C210332   3.199   0.337  12.902  0.4970  0.3876  0.4678
  699TMC3    C310333   3.148   0.235  12.971 -0.2455 -0.5717  0.1512
  699TMC3    C410334   2.995   0.462  12.928 -0.6049 -0.1368  0.5207
  699TMC3    C510335   2.945   0.353  13.000 -0.7349  0.5257  0.4142
  699TMC3    C610336   3.016   0.243  13.027 -0.2367  0.1933  0.2575
  699TMC3     C10337   3.181   0.557  12.810  0.1624 -0.8561  0.0273
  699TMC3     O10338   3.113   0.649  12.771  0.5874 -0.0036  0.2740
  699TMC3     H10339   3.297   0.319  12.859 -0.4340  1.6738 -2.2144
  699TMC3    H110340   2.934   0.542  12.889  0.9797  0.2151 -1.2317
  699TMC3    H210341   2.967   0.158  13.071  2.2708 -1.6720 -0.5274
  699TMC3    C710342   2.820   0.355  13.060 -0.1817  0.8602 -0.4859
  699TMC3    C810343   3.223   0.137  13.049  0.2011 -0.1993 -0.1862
  699TMC3    O110344   2.789   0.256  13.126  0.7305 -0.7109 -0.0205
  699TMC3    O210345   3.172   0.108  13.158  0.1929  0.0798 -0.6511
  700TMC3    C110346   2.049   2.433  17.649 -0.4418 -0.0700  0.0663
  700TMC3    C210347   2.046   2.299  17.618 -0.3254 -0.1535  0.3435
  700TMC3    C310348   2.129   2.219  17.684 -0.4217 -0.6201  0.3318
  700TMC3    C410349   2.124   2.494   0.046 -0.3616 -1.1236 -0.6222
  700TMC3    C510350   2.206   2.408   0.111 -0.1634 -0.2219  0.3405
  700TMC3    C610351   2.214   2.274   0.080  0.8620 -0.1371  0.0223
  700TMC3     C10352   1.984   2.518  17.552  0.1421  0.0962  0.5014
  700TMC3     O10353   1.882   2.474  17.499 -0.0965 -0.6490  0.3712
  700TMC3     H10354   1.978   2.272  17.537 -0.7825  2.9751 -0.3282
  700TMC3    H110355   2.106   2.600   0.062 -0.0638 -1.0283 -0.9331
  700TMC3    H210356   2.283   2.213   0.138  0.5600 -1.2685 -0.8086
  700TMC3    C710357   2.335   2.470   0.134 -0.8435 -0.0364  0.0237
  700TMC3    C810358   2.189   2.121  17.598 -0.7740  0.3749  0.4187
  700TMC3    O110359   2.383   2.538   0.046 -0.0575 -0.0722 -0.2584
  700TMC3    O210360   2.199   2.143  17.479  0.7201 -0.3859 -0.0418
  701TMC3    C110361   2.354   1.152  15.684 -0.0151 -0.0876 -0.0531
  701TMC3    C210362   2.418   1.070  15.596  0.3425 -0.3116 -0.3109
  701TMC3    C310363   2.434   1.107  15.466  0.2150 -0.3398  0.3186
  701TMC3    C410364   2.322   1.280  15.649  0.0070  0.2274 -0.5995
  701TMC3    C510365   2.353   1.323  15.523 -0.0814  0.3321 -0.1399
  701TMC3    C610366   2.398   1.233  15.429  0.2352  1.0355 -0.5225
  701TMC3     C10367   2.292   1.103  15.804 -0.3092  0.2477 -0.0799
  701TMC3     O10368   2.206   1.171  15.859 -0.1329 -0.3312  0.4553
  701TMC3     H10369   2.448   0.969  15.620  0.4229 -0.7977 -2.4490
  701TMC3    H110370   2.272   1.353  15.712 -1.5569 -2.6469  1.4619
  701TMC3    H210371   2.429   1.274  15.333 -0.3828 -0.5617 -1.4178
  701TMC3    C710372   2.305   1.454  15.481  0.5344  1.0813  0.2079
  701TMC3    C810373   2.405   1.003  15.369  0.2073  0.2845 -0.4648
  701TMC3    O110374   2.394   1.528  15.449 -0.7343  0.4000 -0.5893
  701TMC3    O210375   2.408   0.894  15.422  0.3895  0.4931 -0.4624
  702MPD2     C10376   1.581   4.194  10.063  0.2382  0.2200 -0.4547
  702MPD2    C110377   1.680   4.191  10.155  0.5705  0.0142  0.4335
  702MPD2    C210378   1.737   4.309  10.192 -0.2163 -0.0486 -0.1773
  702MPD2    C310379   1.696   4.425  10.128  0.8527 -0.0981  0.4460
  702MPD2    C410380   1.599   4.425  10.036  0.4123  0.2905 -0.1702
  702MPD2    C510381   1.532   4.306  10.012 -0.4361 -0.1760  0.3465
  702MPD2     H10382   1.805   4.314  10.276 -2.7923  1.2440  1.8070
  702MPD2    H110383   1.560   4.515   9.989  1.2750  1.1851  0.8554
  702MPD2    H210384   1.534   4.100  10.039 -0.0235  0.6650 -1.6633
  702MPD2    H310385   1.448   4.302   9.944 -3.0535 -0.5014  3.5887
  702MPD2     N10386   1.769   4.546  10.161  0.3417 -0.0786 -0.6542
  702MPD2    H510387   1.839   4.547  10.235  1.2916 -2.5831 -1.4958
  702MPD2    N110388   1.716   4.067  10.214  0.0231 -0.0495 -0.1669
  702MPD2    H710389   1.660   3.987  10.187 -0.4512  0.5861 -1.0730
  703TMC3    C110390   1.825   0.046  10.163 -0.0872  1.2149  0.0021
  703TMC3    C210391   1.776   0.044  10.291 -0.5900  0.4064  0.2360
  703TMC3    C310392   1.863   0.105  10.377 -0.6469  0.6280  0.2375
  703TMC3    C410393   1.942   0.094  10.117 -0.2541 -0.0253  0.0849
  703TMC3    C510394   2.018   0.159  10.205  1.0595  0.6069  0.5020
  703TMC3    C610395   1.985   0.159  10.332  0.3932 -0.2863 -0.3148
  703TMC3     C10396   1.760   4.661  10.092 -0.0043  0.3728 -0.0250
  703TMC3     O10397   1.698   4.687   9.990  0.0542 -0.3582  0.1247
  703TMC3     H10398   1.676   0.010  10.316 -0.2870 -0.1976  0.6247
  703TMC3    H110399   1.981   0.092  10.015  1.2651  1.6080  0.6294
  703TMC3    H210400   2.059   0.192  10.405 -0.1454  1.9544 -0.7975
  703TMC3    C710401   2.164   0.144  10.197 -0.3955 -0.2688 -0.2280
  703TMC3    C810402   1.874   0.043  10.510 -1.1300  0.1597 -0.4398
  703TMC3    O110403   2.224   0.233  10.141 -0.0421 -0.1076 -0.3931
  703TMC3    O210404   1.987   0.052  10.559 -0.0678 -0.1281 -0.4352
  704TMC3    C110405   3.887   2.217  12.181 -0.5038 -0.2716 -0.3249
  704TMC3    C210406   4.009   2.272  12.183  0.5844  0.8322 -0.1284
  704TMC3    C310407   4.113   2.206  12.250 -0.1703  0.3652 -0.4202
  704TMC3    C410408   3.863   2.094  12.230 -0.7792 -0.1799 -0.4794
  704TMC3    C510409   3.970   2.031  12.292  0.6319 -0.0683  0.1125
  704TMC3    C610410   4.095   2.079  12.296  0.4575 -0.3685 -0.4202
  704TMC3     C10411   3.803   2.273  12.074 -0.1620 -0.0601  0.3305
  704TMC3     O10412   3.680   2.278  12.078  0.1467  0.7219 -0.0506
  704TMC3     H10413   4.019   2.378  12.166 -1.4907  0.8725 -0.9777
  704TMC3    H110414   3.767   2.044  12.218 -0.8836  0.3807 -1.9486
  704TMC3    H210415   4.167   2.012  12.342 -0.5007 -0.5146  0.8581
  704TMC3    C710416   3.971   1.892  12.281 -0.1775 -0.2055  0.8678
  704TMC3    C810417   4.247   2.224  12.198  0.1789 -1.0691  0.4686
  704TMC3    O110418   4.075   1.843  12.228  0.0606  0.3277 -0.3855
  704TMC3    O210419   4.271   2.254  12.085  0.1485 -0.0907 -0.3280
  705MPD2     C10420   4.275   4.578  16.486 -0.3983  0.4958 -0.4356
  705MPD2    C110421   4.216   4.643  16.382 -0.0827  0.4297 -0.0768
  705MPD2    C210422   4.083   4.614  16.366  0.0216 -0.5416  0.1654
  705MPD2    C310423   4.004   4.532  16.446  0.3313  0.7821 -0.1575
  705MPD2    C410424   4.072   4.474  16.554 -0.2468 -0.2156  0.3549
  705MPD2    C510425   4.203   4.497  16.575 -0.7041 -0.0426  0.0326
  705MPD2     H10426   4.037   4.663  16.280  1.0700 -0.9524 -0.6246
  705MPD2    H110427   4.018   4.417  16.629 -0.6646 -1.2496 -0.7294
  705MPD2    H210428   4.376   4.609  16.507 -0.4172 -1.0081  1.8940
  705MPD2    H310429   4.253   4.461  16.664 -0.0461  0.2253 -0.2264
  705MPD2     N10430   3.867   4.515  16.440 -0.1159  0.2315  0.4030
  705MPD2    H510431   3.827   4.464  16.518 -0.0583  0.0228  0.2965
  705MPD2    N110432   4.277   0.006  16.286  0.0736  0.2753 -0.1921
  705MPD2    H710433   4.217   0.057  16.221 -0.4856 -0.0169  0.0931
  706TMC3    C110434   4.514   0.115  15.955 -0.4518  0.4843 -0.5895
  706TMC3    C210435   4.429   0.216  15.919  0.0706  0.0292  0.6275
  706TMC3    C310436   4.347   0.267  16.010 -0.8172 -0.2390  0.5443
  706TMC3    C410437   4.506   0.055  16.074  0.1618 -0.1293 -0.4331
  706TMC3    C510438   4.431   0.119  16.166  0.7025 -0.9459 -0.0840
  706TMC3    C610439   4.343   0.215  16.138 -0.4090 -0.0328  0.2760
  706TMC3     C10440   4.543   0.029  15.848  0.4004  0.9308 -0.6485
  706TMC3     O10441   4.538   4.632  15.867 -0.3130 -0.2735 -0.0466
  706TMC3     H10442   4.445   0.263  15.823 -2.5681 -0.0358  0.1630
  706TMC3    H110443   4.557   4.686  16.096 -0.1237  0.2551  1.8256
  706TMC3    H210444   4.283   0.256  16.218 -1.5943 -2.3882  0.5926
  706TMC3    C710445   4.412   0.041  16.280  0.6682  1.0600  0.0165
  706TMC3    C810446   4.275   0.393  15.980  0.1301 -0.9975 -0.0827
  706TMC3    O110447   4.503   4.715  16.345  0.6591 -0.1948  0.0270
  706TMC3    O210448   4.267   0.434  15.865  0.0874 -0.7914 -0.0267
  707TMC3    C110449   1.404   2.887   1.955 -0.4748  0.2052  0.5771
  707TMC3    C210450   1.526   2.893   2.016  0.0786 -0.3415  0.3618
  707TMC3    C310451   1.547   2.820   2.126 -0.4419  0.5841 -0.0724
  707TMC3    C410452   1.318   2.784   1.991 -0.2106 -0.4797 -0.1242
  707TMC3    C510453   1.340   2.729   2.112  0.0702  0.5512 -0.2682
  707TMC3    C610454   1.455   2.744   2.190 -0.3609  0.0654  0.1353
  707TMC3     C10455   1.410   2.927   1.814 -0.4798  0.1931 -0.6642
  707TMC3     O10456   1.518   2.958   1.775 -0.2917 -0.6395 -0.2374
  707TMC3     H10457   1.592   2.975   1.991 -0.3919 -0.3020 -0.7236
  707TMC3    H110458   1.237   2.749   1.928  0.1935  0.2819 -1.0608
  707TMC3    H210459   1.472   2.698   2.286 -0.8531 -0.9561 -0.2737
  707TMC3    C710460   1.239   2.645   2.176  0.0883 -0.4501 -0.9856
  707TMC3    C810461   1.690   2.814   2.164  0.1218 -0.2466 -0.1448
  707TMC3    O110462   1.276   2.577   2.275  0.1645  0.0265 -0.4356
  707TMC3    O210463   1.717   2.786   2.282 -0.1885 -0.7165 -0.5328
  708MPD2     C10464   2.305   3.711  13.948  0.2809 -0.2165  0.5157
  708MPD2    C110465   2.295   3.585  13.998  0.2457  0.2439 -0.1471
  708MPD2    C210466   2.395   3.527  14.069  0.2475 -0.1262  0.0731
  708MPD2    C310467   2.508   3.600  14.102 -0.2166 -0.2222  0.1362
  708MPD2    C410468   2.505   3.731  14.080  0.3030  0.4020 -0.3558
  708MPD2    C510469   2.410   3.789  13.991 -0.3224 -0.2670 -0.0225
  708MPD2     H10470   2.374   3.425  14.098  2.3525 -0.6947 -0.4279
  708MPD2    H110471   2.586   3.798  14.106  0.6364  0.3352 -1.2199
  708MPD2    H210472   2.227   3.761  13.891  1.5810 -0.6945 -1.7049
  708MPD2    H310473   2.419   3.894  13.968  0.8468 -0.2212  0.6376
  708MPD2     N10474   2.623   3.549  14.159 -1.1340  0.4341 -0.3911
  708MPD2    H510475   2.704   3.608  14.176 -0.9926 -0.4337  1.9525
  708MPD2    N110476   2.190   3.500  13.975 -0.1763  0.0784 -0.2438
  708MPD2    H710477   2.192   3.412  14.025 -0.0300 -0.1158 -0.5891
  709TMC3    C110478   1.959   3.446  13.955  0.2223  0.3073  0.5271
  709TMC3    C210479   1.859   3.411  13.872 -0.2695 -0.7202  0.4203
  709TMC3    C310480   1.747   3.354  13.928  0.2459  0.7443  0.0026
  709TMC3    C410481   1.955   3.413  14.081  0.2646 -0.3892 -0.5708
  709TMC3    C510482   1.847   3.347  14.130  0.9369  0.5727 -0.2689
  709TMC3    C610483   1.735   3.321  14.058 -0.0402 -0.1987 -0.1572
  709TMC3     C10484   2.069   3.529  13.912  0.7725  0.9461  0.2940
  709TMC3     O10485   2.038   3.621  13.841  0.2347  0.1223  0.7971
  709TMC3     H10486   1.880   3.431  13.767 -1.3070  1.1056  0.5842
  709TMC3    H110487   2.013   3.477  14.147 -1.5001  1.2141 -0.5991
  709TMC3    H210488   1.645   3.275  14.094 -0.5275  0.8242 -0.0587
  709TMC3    C710489   1.863   3.285  14.258  0.0767  0.2170 -0.2433
  709TMC3    C810490   1.652   3.294  13.830 -0.1594 -0.1259 -0.9489
  709TMC3    O110491   1.771   3.293  14.339 -0.6662 -0.0317  0.2955
  709TMC3    O210492   1.569   3.216  13.875 -0.6768  0.4856  0.5670
  710TMC3    C110493   3.367   4.668   0.579 -0.0084 -0.7211  0.1310
  710TMC3    C210494   3.441   4.585   0.502 -0.7407 -0.3053  0.2205
  710TMC3    C310495   3.572   4.561   0.537  0.7577  0.0412  0.0590
  710TMC3    C410496   3.423   0.008   0.687 -0.8093 -0.0328 -0.1757
  710TMC3    C510497   3.559   4.711   0.713  0.3508 -0.6856 -0.2931
  710TMC3    C610498   3.635   4.626   0.640 -0.0512 -0.1597  0.0152
  710TMC3     C10499   3.232   4.696   0.531  0.0093 -0.3260  0.0889
  710TMC3     O10500   3.212   4.681   0.413 -0.2009  0.4429 -0.2811
  710TMC3     H10501   3.403   4.544   0.409 -0.2166 -0.6176  0.1466
  710TMC3    H110502   3.360   0.073   0.746 -2.1826 -0.6722 -0.9482
  710TMC3    H210503   3.732   4.591   0.676  0.6362  1.2064 -0.5198
  710TMC3    C710504   3.612   0.009   0.846 -0.9061 -0.2226 -1.2056
  710TMC3    C810505   3.652   4.477   0.450  0.1870 -0.1007  0.6095
  710TMC3    O110506   3.708   4.660   0.874  0.1750  0.1088  0.1732
  710TMC3    O210507   3.775   4.482   0.459 -0.2304  0.5546 -0.0420
  711TMC3    C110508   2.719   1.002  15.207  0.3785 -0.1116 -0.7980
  711TMC3    C210509   2.706   0.926  15.323 -0.3609 -0.6008  0.5496
  711TMC3    C310510   2.767   0.968  15.438  0.3244  0.4534 -0.4418
  711TMC3    C410511   2.788   1.116  15.210 -0.2927  0.0915 -0.2711
  711TMC3    C510512   2.834   1.161  15.327  0.4258  0.1465  0.9863
  711TMC3    C610513   2.815   1.097  15.445 -1.1546  0.2315  0.3408
  711TMC3     C10514   2.693   0.940  15.086  0.3701 -0.4703  0.3825
  711TMC3     O10515   2.699   0.819  15.087 -0.4591  0.1051 -0.2869
  711TMC3     H10516   2.670   0.824  15.317 -2.5377  0.1177  1.5618
  711TMC3    H110517   2.787   1.173  15.117  1.0778  1.3960  0.5093
  711TMC3    H210518   2.842   1.148  15.536 -0.8757  0.6914  0.0015
  711TMC3    C710519   2.975   1.169  15.330  0.0387 -0.1107  0.6264
  711TMC3    C810520   2.816   0.867  15.529 -0.4139  0.4319  1.0714
  711TMC3    O110521   3.035   1.129  15.429 -0.6173 -0.8462 -0.4574
  711TMC3    O210522   2.739   0.783  15.567  0.0946  0.1502  0.0006
  712MPD2     C10523   4.041   2.258  12.932  0.6428 -0.0376 -0.6341
  712MPD2    C110524   4.112   2.209  13.034 -0.3364 -0.3149 -0.5003
  712MPD2    C210525   4.126   2.292  13.149  0.1408  0.0349 -0.0926
  712MPD2    C310526   4.073   2.418  13.152  0.0744 -0.2802 -0.1232
  712MPD2    C410527   4.016   2.465  13.039  0.8162  0.2880  0.2873
  712MPD2    C510528   3.993   2.387  12.932 -0.3898 -0.6398  0.1554
  712MPD2     H10529   4.167   2.253  13.241 -0.6940 -0.4069  0.0865
  712MPD2    H110530   3.986   2.569  13.036  1.1200  0.3860  0.5890
  712MPD2    H210531   4.025   2.200  12.841  0.7321 -0.9680 -0.0631
  712MPD2    H310532   3.945   2.429  12.844 -0.8500 -1.8383 -0.1694
  712MPD2     N10533   4.092   2.505  13.259  0.1064 -0.5874 -0.0511
  712MPD2    H510534   4.043   2.594  13.255  0.4508 -0.3698  0.6678
  712MPD2    N110535   4.148   2.072  13.037 -0.1531  0.1545 -0.3898
  712MPD2    H710536   4.181   2.038  13.127 -0.0738  0.6328 -0.2340
  713TMC3    C110537   4.161   2.579  13.472  0.5412  0.1460 -0.5095
  713TMC3    C210538   4.283   2.609  13.521 -0.1991  0.3436  0.2403
  713TMC3    C310539   4.294   2.731  13.581 -0.3682 -0.3460  0.0994
  713TMC3    C410540   4.054   2.659  13.483 -0.5746  0.1327 -0.2046
  713TMC3    C510541   4.068   2.781  13.534 -0.1106  0.2949 -0.9138
  713TMC3    C610542   4.192   2.821  13.580  0.3403 -0.2769 -0.4695
  713TMC3     C10543   4.171   2.479  13.367  0.1692  0.0027  0.2250
  713TMC3     O10544   4.252   2.390  13.394 -0.0079 -0.2383  0.2999
  713TMC3     H10545   4.358   2.532  13.523  0.4774  0.9941 -0.0356
  713TMC3    H110546   3.964   2.616  13.441 -0.3322 -1.3385  0.7793
  713TMC3    H210547   4.204   2.929  13.579  1.0703 -0.3611 -1.0075
  713TMC3    C710548   3.943   2.858  13.562  0.5839  0.7259 -0.4251
  713TMC3    C810549   4.428   2.780  13.585  0.3777 -0.5190 -0.4591
  713TMC3    O110550   3.843   2.807  13.518 -0.8656  0.5885  0.6119
  713TMC3    O210551   4.507   2.723  13.513  0.0874 -0.1987 -0.2026
  714MPD2     C10552   2.008   0.186   1.665  1.0019  0.1765  0.2251
  714MPD2    C110553   2.064   0.126   1.556  0.1505  0.3438  0.0858
  714MPD2    C210554   2.003   0.147   1.431 -0.4924 -0.0576  0.1179
  714MPD2    C310555   1.880   0.208   1.425  0.2469 -0.5392  0.7372
  714MPD2    C410556   1.817   0.249   1.545 -0.8983 -0.2001 -0.0524
  714MPD2    C510557   1.883   0.248   1.657  0.6921 -0.3092 -0.1399
  714MPD2     H10558   2.054   0.106   1.345  0.1270  0.8100  0.0786
  714MPD2    H110559   1.718   0.293   1.546 -1.5102 -1.6143  1.1515
  714MPD2    H210560   2.051   0.179   1.764  0.3443 -0.8054  0.4464
  714MPD2    H310561   1.836   0.280   1.749  2.3358 -3.1326  1.6674
  714MPD2     N10562   1.811   0.238   1.304  0.0855  0.0876  0.0321
  714MPD2    H510563   1.714   0.265   1.315  0.5300  2.3446 -1.6547
  714MPD2    N110564   2.186   0.052   1.567 -0.0235 -0.1992  0.1685
  714MPD2    H710565   2.233   0.049   1.657 -1.1235  0.8012  0.7714
  715TMC3    C110566   2.355   4.616   1.514 -0.1301  0.3939  0.0215
  715TMC3    C210567   2.404   4.529   1.419  0.4529 -0.3044  0.5521
  715TMC3    C310568   2.532   4.488   1.417  0.0800 -0.0492 -0.0513
  715TMC3    C410569   2.440   4.674   1.602  0.8012 -0.1413  0.4329
  715TMC3    C510570   2.569   4.628   1.606 -0.1984 -0.4921 -0.2396
  715TMC3    C610571   2.618   4.543   1.506 -0.6616 -0.2381 -0.0584
  715TMC3     C10572   2.229   4.683   1.474 -0.2223 -0.2352 -0.3533
  715TMC3     O10573   2.171   4.634   1.377  0.2481 -0.1842 -0.4833
  715TMC3     H10574   2.336   4.481   1.349  1.4064 -0.2819 -0.3937
  715TMC3    H110575   2.397   0.021   1.672  2.6342  2.3578 -0.9739
  715TMC3    H210576   2.713   4.495   1.528 -0.8557  0.3170  2.0047
  715TMC3    C710577   2.658   4.690   1.700  0.2319  0.5084  0.4482
  715TMC3    C810578   2.571   4.382   1.322  0.3537 -0.1515  0.1173
  715TMC3    O110579   2.781   4.685   1.688  0.1278  0.1665 -0.2017
  715TMC3    O210580   2.494   4.313   1.259  0.2076 -0.5335  0.0104
  716MPD2     C10581   1.129   3.650   9.760 -0.0450 -1.2295 -0.3458
  716MPD2    C110582   1.129   3.706   9.637 -0.0417 -0.4391 -0.0454
  716MPD2    C210583   1.170   3.627   9.534  0.3971 -0.4450 -0.6077
  716MPD2    C310584   1.188   3.488   9.550 -0.0128  0.7205 -0.2100
  716MPD2    C410585   1.189   3.438   9.672 -0.1602  0.2278  0.0194
  716MPD2    C510586   1.161   3.519   9.775 -0.1402  0.2067 -0.5909
  716MPD2     H10587   1.169   3.668   9.434 -0.2044  0.3838 -0.2534
  716MPD2    H110588   1.186   3.331   9.690  2.1325  0.0515 -0.5713
  716MPD2    H210589   1.102   3.713   9.844  2.5279  0.5485 -0.8760
  716MPD2    H310590   1.128   3.472   9.867  0.1813  1.0365 -0.0528
  716MPD2     N10591   1.202   3.413   9.430  0.3932  0.0445 -0.7029
  716MPD2    H510592   1.210   3.469   9.345  0.9917  1.2006  0.1235
  716MPD2    N110593   1.094   3.837   9.624 -0.1973 -0.2694 -0.1880
  716MPD2    H710594   1.064   3.886   9.708 -1.0770 -1.4122  0.1573
  717TMC3    C110595   1.233   3.228   9.280  0.6824  0.1401  0.6193
  717TMC3    C210596   1.249   3.322   9.181 -0.0354  0.6760 -0.0337
  717TMC3    C310597   1.248   3.281   9.052  0.0283  0.1207  0.2945
  717TMC3    C410598   1.243   3.094   9.251 -0.8262  0.3299  0.0045
  717TMC3    C510599   1.251   3.052   9.120  0.3647  0.1269 -0.0625
  717TMC3    C610600   1.239   3.148   9.023  0.3789  0.9390  0.4151
  717TMC3     C10601   1.228   3.279   9.418 -0.5569  0.3196 -0.2625
  717TMC3     O10602   1.241   3.194   9.509  0.2135  0.3774 -0.6389
  717TMC3     H10603   1.267   3.428   9.193  0.9570  0.8117 -2.9131
  717TMC3    H110604   1.266   3.026   9.332 -1.2355  1.6420  1.2196
  717TMC3    H210605   1.257   3.119   8.920  1.6278  0.9326  0.6411
  717TMC3    C710606   1.295   2.920   9.078  0.7673  0.0270 -0.9629
  717TMC3    C810607   1.208   3.382   8.946 -1.0141 -0.2034 -0.0430
  717TMC3    O110608   1.295   2.889   8.959  0.2767  0.2040  0.3213
  717TMC3    O210609   1.224   3.500   8.981 -0.4275 -0.2197 -0.2826
  718MPD2     C10610   1.040   2.442  13.044 -0.5298 -0.3408  0.1572
  718MPD2    C110611   0.982   2.484  12.928  0.2092  0.3975 -0.3895
  718MPD2    C210612   0.863   2.561  12.928 -0.4775 -0.1081 -0.1400
  718MPD2    C310613   0.808   2.601  13.044 -0.5964 -0.5648  0.1591
  718MPD2    C410614   0.870   2.565  13.169  0.7162 -0.0896 -0.0833
  718MPD2    C510615   0.982   2.480  13.167  0.5646  0.6193 -0.0790
  718MPD2     H10616   0.819   2.586  12.832 -0.7942  0.7027  0.2203
  718MPD2    H110617   0.834   2.584  13.270  0.6018  1.9230 -0.5041
  718MPD2    H210618   1.111   2.361  13.043  0.4885  0.5640 -0.4949
  718MPD2    H310619   1.022   2.437  13.258 -0.0766  1.5487  0.6425
  718MPD2     N10620   0.692   2.684  13.031 -0.1768  0.1014 -0.1253
  718MPD2    H510621   0.656   2.707  12.938  1.6354  1.1142 -0.5929
  718MPD2    N110622   1.026   2.456  12.802 -0.3697  0.0370  0.5095
  718MPD2    H710623   0.962   2.467  12.724  1.2160 -0.1713 -0.8228
  719TMC3    C110624   1.179   2.421  12.627 -0.5017 -0.0412 -0.0141
  719TMC3    C210625   1.065   2.439  12.555 -0.3631  1.0162  0.2572
  719TMC3    C310626   1.054   2.526  12.453  0.2094 -0.0144  0.0045
  719TMC3    C410627   1.288   2.498  12.594 -0.6508 -0.0650  0.7824
  719TMC3    C510628   1.280   2.578  12.489  0.2812  0.1741 -0.2672
  719TMC3    C610629   1.165   2.600  12.412 -0.6297 -0.1825  0.4426
  719TMC3     C10630   1.151   2.401  12.769  0.1277 -0.3480  0.3675
  719TMC3     O10631   1.248   2.397  12.849 -0.0307  0.2373 -0.1660
  719TMC3     H10632   0.982   2.370  12.568  0.4282  0.1024  0.4630
  719TMC3    H110633   1.372   2.493  12.663 -1.0251 -2.4768  1.0483
  719TMC3    H210634   1.166   2.667  12.327 -1.2042 -2.5455 -1.4079
  719TMC3    C710635   1.400   2.654  12.449  0.0164 -0.0453  0.7769
  719TMC3    C810636   0.934   2.605  12.471  0.1298 -0.2693  0.2437
  719TMC3    O110637   1.384   2.760  12.394  0.3880 -0.3886 -0.9024
  719TMC3    O210638   0.863   2.567  12.565  0.4256  0.3173  0.0461
  720MPD2     C10639   4.439   4.132  13.966  0.3020  0.2470  0.1530
  720MPD2    C110640   4.568   4.137  13.908 -0.2069  0.8720 -0.4330
  720MPD2    C210641   4.666   4.078  13.978  0.5099 -0.8719  0.0729
  720MPD2    C310642   4.659   4.046  14.112 -0.2221  0.0856 -0.3879
  720MPD2    C410643   4.535   4.051  14.178  0.5754 -0.0961  0.0936
  720MPD2    C510644   4.430   4.095  14.100 -0.2166  0.9399 -0.5859
  720MPD2     H10645   0.041   4.071  13.934  0.8907 -0.5134  0.8685
  720MPD2    H110646   4.522   4.028  14.284  0.6063  1.0162  0.3368
  720MPD2    H210647   4.357   4.168  13.905  0.7249  0.8113 -0.0892
  720MPD2    H310648   4.330   4.098  14.141  0.2368  1.9588  0.4439
  720MPD2     N10649   0.050   4.004  14.186 -0.1768  0.0819  0.0980
  720MPD2    H510650   0.139   4.018  14.138 -1.0529  0.8249 -1.3078
  720MPD2    N110651   4.594   4.197  13.785 -0.0705  0.2282 -0.4584
  720MPD2    H710652   4.673   4.164  13.731  0.0996  1.4932 -0.9742
  721TMC3    C110653   0.182   3.990  14.376  0.2108  0.5068  0.1555
  721TMC3    C210654   0.180   4.027  14.508  0.4946 -1.1271  0.2813
  721TMC3    C310655   0.295   4.083  14.559 -0.6544 -0.9351  0.7838
  721TMC3    C410656   0.295   4.006  14.295 -0.4155 -0.1890  0.1985
  721TMC3    C510657   0.409   4.039  14.368 -0.3350 -0.5905  0.6339
  721TMC3    C610658   0.409   4.076  14.498  0.3131 -0.1619  0.0960
  721TMC3     C10659   0.052   3.968  14.320 -0.1463 -0.0084  0.6087
  721TMC3     O10660   4.685   3.935  14.396 -0.0738 -0.0401  0.5818
  721TMC3     H10661   0.086   4.021  14.562  0.8670  1.7709  1.2417
  721TMC3    H110662   0.301   3.969  14.193 -1.0583  1.0415 -0.2791
  721TMC3    H210663   0.504   4.117  14.532 -0.3783  0.4321  1.2844
  721TMC3    C710664   0.546   4.017  14.320 -0.4799 -0.0804  0.6618
  721TMC3    C810665   0.303   4.142  14.692  0.3885  0.8036  0.4375
  721TMC3    O110666   0.575   4.035  14.202 -0.0445 -0.5288  0.3509
  721TMC3    O210667   0.409   4.176  14.729 -0.1599  0.0025 -0.0823
  722MPD2     C10668   3.027   2.730  13.293 -0.3504  0.4640  0.4140
  722MPD2    C110669   2.966   2.850  13.307  0.1356 -0.2286 -0.0541
  722MPD2    C210670   2.826   2.856  13.302  0.1104 -0.0785  0.1779
  722MPD2    C310671   2.752   2.738  13.297  0.0450  0.2046 -0.0369
  722MPD2    C410672   2.812   2.616  13.295  0.2995  0.1846 -0.5499
  722MPD2    C510673   2.946   2.617  13.302  0.2823 -0.3203 -0.0015
  722MPD2     H10674   2.775   2.951  13.308 -1.6193 -0.9905 -0.3743
  722MPD2    H110675   2.752   2.526  13.286 -1.2147  1.0508  0.7145
  722MPD2    H210676   3.134   2.714  13.289 -0.5366  0.2815 -3.3572
  722MPD2    H310677   2.993   2.519  13.303 -1.0216 -0.9124  1.2058
  722MPD2     N10678   2.614   2.753  13.276 -0.0402 -0.1881  0.5324
  722MPD2    H510679   2.586   2.845  13.244 -0.8955 -0.6415 -0.0104
  722MPD2    N110680   3.032   2.975  13.299  0.0125 -0.4151  0.5760
  722MPD2    H710681   2.974   3.058  13.290  0.6363 -0.0369  0.0649
  723TMC3    C110682   2.404   2.721  13.202 -0.1854  0.2712  0.0427
  723TMC3    C210683   2.325   2.619  13.150  0.3504  0.4958 -0.2773
  723TMC3    C310684   2.219   2.655  13.074  0.4678 -0.2104  0.9450
  723TMC3    C410685   2.384   2.851  13.171  0.4434  0.2119 -0.6520
  723TMC3    C510686   2.281   2.879  13.089  0.0982  0.6190  0.3828
  723TMC3    C610687   2.194   2.780  13.042 -0.5669  0.4089  0.5304
  723TMC3     C10688   2.518   2.662  13.266  0.1689 -0.7366  0.3287
  723TMC3     O10689   2.520   2.540  13.297 -0.4181 -0.3578  0.4597
  723TMC3     H10690   2.348   2.514  13.166  1.0639  0.2680 -2.8860
  723TMC3    H110691   2.438   2.929  13.224 -2.2099  0.5506  1.5803
  723TMC3    H210692   2.109   2.802  12.979 -1.2804 -0.5733  1.1486
  723TMC3    C710693   2.268   2.999  13.001 -0.0080  0.1017  0.1068
  723TMC3    C810694   2.119   2.557  13.030  0.5040 -0.1440  0.1183
  723TMC3    O110695   2.184   3.004  12.909  0.2703  0.1110  0.1478
  723TMC3    O210696   2.005   2.598  13.024 -0.3979 -0.0390  0.3928
  724TMC3    C110697   2.322   2.031   9.226  0.1593 -0.2836 -0.4126
  724TMC3    C210698   2.341   2.096   9.102 -0.6560 -0.0966 -0.5658
  724TMC3    C310699   2.428   2.041   9.016 -0.1097  0.7200  0.4983
  724TMC3    C410700   2.399   1.920   9.261  0.4137  0.2404  0.6916
  724TMC3    C510701   2.471   1.863   9.156 -0.7264  0.1150  0.1860
  724TMC3    C610702   2.486   1.920   9.036 -1.3685 -0.0472  0.3838
  724TMC3     C10703   2.221   2.068   9.327  0.2619  0.1289  0.0391
  724TMC3     O10704   2.246   2.039   9.441 -0.3648 -0.0375 -0.8753
  724TMC3     H10705   2.298   2.194   9.089 -3.7421 -1.4659 -0.5977
  724TMC3    H110706   2.390   1.884   9.362 -1.5427  0.2033  0.5187
  724TMC3    H210707   2.549   1.873   8.962 -2.2270 -1.9454  0.8577
  724TMC3    C710708   2.564   1.756   9.192 -0.6706  0.2707 -0.2741
  724TMC3    C810709   2.452   2.114   8.891  0.4683  0.3389 -0.3492
  724TMC3    O110710   2.601   1.747   9.311  0.2580  0.6555 -0.0955
  724TMC3    O210711   2.362   2.166   8.824 -0.2873  0.0103  0.3015
  725TMC3    C110712   0.174   4.461  12.676  0.9057 -0.4575 -0.3552
  725TMC3    C210713   0.058   4.469  12.605  0.0745  0.2057 -0.0566
  725TMC3    C310714   0.024   4.352  12.541 -0.4406  0.0904 -0.4992
  725TMC3    C410715   0.259   4.354  12.687 -0.7168 -0.0173 -0.3333
  725TMC3    C510716   0.216   4.242  12.622  0.6122 -0.1903  0.7054
  725TMC3    C610717   0.095   4.241  12.555  0.3187 -0.7557 -0.7062
  725TMC3     C10718   0.213   4.582  12.743  0.0872 -0.1855 -0.1130
  725TMC3     O10719   0.195   4.692  12.686 -0.0984  0.6183  0.2155
  725TMC3     H10720   4.707   4.548  12.605 -0.5906 -0.4327  1.2985
  725TMC3    H110721   0.357   4.346  12.732 -0.2638 -0.9067 -1.4695
  725TMC3    H210722   0.074   4.155  12.492 -1.0618 -0.4083 -0.7189
  725TMC3    C710723   0.304   4.130  12.622 -0.4240 -0.1279 -0.1848
  725TMC3    C810724   4.664   4.358  12.420 -0.4418 -0.4549  0.0699
  725TMC3    O110725   0.422   4.150  12.603  0.2018 -0.0919 -0.4207
  725TMC3    O210726   4.583   4.265  12.404  0.0247  0.0218 -0.0638
  726MPD2     C10727   2.856   1.472   9.855 -0.0407 -0.4686 -0.1265
  726MPD2    C110728   2.860   1.453   9.997  0.1598  0.5444  0.4050
  726MPD2    C210729   2.813   1.335  10.046 -0.7112  0.5924  0.2454
  726MPD2    C310730   2.751   1.236   9.964 -0.3606 -0.1502 -0.0479
  726MPD2    C410731   2.749   1.258   9.830  0.3020  0.2142  0.8722
  726MPD2    C510732   2.800   1.374   9.779 -0.2588 -0.0858  0.8500
  726MPD2     H10733   2.825   1.320  10.153 -0.2675  0.2705  0.1511
  726MPD2    H110734   2.702   1.184   9.766 -0.8468 -0.1265  2.1197
  726MPD2    H210735   2.898   1.556   9.802 -0.0972 -1.4572 -1.7281
  726MPD2    H310736   2.791   1.398   9.674  1.6272 -0.7924  0.5199
  726MPD2     N10737   2.690   1.115  10.008 -0.2913  0.1761  0.8785
  726MPD2    H510738   2.647   1.058   9.936  1.3973 -1.1887  0.9288
  726MPD2    N110739   2.905   1.553  10.088  0.1403  1.0096  0.0624
  726MPD2    H710740   2.900   1.525  10.186 -1.0461 -0.7489 -0.4950
  727TMC3    C110741   2.953   1.771  10.175  0.2171 -0.0944  0.5959
  727TMC3    C210742   3.011   1.715  10.285 -0.0091  0.1037 -0.1208
  727TMC3    C310743   3.031   1.801  10.390  0.5789 -0.9155  0.6852
  727TMC3    C410744   2.903   1.902  10.181  0.0922 -0.2898  0.4912
  727TMC3    C510745   2.923   1.981  10.289  0.2448 -0.3925 -0.4196
  727TMC3    C610746   2.982   1.933  10.397 -0.6330 -0.6838 -0.4623
  727TMC3     C10747   2.912   1.688  10.066 -0.5932 -0.7544 -0.0146
  727TMC3     O10748   2.893   1.749   9.964 -0.3713  0.1247  0.1880
  727TMC3     H10749   3.050   1.614  10.286  0.0978  0.1530  1.9187
  727TMC3    H110750   2.864   1.950  10.092  0.4127  0.9587  1.0204
  727TMC3    H210751   3.012   2.004  10.473 -0.8225 -0.4000 -0.6549
  727TMC3    C710752   2.950   2.125  10.275  0.1214  0.5746  0.7799
  727TMC3    C810753   3.158   1.785  10.453  0.2576  0.2679 -0.4499
  727TMC3    O110754   2.929   2.201  10.368  0.3469 -0.4743  0.4690
  727TMC3    O210755   3.239   1.729  10.381 -0.3308  0.1492 -0.1325
  728TMC3    C110756   2.440   4.472  15.371  0.6020 -0.0792  0.0160
  728TMC3    C210757   2.528   4.570  15.399 -0.1482  0.1661 -0.2980
  728TMC3    C310758   2.590   4.639  15.301  0.5943 -0.1924 -0.1843
  728TMC3    C410759   2.408   4.452  15.235 -0.5887 -0.2105  0.2932
  728TMC3    C510760   2.470   4.520  15.137  0.0772 -0.4045  0.2049
  728TMC3    C610761   2.558   4.620  15.172 -0.3666  0.9171 -0.1793
  728TMC3     C10762   2.387   4.398  15.485 -1.0197 -0.4485  0.4673
  728TMC3     O10763   2.447   4.416  15.589  0.5592  0.1160 -0.0854
  728TMC3     H10764   2.539   4.602  15.503 -0.8172  0.3336 -0.2819
  728TMC3    H110765   2.347   4.365  15.212 -1.9967  0.0465  2.9567
  728TMC3    H210766   2.609   4.680  15.097 -0.3432  0.5446 -0.4606
  728TMC3    C710767   2.407   4.516  15.009 -1.0755 -0.6924  0.0533
  728TMC3    C810768   2.673   0.028  15.328 -0.0088  0.8291 -0.5562
  728TMC3    O110769   2.298   4.459  15.010 -0.3687  0.4691 -0.7729
  728TMC3    O210770   2.708   0.102  15.235  0.0503  0.6373 -0.3147
  729MPD2     C10771   4.129   0.626  17.183 -0.3909  0.1837  0.4458
  729MPD2    C110772   4.265   0.609  17.192  0.4195  0.0072  0.3706
  729MPD2    C210773   4.328   0.625  17.308 -0.4415 -0.8281 -0.8928
  729MPD2    C310774   4.255   0.644  17.422 -0.4240  0.5549  0.0227
  729MPD2    C410775   4.113   0.658  17.410  0.5088  0.3643  0.1917
  729MPD2    C510776   4.053   0.649  17.288 -0.2019  0.2823 -0.0734
  729MPD2     H10777   4.436   0.613  17.316 -0.3704  0.9863  0.7963
  729MPD2    H110778   4.053   0.669  17.499  1.8938  2.3402  0.8880
  729MPD2    H210779   4.074   0.614  17.090  0.2649 -2.0104  0.3356
  729MPD2    H310780   3.945   0.648  17.279 -0.0851 -0.8012 -1.3334
  729MPD2     N10781   4.316   0.670  17.547 -0.1129  0.1485  0.3709
  729MPD2    H510782   4.253   0.684  17.625 -1.2589 -1.7893 -0.1908
  729MPD2    N110783   4.340   0.588  17.067  0.6337  0.7261 -0.3480
  729MPD2    H710784   4.282   0.604  16.985 -1.0014  1.6419  0.9956
  730TMC3    C110785   4.454   0.800  17.682 -0.5512  0.7694  1.0090
  730TMC3    C210786   4.583   0.832   0.017  0.8788 -0.0983  0.8635
  730TMC3    C310787   4.608   0.963   0.036 -0.5159 -0.2111 -0.0822
  730TMC3    C410788   4.351   0.893  17.689  0.8351  0.2041 -0.0165
  730TMC3    C510789   4.383   1.021   0.014 -0.0012 -0.7619  0.2640
  730TMC3    C610790   4.511   1.063   0.039  0.4667 -0.0124  0.7848
  730TMC3     C10791   4.447   0.710  17.566  0.3094  0.5612  0.0520
  730TMC3     O10792   4.540   0.709  17.494  0.3812  0.1900  0.4696
  730TMC3     H10793   4.668   0.764   0.010  0.7464 -0.0528 -1.3044
  730TMC3    H110794   4.251   0.869  17.657  0.5008  0.6903  0.6715
  730TMC3    H210795   4.546   1.165   0.048 -1.2113  0.7371 -1.1969
  730TMC3    C710796   4.304   1.121  17.629 -0.0365 -0.7360  0.8669
  730TMC3    C810797   0.017   1.009   0.042  0.7240  0.0527  0.3670
  730TMC3    O110798   4.228   1.067  17.545  0.6904  0.1294 -0.1041
  730TMC3    O210799   0.041   1.104   0.118  0.2894  0.7145  0.4104
  731MPD2     C10800   4.263   3.543  12.200  0.6202 -0.1757  0.1047
  731MPD2    C110801   4.376   3.466  12.209 -0.1194 -0.0452  0.3334
  731MPD2    C210802   4.416   3.421  12.335 -0.7439  0.2388 -0.3490
  731MPD2    C310803   4.352   3.464  12.449 -0.0386  0.4876 -0.0130
  731MPD2    C410804   4.242   3.545  12.434  0.4758  0.0344  0.5602
  731MPD2    C510805   4.200   3.582  12.313  0.0836  0.3749  0.3633
  731MPD2     H10806   4.493   3.344  12.337 -2.2010 -1.2670 -3.3603
  731MPD2    H110807   4.190   3.579  12.523 -0.6074 -1.7676  0.6126
  731MPD2    H210808   4.232   3.576  12.101  0.4750  0.8600  0.4928
  731MPD2    H310809   4.110   3.641  12.301  0.7411  1.2585 -0.2376
  731MPD2     N10810   4.413   3.433  12.575 -0.0601  0.7617 -0.1699
  731MPD2    H510811   4.505   3.390  12.572 -0.5609 -0.2844 -0.6869
  731MPD2    N110812   4.426   3.418  12.085  0.2898 -0.0466 -0.5420
  731MPD2    H710813   4.390   3.469  12.005  1.4871  0.5603 -0.7015
  732TMC3    C110814   4.568   3.332  11.917  0.2894  0.8716  0.0045
  732TMC3    C210815   4.480   3.375  11.817 -0.0029  0.2300  0.5000
  732TMC3    C310816   4.526   3.364  11.686 -0.4509 -0.3196  0.3931
  732TMC3    C410817   4.692   3.284  11.897 -0.4432  0.4568 -0.4494
  732TMC3    C510818   0.014   3.283  11.764 -0.4251 -0.6772 -0.2735
  732TMC3    C610819   4.660   3.324  11.660 -0.9286 -0.4133  0.5546
  732TMC3     C10820   4.525   3.329  12.058  0.2076  0.4776 -0.1653
  732TMC3     O10821   4.589   3.254  12.130 -0.1500  0.2255  0.5117
  732TMC3     H10822   4.374   3.390  11.835  0.0543  1.1910  0.0318
  732TMC3    H110823   0.029   3.242  11.975 -0.5540 -0.6557 -0.9635
  732TMC3    H210824   4.703   3.332  11.560 -0.4224  0.2363  0.8251
  732TMC3    C710825   0.146   3.235  11.722  0.2429 -0.4658  0.2421
  732TMC3    C810826   4.440   3.400  11.569 -0.1308  0.1110  0.2290
  732TMC3    O110827   0.166   3.217  11.603 -0.4644  0.0244  0.1151
  732TMC3    O210828   4.476   3.353  11.462  0.5450 -0.0710 -0.0485
  733TMC3    C110829   0.323   2.908  12.998  0.0345  0.0412 -0.4500
  733TMC3    C210830   0.406   2.837  13.084 -0.3867  0.3806  0.3550
  733TMC3    C310831   0.540   2.848  13.068 -0.0874  0.7415  0.0975
  733TMC3    C410832   0.375   2.996  12.917 -0.3116  0.0044  0.1928
  733TMC3    C510833   0.511   2.997  12.894 -0.6835 -0.6701  0.3807
  733TMC3    C610834   0.594   2.922  12.969 -0.5638 -0.6467  0.1440
  733TMC3     C10835   0.227   2.835  12.934 -0.0827 -0.4078 -0.5526
  733TMC3     O10836   0.126   2.886  12.889 -0.3381 -0.3495  0.7554
  733TMC3     H10837   0.376   2.777  13.169  0.7758  1.4135  1.5006
  733TMC3    H110838   0.304   3.051  12.857  0.6499 -1.7673 -2.6223
  733TMC3    H210839   0.702   2.922  12.962 -0.5828  0.1410 -0.1833
  733TMC3    C710840   0.550   3.048  12.764  0.3999  0.0810 -0.7401
  733TMC3    C810841   0.626   2.743  13.129  0.7111  0.3253 -0.3857
  733TMC3    O110842   0.494   3.147  12.720  0.2820  0.3356  0.2750
  733TMC3    O210843   0.625   2.738  13.247  0.4368 -0.0814 -0.5329
  734MPD2     C10844   2.607   0.280  12.356 -0.2344 -0.0926  0.0992
  734MPD2    C110845   2.560   0.175  12.278  1.0214  0.3065  0.3797
  734MPD2    C210846   2.584   0.178  12.138 -0.4604 -0.2725 -0.2482
  734MPD2    C310847   2.658   0.285  12.080 -1.3247  0.0556  0.0109
  734MPD2    C410848   2.716   0.378  12.160 -0.0028 -0.3465 -0.7432
  734MPD2    C510849   2.684   0.383  12.295  0.3983 -1.0934 -0.0729
  734MPD2     H10850   2.550   0.097  12.074 -0.5139  0.4609 -1.1597
  734MPD2    H110851   2.772   0.461  12.119 -0.9236  1.2928  1.3595
  734MPD2    H210852   2.601   0.287  12.464  0.3209 -2.3866  0.2695
  734MPD2    H310853   2.720   0.470  12.350 -2.3764 -0.0621  0.0906
  734MPD2     N10854   2.675   0.274  11.936 -0.0184 -0.1397  0.2937
  734MPD2    H510855   2.629   0.194  11.893  1.2456 -0.3957 -0.5590
  734MPD2    N110856   2.488   0.073  12.344  0.1982 -0.3079 -0.5709
  734MPD2    H710857   2.500   0.067  12.445  2.6570  2.3215 -0.6914
  735TMC3    C110858   2.380   4.580  12.358 -0.2814  0.7076 -0.9001
  735TMC3    C210859   2.312   4.490  12.280 -0.6127  0.5006  0.1001
  735TMC3    C310860   2.343   4.354  12.293 -0.1003 -0.3980  0.0983
  735TMC3    C410861   2.467   4.534  12.455 -0.0156 -0.4470 -0.0232
  735TMC3    C510862   2.476   4.400  12.481  1.1898 -0.1493 -0.2570
  735TMC3    C610863   2.425   4.302  12.393 -0.2591 -0.5215 -0.1540
  735TMC3     C10864   2.428   4.688  12.279 -0.6177 -0.2579  0.2236
  735TMC3     O10865   2.398   4.683  12.159 -0.6588  0.0003  0.0697
  735TMC3     H10866   2.234   4.525  12.213 -1.5646 -2.2854 -0.2444
  735TMC3    H110867   2.518   4.607  12.515 -0.7165 -1.5866  1.9412
  735TMC3    H210868   2.453   4.198  12.385 -0.3766 -0.5301 -0.4659
  735TMC3    C710869   2.598   4.357  12.543  0.2056 -0.4771  0.0662
  735TMC3    C810870   2.369   4.299  12.159 -0.3650  0.0067  0.3597
  735TMC3    O110871   2.682   4.443  12.544 -0.0875  0.6028  0.8037
  735TMC3    O210872   2.392   4.179  12.143  0.2054 -0.1151 -0.1731
  736MPD2     C10873   2.723   4.011  12.606 -0.4625 -0.6182 -0.2008
  736MPD2    C110874   2.723   4.143  12.578  0.1190 -0.4706 -0.3451
  736MPD2    C210875   2.852   4.200  12.559 -0.0644  0.7230 -0.1067
  736MPD2    C310876   2.971   4.126  12.563 -0.1303 -0.2114  0.0777
  736MPD2    C410877   2.966   3.994  12.597  0.0778 -0.5343  0.2674
  736MPD2    C510878   2.843   3.941  12.627 -0.0571  0.2927 -0.0289
  736MPD2     H10879   2.876   4.302  12.530 -0.9780  0.9039 -0.2172
  736MPD2    H110880   3.058   3.943  12.620  1.7283  3.0917  1.6795
  736MPD2    H210881   2.629   3.959  12.619 -0.9195  0.2340 -0.1013
  736MPD2    H310882   2.845   3.841  12.668  0.9007  1.0893  1.8193
  736MPD2     N10883   3.096   4.176  12.518  1.0599 -0.3131  0.5364
  736MPD2    H510884   3.170   4.110  12.495  0.5692  0.2194 -2.5301
  736MPD2    N110885   2.601   4.220  12.565 -0.2606  0.5618 -0.1396
  736MPD2    H710886   2.513   4.171  12.555 -0.0753  0.2272 -0.1143
  737TMC3    C110887   3.243   4.322  12.398  0.1267 -0.0466  0.0436
  737TMC3    C210888   3.256   4.440  12.334  0.7342 -0.0787  0.8392
  737TMC3    C310889   3.275   4.442  12.201  1.2496  0.1432 -0.1018
  737TMC3    C410890   3.287   4.212  12.331 -0.0878  0.6211 -0.4001
  737TMC3    C510891   3.327   4.212  12.199  0.4438 -0.0730 -0.5096
  737TMC3    C610892   3.314   4.335  12.131 -0.1545  0.0878  0.5779
  737TMC3     C10893   3.125   4.311  12.489  0.2055 -0.3261  0.2657
  737TMC3     O10894   3.062   4.409  12.513 -0.1135 -0.1262 -0.0659
  737TMC3     H10895   3.231   4.534  12.382 -0.0307  0.8709 -1.4246
  737TMC3    H110896   3.292   4.117  12.382  0.5649  0.4045 -0.8730
  737TMC3    H210897   3.344   4.347  12.027  1.5783  2.8603  1.4102
  737TMC3    C710898   3.353   4.086  12.129  0.1457 -0.9067 -0.3387
  737TMC3    C810899   3.260   4.575  12.141 -0.0916 -0.3319  0.3892
  737TMC3    O110900   3.328   3.983  12.192  0.2765 -0.0540 -0.0513
  737TMC3    O210901   3.292   4.675  12.208  0.3796  0.6449  0.4428
  738MPD2     C10902   3.397   2.889  15.366 -0.3256 -0.3963  0.3795
  738MPD2    C110903   3.352   2.881  15.230  0.4441 -0.1508  0.4724
  738MPD2    C210904   3.438   2.936  15.130 -0.2091  0.1899 -0.0980
  738MPD2    C310905   3.564   2.995  15.166 -0.3500  0.0115  0.5345
  738MPD2    C410906   3.600   2.995  15.295  0.3272  0.1229  0.0638
  738MPD2    C510907   3.516   2.948  15.394  0.9962  0.0174  0.1050
  738MPD2     H10908   3.399   2.929  15.029 -0.2231  0.3357 -0.1034
  738MPD2    H110909   3.696   3.044  15.313  0.4151  0.9018 -2.4733
  738MPD2    H210910   3.340   2.847  15.448 -3.0143  1.0107 -0.7596
  738MPD2    H310911   3.551   2.956  15.496  1.7800 -1.5294 -0.0494
  738MPD2     N10912   3.659   3.022  15.070 -0.2677  1.1957  0.0140
  738MPD2    H510913   3.753   3.040  15.104  0.6480 -1.8148 -0.9067
  738MPD2    N110914   3.223   2.834  15.182 -0.3188  0.4876 -0.2702
  738MPD2    H710915   3.204   2.819  15.084 -0.1294  0.4106 -0.2951
  739TMC3    C110916   3.774   3.047  14.862 -1.1158  0.1425 -0.4671
  739TMC3    C210917   3.763   3.083  14.732  0.3044  0.1552 -0.0889
  739TMC3    C310918   3.878   3.091  14.660 -0.5462 -0.4398 -0.6401
  739TMC3    C410919   3.890   3.037  14.937  0.0437  0.7233  0.8550
  739TMC3    C510920   4.001   3.064  14.866 -0.4741 -0.4043 -0.1493
  739TMC3    C610921   4.000   3.092  14.728 -0.9200  0.7916 -0.5781
  739TMC3     C10922   3.646   3.034  14.929 -0.3735 -0.2912 -0.6827
  739TMC3     O10923   3.539   3.040  14.863  0.2490  0.1249  0.8364
  739TMC3     H10924   3.666   3.089  14.685  0.8332 -2.3709 -1.5448
  739TMC3    H110925   3.888   3.009  15.042 -1.3032 -0.2920  0.5545
  739TMC3    H210926   4.097   3.083  14.681 -0.4315  0.5694  0.4882
  739TMC3    C710927   4.126   3.064  14.939 -0.8002  0.7790 -0.0299
  739TMC3    C810928   3.862   3.151  14.526  0.0625  0.0677 -0.1543
  739TMC3    O110929   4.123   3.003  15.044 -0.3892  0.2187 -0.7392
  739TMC3    O210930   3.748   3.139  14.478 -0.0773 -0.7317  0.3347
  740TMC3    C110931   4.466   4.465  14.295  0.3308 -0.7575  0.2910
  740TMC3    C210932   4.468   4.368  14.391  0.2987 -0.5286  0.4134
  740TMC3    C310933   4.579   4.291  14.416  0.6818 -0.2347 -0.2246
  740TMC3    C410934   4.578   4.478  14.210 -0.2035  0.0908  0.1953
  740TMC3    C510935   4.689   4.396  14.231 -0.7185  0.0842 -0.4119
  740TMC3    C610936   4.693   4.308  14.336  0.3259  0.4252  0.1071
  740TMC3     C10937   4.352   4.549  14.282 -0.1891  0.0624  0.4789
  740TMC3     O10938   4.327   4.606  14.173 -0.1853  0.3113  0.4577
  740TMC3     H10939   4.374   4.355  14.444  0.5215  0.0192  0.9446
  740TMC3    H110940   4.567   4.549  14.129  0.7587 -0.8489 -0.7585
  740TMC3    H210941   0.057   4.247  14.354  0.0648 -0.2568 -0.9253
  740TMC3    C710942   0.065   4.379  14.130  0.2692 -0.3575 -0.3121
  740TMC3    C810943   4.584   4.211  14.535  0.8911 -0.3377  0.0097
  740TMC3    O110944   0.150   4.294  14.169  0.3515 -0.1574 -0.1583
  740TMC3    O210945   4.691   4.215  14.589 -0.5720  0.2135 -0.0369
  741TMC3    C110946   3.671   3.666  14.297 -0.2616  0.5450 -0.0005
  741TMC3    C210947   3.543   3.627  14.278  0.3460 -0.2949  0.2466
  741TMC3    C310948   3.497   3.523  14.355 -0.5260 -0.7833 -0.2991
  741TMC3    C410949   3.753   3.609  14.393  0.4055 -0.2983  1.4196
  741TMC3    C510950   3.701   3.509  14.469 -0.1888  0.5863 -0.0804
  741TMC3    C610951   3.583   3.447  14.434 -0.5482  0.2156  0.7960
  741TMC3     C10952   3.727   3.757  14.197  0.9898  0.3036  0.0949
  741TMC3     O10953   3.645   3.834  14.139 -0.3865 -0.2908  0.3672
  741TMC3     H10954   3.481   3.696  14.223  0.2214 -0.1627  0.5539
  741TMC3    H110955   3.846   3.657  14.421  0.8209  1.7422 -3.4356
  741TMC3    H210956   3.544   3.365  14.493 -0.8719 -0.1470  0.0718
  741TMC3    C710957   3.766   3.481  14.592  0.0194 -0.3309 -0.1789
  741TMC3    C810958   3.376   3.457  14.301 -0.1781  0.4851  0.6128
  741TMC3    O110959   3.877   3.533  14.605 -0.1353  0.3490  0.9378
  741TMC3    O210960   3.285   3.530  14.268  0.1527  0.3924 -0.3018
  742TMC3    C110961   3.591   2.067  15.357  0.1370  0.1970 -0.0542
  742TMC3    C210962   3.507   2.021  15.264 -0.2532  0.4308 -0.4911
  742TMC3    C310963   3.563   1.958  15.153  0.2358  0.2693  0.5239
  742TMC3    C410964   3.723   2.081  15.328  0.4597 -0.7194  0.2750
  742TMC3    C510965   3.775   2.037  15.206 -0.3327 -0.0509  0.2780
  742TMC3    C610966   3.691   1.975  15.121  0.4829  0.0282  0.5083
  742TMC3     C10967   3.527   2.111  15.480  0.4127 -0.0334 -0.0742
  742TMC3     O10968   3.408   2.102  15.493  0.1795 -0.1369 -0.1474
  742TMC3     H10969   3.412   1.989  15.305  1.1494 -0.7547  1.7890
  742TMC3    H110970   3.792   2.123  15.399  0.4462 -0.2899  0.0312
  742TMC3    H210971   3.741   1.948  15.028 -0.6755 -1.5408  0.3346
  742TMC3    C710972   3.913   2.054  15.173  0.3464 -0.2584 -0.0854
  742TMC3    C810973   3.479   1.938  15.038 -0.2784 -0.4438  0.5414
  742TMC3    O110974   3.955   1.995  15.074 -0.4207 -0.5351  0.1455
  742TMC3    O210975   3.520   1.853  14.961 -0.1346 -0.6885 -0.1442
  743MPD2     C10976   2.738   2.929   1.754  0.2624 -0.2480  0.9261
  743MPD2    C110977   2.717   2.947   1.623 -0.5475  0.4747  0.5068
  743MPD2    C210978   2.826   2.963   1.540 -0.1967 -0.1126  0.5799
  743MPD2    C310979   2.958   2.954   1.591 -0.3764 -0.9419  0.6256
  743MPD2    C410980   2.973   2.941   1.725 -0.5675  0.0342 -0.2330
  743MPD2    C510981   2.866   2.919   1.805  0.1564  0.4434 -0.4440
  743MPD2     H10982   2.808   2.958   1.433  1.8078  2.8310  0.0910
  743MPD2    H110983   3.072   2.933   1.769 -1.3679 -1.9052  1.2622
  743MPD2    H210984   2.653   2.922   1.820  0.0040 -1.5698  0.4456
  743MPD2    H310985   2.875   2.900   1.911  0.3811  2.6241 -0.0664
  743MPD2     N10986   3.069   2.955   1.503  0.7700 -0.1906 -0.4765
  743MPD2    H510987   3.073   2.966   1.403  2.5762 -2.1766 -0.6173
  743MPD2    N110988   2.582   2.944   1.589  0.1871  0.3401  0.0078
  743MPD2    H710989   2.510   2.961   1.658 -0.4427 -1.0081 -0.3125
  744TMC3    C110990   2.396   2.916   1.455 -0.2774 -0.4533 -0.4618
  744TMC3    C210991   2.314   2.935   1.565  0.1139  0.7019 -0.6891
  744TMC3    C310992   2.181   2.915   1.544 -0.2568  0.1235  0.7109
  744TMC3    C410993   2.346   2.881   1.339  0.2783 -0.4922  0.2100
  744TMC3    C510994   2.213   2.864   1.317 -0.2803  0.1148 -0.4483
  744TMC3    C610995   2.128   2.884   1.419  0.1328 -0.5700 -0.0655
  744TMC3     C10996   2.538   2.936   1.463 -0.0995 -0.0207  0.2404
  744TMC3     O10997   2.603   2.922   1.361 -0.0155  0.4869  0.3642
  744TMC3     H10998   2.334   2.992   1.655  0.2780 -2.2563  1.1802
  744TMC3    H110999   2.404   2.870   1.248  2.0711  1.6521  1.1015
  744TMC3    H211000   2.020   2.890   1.409  0.4392  1.5423 -2.2888
  744TMC3    C711001   2.161   2.833   1.182  0.2935  0.0199  0.3993
  744TMC3    C811002   2.092   2.916   1.654 -0.1178  0.0151 -0.5064
  744TMC3    O111003   2.237   2.842   1.089  0.4238 -0.0644 -0.3299
  744TMC3    O211004   1.975   2.931   1.628 -0.3757  0.1031  0.2465
  745TMC3    C111005   4.117   1.855  12.974  0.1957  0.3502  0.3861
  745TMC3    C211006   4.057   1.860  13.092  0.4209  0.0742 -0.3375
  745TMC3    C311007   3.929   1.816  13.093 -0.6389  0.8138  0.0236
  745TMC3    C411008   4.063   1.800  12.857 -0.2770 -0.0767  0.3625
  745TMC3    C511009   3.934   1.759  12.866 -0.5497 -0.4414  0.1241
  745TMC3    C611010   3.864   1.769  12.986 -0.6241  0.4605  0.3734
  745TMC3     C11011   4.155   1.984  12.926  0.2088 -0.2683 -0.1848
  745TMC3     O11012   4.178   2.002  12.807 -0.1759 -0.2104 -0.2040
  745TMC3     H11013   4.113   1.877  13.183  2.8843  0.7051 -1.9782
  745TMC3    H111014   4.117   1.789  12.764  1.4174  0.5346  1.2797
  745TMC3    H211015   3.767   1.722  12.998  0.1526 -1.0058  0.8688
  745TMC3    C711016   3.852   1.825  12.768 -0.2838 -0.7318 -0.3229
  745TMC3    C811017   3.846   1.862  13.204  0.2875 -0.2424 -0.0557
  745TMC3    O111018   3.731   1.822  12.791  0.3134 -0.4897  0.2887
  745TMC3    O211019   3.729   1.847  13.186  0.1117 -0.1915 -0.2050
  746TMC3    C111020   1.898   3.851  10.586  0.7196 -0.3392 -0.0567
  746TMC3    C211021   1.925   3.891  10.457 -0.3437  0.0701  0.6043
  746TMC3    C311022   1.828   3.908  10.359  0.1309 -0.2738  0.8508
  746TMC3    C411023   1.772   3.819  10.631 -0.0466  0.1655  0.4219
  746TMC3    C511024   1.677   3.831  10.536 -0.0578 -0.4331 -0.5214
  746TMC3    C611025   1.702   3.872  10.404  0.4355  0.1540  0.3215
  746TMC3     C11026   1.997   3.897  10.678  0.1903 -0.3734  1.2101
  746TMC3     O11027   2.112   3.871  10.643 -0.5845 -0.3037 -0.2418
  746TMC3     H11028   2.010   3.959  10.458  0.8806 -1.4715  1.6519
  746TMC3    H111029   1.750   3.783  10.730  3.9832 -1.9862  0.5398
  746TMC3    H211030   1.606   3.877  10.354  1.0115  0.2905 -0.7729
  746TMC3    C711031   1.550   3.789  10.583  0.6164 -0.4323 -0.6808
  746TMC3    C811032   1.822   4.043  10.304  0.9199 -0.3899 -0.1756
  746TMC3    O111033   1.471   3.743  10.502 -0.5253  0.2137 -0.2089
  746TMC3    O211034   1.900   4.125  10.343 -0.0831 -0.0070 -0.3517
  747TMC3    C111035   3.533   4.041  11.073 -0.1060  0.1079  0.6947
  747TMC3    C211036   3.449   4.040  11.181 -0.4067  0.1475  0.2696
  747TMC3    C311037   3.505   4.050  11.303  0.1711 -0.4987 -0.1817
  747TMC3    C411038   3.669   4.034  11.093 -0.6191 -0.6016  0.1898
  747TMC3    C511039   3.717   4.040  11.225 -0.1397  0.4294  0.1552
  747TMC3    C611040   3.639   4.050  11.335  0.2636  0.4878 -1.0847
  747TMC3     C11041   3.490   4.110  10.956 -0.8166 -0.4413 -0.4860
  747TMC3     O11042   3.398   4.194  10.964 -0.0966 -0.1121  0.5161
  747TMC3     H11043   3.343   4.026  11.160 -0.4124  0.8518 -0.1865
  747TMC3    H111044   3.735   4.039  11.007 -0.1683  0.6845  0.6100
  747TMC3    H211045   3.671   4.077  11.436  0.5774 -2.8316 -0.2807
  747TMC3    C711046   3.848   3.986  11.253 -0.2725 -1.3482 -0.1321
  747TMC3    C811047   3.418   4.001  11.407 -0.0273  0.4278  0.7647
  747TMC3    O111048   3.885   4.007  11.368 -0.5218  0.2136  0.1162
  747TMC3    O211049   3.330   3.920  11.386  0.0320  0.0063  0.3928
  748MPD2     C11050   0.827   4.355   1.540  0.0988  0.0850  0.3097
  748MPD2    C111051   0.892   4.371   1.420  0.4686 -0.1838 -0.1400
  748MPD2    C211052   1.029   4.391   1.421 -0.0099 -0.3849  0.3110
  748MPD2    C311053   1.100   4.389   1.535  0.5481  0.7198 -0.5689
  748MPD2    C411054   1.034   4.376   1.662 -0.2403 -0.3870 -0.2575
  748MPD2    C511055   0.895   4.371   1.657 -0.6657  0.2890  0.2747
  748MPD2     H11056   1.081   4.424   1.332  1.6810 -3.3041  0.1936
  748MPD2    H111057   1.086   4.362   1.755 -0.0909  3.6865  0.2611
  748MPD2    H211058   0.720   4.343   1.551  0.4307 -2.2982  0.9634
  748MPD2    H311059   0.833   4.362   1.745  1.5371 -0.3550  1.7581
  748MPD2     N11060   1.240   4.395   1.518  0.0931  0.6020  0.6147
  748MPD2    H511061   1.276   4.400   1.424 -0.1073 -0.2165  0.4944
  748MPD2    N111062   0.816   4.372   1.295 -0.4642  0.3569  0.5230
  748MPD2    H711063   0.715   4.366   1.299 -0.5831  1.8779 -0.0733
  749TMC3    C111064   1.458   4.355   1.565  0.1452 -0.1280  0.5926
  749TMC3    C211065   1.543   4.262   1.628 -0.3045 -0.0865  0.4418
  749TMC3    C311066   1.652   4.218   1.566 -0.2185  0.3162  0.0360
  749TMC3    C411067   1.486   4.393   1.432  0.6332  0.1166 -0.3402
  749TMC3    C511068   1.610   4.355   1.383 -0.4694  0.0729  0.5474
  749TMC3    C611069   1.693   4.279   1.457 -0.5198  0.4774 -0.0576
  749TMC3     C11070   1.327   4.392   1.620  0.0514 -0.2452  0.0419
  749TMC3     O11071   1.305   4.372   1.741  0.1992 -0.2531 -0.3413
  749TMC3     H11072   1.508   4.221   1.722  0.1807 -0.0197  0.6545
  749TMC3    H111073   1.436   4.472   1.378 -2.1743 -1.6582 -0.3286
  749TMC3    H211074   1.788   4.258   1.410 -0.9308 -0.9186 -0.2576
  749TMC3    C711075   1.665   4.445   1.287  1.0862 -0.2854 -0.5399
  749TMC3    C811076   1.743   4.149   1.654  0.2391 -0.7283  0.5215
  749TMC3    O111077   1.780   4.480   1.310  0.0188  0.4670 -0.2578
  749TMC3    O211078   1.719   4.163   1.773 -0.1432 -0.0528  0.2070
  750MPD2     C11079   2.136   0.945  11.164  0.6816  0.0859 -0.4544
  750MPD2    C111080   2.027   0.898  11.233  0.3776 -0.0651  0.1337
  750MPD2    C211081   1.933   0.819  11.168 -0.0953  0.2096 -0.5792
  750MPD2    C311082   1.953   0.791  11.033  0.6329 -0.4308  0.4055
  750MPD2    C411083   2.065   0.834  10.968 -0.0102 -0.1757 -0.2757
  750MPD2    C511084   2.156   0.917  11.033  0.1809  0.0054 -0.3306
  750MPD2     H11085   1.843   0.790  11.221  0.8630  1.8097  1.9046
  750MPD2    H111086   2.080   0.820  10.862  1.5323 -1.7594  0.1510
  750MPD2    H211087   2.205   1.010  11.216  0.3391 -0.8076  1.1265
  750MPD2    H311088   2.243   0.953  10.979  1.2080 -2.2456 -0.1760
  750MPD2     N11089   1.872   0.712  10.950  0.1075  0.3192 -0.2905
  750MPD2    H511090   1.911   0.693  10.858  2.7491  0.3376  0.7973
  750MPD2    N111091   2.012   0.931  11.368 -0.3447 -0.1000  0.1174
  750MPD2    H711092   2.064   1.012  11.400 -2.0177  1.0284 -0.0683
  751TMC3    C111093   1.686   0.590  10.878 -0.7207 -0.1354 -0.0370
  751TMC3    C211094   1.585   0.498  10.910  0.4227 -0.5440  0.4632
  751TMC3    C311095   1.532   0.435  10.801  0.4694 -0.9774  0.1909
  751TMC3    C411096   1.735   0.609  10.751 -0.5232 -0.0485 -0.3268
  751TMC3    C511097   1.687   0.531  10.648  0.4900 -0.3171 -0.0345
  751TMC3    C611098   1.589   0.442  10.675  0.6899  0.0161 -0.1623
  751TMC3     C11099   1.747   0.663  10.984  0.0337 -0.5232 -0.0915
  751TMC3     O11100   1.692   0.666  11.093  0.0635  0.5772 -0.2399
  751TMC3     H11101   1.551   0.484  11.012  1.0540 -2.4041  0.4021
  751TMC3    H111102   1.793   0.696  10.720  1.5036  0.2161  4.1891
  751TMC3    H211103   1.557   0.366  10.605  0.3330 -1.9389  2.1400
  751TMC3    C711104   1.734   0.546  10.519  0.6610 -0.0132 -0.2351
  751TMC3    C811105   1.418   0.345  10.817  0.1930 -0.4690 -0.8413
  751TMC3    O111106   1.836   0.614  10.506 -0.6050  0.0340 -0.2346
  751TMC3    O211107   1.411   0.264  10.728 -0.1130  0.3100 -0.1138
  752TMC3    C111108   0.759   0.451  17.197  0.6620 -0.0761 -0.0510
  752TMC3    C211109   0.851   0.357  17.158 -0.1126 -0.0676 -0.4280
  752TMC3    C311110   0.963   0.338  17.234 -0.6182  0.2493 -0.1630
  752TMC3    C411111   0.774   0.523  17.317  0.0336 -0.3050  0.0110
  752TMC3    C511112   0.892   0.502  17.385  0.8595 -0.1723  0.9028
  752TMC3    C611113   0.984   0.408  17.350  0.0170 -0.0197  0.1229
  752TMC3     C11114   0.626   0.453  17.133  0.5009  0.6703  0.5615
  752TMC3     O11115   0.530   0.509  17.188  0.3364 -0.1613 -0.3858
  752TMC3     H11116   0.833   0.291  17.074  0.4190 -2.4179  1.3018
  752TMC3    H111117   0.702   0.601  17.338  0.6064  0.2983 -0.2655
  752TMC3    H211118   1.079   0.403  17.403 -0.3210  2.5563  0.9667
  752TMC3    C711119   0.891   0.585  17.508 -0.6494 -0.5966 -0.0753
  752TMC3    C811120   1.058   0.235  17.199 -1.0489  0.2761 -0.1632
  752TMC3    O111121   0.817   0.680  17.521  0.0279  0.3887  0.4774
  752TMC3    O211122   1.044   0.158  17.104  0.1451  0.1875  0.4782
  753TMC3    C111123   2.080   1.744  13.468  0.1374 -0.7445  0.3926
  753TMC3    C211124   2.194   1.726  13.542 -0.1467 -0.0387  0.0973
  753TMC3    C311125   2.231   1.597  13.568 -0.2264  0.4609  0.1095
  753TMC3    C411126   2.002   1.638  13.422 -0.2515 -0.1565 -0.0411
  753TMC3    C511127   2.051   1.514  13.444 -0.2322  0.2936  0.1155
  753TMC3    C611128   2.168   1.488  13.511 -0.3382 -0.0532 -0.5658
  753TMC3     C11129   2.035   1.887  13.451 -0.0238 -0.2875 -0.2162
  753TMC3     O11130   2.096   1.979  13.501  0.2517 -0.0051 -0.4222
  753TMC3     H11131   2.259   1.812  13.555 -0.2560 -0.0256  0.5573
  753TMC3    H111132   1.909   1.655  13.370  0.2189  1.1006 -0.4758
  753TMC3    H211133   2.198   1.389  13.543  0.1522  0.5427  0.8570
  753TMC3    C711134   1.993   1.417  13.356  0.2413 -0.2020  0.3542
  753TMC3    C811135   2.355   1.578  13.639  0.2704 -0.0609  0.6282
  753TMC3    O111136   1.947   1.461  13.253 -0.3792  0.0690  0.1583
  753TMC3    O211137   2.402   1.465  13.653  0.2760 -0.0080  0.3834
  754MPD2     C11138   1.418   0.589  12.884 -0.4195 -0.2956  0.3196
  754MPD2    C111139   1.350   0.470  12.891  0.0772 -0.0155 -0.3041
  754MPD2    C211140   1.212   0.468  12.861 -0.3224 -0.0197 -0.5917
  754MPD2    C311141   1.147   0.579  12.809 -0.3190  0.2466  0.8339
  754MPD2    C411142   1.224   0.693  12.789 -0.1046 -0.8055  1.0463
  754MPD2    C511143   1.353   0.696  12.829  0.0564  0.1315 -0.0210
  754MPD2     H11144   1.151   0.381  12.885 -0.1702 -0.7985 -3.0541
  754MPD2    H111145   1.174   0.784  12.759 -0.3750 -1.3645 -0.1948
  754MPD2    H211146   1.519   0.607  12.917 -0.6027  0.7174  0.3402
  754MPD2    H311147   1.419   0.779  12.809 -0.0927  0.1609 -0.3880
  754MPD2     N11148   1.016   0.577  12.765 -0.2651  0.2553 -0.4637
  754MPD2    H511149   0.986   0.659  12.712 -1.2279  0.2149  0.0306
  754MPD2    N111150   1.407   0.368  12.966  0.3238  0.1213 -0.4283
  754MPD2    H711151   1.486   0.398  13.022 -0.0604  0.4656 -0.0775
  755MPD2     C11152   0.311   1.199  12.899  0.1826  0.1534 -0.1713
  755MPD2    C111153   0.392   1.128  12.992 -0.0379  0.5822  0.1399
  755MPD2    C211154   0.456   1.011  12.945  0.0810  0.7964  0.0138
  755MPD2    C311155   0.458   0.971  12.809  0.0212 -0.3524 -0.0281
  755MPD2    C411156   0.393   1.056  12.723 -0.5361  0.2379 -0.5586
  755MPD2    C511157   0.320   1.163  12.767 -0.5463 -0.2432 -0.2776
  755MPD2     H11158   0.501   0.954  13.025  3.3908 -0.1495 -2.5059
  755MPD2    H111159   0.392   1.036  12.616  1.3515  2.0230 -0.9135
  755MPD2    H211160   0.252   1.286  12.925  0.7526  0.5214 -0.0813
  755MPD2    H311161   0.261   1.212  12.690  0.5307  0.0292 -0.9320
  755MPD2     N11162   0.520   0.858  12.760  0.4709  0.3777 -0.0935
  755MPD2    H511163   0.497   0.826  12.666  2.5897 -0.4462 -0.3486
  755MPD2    N111164   0.413   1.162  13.129  0.6661  0.1975  0.0485
  755MPD2    H711165   0.460   1.093  13.186 -0.0050 -1.6890 -1.6776
  756MPD2     C11166   1.415   1.756   8.775 -0.7049  0.6573  0.4047
  756MPD2    C111167   1.389   1.762   8.907 -0.0809 -0.2621 -0.1448
  756MPD2    C211168   1.278   1.706   8.963 -0.2320  0.6696 -0.6863
  756MPD2    C311169   1.181   1.645   8.882 -0.8110  0.5240  0.2193
  756MPD2    C411170   1.202   1.643   8.742  0.1595  0.2545  0.1279
  756MPD2    C511171   1.317   1.702   8.696  0.1106 -0.2636 -0.0332
  756MPD2     H11172   1.268   1.710   9.071  0.1322  0.2691 -0.6367
  756MPD2    H111173   1.129   1.599   8.675 -0.6988  1.1992  0.4471
  756MPD2    H211174   1.498   1.808   8.729  0.1721 -2.8633 -1.9838
  756MPD2    H311175   1.341   1.710   8.590  0.0275  2.2898  0.1452
  756MPD2     N11176   1.071   1.590   8.952 -0.5189  0.0620  0.5214
  756MPD2    H511177   1.074   1.594   9.053  1.6863 -0.6806  0.4732
  756MPD2    N111178   1.478   1.829   8.993 -0.1037 -0.3150  0.0407
  756MPD2    H711179   1.447   1.823   9.089  0.5836  1.8884  0.3995
  757MPD2     C11180   0.763   0.918   9.619 -0.8445  0.0156  0.2313
  757MPD2    C111181   0.670   0.914   9.520 -0.2082 -0.3731  0.1104
  757MPD2    C211182   0.658   1.016   9.430 -0.6478 -0.5444  0.0518
  757MPD2    C311183   0.753   1.112   9.433 -0.8787  0.2081  0.0160
  757MPD2    C411184   0.856   1.104   9.529 -0.5789 -0.1526 -0.4663
  757MPD2    C511185   0.848   1.019   9.632  0.2856 -0.3077  0.1281
  757MPD2     H11186   0.585   1.012   9.349 -1.5003 -1.6576  0.8617
  757MPD2    H111187   0.931   1.180   9.543  2.7795 -3.4846 -0.2177
  757MPD2    H211188   0.778   0.831   9.682 -1.0815 -0.3721 -0.2430
  757MPD2    H311189   0.931   1.020   9.702 -0.0799 -0.7224  0.5620
  757MPD2     N11190   0.743   1.208   9.325  0.5347 -0.1672  0.5364
  757MPD2    H511191   0.664   1.205   9.261 -1.0811  0.9585  2.4636
  757MPD2    N111192   0.580   0.803   9.521  0.6650  0.0398 -0.6705
  757MPD2    H711193   0.614   0.725   9.576 -1.2113  0.7473  1.4841
  758MPD2     C11194   1.809   0.346  15.629 -0.0577 -0.2225  0.1956
  758MPD2    C111195   1.879   0.281  15.728  0.0687  0.0715  0.7252
  758MPD2    C211196   1.810   0.245  15.836  0.2121  0.1354  0.0512
  758MPD2    C311197   1.680   0.281  15.856  0.2583 -0.6504  0.2756
  758MPD2    C411198   1.613   0.362  15.768  0.0451  0.6635 -0.2502
  758MPD2    C511199   1.683   0.389  15.654 -0.6136 -0.3250  0.7114
  758MPD2     H11200   1.853   0.197  15.923  1.6757  1.7709  0.2173
  758MPD2    H111201   1.513   0.402  15.781 -0.9157 -1.4908 -0.8582
  758MPD2    H211202   1.854   0.368  15.533 -1.8140 -0.7842 -0.7575
  758MPD2    H311203   1.650   0.450  15.571 -3.1514 -0.8892  1.3135
  758MPD2     N11204   1.602   0.233  15.975 -0.6428 -0.1254  0.5145
  758MPD2    H511205   1.501   0.233  15.962 -0.6992 -0.2149  0.9544
  758MPD2    N111206   2.012   0.240  15.702  0.8432  0.4602 -0.5467
  758MPD2    H711207   2.034   0.247  15.604  0.0002 -0.4463 -0.7999
  759MPD2     C11208   0.310   2.888   9.458 -0.5515 -0.0108 -0.0457
  759MPD2    C111209   0.208   2.901   9.551 -0.1427 -0.0986  0.3341
  759MPD2    C211210   0.151   3.033   9.566  0.0761  0.2110  0.2185
  759MPD2    C311211   0.187   3.138   9.480  0.0166  0.2282 -0.3950
  759MPD2    C411212   0.280   3.115   9.379 -0.0464 -0.0776  0.6833
  759MPD2    C511213   0.341   2.996   9.378 -0.3218 -0.3660  0.3989
  759MPD2     H11214   0.078   3.046   9.645 -1.2310 -2.5168 -0.5059
  759MPD2    H111215   0.315   3.188   9.307  2.4797 -0.2374  1.7561
  759MPD2    H211216   0.375   2.804   9.438 -0.1777  0.0112  1.0935
  759MPD2    H311217   0.419   2.978   9.304 -0.0704  2.1824  0.0440
  759MPD2     N11218   0.133   3.264   9.507  0.3086 -0.1611  0.3974
  759MPD2    H511219   0.062   3.258   9.579  1.6361 -1.5881  1.6041
  759MPD2    N111220   0.182   2.805   9.652  0.3306  0.0589  0.1473
  759MPD2    H711221   0.101   2.829   9.709 -0.5545 -0.0228 -1.0763
  760MPD2     C11222   4.432   0.820  11.568 -0.1901  0.0512  0.0609
  760MPD2    C111223   4.569   0.818  11.567 -1.0743  0.1533 -0.1582
  760MPD2    C211224   4.639   0.709  11.620  0.7398  0.0973  0.0222
  760MPD2    C311225   4.571   0.596  11.674  0.5483 -0.5593 -0.1237
  760MPD2    C411226   4.431   0.600  11.667  0.2962 -0.0411  0.2065
  760MPD2    C511227   4.366   0.709  11.618  0.0322  0.1966 -0.0875
  760MPD2     H11228   0.020   0.721  11.645  1.1607 -1.5424 -0.9395
  760MPD2    H111229   4.373   0.514  11.699 -1.0993  0.8735  0.1228
  760MPD2    H211230   4.372   0.904  11.536  0.1821 -0.5912 -2.2642
  760MPD2    H311231   4.258   0.717  11.620 -0.1447 -2.3210 -0.3763
  760MPD2     N11232   4.634   0.490  11.741  0.3549  0.0913  0.6991
  760MPD2    H511233   4.565   0.431  11.787 -1.0620  2.1707  1.2324
  760MPD2    N111234   4.644   0.934  11.521 -0.0355 -0.2903 -0.6820
  760MPD2    H711235   0.016   0.949  11.553 -0.2833 -1.2891  0.5446
  761MPD2     C11236   1.024   0.132  11.078  0.0208 -0.6824 -0.1961
  761MPD2    C111237   1.102   0.079  10.973 -0.6046 -0.3651 -0.0923
  761MPD2    C211238   1.209   0.155  10.926 -0.4647 -0.1839  0.0584
  761MPD2    C311239   1.233   0.284  10.978  0.3120 -0.0683 -0.4725
  761MPD2    C411240   1.154   0.328  11.086  0.0087 -0.0983  0.7795
  761MPD2    C511241   1.053   0.255  11.135  0.6362 -0.3182 -0.2831
  761MPD2     H11242   1.280   0.115  10.855 -0.3172 -0.9758  0.6552
  761MPD2    H111243   1.196   0.417  11.134  0.6411  0.3420 -0.5895
  761MPD2    H211244   0.943   0.072  11.119  0.3617  0.1460  1.6642
  761MPD2    H311245   0.992   0.299  11.213  1.0118 -0.3261  0.0173
  761MPD2     N11246   1.338   0.363  10.926  0.2324 -0.0646 -0.4536
  761MPD2    H511247   1.361   0.445  10.981 -2.1648 -0.5804  1.2886
  761MPD2    N111248   1.076   4.668  10.930  0.7524  0.1103  0.4829
  761MPD2    H711249   1.007   4.615  10.983 -0.9473  1.3750 -0.4471
  762MPD2     C11250   1.711   4.427  10.855 -0.1937  0.0330  0.0612
  762MPD2    C111251   1.609   4.492  10.792  0.0572 -0.5721  0.2109
  762MPD2    C211252   1.628   4.604  10.720  0.9099 -0.0219 -0.5128
  762MPD2    C311253   1.750   4.637  10.683  0.2257  0.0003 -0.9583
  762MPD2    C411254   1.857   4.572  10.730 -0.0775 -0.3605  0.8995
  762MPD2    C511255   1.841   4.469  10.823 -0.3509  0.3506 -0.7871
  762MPD2     H11256   1.547   4.656  10.672  1.3558  0.9505 -0.2123
  762MPD2    H111257   1.961   4.591  10.706 -1.2057  1.7247 -2.2916
  762MPD2    H211258   1.698   4.346  10.925 -0.4419  0.4865  0.5407
  762MPD2    H311259   1.923   4.417  10.871  0.0921  0.2922 -1.6021
  762MPD2     N11260   1.755   4.723  10.574  0.1646  0.4938  0.1319
  762MPD2    H511261   1.669   0.034  10.534  0.8993  0.5442 -1.4025
  762MPD2    N111262   1.471   4.454  10.799  0.1356 -0.0285  0.6070
  762MPD2    H711263   1.398   4.510  10.755  2.3651  2.1730 -0.2642
  763MPD2     C11264   2.986   0.327  16.166 -0.4954  0.2806 -0.3105
  763MPD2    C111265   3.123   0.299  16.160  0.1498  0.3507 -0.2786
  763MPD2    C211266   3.196   0.279  16.279  0.5062  0.3302 -0.6277
  763MPD2    C311267   3.132   0.299  16.399 -0.6694 -0.2059  0.1030
  763MPD2    C411268   2.993   0.321  16.408 -0.7200 -0.1566  0.0945
  763MPD2    C511269   2.923   0.334  16.287 -0.2201 -0.1671  0.5990
  763MPD2     H11270   3.298   0.242  16.273  0.3496  0.0719 -1.8791
  763MPD2    H111271   2.944   0.316  16.504 -0.9736 -1.8183 -0.1095
  763MPD2    H211272   2.924   0.340  16.077 -0.5044  1.1683 -0.1762
  763MPD2    H311273   2.818   0.356  16.296 -0.4045 -0.9278  0.2451
  763MPD2     N11274   3.198   0.299  16.524  0.1620 -0.2582 -0.3636
  763MPD2    H511275   3.154   0.326  16.612  1.5771  0.8975 -0.0145
  763MPD2    N111276   3.188   0.280  16.036 -0.1020 -0.0163 -0.3603
  763MPD2    H711277   3.283   0.244  16.042 -0.5510 -1.1997 -0.3561
  764MPD2     C11278   0.724   1.364   0.065 -0.0782  0.2670  0.2560
  764MPD2    C111279   0.781   1.323  17.646 -0.0881  0.2404 -0.0157
  764MPD2    C211280   0.897   1.249  17.656  0.1372  0.3425  0.2839
  764MPD2    C311281   0.947   1.199   0.082  0.4587  0.1731 -0.2648
  764MPD2    C411282   0.885   1.244   0.200 -0.5063  0.1300  0.4451
  764MPD2    C511283   0.780   1.334   0.185 -0.5030  0.9484  0.7949
  764MPD2     H11284   0.938   1.218  17.560 -2.3543 -0.9021 -0.3960
  764MPD2    H111285   0.916   1.205   0.296  1.7615  1.7302  0.3571
  764MPD2    H211286   0.639   1.431   0.066 -1.2656 -1.2285 -1.0181
  764MPD2    H311287   0.730   1.384   0.268 -2.8880 -0.8436  0.4333
  764MPD2     N11288   1.057   1.112   0.084 -0.1259 -0.4606  0.6534
  764MPD2    H511289   1.100   1.094  17.690 -1.2013  1.1075 -0.1739
  764MPD2    N111290   0.725   1.343  17.516  0.5332  0.1532  0.3126
  764MPD2    H711291   0.776   1.306  17.437 -1.0089 -2.9751  0.7741
  765MPD2     C11292   1.075   4.184  15.862  0.3650  0.1253  0.3788
  765MPD2    C111293   1.138   4.261  15.768  0.1823  0.3947 -0.0716
  765MPD2    C211294   1.235   4.211  15.689  0.2258 -0.1009  0.2657
  765MPD2    C311295   1.278   4.080  15.711 -0.5499 -0.0467  0.1381
  765MPD2    C411296   1.206   4.001  15.801 -0.0527  0.2356 -0.2419
  765MPD2    C511297   1.099   4.053  15.879  0.3264 -0.1483  0.1243
  765MPD2     H11298   1.282   4.272  15.613  1.8768  0.8333  2.0157
  765MPD2    H111299   1.229   3.896  15.809  0.1984  0.3280  0.2976
  765MPD2    H211300   1.003   4.228  15.930  0.2805 -0.4560  0.6709
  765MPD2    H311301   1.055   3.994  15.959 -0.3635 -0.2559 -0.3337
  765MPD2     N11302   1.384   4.030  15.628  0.5765 -0.1968 -0.1931
  765MPD2    H511303   1.438   4.090  15.566  0.4934 -0.7379 -0.7970
  765MPD2    N111304   1.082   4.385  15.751 -0.6792 -0.3973 -0.1181
  765MPD2    H711305   0.988   4.396  15.787 -0.6640  0.1481 -0.2606
  766MPD2     C11306   0.624   4.431  15.190 -0.4651 -0.5125 -0.2475
  766MPD2    C111307   0.745   4.491  15.182 -0.5698  0.3736  0.5531
  766MPD2    C211308   0.804   4.507  15.057  0.2372 -0.2261  0.3629
  766MPD2    C311309   0.742   4.478  14.942 -0.0495  0.0755  1.1092
  766MPD2    C411310   0.619   4.413  14.949 -0.1057 -0.5712  0.0256
  766MPD2    C511311   0.565   4.382  15.074  0.1108  0.3281 -0.4157
  766MPD2     H11312   0.902   4.553  15.051 -0.3171  0.7392 -1.5420
  766MPD2    H111313   0.559   4.398  14.861  0.6161 -1.2788 -0.3479
  766MPD2    H211314   0.574   4.416  15.285 -0.1618 -0.6773 -0.1129
  766MPD2    H311315   0.461   4.355  15.084  0.2437 -0.1815 -0.3951
  766MPD2     N11316   0.796   4.506  14.815 -0.2091  0.2284 -0.8445
  766MPD2    H511317   0.727   4.503  14.740 -1.3408  0.7452  0.1739
  766MPD2    N111318   0.811   4.548  15.293 -0.4245 -0.1014  0.4329
  766MPD2    H711319   0.888   4.613  15.287  0.2015 -1.1042 -2.2316
  767MPD2     C11320   0.415   4.652  14.914  0.4855  0.0433 -0.3921
  767MPD2    C111321   0.506   0.016  14.865  0.6012  0.0163 -0.1846
  767MPD2    C211322   0.521   0.020  14.730 -0.1559  0.5492 -0.1615
  767MPD2    C311323   0.455   4.657  14.645  0.2852  0.0960  0.1631
  767MPD2    C411324   0.361   4.565  14.696  0.8361  0.5468 -0.1557
  767MPD2    C511325   0.347   4.565  14.831 -0.2007 -0.1694  0.0114
  767MPD2     H11326   0.580   0.099  14.686 -2.0940  2.2647  0.2792
  767MPD2    H111327   0.304   4.499  14.631  2.3449  0.4621 -1.3698
  767MPD2    H211328   0.403   4.640  15.021  0.6116 -0.2788 -0.4138
  767MPD2    H311329   0.286   4.493  14.885 -0.6731  0.2753  0.0704
  767MPD2     N11330   0.481   4.676  14.504 -0.3115 -0.2554  0.5116
  767MPD2    H511331   0.563   0.009  14.489  0.2045 -0.9240  0.8104
  767MPD2    N111332   0.586   0.088  14.963 -0.2317 -0.3921 -0.0932
  767MPD2    H711333   0.549   0.077  15.056  0.8917  1.3425  0.5501
  768MPD2     C11334   0.836   2.948  10.782  0.0966 -0.8244  0.0241
  768MPD2    C111335   0.927   3.049  10.767 -0.6372 -0.5896 -0.2605
  768MPD2    C211336   1.051   3.046  10.827 -0.2867 -0.3730 -0.7928
  768MPD2    C311337   1.084   2.940  10.906  0.4151 -0.2122 -0.0010
  768MPD2    C411338   0.988   2.837  10.921  0.0083 -0.2779 -0.0440
  768MPD2    C511339   0.869   2.840  10.858  0.1987  0.4923 -0.2758
  768MPD2     H11340   1.113   3.131  10.802 -5.0855  3.8455  1.7063
  768MPD2    H111341   1.007   2.754  10.989 -1.7311  0.1753  0.9843
  768MPD2    H211342   0.733   2.956  10.749  0.3523  1.5346 -0.2703
  768MPD2    H311343   0.790   2.769  10.883  1.1783 -0.7252 -0.6001
  768MPD2     N11344   1.203   2.933  10.976  0.0306  0.4984  0.4965
  768MPD2    H511345   1.212   2.853  11.038  1.6152  1.4193  1.4489
  768MPD2    N111346   0.897   3.178  10.714  0.0533 -0.1250 -0.2056
  768MPD2    H711347   0.967   3.252  10.718 -0.1705 -0.0259  2.0310
  769MPD2     C11348   2.213   0.801  14.948 -0.1006 -0.4455  0.5353
  769MPD2    C111349   2.196   0.933  14.939  0.7372 -0.3533 -0.0857
  769MPD2    C211350   2.252   1.014  15.038  0.2971 -0.0001  0.2690
  769MPD2    C311351   2.325   0.962  15.146 -0.6341 -0.7252  0.3056
  769MPD2    C411352   2.353   0.822  15.140 -0.0521 -0.6521  0.4229
  769MPD2    C511353   2.296   0.742  15.042  0.5689 -0.6890  0.1756
  769MPD2     H11354   2.234   1.121  15.043 -2.2870 -0.3434 -1.7066
  769MPD2    H111355   2.413   0.778  15.219  1.0849  0.3820  0.1457
  769MPD2    H211356   2.167   0.737  14.874 -1.8343  1.0447  0.3224
  769MPD2    H311357   2.312   0.635  15.036 -1.1691 -0.9370 -0.0185
  769MPD2     N11358   2.367   1.048  15.247 -0.9247  0.4976  0.2065
  769MPD2    H511359   2.354   1.147  15.229 -0.5907  0.5960  0.5167
  769MPD2    N111360   2.112   0.973  14.835  0.0296  0.0513  0.0239
  769MPD2    H711361   2.078   0.908  14.765 -0.6649  0.8280 -0.3539
  770MPD2     C11362   1.951   0.481  14.186  0.1932  1.1898  0.0445
  770MPD2    C111363   1.900   0.478  14.313 -0.9412 -0.1431  0.2480
  770MPD2    C211364   1.878   0.594  14.388  0.3667 -0.6695 -0.2380
  770MPD2    C311365   1.893   0.716  14.326 -0.5979  0.3396  0.2539
  770MPD2    C411366   1.925   0.715  14.191  0.2132 -0.3242 -0.5859
  770MPD2    C511367   1.947   0.597  14.116 -0.6579 -0.1208 -0.5728
  770MPD2     H11368   1.859   0.591  14.495  1.2028  0.2645 -0.0656
  770MPD2    H111369   1.946   0.803  14.132 -1.1460  1.4642  1.6254
  770MPD2    H211370   1.998   0.404  14.126  0.5417  1.5309 -0.1300
  770MPD2    H311371   1.980   0.604  14.013 -0.0671  3.5248 -0.0996
  770MPD2     N11372   1.906   0.829  14.408 -0.0998  0.0179 -0.6900
  770MPD2    H511373   1.936   0.811  14.503  0.9809 -0.3804 -1.1081
  770MPD2    N111374   1.884   0.353  14.373  0.3442  0.4393  0.0174
  770MPD2    H711375   1.936   0.277  14.330  1.2793  1.1613 -0.1214
  771MPD2     C11376   3.233   3.856  13.626  0.0496  0.1910  0.5318
  771MPD2    C111377   3.155   3.972  13.624 -0.2545 -0.2015 -0.0577
  771MPD2    C211378   3.029   3.975  13.560 -0.5711 -0.1728 -0.0125
  771MPD2    C311379   2.979   3.854  13.508  0.2278  0.5498 -0.3969
  771MPD2    C411380   3.055   3.740  13.521 -0.0500 -0.8066  0.4373
  771MPD2    C511381   3.181   3.741  13.573  0.4504 -0.5338 -0.4749
  771MPD2     H11382   2.969   4.065  13.552 -1.7999 -0.7011  3.5088
  771MPD2    H111383   3.029   3.646  13.474  1.6151 -0.8794 -0.3363
  771MPD2    H211384   3.337   3.846  13.655  0.4611  0.3597 -0.8513
  771MPD2    H311385   3.244   3.653  13.573  0.3164 -0.6341  1.3741
  771MPD2     N11386   2.850   3.855  13.448  0.0921  0.1765 -0.3187
  771MPD2    H511387   2.813   3.949  13.434 -0.3145  0.3382  1.8655
  771MPD2    N111388   3.215   4.096  13.665 -0.1898  0.0515  0.1903
  771MPD2    H711389   3.162   4.182  13.658  1.2620  0.9471  0.1561
  772MPD2     C11390   3.035   0.023  13.951 -0.1687  0.1548 -0.8357
  772MPD2    C111391   3.023   4.612  13.915  0.1014  0.3458 -1.0118
  772MPD2    C211392   2.900   4.553  13.954  0.2835 -0.1180 -0.5377
  772MPD2    C311393   2.792   4.619  14.009 -0.0333 -0.7740 -0.8789
  772MPD2    C411394   2.813   0.033  14.028  0.4598  0.4456 -0.1955
  772MPD2    C511395   2.933   0.095  14.005 -0.2553 -0.3078 -0.4786
  772MPD2     H11396   2.889   4.449  13.929  0.9051 -0.4192  0.4608
  772MPD2    H111397   2.730   0.090  14.068 -0.1810 -0.0897 -0.7660
  772MPD2    H211398   3.122   0.083  13.930 -1.4910  2.2093 -0.3808
  772MPD2    H311399   2.949   0.201  14.021 -0.6558 -0.9491  4.2361
  772MPD2     N11400   2.674   4.557  14.036  0.5979  0.0046  0.7882
  772MPD2    H511401   2.603   4.623  14.065 -1.1238 -1.5072 -0.0203
  772MPD2    N111402   3.119   4.545  13.840 -0.2450 -0.0507 -0.5048
  772MPD2    H711403   3.089   4.455  13.804 -1.5336  0.4269 -0.6257
  773MPD2     C11404   2.234   0.195   0.306 -0.4495 -0.0683  0.0775
  773MPD2    C111405   2.108   0.137   0.326 -0.2332 -1.1404  0.4555
  773MPD2    C211406   2.094   0.008   0.382  0.0449  0.4537  0.5743
  773MPD2    C311407   2.205   4.658   0.413  0.0625  0.6219  0.2235
  773MPD2    C411408   2.331   4.715   0.391  0.1996 -0.2287  0.2953
  773MPD2    C511409   2.347   0.116   0.337  0.1793 -0.9160  0.1622
  773MPD2     H11410   1.994   4.691   0.390  0.0590  0.0727 -1.1739
  773MPD2    H111411   2.424   4.659   0.399  0.5258  0.3024  0.1758
  773MPD2    H211412   2.252   0.295   0.267 -0.6800 -0.4875 -1.1045
  773MPD2    H311413   2.440   0.159   0.304  0.3776 -1.2011  0.3505
  773MPD2     N11414   2.194   4.526   0.450  0.5503 -0.7293 -0.0933
  773MPD2    H511415   2.108   4.476   0.431 -0.2387  0.4213  0.4323
  773MPD2    N111416   1.984   0.201   0.291 -0.0455  0.2938  0.2984
  773MPD2    H711417   1.897   0.150   0.288  0.7020 -0.8366 -2.1201
  774MPD2     C11418   1.104   4.253  13.559  0.3692 -0.1332 -0.2329
  774MPD2    C111419   1.204   4.318  13.630  0.3816 -0.0682  0.2171
  774MPD2    C211420   1.258   4.430  13.577  0.0192  0.1659 -0.1731
  774MPD2    C311421   1.201   4.488  13.469  0.0616 -0.0013  0.8858
  774MPD2    C411422   1.099   4.425  13.396  0.2223  0.3953  0.4181
  774MPD2    C511423   1.048   4.309  13.448  0.3272  0.3597 -0.1679
  774MPD2     H11424   1.335   4.482  13.633  0.3772 -0.7364  0.1724
  774MPD2    H111425   1.056   4.458  13.302 -0.2054  0.1509  0.5321
  774MPD2    H211426   1.074   4.156  13.600 -0.9798  0.3423 -0.0894
  774MPD2    H311427   0.969   4.251  13.402 -0.0192 -0.6197  1.6418
  774MPD2     N11428   1.259   4.603  13.425 -0.8851 -0.2997 -0.1991
  774MPD2    H511429   1.334   4.650  13.474 -1.3546  0.7544 -0.4821
  774MPD2    N111430   1.250   4.278  13.758  0.1028  0.4552  0.0051
  774MPD2    H711431   1.331   4.328  13.792  1.7611 -0.8584 -2.0021
  775MPD2     C11432   2.682   0.979  16.127  0.0078 -0.4292 -0.3739
  775MPD2    C111433   2.577   1.072  16.139  0.4334  0.1425 -0.4454
  775MPD2    C211434   2.574   1.192  16.065 -0.0734  0.1611  0.4750
  775MPD2    C311435   2.685   1.215  15.982 -0.0008  0.1298  0.2231
  775MPD2    C411436   2.785   1.117  15.966  0.2348 -0.1333  0.1911
  775MPD2    C511437   2.784   0.999  16.034  0.8801  0.1702  0.1824
  775MPD2     H11438   2.486   1.255  16.077  0.7891  1.4839 -0.2353
  775MPD2    H111439   2.855   1.132  15.884 -1.2597 -0.6888 -1.2005
  775MPD2    H211440   2.685   0.886  16.183  0.2338  0.6452  1.3930
  775MPD2    H311441   2.864   0.932  16.005 -0.5832 -1.2680 -0.4794
  775MPD2     N11442   2.703   1.332  15.902  0.4331  0.0294  0.8409
  775MPD2    H511443   2.791   1.338  15.851 -0.4597  1.5397 -0.5345
  775MPD2    N111444   2.484   1.041  16.247  0.3289  0.4693 -0.2129
  775MPD2    H711445   2.496   0.953  16.296  0.3580  0.3338 -0.4637
  776MPD2     C11446   1.659   1.490  11.918  0.1299  0.1194 -0.2895
  776MPD2    C111447   1.730   1.451  11.804  1.2135  0.4717 -0.4845
  776MPD2    C211448   1.757   1.545  11.708  0.6188 -0.3591 -0.7151
  776MPD2    C311449   1.685   1.663  11.707  0.2671  0.4089 -0.1128
  776MPD2    C411450   1.606   1.691  11.819  0.2133  0.2566 -0.5676
  776MPD2    C511451   1.600   1.612  11.922  0.0503 -0.1757 -0.2855
  776MPD2     H11452   1.798   1.517  11.612 -1.4474  0.7460 -1.9074
  776MPD2    H111453   1.557   1.787  11.831  0.0645  0.3037 -1.6211
  776MPD2    H211454   1.657   1.418  11.999  1.0882 -0.2147 -0.5682
  776MPD2    H311455   1.551   1.632  12.016 -1.5090 -2.6220 -0.5714
  776MPD2     N11456   1.688   1.753  11.599  0.0169  0.0598  0.0065
  776MPD2    H511457   1.628   1.834  11.591  0.4228  0.6123  2.7366
  776MPD2    N111458   1.801   1.325  11.808 -0.0257  0.3393 -0.0842
  776MPD2    H711459   1.782   1.267  11.889 -0.7149  1.0499  0.2622
  777MPD2     C11460   2.488   3.611   0.604  0.2725  0.2824  0.6879
  777MPD2    C111461   2.411   3.550   0.702  0.3179 -0.7545 -0.0210
  777MPD2    C211462   2.331   3.447   0.665 -0.0551 -0.0941 -0.3662
  777MPD2    C311463   2.312   3.408   0.532  0.6498  0.0839 -1.2747
  777MPD2    C411464   2.383   3.473   0.434  0.0281 -0.6479 -0.3043
  777MPD2    C511465   2.479   3.567   0.474 -0.5409  0.5695 -0.0302
  777MPD2     H11466   2.286   3.379   0.737 -0.7899  0.3874 -0.3668
  777MPD2    H111467   2.370   3.445   0.330  2.5474  0.1720 -0.8533
  777MPD2    H211468   2.566   3.681   0.633  0.5338  0.2861 -0.0320
  777MPD2    H311469   2.542   3.617   0.401  3.1302 -1.4845  1.7288
  777MPD2     N11470   2.227   3.298   0.512 -0.3385  0.2126 -0.2856
  777MPD2    H511471   2.197   3.242   0.591  3.5854  0.8112  1.5962
  777MPD2    N111472   2.422   3.579   0.838  0.3362  0.0246  0.2676
  777MPD2    H711473   2.500   3.638   0.864  0.4810 -0.6716  1.3880
  778MPD2     C11474   3.327   4.224  14.861  0.4842  0.0658  0.2556
  778MPD2    C111475   3.350   4.110  14.786  0.1721 -0.1130 -0.1827
  778MPD2    C211476   3.448   4.121  14.677  0.3954 -0.2023  0.6988
  778MPD2    C311477   3.527   4.235  14.656 -0.0765 -0.2637  0.0892
  778MPD2    C411478   3.490   4.352  14.727 -0.1029  0.3270 -0.0011
  778MPD2    C511479   3.393   4.340  14.826 -0.7007 -0.9080  0.2142
  778MPD2     H11480   3.463   4.029  14.623  1.1446 -1.0057  2.2803
  778MPD2    H111481   3.531   4.451  14.710 -0.0945  0.3039 -0.1197
  778MPD2    H211482   3.252   4.225  14.939  0.1577  0.1520 -0.0580
  778MPD2    H311483   3.355   4.429  14.876 -2.2466 -0.8744 -1.0473
  778MPD2     N11484   3.632   4.234  14.559  0.1432 -0.2594  0.0086
  778MPD2    H511485   3.644   4.148  14.507 -0.8253 -0.1040 -0.4686
  778MPD2    N111486   3.291   3.980  14.814 -0.2128 -0.3821 -0.2486
  778MPD2    H711487   3.298   3.913  14.738  0.2129 -2.2664  1.4415
  779MPD2     C11488   2.264   2.677  14.074 -0.8044  0.0862  0.3374
  779MPD2    C111489   2.401   2.687  14.111  0.0582 -0.9119  1.1584
  779MPD2    C211490   2.477   2.797  14.067 -0.8248  0.2551  0.1575
  779MPD2    C311491   2.421   2.890  13.986  0.4232 -0.1191  0.2969
  779MPD2    C411492   2.290   2.882  13.942  0.2034  0.8320 -0.0208
  779MPD2    C511493   2.214   2.776  13.989  0.4421 -0.0911  0.3901
  779MPD2     H11494   2.581   2.805  14.097 -0.9903 -0.2889  0.8785
  779MPD2    H111495   2.237   2.956  13.884 -1.7839 -0.3963  0.2432
  779MPD2    H211496   2.190   2.607  14.110  0.2893 -0.7369  1.0092
  779MPD2    H311497   2.107   2.780  13.972 -0.0198 -0.1429  3.2097
  779MPD2     N11498   2.501   3.005  13.956  0.2460  0.2508  0.4197
  779MPD2    H511499   2.597   2.999  13.988 -0.7786  0.8137  3.6379
  779MPD2    N111500   2.464   2.578  14.175 -0.2992  0.0714  0.6312
  779MPD2    H711501   2.565   2.583  14.179 -0.1281 -2.9145 -0.2355
  780MPD2     C11502   1.741   1.729   1.615  0.1734  0.6884 -0.0950
  780MPD2    C111503   1.807   1.841   1.566  0.1061 -0.5885  0.0875
  780MPD2    C211504   1.883   1.825   1.451  0.1001  0.0158 -0.3997
  780MPD2    C311505   1.884   1.699   1.388  0.1380  0.0799  0.9488
  780MPD2    C411506   1.822   1.598   1.443  0.3011  0.0785  0.3785
  780MPD2    C511507   1.750   1.608   1.559 -0.1780 -0.0974 -0.8388
  780MPD2     H11508   1.947   1.904   1.413 -0.6062 -0.2847 -2.2117
  780MPD2    H111509   1.813   1.504   1.389 -0.6746  0.4359 -0.0905
  780MPD2    H211510   1.684   1.738   1.707 -0.3609  1.4706 -0.4988
  780MPD2    H311511   1.694   1.523   1.596  1.6515 -0.9055  0.1070
  780MPD2     N11512   1.955   1.688   1.263 -0.5756  0.2996  0.0188
  780MPD2    H511513   1.989   1.779   1.236 -0.4909  0.5255  0.8805
  780MPD2    N111514   1.808   1.955   1.643  0.4403  0.4266 -0.4958
  780MPD2    H711515   1.770   1.953   1.737 -2.0794  3.1357 -1.4744
  781MPD2     C11516   0.008   3.636  12.211 -0.4760 -0.4458  0.1800
  781MPD2    C111517   4.626   3.719  12.177 -0.2926  0.0044  0.1307
  781MPD2    C211518   4.593   3.747  12.047  0.7777  0.1316 -0.5933
  781MPD2    C311519   4.679   3.700  11.947 -0.3579  0.4754  0.8012
  781MPD2    C411520   0.062   3.625  11.981  0.6189  0.0430  0.1474
  781MPD2    C511521   0.079   3.587  12.108  0.1044 -0.4647  0.0306
  781MPD2     H11522   4.503   3.802  12.021 -0.3187 -0.9260  0.9630
  781MPD2    H111523   0.132   3.591  11.905 -0.8419 -1.5276 -0.4870
  781MPD2    H211524   0.033   3.598  12.309  1.8437 -1.2246 -0.7189
  781MPD2    H311525   0.167   3.525  12.119  0.1716 -0.1727  1.0990
  781MPD2     N11526   4.662   3.726  11.810 -0.5267 -0.0422 -0.3567
  781MPD2    H511527   0.014   3.699  11.748  1.4716  2.2590  1.0617
  781MPD2    N111528   4.536   3.781  12.272 -0.3431 -0.3419 -0.6758
  781MPD2    H711529   4.461   3.842  12.242 -0.5147 -0.2828 -0.1275
  782MPD2     C11530   2.281   0.868   9.496 -0.3745  0.7832  0.3443
  782MPD2    C111531   2.304   0.766   9.586  0.4242  0.2758  0.0798
  782MPD2    C211532   2.288   0.804   9.720  0.0622  0.3465 -0.2628
  782MPD2    C311533   2.249   0.930   9.761 -0.5780  0.0083 -0.0547
  782MPD2    C411534   2.230   1.026   9.666  0.5939 -0.1812  0.0353
  782MPD2    C511535   2.251   0.997   9.529 -0.2318 -0.5481  0.5709
  782MPD2     H11536   2.311   0.737   9.801 -1.9955 -0.7945 -0.6160
  782MPD2    H111537   2.216   1.131   9.690 -2.3057 -0.9120  1.5328
  782MPD2    H211538   2.289   0.855   9.389 -0.1547  2.7542  0.1119
  782MPD2    H311539   2.240   1.070   9.449  0.2140 -1.2221 -0.1093
  782MPD2     N11540   2.249   0.965   9.895 -0.5953 -0.2096 -0.3747
  782MPD2    H511541   2.255   1.065   9.914 -1.8171 -0.5328  1.6974
  782MPD2    N111542   2.341   0.640   9.534  0.0380  0.1616 -0.0681
  782MPD2    H711543   2.348   0.649   9.433 -2.5488 -1.2189 -0.3774
  783MPD2     C11544   1.608   0.366  10.227  0.3419 -0.6545 -0.4516
  783MPD2    C111545   1.696   0.452  10.292 -0.4890 -0.3289 -0.8420
  783MPD2    C211546   1.811   0.496  10.233  0.2884 -0.5354 -0.7077
  783MPD2    C311547   1.845   0.447  10.104 -0.1000  1.1421  0.1464
  783MPD2    C411548   1.758   0.359  10.043 -0.5063  0.1874 -0.0705
  783MPD2    C511549   1.643   0.311  10.108 -0.2184 -0.4473  0.8687
  783MPD2     H11550   1.882   0.562  10.281 -1.9972  1.1779  0.3120
  783MPD2    H111551   1.786   0.318   9.947  1.5807 -1.9400  1.4556
  783MPD2    H211552   1.515   0.334  10.272 -0.2486 -0.5348 -1.5828
  783MPD2    H311553   1.583   0.232  10.064 -1.2118  0.8498 -0.1133
  783MPD2     N11554   1.968   0.487  10.040 -0.2571  0.2802 -0.2119
  783MPD2    H511555   2.035   0.532  10.101  0.7714  0.5360 -1.5152
  783MPD2    N111556   1.665   0.477  10.428 -0.7461  0.2150  0.3173
  783MPD2    H711557   1.583   0.433  10.468 -1.3838 -0.0219 -1.2521
  784MPD2     C11558   4.717   0.442   0.864  0.3426  0.2817 -0.2842
  784MPD2    C111559   4.626   0.511   0.941  0.3130  0.2112  0.4759
  784MPD2    C211560   4.495   0.519   0.903  0.5367  0.2035  0.5819
  784MPD2    C311561   4.448   0.463   0.780  0.7046 -0.5665  0.3755
  784MPD2    C411562   4.531   0.381   0.712 -0.1136 -0.7387  0.9487
  784MPD2    C511563   4.665   0.377   0.753 -0.7041 -0.0906 -0.3568
  784MPD2     H11564   4.426   0.565   0.973 -0.4889 -2.3284  1.2408
  784MPD2    H111565   4.505   0.335   0.617  1.5526 -0.4921  0.3666
  784MPD2    H211566   0.101   0.437   0.878  0.0146 -0.1510  2.0057
  784MPD2    H311567   0.016   0.325   0.692  0.3057 -0.3193  1.0707
  784MPD2     N11568   4.312   0.480   0.752  0.0159 -0.0206 -0.1413
  784MPD2    H511569   4.254   0.532   0.818 -0.6013 -1.5471  0.5202
  784MPD2    N111570   4.657   0.568   1.069 -0.8911 -0.9785 -0.4654
  784MPD2    H711571   4.582   0.590   1.134 -1.1219 -0.8403 -0.7765
  785MPD2     C11572   0.070   4.585  11.273  0.1216 -0.4644 -0.3558
  785MPD2    C111573   4.682   4.630  11.325  0.6677 -0.0501  0.1470
  785MPD2    C211574   4.574   4.549  11.325  0.2664  0.3101 -0.8668
  785MPD2    C311575   4.580   4.423  11.279  0.4103 -0.4674 -0.8040
  785MPD2    C411576   4.696   4.378  11.217  0.4975 -0.5939  0.3296
  785MPD2    C511577   0.077   4.465  11.204 -0.3387 -0.2654 -0.1929
  785MPD2     H11578   4.483   4.594  11.366 -0.5662 -3.4409  1.3839
  785MPD2    H111579   4.708   4.273  11.191  1.6796 -0.7444  1.4600
  785MPD2    H211580   0.159   4.647  11.267 -0.2899  0.2477  0.8706
  785MPD2    H311581   0.176   4.432  11.171  1.0292  2.9266  0.7494
  785MPD2     N11582   4.466   4.345  11.313  0.8205  0.4517 -0.1854
  785MPD2    H511583   4.391   4.398  11.358  0.2086 -0.1719 -0.4641
  785MPD2    N111584   4.684   0.040  11.371  0.4460  0.4510  0.9478
  785MPD2    H711585   0.045   0.090  11.347  0.5271  0.0567  0.3854
  786MPD2     C11586   3.107   2.095  14.714 -0.3370 -0.4278 -0.1501
  786MPD2    C111587   3.206   1.993  14.697 -0.6298 -0.2238 -0.1708
  786MPD2    C211588   3.288   1.963  14.805  0.4944  0.0558  0.2390
  786MPD2    C311589   3.270   2.027  14.924  0.0991 -0.7650  0.5958
  786MPD2    C411590   3.163   2.111  14.940 -0.2050 -0.2089 -0.5739
  786MPD2    C511591   3.083   2.153  14.838 -0.3551  0.0709  0.4263
  786MPD2     H11592   3.355   1.879  14.791 -0.6267 -0.9447  0.8117
  786MPD2    H111593   3.160   2.157  15.038 -0.7647 -0.6888 -0.3586
  786MPD2    H211594   3.045   2.133  14.633 -0.8506 -0.7113  0.1066
  786MPD2    H311595   3.004   2.227  14.850 -0.1217 -0.1547  3.1430
  786MPD2     N11596   3.367   2.018  15.030 -0.5411  0.0430 -0.1123
  786MPD2    H511597   3.354   2.085  15.105 -1.5970 -0.7293  0.3957
  786MPD2    N111598   3.218   1.912  14.582 -0.1541 -0.2607  0.4925
  786MPD2    H711599   3.297   1.849  14.591  0.5846  0.7400  0.9831
  787MPD2     C11600   3.508   1.497  14.751 -0.1020  0.3338  0.3458
  787MPD2    C111601   3.492   1.439  14.625  0.1796  0.2778 -0.5649
  787MPD2    C211602   3.563   1.323  14.592  0.0983  0.1295  0.5908
  787MPD2    C311603   3.638   1.269  14.692  0.3709 -0.6938 -0.1295
  787MPD2    C411604   3.645   1.323  14.821  0.8912 -0.0323  0.3348
  787MPD2    C511605   3.592   1.445  14.843 -0.2185 -0.0103 -0.8609
  787MPD2     H11606   3.561   1.272  14.496 -0.1735  2.5278 -0.6546
  787MPD2    H111607   3.716   1.286  14.894  0.1385 -1.8119  0.1616
  787MPD2    H211608   3.467   1.593  14.782  0.8339  0.3307  1.5883
  787MPD2    H311609   3.625   1.504  14.928 -2.5867  0.5088 -0.3015
  787MPD2     N11610   3.696   1.147  14.660 -0.1850  0.1528 -0.4897
  787MPD2    H511611   3.720   1.124  14.564 -0.6666  3.1060 -1.3228
  787MPD2    N111612   3.408   1.511  14.543 -0.6225 -0.3551  0.1329
  787MPD2    H711613   3.363   1.592  14.583  1.2951  1.6156 -1.7103
  788MPD2     C11614   0.743   4.012   0.818  0.7751 -0.0010  0.7160
  788MPD2    C111615   0.636   4.024   0.734  0.1379 -0.5694 -0.1589
  788MPD2    C211616   0.631   4.127   0.640  0.2907 -0.0992  0.1093
  788MPD2    C311617   0.731   4.228   0.630  0.2881  0.2572 -0.2435
  788MPD2    C411618   0.840   4.202   0.706 -0.0858  1.1494  0.0025
  788MPD2    C511619   0.844   4.104   0.803  0.1165  0.0938  0.7336
  788MPD2     H11620   0.542   4.141   0.580  0.0956  0.8255  0.6236
  788MPD2    H111621   0.926   4.268   0.712  0.6150  0.1995  0.3533
  788MPD2    H211622   0.752   3.939   0.897 -1.6083 -0.5330  0.4932
  788MPD2    H311623   0.928   4.103   0.872  1.3475  1.5081 -0.7487
  788MPD2     N11624   0.736   4.326   0.530  0.3054  0.2523  0.1227
  788MPD2    H511625   0.822   4.379   0.530  0.5438 -0.1219 -1.5415
  788MPD2    N111626   0.520   3.937   0.728  0.3071 -0.4799 -0.2600
  788MPD2    H711627   0.444   3.959   0.665 -0.4240  1.5018  1.3089
  789MPD2     C11628   1.052   4.633  16.031  0.1020 -0.2384  0.4098
  789MPD2    C111629   0.980   4.525  16.074 -0.3019 -0.3123  0.8146
  789MPD2    C211630   0.847   4.533  16.092  0.3980  0.2355 -0.4661
  789MPD2    C311631   0.782   4.649  16.069  1.0590 -0.5128 -0.6002
  789MPD2    C411632   0.846   0.035  16.019  0.3121  0.9027 -0.2256
  789MPD2    C511633   0.981   0.020  15.996 -0.4474 -0.7489 -0.5021
  789MPD2     H11634   0.793   4.452  16.140  1.6178 -0.1257  0.2837
  789MPD2    H111635   0.798   0.128  15.989  1.5192  1.9966  1.2531
  789MPD2    H211636   1.160   4.635  16.019  0.0429  0.0644 -0.1005
  789MPD2    H311637   1.042   0.103  15.961  0.1976 -0.0547  2.2814
  789MPD2     N11638   0.644   4.668  16.110  0.1125  0.1071  0.1012
  789MPD2    H511639   0.595   0.032  16.093 -1.7203 -0.9636 -0.1690
  789MPD2    N111640   1.049   4.406  16.122  0.1712 -0.4681  0.5138
  789MPD2    H711641   0.992   4.329  16.155 -2.2975  1.9327  1.9003
  790MPD2     C11642   1.673   1.874  13.622 -0.6549 -0.0094 -0.1478
  790MPD2    C111643   1.706   1.746  13.629  0.1767 -1.0886  0.4079
  790MPD2    C211644   1.665   1.659  13.529  0.1500 -0.0863  0.8806
  790MPD2    C311645   1.589   1.708  13.425 -0.0885  0.2863  0.0440
  790MPD2    C411646   1.551   1.843  13.423  0.1355  0.1304 -0.1395
  790MPD2    C511647   1.607   1.922  13.516 -0.1362  0.0702  0.8737
  790MPD2     H11648   1.690   1.554  13.535  1.9709  0.2636 -0.6603
  790MPD2    H111649   1.488   1.887  13.347 -0.1480 -0.6343 -0.3503
  790MPD2    H211650   1.696   1.951  13.694 -0.8435  0.1422 -0.2486
  790MPD2    H311651   1.586   2.028  13.504  1.1440 -0.2321 -4.3621
  790MPD2     N11652   1.552   1.617  13.320  0.4690 -0.7813  0.6670
  790MPD2    H511653   1.598   1.526  13.325  0.3917 -0.8560 -0.0015
  790MPD2    N111654   1.782   1.710  13.745 -0.7010 -0.0194  0.4098
  790MPD2    H711655   1.786   1.783  13.815 -0.7707  0.2960  0.0839
  791MPD2     C11656   0.951   1.689  12.850  0.0256  0.1174  0.1966
  791MPD2    C111657   0.992   1.558  12.845  0.3200  0.0698  0.2322
  791MPD2    C211658   0.915   1.458  12.778  0.1284 -0.5382  0.0919
  791MPD2    C311659   0.806   1.488  12.704  0.5286  0.0085  0.2460
  791MPD2    C411660   0.764   1.621  12.703 -0.2145 -0.2396  0.4976
  791MPD2    C511661   0.837   1.715  12.776  1.0730 -0.2562  0.3121
  791MPD2     H11662   0.952   1.356  12.771  2.5216  0.3768 -0.5464
  791MPD2    H111663   0.681   1.665  12.650  0.1934  0.4979  0.4638
  791MPD2    H211664   1.010   1.769  12.894 -3.0565  1.1828  2.3487
  791MPD2    H311665   0.807   1.818  12.760  1.4204 -0.1298  0.4760
  791MPD2     N11666   0.741   1.385  12.634  0.1134  0.6207 -0.3667
  791MPD2    H511667   0.791   1.298  12.620  1.4324  1.2778  0.2484
  791MPD2    N111668   1.117   1.529  12.908  0.4472 -0.1045 -0.1875
  791MPD2    H711669   1.166   1.611  12.942 -4.1150  1.4995  2.5601
  792MPD2     C11670   2.052   1.729  10.769 -0.0728 -0.0175 -0.2553
  792MPD2    C111671   1.942   1.798  10.736 -0.1050 -0.0768  0.2161
  792MPD2    C211672   1.877   1.766  10.617  0.1854 -0.3121  0.3354
  792MPD2    C311673   1.914   1.652  10.547  0.8480 -0.7273 -0.3424
  792MPD2    C411674   2.020   1.579  10.589 -0.4359  0.4180  0.5287
  792MPD2    C511675   2.096   1.624  10.692 -0.0481 -0.4937  0.1957
  792MPD2     H11676   1.799   1.827  10.575 -0.7000 -1.9533 -0.3902
  792MPD2    H111677   2.040   1.482  10.545 -1.6732  1.0679 -1.4737
  792MPD2    H211678   2.110   1.748  10.859 -0.4998 -1.5854  0.3641
  792MPD2    H311679   2.180   1.563  10.723  0.8698  0.8323  0.3120
  792MPD2     N11680   1.841   1.604  10.436  0.2512 -0.1217 -0.2195
  792MPD2    H511681   1.875   1.521  10.388  1.5494 -0.3031  1.0330
  792MPD2    N111682   1.932   1.923  10.803  0.1720  0.1897 -0.4439
  792MPD2    H711683   2.010   1.949  10.861  0.1823 -0.9818  0.0554
  793MPD2     C11684   1.481   2.101   9.637 -0.2018  0.0029 -0.2086
  793MPD2    C111685   1.581   2.013   9.610 -0.3925 -0.9447  0.1151
  793MPD2    C211686   1.612   1.918   9.714  0.4471 -0.0472  0.4368
  793MPD2    C311687   1.537   1.913   9.836 -0.5479 -0.0713  0.8747
  793MPD2    C411688   1.431   1.995   9.851  0.2083 -0.1834 -0.1895
  793MPD2    C511689   1.407   2.085   9.755  0.2731  0.4402  0.0382
  793MPD2     H11690   1.697   1.853   9.697  1.1116  0.3306  2.3038
  793MPD2    H111691   1.360   1.998   9.933 -0.7769  0.6902 -1.0720
  793MPD2    H211692   1.442   2.185   9.581 -2.1061 -1.2754 -0.8148
  793MPD2    H311693   1.318   2.145   9.771 -1.2656 -1.8075  0.0008
  793MPD2     N11694   1.555   1.809   9.939  0.0149  0.2690  0.2485
  793MPD2    H511695   1.491   1.815  10.018 -1.3201  0.2379 -0.8258
  793MPD2    N111696   1.644   2.001   9.486 -0.4346 -0.0004  0.4001
  793MPD2    H711697   1.706   1.922   9.472 -1.5740 -0.7059 -0.6510
  794MPD2     C11698   1.679   0.927  17.555  0.1148  0.1957 -0.5721
  794MPD2    C111699   1.660   0.799  17.506  0.0253 -0.3070  0.1130
  794MPD2    C211700   1.610   0.781  17.379 -0.4288  0.2463  0.6142
  794MPD2    C311701   1.574   0.892  17.306  0.2824 -0.7085 -0.0428
  794MPD2    C411702   1.587   1.021  17.352 -0.1355 -0.3351  0.3865
  794MPD2    C511703   1.635   1.036  17.482  0.1793 -0.2013  0.0241
  794MPD2     H11704   1.589   0.680  17.346 -2.1903  1.5777 -2.3637
  794MPD2    H111705   1.573   1.105  17.285  0.5180  0.7862  1.6401
  794MPD2    H211706   1.730   0.946  17.649  0.1864 -1.2444 -0.3230
  794MPD2    H311707   1.651   1.135  17.524 -1.2244  0.2976 -0.6008
  794MPD2     N11708   1.521   0.877  17.178  0.3320 -0.2975  0.0819
  794MPD2    H511709   1.489   0.959  17.127 -0.4008  0.7041  2.1507
  794MPD2    N111710   1.688   0.684  17.582  0.5382  0.2676  0.2082
  794MPD2    H711711   1.671   0.598  17.532 -0.9621 -0.4747  1.9711
  795MPD2     C11712   3.742   3.332  13.618 -0.2673  0.1087  0.0694
  795MPD2    C111713   3.698   3.217  13.554 -0.6281  0.3179  0.6477
  795MPD2    C211714   3.757   3.095  13.571  0.2352  0.1468  0.4285
  795MPD2    C311715   3.885   3.088  13.632  0.2763 -0.3924 -0.5555
  795MPD2    C411716   3.932   3.201  13.689  0.1713  0.3760 -0.4858
  795MPD2    C511717   3.864   3.322  13.685 -0.2891 -0.5372  0.1615
  795MPD2     H11718   3.714   3.003  13.533 -0.2966  2.0230 -3.4976
  795MPD2    H111719   4.022   3.196  13.750 -1.6553  1.4295  2.3244
  795MPD2    H211720   3.699   3.432  13.615  1.7087  0.9356 -1.0055
  795MPD2    H311721   3.907   3.409  13.732 -1.0955  0.1988 -0.4555
  795MPD2     N11722   3.970   2.974  13.624  0.4619 -0.4639 -0.6697
  795MPD2    H511723   4.053   2.990  13.679  1.4119 -3.9912 -1.0692
  795MPD2    N111724   3.581   3.212  13.479  0.3115  0.0504  0.1115
  795MPD2    H711725   3.559   3.124  13.434 -2.8036  1.3401 -0.9082
  796MPD2     C11726   4.007   0.094  15.822 -0.7235 -0.2491  0.4460
  796MPD2    C111727   3.972   0.055  15.948 -0.5952 -0.0070 -0.0712
  796MPD2    C211728   3.895   0.144  16.018  0.2505 -0.2656 -0.0621
  796MPD2    C311729   3.867   0.271  15.963 -0.5918  0.5984  0.2455
  796MPD2    C411730   3.912   0.310  15.838 -0.2395  0.4723 -0.4673
  796MPD2    C511731   3.984   0.217  15.772  0.1979  0.0058  0.5218
  796MPD2     H11732   3.850   0.118  16.113 -1.6754  0.2582 -0.8303
  796MPD2    H111733   3.906   0.406  15.786  3.1414  1.7603  1.5198
  796MPD2    H211734   4.056   0.024  15.755  1.5083 -0.1725  2.0048
  796MPD2    H311735   4.023   0.247  15.676 -1.5065 -2.7335 -1.0127
  796MPD2     N11736   3.803   0.368  16.036 -0.1506  0.7212  0.8131
  796MPD2    H511737   3.783   0.339  16.131 -1.1508  0.1644  0.4369
  796MPD2    N111738   4.013   4.652  16.001  0.3262 -0.5249 -0.0527
  796MPD2    H711739   3.960   4.617  16.080 -4.5535  3.0752 -1.7171
  797MPD2     C11740   0.039   3.862  17.344  0.3336  0.1852 -0.0941
  797MPD2    C111741   0.156   3.936  17.337 -0.4492  0.3000  0.0259
  797MPD2    C211742   0.161   4.054  17.258  0.4785  0.0061  0.3903
  797MPD2    C311743   0.052   4.102  17.184  0.3458  0.4667 -0.1505
  797MPD2    C411744   4.657   4.025  17.192 -0.3920 -0.1494  0.3403
  797MPD2    C511745   4.657   3.909  17.270  0.8216 -0.4032 -0.0037
  797MPD2     H11746   0.249   4.117  17.259 -0.3088  1.1121  0.2341
  797MPD2    H111747   4.578   4.039  17.119  1.2196  2.3505 -0.9193
  797MPD2    H211748   0.030   3.782  17.417 -2.5865 -1.3259 -2.0901
  797MPD2    H311749   4.569   3.848  17.289  2.0693 -1.2411  3.1843
  797MPD2     N11750   0.071   4.215  17.103  0.1745  0.1076  0.6853
  797MPD2    H511751   0.164   4.255  17.111 -1.0305  2.5437  2.7259
  797MPD2    N111752   0.267   3.900  17.424 -0.1481  0.0663  0.0151
  797MPD2    H711753   0.350   3.958  17.417  0.1489 -0.2743  0.6910
  798MPD2     C11754   0.508   4.528  17.389 -0.1030 -0.2123 -0.0086
  798MPD2    C111755   0.477   4.431  17.296 -0.6869 -0.1367  0.1788
  798MPD2    C211756   0.518   4.300  17.320 -0.0966 -0.6249 -0.1448
  798MPD2    C311757   0.584   4.262  17.435 -0.2105  0.4895 -0.4632
  798MPD2    C411758   0.630   4.366  17.521 -0.7894  0.9578  0.5127
  798MPD2    C511759   0.590   4.494  17.497 -0.0217 -0.4366 -0.5613
  798MPD2     H11760   0.496   4.228  17.242  1.0531 -1.0297 -0.1000
  798MPD2    H111761   0.680   4.347  17.616  2.6084 -1.2541 -1.7347
  798MPD2    H211762   0.469   4.630  17.384 -1.0745 -0.5103  1.5554
  798MPD2    H311763   0.635   4.574  17.554  2.1595 -1.9563 -0.1564
  798MPD2     N11764   0.608   4.129  17.452  0.1096 -0.1070  0.2255
  798MPD2    H511765   0.574   4.075  17.372 -1.3403  1.4742 -0.2094
  798MPD2    N111766   0.405   4.471  17.180 -0.4291  0.2661  0.0433
  798MPD2    H711767   0.386   4.571  17.179  1.2126  0.5867  1.7970
  799MPD2     C11768   3.319   1.002  14.633 -0.1816  0.1579  0.4203
  799MPD2    C111769   3.331   0.913  14.532 -0.2426 -0.0169 -0.5234
  799MPD2    C211770   3.313   0.947  14.399  0.0155 -0.7379 -0.1616
  799MPD2    C311771   3.258   1.070  14.370 -0.1393  0.5702 -0.1774
  799MPD2    C411772   3.238   1.167  14.472  0.6367 -0.4487 -0.7117
  799MPD2    C511773   3.266   1.131  14.604  1.1659  0.2560 -0.8271
  799MPD2     H11774   3.344   0.879  14.320 -2.3758 -0.5631 -1.2679
  799MPD2    H111775   3.207   1.268  14.448  1.5471 -0.1708 -0.7200
  799MPD2    H211776   3.336   0.974  14.736  0.4180  0.6453  0.4543
  799MPD2    H311777   3.253   1.205  14.682  2.9825 -1.4998  1.1244
  799MPD2     N11778   3.230   1.118  14.242  0.0288 -0.0160 -0.1618
  799MPD2    H511779   3.214   1.218  14.242  0.3160  0.0119 -5.3134
  799MPD2    N111780   3.367   0.787  14.568  0.0616  0.4435 -0.2493
  799MPD2    H711781   3.356   0.763  14.666 -0.8126  2.3744  0.1289
  800MPD2     C11782   3.781   2.130  13.631 -0.3030 -0.1824 -0.6452
  800MPD2    C111783   3.912   2.147  13.598  0.3353 -0.4630 -0.1888
  800MPD2    C211784   3.957   2.085  13.482  0.0880  0.0711 -0.0754
  800MPD2    C311785   3.871   2.011  13.401  0.6034 -0.2683 -0.0374
  800MPD2    C411786   3.739   1.997  13.443  0.6706  0.2031  0.0056
  800MPD2    C511787   3.696   2.066  13.547  0.2920 -0.3965 -0.0723
  800MPD2     H11788   4.058   2.098  13.443 -0.3798  1.5186 -0.8070
  800MPD2    H111789   3.668   1.929  13.399  1.5881  0.9782 -2.6691
  800MPD2    H211790   3.747   2.165  13.728 -1.5003  3.1351 -2.2908
  800MPD2    H311791   3.595   2.050  13.582  0.3375  0.1958  0.3203
  800MPD2     N11792   3.918   1.941  13.292 -0.3623 -0.3741 -0.4655
  800MPD2    H511793   4.019   1.952  13.285 -0.7174  2.2864 -1.4441
  800MPD2    N111794   3.995   2.222  13.690  0.6413 -0.0033  0.2235
  800MPD2    H711795   3.951   2.256  13.775  2.2405  0.7291  0.7367
  801MPD2     C11796   3.930   2.905  14.019 -0.6719 -0.9728 -0.6619
  801MPD2    C111797   3.968   2.789  14.088 -0.0074 -0.0647  0.4402
  801MPD2    C211798   3.922   2.771  14.221  0.0568 -0.1652  0.1069
  801MPD2    C311799   3.834   2.860  14.272  0.6221 -0.4521 -0.8516
  801MPD2    C411800   3.803   2.978  14.203  0.0310  0.0228  0.0108
  801MPD2    C511801   3.849   2.994  14.077  0.0081 -0.1263  0.5284
  801MPD2     H11802   3.960   2.685  14.276  2.0457  1.0025  0.5299
  801MPD2    H111803   3.724   3.047  14.233  0.2371  0.1538  0.2502
  801MPD2    H211804   3.960   2.925  13.917  1.9001  0.2026  0.3184
  801MPD2    H311805   3.809   3.081  14.025 -1.3919 -0.4093  1.1210
  801MPD2     N11806   3.762   2.842  14.391  0.5926  0.8315 -0.5531
  801MPD2    H511807   3.706   2.925  14.410 -0.2261 -0.0738  1.0511
  801MPD2    N111808   4.048   2.688  14.031  0.1417  0.5111  0.1575
  801MPD2    H711809   4.086   2.612  14.087  0.0684  1.2352  1.1917
  802MPD2     C11810   2.573   2.159  17.299  0.5524  0.5929 -0.0262
  802MPD2    C111811   2.677   2.113  17.375 -0.0501 -0.1089 -0.2108
  802MPD2    C211812   2.782   2.046  17.304 -0.9385 -0.4036  1.0821
  802MPD2    C311813   2.779   2.033  17.163 -0.4503  0.6963 -0.2579
  802MPD2    C411814   2.667   2.064  17.096  0.4253 -0.5108 -0.1873
  802MPD2    C511815   2.565   2.121  17.169 -0.7071  0.2643  0.2530
  802MPD2     H11816   2.860   2.003  17.367  0.6517  3.2499  1.6328
  802MPD2    H111817   2.649   2.040  16.991 -1.2511 -0.9040  0.1887
  802MPD2    H211818   2.481   2.197  17.342  0.0992  1.3504 -1.6541
  802MPD2    H311819   2.471   2.136  17.118 -0.3406  0.8283 -0.2463
  802MPD2     N11820   2.899   1.980  17.106 -0.3035  0.6993  0.1082
  802MPD2    H511821   2.974   1.948  17.166  0.1575  2.3201  0.3894
  802MPD2    N111822   2.689   2.123  17.513  0.3323  0.3545  0.3290
  802MPD2    H711823   2.764   2.074  17.560  1.0698  2.3859  1.2882
  803MPD2     C11824   4.460   1.499  11.633 -0.4612 -0.4769 -0.9445
  803MPD2    C111825   4.478   1.550  11.758  0.1585  0.2877 -0.9505
  803MPD2    C211826   4.429   1.488  11.868  0.6445 -0.6091 -0.1045
  803MPD2    C311827   4.374   1.357  11.853  0.1837 -0.0914 -0.2189
  803MPD2    C411828   4.366   1.296  11.728 -0.0968 -0.2388  0.6018
  803MPD2    C511829   4.415   1.367  11.621 -0.2045  0.6568 -0.4206
  803MPD2     H11830   4.438   1.532  11.966  1.8602 -1.7424  0.2953
  803MPD2    H111831   4.336   1.195  11.704  0.2595 -0.0345 -0.7054
  803MPD2    H211832   4.489   1.554  11.545  0.7306  1.5964  0.7228
  803MPD2    H311833   4.400   1.314  11.528 -0.7086  1.8773 -1.0230
  803MPD2     N11834   4.327   1.292  11.969 -0.1659  0.5688 -0.1339
  803MPD2    H511835   4.324   1.345  12.055 -0.3942 -0.9865  0.8158
  803MPD2    N111836   4.569   1.659  11.780  0.1581  0.4097 -0.5880
  803MPD2    H711837   4.593   1.676  11.877 -0.2371 -0.0806 -0.4063
  804MPD2     C11838   3.756   2.380  16.889 -0.7413  0.5238  0.2687
  804MPD2    C111839   3.812   2.340  17.008 -0.7899  0.3747 -0.0614
  804MPD2    C211840   3.901   2.418  17.077  0.4416 -0.5438  0.3213
  804MPD2    C311841   3.919   2.547  17.038  0.3968  0.6780 -0.0710
  804MPD2    C411842   3.852   2.590  16.922 -0.5452  0.2029  0.9046
  804MPD2    C511843   3.766   2.512  16.853 -0.2027  0.1962  0.9130
  804MPD2     H11844   3.956   2.373  17.159  0.0215 -2.2487 -0.3217
  804MPD2    H111845   3.877   2.688  16.880 -0.1544  0.8756  2.7224
  804MPD2    H211846   3.683   2.320  16.835 -1.0451  0.5985  0.5984
  804MPD2    H311847   3.709   2.544  16.767  1.6886  0.3305 -0.2857
  804MPD2     N11848   4.009   2.624  17.116 -0.7073 -0.3613 -0.2192
  804MPD2    H511849   4.064   2.573  17.184  0.9981  2.8463  0.8090
  804MPD2    N111850   3.789   2.217  17.072  0.0042  0.0892  0.0953
  804MPD2    H711851   3.850   2.190  17.148 -0.8376 -2.3824 -0.0766
  805MPD2     C11852   2.980   0.744  15.764  0.2189  0.0180  1.0602
  805MPD2    C111853   3.018   0.843  15.672 -0.4054  0.1678 -0.6700
  805MPD2    C211854   3.141   0.908  15.684 -0.1938 -0.2260 -0.4781
  805MPD2    C311855   3.233   0.864  15.774 -0.1276  0.0989 -0.0719
  805MPD2    C411856   3.203   0.762  15.855  0.7115 -0.6594 -0.1638
  805MPD2    C511857   3.079   0.707  15.854  0.2278 -0.0892 -0.0106
  805MPD2     H11858   3.166   0.985  15.611 -0.1785  0.6484  0.4442
  805MPD2    H111859   3.273   0.710  15.919  1.1058 -1.0065 -0.8655
  805MPD2    H211860   2.888   0.688  15.761 -1.0818  2.1965  0.2540
  805MPD2    H311861   3.063   0.626  15.923 -1.4002  0.7163  0.5605
  805MPD2     N11862   3.362   0.917  15.769 -0.4447  0.4958 -0.3616
  805MPD2    H511863   3.373   0.995  15.705 -2.5145 -1.0008 -2.5333
  805MPD2    N111864   2.937   0.902  15.576 -0.2821 -0.0952  0.2328
  805MPD2    H711865   2.978   0.981  15.527  0.2384 -0.2944  0.3530
  806MPD2     C11866   4.018   0.201   1.046  0.4414 -0.0820  0.3279
  806MPD2    C111867   4.123   0.171   0.964 -0.9398  0.2318  0.3979
  806MPD2    C211868   4.098   0.157   0.827  0.0341  0.4404 -0.0059
  806MPD2    C311869   3.970   0.195   0.778 -0.7400  0.0926  0.2758
  806MPD2    C411870   3.875   0.242   0.868 -0.2211  0.5165 -0.0859
  806MPD2    C511871   3.900   0.246   0.994  0.2311 -0.1482 -0.6658
  806MPD2     H11872   4.171   0.131   0.751 -2.1048 -3.7088 -0.6747
  806MPD2    H111873   3.771   0.264   0.847 -0.8271 -1.1182  1.1427
  806MPD2    H211874   4.025   0.206   1.154  0.0459  1.1444  0.3013
  806MPD2    H311875   3.822   0.279   1.062 -0.2624 -2.1222 -0.2589
  806MPD2     N11876   3.942   0.184   0.644  0.1910  0.0522  0.2550
  806MPD2    H511877   4.004   0.128   0.586 -0.6661 -0.4059 -0.2222
  806MPD2    N111878   4.248   0.149   1.023  0.1820  0.1659 -0.1852
  806MPD2    H711879   4.255   0.156   1.124  1.9381  0.4584 -0.3381
  807MPD2     C11880   4.526   0.375   1.645  0.0702 -0.1849  0.5883
  807MPD2    C111881   4.433   0.313   1.561  0.5229  0.3222  0.3957
  807MPD2    C211882   4.312   0.277   1.607  0.2113  0.0252  0.0364
  807MPD2    C311883   4.272   0.295   1.736  0.2864  0.5158 -0.2769
  807MPD2    C411884   4.366   0.344   1.825 -0.0916 -0.4859  0.3329
  807MPD2    C511885   4.492   0.388   1.776 -0.1834 -0.0284 -0.1616
  807MPD2     H11886   4.253   0.231   1.528  2.9285 -0.0147 -2.0122
  807MPD2    H111887   4.340   0.356   1.929  0.3651 -3.3849  0.7797
  807MPD2    H211888   4.629   0.391   1.615 -0.3118  3.7195  1.3068
  807MPD2    H311889   4.558   0.430   1.852 -2.0568  0.8366  0.9798
  807MPD2     N11890   4.149   0.235   1.770  0.0787 -0.2093  0.0059
  807MPD2    H511891   4.095   0.191   1.696 -0.8187 -1.3232  1.3244
  807MPD2    N111892   4.460   0.288   1.423  0.6339 -0.6929  0.1940
  807MPD2    H711893   4.389   0.248   1.363  0.2044  0.2724  0.0600
  808MPD2     C11894   3.569   2.894   8.765  0.7597 -0.5904  0.4728
  808MPD2    C111895   3.569   2.829   8.882 -0.1361  0.1975  0.0627
  808MPD2    C211896   3.645   2.868   8.982 -0.4875 -0.2248  0.0120
  808MPD2    C311897   3.732   2.971   8.972 -0.4951  1.0557  0.0977
  808MPD2    C411898   3.738   3.042   8.853 -0.1393  0.0678  0.5117
  808MPD2    C511899   3.654   3.005   8.751  0.0965 -0.4411  0.0632
  808MPD2     H11900   3.633   2.825   9.081 -1.2713  0.0935  0.0554
  808MPD2    H111901   3.807   3.122   8.828  0.0727  0.0088  0.9080
  808MPD2    H211902   3.511   2.868   8.677  1.1491  0.1494 -0.0010
  808MPD2    H311903   3.647   3.066   8.661 -0.8894 -0.6940 -0.0273
  808MPD2     N11904   3.813   3.000   9.081  0.2316  0.7322 -0.5045
  808MPD2    H511905   3.871   3.083   9.074  1.5037  0.1338  2.6297
  808MPD2    N111906   3.498   2.713   8.908 -0.3883 -0.3281  0.3117
  808MPD2    H711907   3.519   2.671   8.998 -0.3929  0.1090  0.5187
  809MPD2     C11908   4.608   3.138   8.818 -0.1430 -0.3787 -0.2638
  809MPD2    C111909   4.633   3.062   8.932 -0.2388 -0.0553  0.6728
  809MPD2    C211910   4.527   3.042   9.023  0.4626  0.5239  0.7829
  809MPD2    C311911   4.405   3.105   9.003 -0.0729  0.3888 -0.3597
  809MPD2    C411912   4.384   3.181   8.896  0.1680  0.0708  0.7606
  809MPD2    C511913   4.480   3.189   8.801 -0.2746  0.2775  0.0633
  809MPD2     H11914   4.555   3.003   9.120 -0.2643 -2.5593 -0.2633
  809MPD2    H111915   4.286   3.227   8.896  0.0059 -0.2765 -0.1781
  809MPD2    H211916   4.679   3.173   8.744 -0.2204  1.8575  0.7188
  809MPD2    H311917   4.459   3.253   8.717 -2.8281  1.4799  1.6094
  809MPD2     N11918   4.298   3.099   9.098  0.1051 -0.6506 -0.3378
  809MPD2    H511919   4.207   3.134   9.070 -0.2626  1.1278  3.1709
  809MPD2    N111920   0.036   2.999   8.952 -0.4112 -0.0079  0.0138
  809MPD2    H711921   0.092   3.007   8.868  1.6548  0.6739  1.4594
  810MPD2     C11922   3.910   1.485   9.743  0.1084  0.9741 -0.0591
  810MPD2    C111923   3.837   1.439   9.849  0.1115  0.2607 -0.2018
  810MPD2    C211924   3.872   1.459   9.981 -0.7986 -0.1188 -0.2363
  810MPD2    C311925   3.983   1.536  10.013  0.0216 -0.1097  0.3874
  810MPD2    C411926   4.058   1.584   9.905  0.3004  0.2597  0.4288
  810MPD2    C511927   4.018   1.556   9.779  0.4745  0.4400 -0.0912
  810MPD2     H11928   3.811   1.420  10.061 -0.1590 -0.7377 -0.0585
  810MPD2    H111929   4.146   1.640   9.933  1.3726 -0.9807 -0.4383
  810MPD2    H211930   3.887   1.469   9.638 -0.5878 -1.3705  0.4421
  810MPD2    H311931   4.083   1.586   9.697  2.1013  2.6440  2.0005
  810MPD2     N11932   4.016   1.575  10.153  0.1356 -0.0980  0.3730
  810MPD2    H511933   4.088   1.643  10.176 -1.1690  0.8500  1.6245
  810MPD2    N111934   3.707   1.394   9.812 -0.0802  0.0856 -0.5286
  810MPD2    H711935   3.676   1.410   9.717 -2.0826  0.3515  0.1699
  811MPD2     C11936   3.022   1.671   9.529  0.0968 -0.0007  0.1787
  811MPD2    C111937   3.100   1.704   9.634 -0.3075 -0.0805  0.1220
  811MPD2    C211938   3.131   1.839   9.658 -0.0080  0.3896 -0.4730
  811MPD2    C311939   3.067   1.944   9.592 -0.4565 -0.0019  0.0219
  811MPD2    C411940   2.980   1.911   9.490 -0.3585 -0.2350  0.0613
  811MPD2    C511941   2.965   1.779   9.454 -0.2996  0.1856  0.6245
  811MPD2     H11942   3.196   1.863   9.741 -0.0219  2.7512 -1.1489
  811MPD2    H111943   2.928   1.988   9.435  2.2271  1.3153 -0.2291
  811MPD2    H211944   3.013   1.565   9.505 -2.0421  0.6240 -1.8330
  811MPD2    H311945   2.909   1.757   9.364 -0.7493  0.2501  0.8881
  811MPD2     N11946   3.091   2.079   9.633  0.2518 -0.5956 -0.0872
  811MPD2    H511947   3.168   2.088   9.699 -0.6152  0.3820  0.7914
  811MPD2    N111948   3.162   1.603   9.709 -0.8304 -0.0459 -0.3172
  811MPD2    H711949   3.150   1.506   9.682  0.1568  0.4701 -2.5955
  812MPD2     C11950   2.540   1.605  11.972 -0.1432  0.2843  0.1510
  812MPD2    C111951   2.454   1.642  12.074  0.0380  0.1141 -0.2288
  812MPD2    C211952   2.419   1.554  12.175  0.7479 -0.1949  0.7241
  812MPD2    C311953   2.453   1.422  12.162 -0.6477 -0.1290  0.2081
  812MPD2    C411954   2.538   1.387  12.060  0.0938  0.3586  0.3127
  812MPD2    C511955   2.584   1.477  11.965 -0.5999  0.3839 -0.3139
  812MPD2     H11956   2.359   1.589  12.258 -0.5422  1.3384 -0.8745
  812MPD2    H111957   2.580   1.287  12.052  1.1487  0.7566  0.9371
  812MPD2    H211958   2.568   1.673  11.893 -0.9613  0.5101  0.0580
  812MPD2    H311959   2.640   1.451  11.876  1.0083  0.6463  0.6288
  812MPD2     N11960   2.413   1.339  12.266  0.7957  0.3607 -0.8025
  812MPD2    H511961   2.367   1.376  12.349  0.2413 -2.5827  0.2243
  812MPD2    N111962   2.405   1.778  12.064  0.3879  0.3883  0.0757
  812MPD2    H711963   2.437   1.832  11.985 -0.6733 -0.3589 -0.8677
  813MPD2     C11964   1.095   3.564  13.035 -0.4429  0.3396  0.8029
  813MPD2    C111965   1.204   3.476  13.016  0.1355 -0.2334 -0.1473
  813MPD2    C211966   1.203   3.354  13.088 -0.0424 -0.3231  1.2737
  813MPD2    C311967   1.108   3.331  13.183 -0.0179  0.2766 -1.1136
  813MPD2    C411968   1.008   3.418  13.196  0.1045 -0.5528 -0.2313
  813MPD2    C511969   1.003   3.536  13.125 -0.3831  0.0947  0.4125
  813MPD2     H11970   1.276   3.275  13.074  0.5410  0.2533  1.0606
  813MPD2    H111971   0.933   3.400  13.273 -1.6036  0.7229 -1.6006
  813MPD2    H211972   1.083   3.657  12.981  1.6591  0.6807  0.9464
  813MPD2    H311973   0.916   3.601  13.127 -0.2405  0.2668  0.8316
  813MPD2     N11974   1.121   3.217  13.259  0.2031  0.5172 -0.3748
  813MPD2    H511975   1.180   3.148  13.213  0.3043 -0.3689  1.0622
  813MPD2    N111976   1.314   3.525  12.935  0.3517 -0.1923  0.4758
  813MPD2    H711977   1.308   3.626  12.923 -0.9489 -0.4412 -0.8388
  814MPD2     C11978   2.048   0.011  12.211 -0.3252 -0.2797 -0.2295
  814MPD2    C111979   2.103   0.015  12.087  0.4628  0.7460  0.0817
  814MPD2    C211980   2.169   0.137  12.054  0.2366  0.3526  0.0198
  814MPD2    C311981   2.176   0.245  12.147  0.4746  0.0010  0.8674
  814MPD2    C411982   2.114   0.228  12.264  0.6300  0.9747  0.6158
  814MPD2    C511983   2.057   0.109  12.297 -0.1119  0.5846  0.5752
  814MPD2     H11984   2.218   0.150  11.958  0.2947 -2.8565 -0.3560
  814MPD2    H111985   2.109   0.313  12.332  0.6643  0.3746  1.3633
  814MPD2    H211986   1.982   4.660  12.253  0.7602 -0.1858  1.6400
  814MPD2    H311987   1.999   0.110  12.389 -0.4270  1.3631  0.3743
  814MPD2     N11988   2.238   0.370  12.127 -0.0897 -0.4008 -0.2712
  814MPD2    H511989   2.242   0.434  12.205 -0.2952  1.0146 -1.4119
  814MPD2    N111990   2.093   4.636  11.984  0.6772 -0.3688 -0.2554
  814MPD2    H711991   2.132   4.660  11.893 -1.0025  1.1204 -0.5922
  815MPD2     C11992   2.337   3.480  11.542 -0.5649 -0.0991 -0.4649
  815MPD2    C111993   2.402   3.354  11.566 -0.0801  0.6920 -0.1859
  815MPD2    C211994   2.382   3.285  11.684  0.2796  0.0101  0.2659
  815MPD2    C311995   2.297   3.337  11.783  0.3511 -0.3213  0.4015
  815MPD2    C411996   2.245   3.458  11.759 -0.0533 -0.6976 -0.7149
  815MPD2    C511997   2.265   3.531  11.643 -0.1629 -0.3650 -0.5761
  815MPD2     H11998   2.422   3.185  11.694  0.8523  0.5016  2.8330
  815MPD2    H111999   2.178   3.510  11.826 -1.1386 -1.8033 -0.9442
  815MPD2    H212000   2.332   3.526  11.444  0.2649 -1.7757 -1.2996
  815MPD2    H312001   2.204   3.619  11.631 -0.2752 -0.3549  0.0611
  815MPD2     N12002   2.265   3.252  11.887  0.1355 -0.6715 -0.0614
  815MPD2    H512003   2.296   3.156  11.875 -1.4298 -1.2787  0.7971
  815MPD2    N112004   2.477   3.294  11.460 -0.0724  0.3161  0.0311
  815MPD2    H712005   2.454   3.313  11.363 -0.4124 -0.9561 -0.1317
  816MPD2     C12006   2.399   1.840   0.030  1.1536 -0.4807 -0.5331
  816MPD2    C112007   2.344   1.926  17.634 -0.3246  0.6506 -0.8107
  816MPD2    C212008   2.385   1.916  17.504  0.0044 -0.3740 -0.0308
  816MPD2    C312009   2.480   1.823  17.465  0.7881 -0.1416  0.6422
  816MPD2    C412010   2.536   1.730  17.558 -0.2911 -0.8312 -0.2746
  816MPD2    C512011   2.492   1.747  17.686  0.6705  0.0056  0.8590
  816MPD2     H12012   2.327   1.968  17.428  0.3126 -1.7586 -1.2166
  816MPD2    H112013   2.594   1.642  17.533 -0.1529 -1.1143  1.0702
  816MPD2    H212014   2.362   1.844   0.132 -1.3643 -0.5643 -1.4609
  816MPD2    H312015   2.522   1.670   0.061 -1.3822 -0.3041  1.3783
  816MPD2     N12016   2.510   1.799  17.325  0.1458 -0.1742  0.2170
  816MPD2    H512017   2.445   1.834  17.255 -0.2854  0.3310  0.8751
  816MPD2    N112018   2.244   2.018  17.675 -0.9901  0.5567 -0.1334
  816MPD2    H712019   2.211   2.014   0.075 -1.0235 -0.3664 -0.1879
  817MPD2     C12020   1.363   3.807   9.884 -0.3095  0.0984 -0.2560
  817MPD2    C112021   1.424   3.826   9.765 -0.6208 -0.2798 -0.2340
  817MPD2    C212022   1.433   3.944   9.698 -0.2603 -0.2893  0.1221
  817MPD2    C312023   1.372   4.055   9.752 -0.3640  0.1529 -0.2971
  817MPD2    C412024   1.298   4.043   9.875 -0.3987 -0.5625 -0.3353
  817MPD2    C512025   1.294   3.917   9.938 -0.0135  0.3864  0.2572
  817MPD2     H12026   1.487   3.954   9.604 -0.1167 -1.9477  0.0347
  817MPD2    H112027   1.245   4.124   9.925  0.9322  0.0870  0.0327
  817MPD2    H212028   1.341   3.710   9.928  2.2047  0.3135  1.4669
  817MPD2    H312029   1.242   3.915  10.033  4.0047  0.7169  2.4585
  817MPD2     N12030   1.383   4.175   9.676 -0.2796 -0.1714  0.4541
  817MPD2    H512031   1.424   4.175   9.583 -1.6453 -1.0984 -0.1389
  817MPD2    N112032   1.495   3.712   9.711 -0.2943  1.0065 -0.0083
  817MPD2    H712033   1.549   3.722   9.625 -1.9207 -0.2121 -1.1866
  818MPD2     C12034   0.420   3.898   9.743  0.1488  0.3715  0.6969
  818MPD2    C112035   0.346   3.818   9.827 -0.8782  0.0888 -0.5863
  818MPD2    C212036   0.349   3.684   9.808  0.0042  0.7541 -0.3277
  818MPD2    C312037   0.429   3.622   9.709  0.5492 -0.0711  0.0153
  818MPD2    C412038   0.507   3.710   9.633  0.1796 -0.0256  0.1982
  818MPD2    C512039   0.502   3.845   9.652 -0.1980 -0.6566 -0.8568
  818MPD2     H12040   0.280   3.623   9.864 -0.7761  1.3040 -0.6941
  818MPD2    H112041   0.582   3.682   9.560 -0.3926  1.5326 -0.9814
  818MPD2    H212042   0.424   4.006   9.751 -0.1988  0.5650 -1.8538
  818MPD2    H312043   0.568   3.902   9.587  3.2692  0.2478  3.4752
  818MPD2     N12044   0.452   3.482   9.687  0.6300  0.1479  0.0778
  818MPD2    H512045   0.521   3.452   9.619  0.3492  0.0784 -0.1803
  818MPD2    N112046   0.259   3.871   9.922  0.0486  0.2396  0.5805
  818MPD2    H712047   0.224   3.803   9.988 -0.4323 -0.7325 -0.6759
  819MPD2     C12048   4.143   1.136  15.488  0.6553  0.4616 -0.4304
  819MPD2    C112049   4.120   1.005  15.518  0.1363  0.4464  0.3786
  819MPD2    C212050   4.226   0.916  15.552  0.1860 -0.2775  0.0495
  819MPD2    C312051   4.353   0.966  15.545  0.4780 -1.0457  0.3480
  819MPD2    C412052   4.379   1.092  15.508 -0.2607 -0.1102 -0.4459
  819MPD2    C512053   4.275   1.181  15.488 -0.3269  0.1642  0.1898
  819MPD2     H12054   4.213   0.810  15.570  4.4953 -0.7806  0.0135
  819MPD2    H112055   4.477   1.139  15.504 -0.4946  0.5741  2.1109
  819MPD2    H212056   4.065   1.206  15.460 -0.4539 -1.1963 -1.4963
  819MPD2    H312057   4.281   1.286  15.462  1.0536 -0.2195 -1.0817
  819MPD2     N12058   4.451   0.876  15.578 -0.3559 -0.3163 -0.4344
  819MPD2    H512059   4.420   0.787  15.616 -2.2369  1.5971  2.4739
  819MPD2    N112060   3.985   0.953  15.502 -0.2414 -0.1747  0.7750
  819MPD2    H712061   3.915   1.022  15.475 -0.3135  0.3021  2.1711
  820MPD2     C12062   3.212   1.232  15.050 -0.4328  0.0668  0.0855
  820MPD2    C112063   3.172   1.186  15.177  0.2239  0.4110  0.3108
  820MPD2    C212064   3.271   1.136  15.258 -0.0205  0.5487 -0.0427
  820MPD2    C312065   3.403   1.136  15.226  0.1115 -0.0333 -0.2051
  820MPD2    C412066   3.443   1.185  15.110 -0.5036 -0.2911  0.4218
  820MPD2    C512067   3.348   1.232  15.024 -0.1030 -0.9000 -0.2602
  820MPD2     H12068   3.240   1.094  15.354 -1.1451 -2.2374 -1.6072
  820MPD2    H112069   3.548   1.184  15.081 -1.8283  0.9034 -4.4414
  820MPD2    H212070   3.143   1.275  14.980  1.2012  3.0587  0.3293
  820MPD2    H312071   3.377   1.282  14.932 -2.7932 -0.1971 -0.7541
  820MPD2     N12072   3.504   1.059  15.296 -0.1444  0.0408 -0.4219
  820MPD2    H512073   3.594   1.067  15.249 -0.6284  2.1336 -1.0216
  820MPD2    N112074   3.033   1.199  15.207  0.6779  0.8691 -0.7860
  820MPD2    H712075   2.980   1.237  15.129 -1.7535 -0.9045 -0.0071
  821MPD2     C12076   3.729   2.037  12.592 -0.7047 -0.6824  0.5824
  821MPD2    C112077   3.863   2.024  12.629 -0.5675 -0.7364  0.1086
  821MPD2    C212078   3.942   2.130  12.597  1.0332 -0.1077 -0.3670
  821MPD2    C312079   3.897   2.255  12.553 -0.7542 -0.3595  0.1509
  821MPD2    C412080   3.762   2.268  12.518 -0.4368  0.7542  0.0779
  821MPD2    C512081   3.681   2.156  12.538  0.1320 -0.2031  0.2287
  821MPD2     H12082   4.046   2.106  12.614  0.4884 -2.1212  0.1397
  821MPD2    H112083   3.706   2.358  12.496 -0.4723  0.1576 -2.2256
  821MPD2    H212084   3.652   1.967  12.621 -0.9068 -0.1746  1.2680
  821MPD2    H312085   3.574   2.169  12.527  0.3813  1.3373 -0.2972
  821MPD2     N12086   3.980   2.365  12.543 -0.4650  0.3707  0.4420
  821MPD2    H512087   3.943   2.457  12.521  0.8514  1.3586  2.3694
  821MPD2    N112088   3.921   1.921  12.701 -0.1775 -0.1086 -0.7689
  821MPD2    H712089   4.020   1.931  12.721 -0.1089  0.5096 -1.4425
  822MPD2     C12090   4.639   1.899  15.672  0.1821 -0.7018  0.2225
  822MPD2    C112091   4.642   1.857  15.801  0.3338  0.1029  0.6291
  822MPD2    C212092   4.563   1.925  15.892  0.3229 -0.1084 -0.1129
  822MPD2    C312093   4.488   2.036  15.858 -0.5188  0.1575 -0.1725
  822MPD2    C412094   4.479   2.064  15.724  0.5522  0.5621 -0.1209
  822MPD2    C512095   4.556   2.000  15.630  0.9983 -0.2682  0.8117
  822MPD2     H12096   4.585   1.898  15.995  2.9464 -0.0672 -0.6639
  822MPD2    H112097   4.396   2.126  15.690  0.4992  0.7355  0.3281
  822MPD2    H212098   4.703   1.853  15.597 -0.9912  0.2959 -1.4012
  822MPD2    H312099   4.550   2.022  15.524 -0.3861 -0.6405  0.8229
  822MPD2     N12100   4.428   2.109  15.963 -0.0105 -0.2510 -0.2985
  822MPD2    H512101   4.442   2.066  16.054 -0.3484 -0.7668 -0.4880
  822MPD2    N112102   0.007   1.755  15.852  0.3689  0.0126 -0.0300
  822MPD2    H712103   0.008   1.733  15.951 -2.6342  0.2852  0.0690
  823MPD2     C12104   4.538   2.269  16.750  0.2596  0.7578 -0.3924
  823MPD2    C112105   4.465   2.188  16.665 -0.5450  0.1149  0.7289
  823MPD2    C212106   4.411   2.068  16.705  0.2567  0.5511 -0.0270
  823MPD2    C312107   4.426   2.023  16.835  0.3857  0.1590  0.2544
  823MPD2    C412108   4.482   2.108  16.926 -0.0113  0.1825 -0.9114
  823MPD2    C512109   4.541   2.223  16.877  0.2635  0.4617  0.3877
  823MPD2     H12110   4.356   2.012  16.630  1.5296  2.1829 -2.1755
  823MPD2    H112111   4.485   2.075  17.029 -0.0782 -0.8190 -1.2312
  823MPD2    H212112   4.590   2.362  16.730  2.0337 -0.4013 -1.1705
  823MPD2    H312113   4.590   2.278  16.957  0.0569  1.7946 -0.4165
  823MPD2     N12114   4.361   1.900  16.875 -0.2099 -0.0183 -0.1479
  823MPD2    H512115   4.332   1.890  16.972 -0.7554 -1.4471 -0.4523
  823MPD2    N112116   4.435   2.243  16.542 -0.0049 -0.0473  0.0965
  823MPD2    H712117   4.476   2.336  16.538  0.6572 -0.3546 -0.3016
  824MPD2     C12118   0.374   1.038  15.640  0.4306 -0.8282 -0.2594
  824MPD2    C112119   0.455   1.147  15.672  0.7963  0.4347 -0.3794
  824MPD2    C212120   0.588   1.154  15.632  0.4463 -0.2874 -0.0265
  824MPD2    C312121   0.641   1.045  15.564  0.2389  0.3876  0.1025
  824MPD2    C412122   0.561   0.942  15.528  0.2099 -0.4652 -0.2035
  824MPD2    C512123   0.433   0.938  15.565  0.4172 -0.6915 -0.5514
  824MPD2     H12124   0.650   1.242  15.649  0.8712  0.0497 -3.2402
  824MPD2    H112125   0.599   0.867  15.458  3.5407 -0.5339  1.6583
  824MPD2    H212126   0.269   1.025  15.666  0.2907 -1.9291 -1.3760
  824MPD2    H312127   0.372   0.856  15.529  0.7727 -1.3649  0.3810
  824MPD2     N12128   0.780   1.042  15.535 -0.1005 -0.6786  0.4647
  824MPD2    H512129   0.830   1.124  15.567 -1.2156  0.1716  0.0251
  824MPD2    N112130   0.401   1.259  15.739  0.4426  0.2154  0.2179
  824MPD2    H712131   0.468   1.333  15.756  0.0086  0.0686  2.5540
  825MPD2     C12132   1.381   1.404  15.016  0.4787  0.2084 -0.8628
  825MPD2    C112133   1.265   1.405  15.096  0.0363  0.6533  0.5512
  825MPD2    C212134   1.183   1.515  15.096 -0.0724  0.4307  0.2551
  825MPD2    C312135   1.231   1.633  15.042  0.1675  0.9590 -0.6435
  825MPD2    C412136   1.342   1.632  14.959  0.5269  0.3043 -0.4742
  825MPD2    C512137   1.417   1.517  14.944  0.6576  0.3669 -0.4872
  825MPD2     H12138   1.093   1.516  15.157 -0.1437 -0.4618  0.1531
  825MPD2    H112139   1.362   1.714  14.890  1.0793  0.5556 -0.0118
  825MPD2    H212140   1.451   1.321  15.017  1.3915  1.0402  2.4031
  825MPD2    H312141   1.511   1.522  14.891  1.3146  0.0551  0.6401
  825MPD2     N12142   1.161   1.756  15.048 -0.0378 -0.1074  0.4177
  825MPD2    H512143   1.190   1.828  14.983 -2.1501 -2.5121 -3.2290
  825MPD2    N112144   1.232   1.279  15.160  0.6832  0.2678 -0.2758
  825MPD2    H712145   1.284   1.194  15.138  1.0056  0.6694 -1.0819
  826MPD2     C12146   0.936   1.344  13.664 -0.2157 -0.5032  0.6488
  826MPD2    C112147   0.865   1.350  13.549 -0.5664 -0.5094  0.1240
  826MPD2    C212148   0.741   1.416  13.545 -0.7991  0.7920  0.0692
  826MPD2    C312149   0.683   1.466  13.663 -0.0273 -0.4541 -0.3195
  826MPD2    C412150   0.763   1.478  13.774 -0.0474  0.4467  0.5033
  826MPD2    C512151   0.891   1.424  13.764 -0.0349  0.2848 -0.8132
  826MPD2     H12152   0.686   1.426  13.452  0.0923  0.7783 -0.4632
  826MPD2    H112153   0.727   1.535  13.859  1.8052  2.3178  0.0270
  826MPD2    H212154   1.028   1.288  13.673 -0.6704 -1.6665 -1.9730
  826MPD2    H312155   0.954   1.423  13.852 -2.7104 -0.0243  1.0789
  826MPD2     N12156   0.551   1.530  13.673 -0.0687 -0.5484 -0.1533
  826MPD2    H512157   0.524   1.555  13.768 -1.3918 -1.4232 -0.2937
  826MPD2    N112158   0.916   1.286  13.432 -0.4238 -0.3363  0.1686
  826MPD2    H712159   0.994   1.222  13.439  0.8262  1.2832  0.8394
  827MPD2     C12160   0.868   2.918  10.075  0.1837  0.3150  0.2600
  827MPD2    C112161   0.986   2.857  10.089 -0.4463  0.6210 -0.2106
  827MPD2    C212162   1.012   2.737  10.022 -0.4856 -0.2583  0.5059
  827MPD2    C312163   0.918   2.679   9.941 -0.1866 -1.1807 -0.4915
  827MPD2    C412164   0.801   2.742   9.925 -0.2137  0.0202 -0.3437
  827MPD2    C512165   0.778   2.862   9.991 -0.5088  0.8392  0.3418
  827MPD2     H12166   1.100   2.680  10.049 -0.1233 -1.0216 -2.2259
  827MPD2    H112167   0.722   2.706   9.860 -1.7638  2.2537  0.3120
  827MPD2    H212168   0.832   3.009  10.121  2.2542  0.8456  0.8084
  827MPD2    H312169   0.677   2.899   9.981 -0.8957 -0.0897  0.7942
  827MPD2     N12170   0.943   2.545   9.895 -0.4225  0.2312 -0.4412
  827MPD2    H512171   1.033   2.503   9.916 -0.1356  0.6924 -0.7368
  827MPD2    N112172   1.064   2.903  10.197  0.3028 -0.3224  0.7745
  827MPD2    H712173   1.024   2.969  10.262  1.4346  1.0911  0.0571
  828MPD2     C12174   4.629   2.592  12.381  0.4147  0.0210  0.6170
  828MPD2    C112175   4.581   2.557  12.259 -0.0722  0.2333  0.4572
  828MPD2    C212176   4.669   2.493  12.170  0.0607 -0.4526 -0.2107
  828MPD2    C312177   0.080   2.480  12.197  0.5032 -0.5402 -0.0843
  828MPD2    C412178   0.125   2.527  12.319 -1.0393 -0.1546 -0.1762
  828MPD2    C512179   0.041   2.587  12.409  0.5800 -0.3469  0.3884
  828MPD2     H12180   4.626   2.455  12.078 -0.8019 -1.2033  0.4948
  828MPD2    H112181   0.230   2.521  12.347 -0.7651  0.2493 -1.1047
  828MPD2    H212182   4.569   2.653  12.447 -2.1805  1.5315 -3.1437
  828MPD2    H312183   0.081   2.625  12.502  1.2503  1.0890 -0.4919
  828MPD2     N12184   0.179   2.440  12.103 -0.4528 -0.9236 -0.2074
  828MPD2    H512185   0.276   2.430  12.133 -0.7525 -4.0654 -0.2849
  828MPD2    N112186   4.449   2.594  12.214  0.0302 -0.3877 -0.0592
  828MPD2    H712187   4.445   2.584  12.113 -2.6057 -2.3098  0.2321
  829MPD2     C12188   4.354   2.738  11.397 -0.5873 -0.1993 -0.3129
  829MPD2    C112189   4.242   2.803  11.452  0.1076 -0.1261  0.9306
  829MPD2    C212190   4.201   2.773  11.580 -0.2121  0.1755  0.1262
  829MPD2    C312191   4.280   2.678  11.652  0.4500 -0.2005 -0.7900
  829MPD2    C412192   4.396   2.621  11.603  0.4427  0.2701 -0.1056
  829MPD2    C512193   4.422   2.650  11.475 -0.2624  0.2196  1.2321
  829MPD2     H12194   4.120   2.829  11.626 -0.2614 -1.7879  2.3647
  829MPD2    H112195   4.459   2.552  11.658  0.3863  2.0590  2.2058
  829MPD2    H212196   4.380   2.741  11.292  0.0860 -2.0488 -0.1913
  829MPD2    H312197   4.506   2.592  11.440  0.6872  2.3649 -0.0586
  829MPD2     N12198   4.250   2.661  11.790 -0.2054  0.5808  0.1431
  829MPD2    H512199   4.319   2.609  11.843 -0.0631  0.3599 -0.2586
  829MPD2    N112200   4.175   2.902  11.372  0.1500  0.0677  0.0790
  829MPD2    H712201   4.231   2.920  11.289 -0.0572  2.0373  0.3682
  830MPD2     C12202   0.529   0.484  15.499 -0.5661  0.2083 -0.3062
  830MPD2    C112203   0.432   0.539  15.423 -0.3920  0.4655  0.3707
  830MPD2    C212204   0.466   0.582  15.299 -0.0472 -1.0483 -0.6405
  830MPD2    C312205   0.601   0.608  15.269 -0.0246 -0.4411 -0.1974
  830MPD2    C412206   0.699   0.569  15.355 -0.0150  0.0540 -0.2822
  830MPD2    C512207   0.659   0.503  15.467  0.4068 -0.9357  0.0860
  830MPD2     H12208   0.389   0.619  15.232 -1.1410  1.0156  1.7559
  830MPD2    H112209   0.803   0.592  15.334 -0.3718 -0.3261 -2.4204
  830MPD2    H212210   0.508   0.450  15.600  2.0765  1.1034  0.5536
  830MPD2    H312211   0.731   0.467  15.539  0.4441  0.2852  0.6494
  830MPD2     N12212   0.634   0.696  15.169 -0.2694 -1.1357  0.1291
  830MPD2    H512213   0.718   0.751  15.185 -0.5477 -0.8185  0.5128
  830MPD2    N112214   0.301   0.540  15.471 -0.0956  0.3548 -0.1165
  830MPD2    H712215   0.281   0.510  15.566 -0.8818  3.2641  0.6161
  831MPD2     C12216   0.183   1.943  16.477 -0.5202  0.3321  0.3221
  831MPD2    C112217   0.128   1.932  16.349 -0.0248 -0.7020  0.3372
  831MPD2    C212218   4.718   1.898  16.335  0.3468 -0.6562  0.0658
  831MPD2    C312219   4.626   1.896  16.443 -0.1767  0.4987 -0.1213
  831MPD2    C412220   4.684   1.901  16.568  0.0269  0.3747 -0.2883
  831MPD2    C512221   0.097   1.924  16.584  0.1567 -0.7259  0.3845
  831MPD2     H12222   4.672   1.873  16.240  0.9469 -0.6081 -0.2392
  831MPD2    H112223   4.617   1.888  16.651  0.1810 -1.0809 -0.3881
  831MPD2    H212224   0.288   1.969  16.488 -0.4689  0.5882 -0.7428
  831MPD2    H312225   0.151   1.925  16.678  3.6055 -2.6646 -1.5609
  831MPD2     N12226   4.490   1.870  16.420 -0.2248 -0.1697  0.3209
  831MPD2    H512227   4.443   1.830  16.500 -1.5739 -0.1665 -0.4858
  831MPD2    N112228   0.202   1.984  16.240 -0.3579  0.4244 -0.5366
  831MPD2    H712229   0.298   2.015  16.255 -0.7424  1.7918 -0.8957
  832MPD2     C12230   3.066   3.060  17.448 -0.3437 -0.0296 -0.3010
  832MPD2    C112231   3.040   3.195  17.427 -0.3813 -0.4713 -0.5200
  832MPD2    C212232   2.946   3.224  17.339  0.0514  0.7965  0.5061
  832MPD2    C312233   2.860   3.125  17.296  0.2958  0.2664  0.5466
  832MPD2    C412234   2.890   2.990  17.311  0.6762 -0.0206 -0.3989
  832MPD2    C512235   2.995   2.960  17.390 -0.1842  0.8415 -0.2099
  832MPD2     H12236   2.916   3.327  17.327  1.0671  0.8556 -1.5594
  832MPD2    H112237   2.831   2.909  17.270  0.3662 -0.3701  0.7245
  832MPD2    H212238   3.147   3.037  17.516 -0.8479  0.9702  0.6542
  832MPD2    H312239   3.012   2.854  17.404  3.0927  1.2320 -1.1273
  832MPD2     N12240   2.733   3.152  17.245  0.6630  0.2426  0.6418
  832MPD2    H512241   2.666   3.077  17.244  1.4781 -0.5010  1.3432
  832MPD2    N112242   3.114   3.293  17.492  0.9513 -0.1018  0.0219
  832MPD2    H712243   3.179   3.276  17.568 -0.3002 -0.9577  0.8978
  833MPD2     C12244   0.559   0.184  12.545  0.4511 -0.1490 -0.2259
  833MPD2    C112245   0.550   0.219  12.409  0.2410 -0.0148 -0.2921
  833MPD2    C212246   0.569   0.111  12.317 -0.0954  0.1002  0.1703
  833MPD2    C312247   0.600   4.711  12.354  0.4387 -0.4824  0.1646
  833MPD2    C412248   0.629   4.685  12.484 -0.0849 -0.3668 -0.2695
  833MPD2    C512249   0.604   0.059  12.571 -0.3846  0.4785 -0.5417
  833MPD2     H12250   0.550   0.130  12.212  1.2630  3.2705  0.4695
  833MPD2    H112251   0.657   4.588  12.523  0.3633 -0.2019 -0.1859
  833MPD2    H212252   0.527   0.248  12.627  0.7279 -1.0689  0.5947
  833MPD2    H312253   0.608   0.016  12.670  1.3372 -2.0696 -1.6992
  833MPD2     N12254   0.617   4.616  12.256 -0.2074  0.3645 -0.1006
  833MPD2    H512255   0.602   4.651  12.162  1.1733  1.8057  0.2111
  833MPD2    N112256   0.506   0.348  12.372  0.3867  0.3696 -0.2666
  833MPD2    H712257   0.464   0.407  12.443  0.9572 -1.9767  1.9841
  834MPD2     C12258   0.432   3.805  11.622 -0.3765  0.6334 -0.5383
  834MPD2    C112259   0.485   3.909  11.550 -0.0573  0.4361 -0.3349
  834MPD2    C212260   0.481   4.034  11.612  0.2301  0.4783 -0.7573
  834MPD2    C312261   0.459   4.041  11.747  0.8160  0.6019  0.7030
  834MPD2    C412262   0.429   3.928  11.815  0.7096  0.2266 -0.1933
  834MPD2    C512263   0.407   3.813  11.759 -0.1185  0.1802 -0.1276
  834MPD2     H12264   0.505   4.124  11.557  1.9631 -0.3113 -1.3030
  834MPD2    H112265   0.393   3.934  11.917  0.3057  0.1477 -0.3352
  834MPD2    H212266   0.412   3.710  11.573  0.1780 -1.2005  2.7930
  834MPD2    H312267   0.369   3.733  11.821  0.2426  1.1246  1.3286
  834MPD2     N12268   0.473   4.165  11.807 -0.2146 -0.7617 -0.0745
  834MPD2    H512269   0.495   4.248  11.752  0.0607 -0.8225 -0.0520
  834MPD2    N112270   0.516   3.882  11.418 -0.3386 -1.0388 -0.5275
  834MPD2    H712271   0.497   3.785  11.400  0.9816 -1.2768 -0.6272
  835MPD2     C12272   4.689   2.700  11.062 -0.2343  0.3329 -0.1150
  835MPD2    C112273   4.601   2.809  11.064 -0.1195 -0.2856  0.4368
  835MPD2    C212274   4.583   2.878  11.189  0.3670  0.0527 -0.4878
  835MPD2    C312275   4.662   2.839  11.303  0.5068 -0.1621 -0.1393
  835MPD2    C412276   0.021   2.729  11.290 -0.3082 -0.0129 -0.0669
  835MPD2    C512277   0.037   2.654  11.175 -0.3100  0.0554 -0.0055
  835MPD2     H12278   4.515   2.961  11.200  0.7553  0.6637 -2.7381
  835MPD2    H112279   0.079   2.703  11.377 -0.1103  1.1880  0.1668
  835MPD2    H212280   4.706   2.654  10.965  0.9858 -0.1977  0.3431
  835MPD2    H312281   0.117   2.581  11.166 -1.4418 -1.2641  0.6890
  835MPD2     N12282   4.660   2.891  11.435  0.8637 -0.3264 -0.9797
  835MPD2    H512283   4.711   2.839  11.504  1.4826  1.3359 -0.1948
  835MPD2    N112284   4.515   2.844  10.955  0.4425 -0.3733 -0.3947
  835MPD2    H712285   4.483   2.940  10.954 -1.3524 -0.9740  0.4155
  836MPD2     C12286   4.054   3.286  11.677 -0.8415 -0.0885  0.5933
  836MPD2    C112287   4.122   3.232  11.784  0.3201 -0.0527  0.2028
  836MPD2    C212288   4.086   3.273  11.914  0.0946  0.2863  0.6509
  836MPD2    C312289   3.981   3.358  11.934 -0.0820 -0.5618  0.6324
  836MPD2    C412290   3.923   3.416  11.824  0.0507  0.2685  0.0467
  836MPD2    C512291   3.952   3.372  11.698  0.2778  0.1522 -0.4532
  836MPD2     H12292   4.133   3.224  11.999  0.6576  1.4430  1.0014
  836MPD2    H112293   3.850   3.494  11.841  0.7148  0.7721  0.6024
  836MPD2    H212294   4.074   3.259  11.574  1.2756  1.4019  0.6248
  836MPD2    H312295   3.908   3.418  11.610 -0.6127  1.7556  0.8257
  836MPD2     N12296   3.956   3.387  12.070  0.1596  0.6256 -0.7323
  836MPD2    H512297   3.988   3.320  12.140  2.5349  2.4215 -0.1233
  836MPD2    N112298   4.227   3.149  11.750  0.1973 -0.1798  0.4147
  836MPD2    H712299   4.256   3.146  11.653 -1.5977  0.2552 -0.1383
  837MPD2     C12300   3.611   2.702   9.720  0.3267  0.0420  0.3304
  837MPD2    C112301   3.480   2.726   9.673 -0.0659  0.2607 -0.8035
  837MPD2    C212302   3.452   2.858   9.646  0.0441 -0.0527 -0.3524
  837MPD2    C312303   3.539   2.963   9.677  0.3059  0.1556  1.1901
  837MPD2    C412304   3.665   2.937   9.714 -0.4441 -0.1093 -0.1216
  837MPD2    C512305   3.706   2.809   9.724 -0.4176  0.0299 -0.6943
  837MPD2     H12306   3.352   2.891   9.619  0.4938 -0.6185 -2.7057
  837MPD2    H112307   3.734   3.013   9.749 -1.9579  0.9452  0.5792
  837MPD2    H212308   3.648   2.604   9.750  0.7462  0.3816  0.9317
  837MPD2    H312309   3.802   2.787   9.769 -0.7880 -0.7910 -0.3150
  837MPD2     N12310   3.488   3.091   9.677 -0.1691 -0.1465  0.3240
  837MPD2    H512311   3.392   3.095   9.643 -0.3148 -0.1568  0.7378
  837MPD2    N112312   3.369   2.637   9.658  0.3047  0.4489  1.1295
  837MPD2    H712313   3.285   2.683   9.626  0.8259  0.1212 -0.6998
  838MPD2     C12314   1.659   0.129  11.036  0.5474  0.1886  0.4456
  838MPD2    C112315   1.693   0.226  11.136 -0.0751 -0.7101  0.0693
  838MPD2    C212316   1.592   0.255  11.232  0.8855 -0.3868 -1.1672
  838MPD2    C312317   1.470   0.186  11.236 -0.0726  0.1402  0.0565
  838MPD2    C412318   1.441   0.094  11.138 -0.4465  0.0583 -0.4509
  838MPD2    C512319   1.541   0.063  11.047  0.8764 -0.2605 -0.5239
  838MPD2     H12320   1.602   0.338  11.300 -0.2145 -0.5379 -0.8179
  838MPD2    H112321   1.344   0.047  11.134 -0.3457 -0.3736  2.2207
  838MPD2    H212322   1.722   0.106  10.950 -0.1308  1.2569 -0.3256
  838MPD2    H312323   1.511   0.001  10.963 -0.3775 -0.0011 -0.2597
  838MPD2     N12324   1.379   0.219  11.343 -0.4746 -0.3303 -0.0309
  838MPD2    H512325   1.415   0.288  11.408  1.3385 -1.6429  0.3529
  838MPD2    N112326   1.805   0.315  11.142  0.3302  0.4034  0.5282
  838MPD2    H712327   1.815   0.382  11.217 -1.2693 -0.6369  1.6892
  839MPD2     C12328   1.910   0.280  11.638 -0.4192 -0.9212 -0.1043
  839MPD2    C112329   1.955   0.249  11.513  0.1994  0.6852  0.1546
  839MPD2    C212330   2.040   0.333  11.441  0.2320  0.3896 -0.3197
  839MPD2    C312331   2.062   0.461  11.486 -0.0527  0.3578 -0.1895
  839MPD2    C412332   2.019   0.483  11.619  0.1968 -0.2987  0.4307
  839MPD2    C512333   1.952   0.394  11.697 -0.1320  0.2837 -0.2184
  839MPD2     H12334   2.079   0.299  11.345  1.5075  0.9905 -0.0212
  839MPD2    H112335   2.024   0.582  11.664  1.4231 -0.7103  1.1868
  839MPD2    H212336   1.839   0.221  11.695 -1.0686 -1.6078 -1.6233
  839MPD2    H312337   1.913   0.417  11.796  1.5953 -1.2971  0.8294
  839MPD2     N12338   2.131   0.569  11.423  0.3995  0.2015 -0.3679
  839MPD2    H512339   2.138   0.649  11.485 -1.2673 -0.5311  0.7579
  839MPD2    N112340   1.923   0.127  11.443 -0.0910  0.0224 -0.1636
  839MPD2    H712341   1.960   0.116  11.349  3.5820 -0.4535  1.3420
  840MPD2     C12342   1.822   2.994  10.273  0.8852  0.9277 -0.5505
  840MPD2    C112343   1.766   3.037  10.386 -0.1199  0.3516  0.2362
  840MPD2    C212344   1.845   3.094  10.492 -0.1934  0.1052 -1.1210
  840MPD2    C312345   1.981   3.116  10.471  0.3954 -0.3276 -1.0812
  840MPD2    C412346   2.034   3.080  10.351 -0.3002 -0.3198 -0.0079
  840MPD2    C512347   1.953   3.018  10.255  0.1304  0.1840  0.3177
  840MPD2     H12348   1.796   3.129  10.582 -1.0553 -0.4065 -1.3967
  840MPD2    H112349   2.137   3.101  10.323 -0.2369 -0.3904  0.1671
  840MPD2    H212350   1.767   2.961  10.185  0.2790 -3.9633  1.7079
  840MPD2    H312351   1.994   3.008  10.156 -0.1681  1.2294  0.0864
  840MPD2     N12352   2.067   3.184  10.563 -0.1910 -0.1810  0.3983
  840MPD2    H512353   2.162   3.207  10.535 -0.5811 -0.5506 -1.2220
  840MPD2    N112354   1.627   3.014  10.399 -0.2095  0.3756  0.3685
  840MPD2    H712355   1.584   2.987  10.312 -1.0256  0.3308  0.7851
  841MPD2     C12356   1.783   2.832  14.093 -0.0289  0.0269 -0.1186
  841MPD2    C112357   1.807   2.736  14.191 -0.8237 -0.4832 -0.3932
  841MPD2    C212358   1.917   2.744  14.273  0.1751  0.3144  0.2545
  841MPD2    C312359   2.011   2.838  14.253  0.2762  0.5090 -0.0200
  841MPD2    C412360   1.985   2.944  14.162 -0.4184  0.1456  0.3562
  841MPD2    C512361   1.872   2.936  14.080 -0.2738  0.5993  0.0068
  841MPD2     H12362   1.927   2.665  14.348  1.4794 -0.0482 -0.2990
  841MPD2    H112363   2.047   3.031  14.142  0.1256  0.0646  1.6671
  841MPD2    H212364   1.707   2.825  14.017 -0.6432  1.3950  0.3597
  841MPD2    H312365   1.854   3.004  13.997  1.1148  0.4949 -0.3859
  841MPD2     N12366   2.108   2.855  14.348  0.0402  0.1819 -0.0923
  841MPD2    H512367   2.099   2.799  14.432  2.0528  1.1137  0.7561
  841MPD2    N112368   1.732   2.616  14.198 -0.3300 -0.0132  0.2808
  841MPD2    H712369   1.773   2.543  14.255 -0.3517  0.6344  1.1191
  842MPD2     C12370   2.162   3.658  16.795 -0.1507  0.8191 -0.1508
  842MPD2    C112371   2.097   3.541  16.830 -0.0553 -0.6290  0.0579
  842MPD2    C212372   2.121   3.493  16.952  0.1784 -0.3591 -0.1157
  842MPD2    C312373   2.209   3.550  17.046  0.5417  0.0954  0.1635
  842MPD2    C412374   2.293   3.652  17.005  0.4829  0.0928  0.6788
  842MPD2    C512375   2.255   3.707  16.879  0.0801 -0.2142  0.6421
  842MPD2     H12376   2.051   3.413  16.975  2.5420 -1.8377  1.8998
  842MPD2    H112377   2.377   3.684  17.066  1.4105 -0.8338 -0.1079
  842MPD2    H212378   2.135   3.708  16.703  0.2565  0.7191 -0.3261
  842MPD2    H312379   2.318   3.792  16.857  0.0244 -0.0197  1.2461
  842MPD2     N12380   2.229   3.491  17.172 -0.0487 -0.1363  0.4180
  842MPD2    H512381   2.317   3.514  17.218  0.9222 -1.8763 -0.5300
  842MPD2    N112382   2.007   3.479  16.732  0.3547  0.0916 -0.0552
  842MPD2    H712383   2.004   3.533  16.645 -3.2780 -0.5932 -0.3222
  843MPD2     C12384   4.078   3.788  17.280  0.0676 -0.1729  0.7738
  843MPD2    C112385   4.076   3.800  17.414 -0.1344 -0.3227  0.1257
  843MPD2    C212386   4.170   3.883  17.472  0.1022 -0.2950  0.4850
  843MPD2    C312387   4.264   3.955  17.399 -0.0606 -0.8058  0.3458
  843MPD2    C412388   4.257   3.943  17.258 -0.7358 -0.0043 -0.1267
  843MPD2    C512389   4.160   3.867  17.207  0.4892  0.1371 -0.2853
  843MPD2     H12390   4.174   3.892  17.580 -0.8240  0.6873  0.4437
  843MPD2    H112391   4.329   3.992  17.194 -1.6571  0.9821 -0.4207
  843MPD2    H212392   4.003   3.723  17.237 -0.0187  1.0091 -0.8615
  843MPD2    H312393   4.136   3.859  17.101  0.9680  1.6180 -0.5006
  843MPD2     N12394   4.360   4.052  17.457  0.1101  0.5024 -0.0964
  843MPD2    H512395   4.390   4.117  17.386  2.0249 -0.5225 -0.2198
  843MPD2    N112396   3.983   3.727  17.485  0.2202 -0.4827 -1.0390
  843MPD2    H712397   3.929   3.661  17.430 -2.1884  0.0692  0.6818
  844MPD2     C12398   2.215   2.679  16.857 -0.0062  0.1771  0.3544
  844MPD2    C112399   2.312   2.656  16.754 -0.0890 -0.3106  0.0581
  844MPD2    C212400   2.434   2.717  16.750  0.6294  0.0042 -0.3267
  844MPD2    C312401   2.470   2.805  16.851  0.2735  0.4700 -0.4060
  844MPD2    C412402   2.385   2.814  16.963 -0.4499  0.7229  0.3148
  844MPD2    C512403   2.263   2.749  16.964  0.0784 -0.2426  0.5877
  844MPD2     H12404   2.494   2.708  16.660  1.0558  1.2573 -0.1690
  844MPD2    H112405   2.410   2.881  17.045 -0.3022  1.5913 -0.4358
  844MPD2    H212406   2.122   2.624  16.862  0.7432 -1.2539 -1.5366
  844MPD2    H312407   2.204   2.770  17.052 -0.8616 -0.3835 -0.0082
  844MPD2     N12408   2.602   2.859  16.849  0.1222  0.5282  0.2956
  844MPD2    H512409   2.653   2.838  16.763 -0.8320  1.5356 -0.5119
  844MPD2    N112410   2.275   2.583  16.644  0.4846 -0.0760 -0.6812
  844MPD2    H712411   2.335   2.584  16.562  0.0261  0.6282 -1.0091
  845MPD2     C12412   3.176   3.671  16.968  0.0226  0.0092  0.6392
  845MPD2    C112413   3.105   3.629  17.083  0.2548 -0.0056 -0.1386
  845MPD2    C212414   3.047   3.504  17.073 -0.4511  0.4322  0.1310
  845MPD2    C312415   3.074   3.416  16.968  0.0427 -0.0302 -0.5441
  845MPD2    C412416   3.146   3.460  16.865  0.0882 -0.5431 -0.0597
  845MPD2    C512417   3.191   3.589  16.860 -0.0453 -0.9478 -0.1200
  845MPD2     H12418   2.995   3.471  17.161 -0.2020 -1.4567 -0.4447
  845MPD2    H112419   3.153   3.406  16.771 -2.2686  1.6377 -1.4935
  845MPD2    H212420   3.224   3.765  16.943 -0.2588 -0.3929 -1.4805
  845MPD2    H312421   3.235   3.629  16.769 -1.3455  1.9275  0.5221
  845MPD2     N12422   3.018   3.285  16.977  0.3202  0.2121 -0.2568
  845MPD2    H512423   2.954   3.270  17.053 -0.5618  0.0332 -1.0355
  845MPD2    N112424   3.080   3.717  17.190  0.0943  0.2122  0.3428
  845MPD2    H712425   3.024   3.671  17.261  0.0553  1.1739  0.9294
  846MPD2     C12426   0.194   4.342  13.634  0.5123 -0.3912  0.0214
  846MPD2    C112427   0.115   4.458  13.650 -0.0154 -0.0450 -0.1443
  846MPD2    C212428   0.069   4.499  13.780 -0.1335  0.8730  0.2619
  846MPD2    C312429   0.108   4.424  13.892 -0.2401 -0.7313  0.0214
  846MPD2    C412430   0.196   4.319  13.875  0.7517 -0.0139 -0.1991
  846MPD2    C512431   0.237   4.287  13.753  0.2722  0.0244 -0.1354
  846MPD2     H12432   4.715   4.572  13.799  0.6823  2.4985 -2.7000
  846MPD2    H112433   0.229   4.252  13.954  3.7198  0.7711 -0.7541
  846MPD2    H212434   0.243   4.306  13.545  1.2437 -2.4148  1.2379
  846MPD2    H312435   0.317   4.214  13.756  0.6706  0.5076  1.3624
  846MPD2     N12436   0.050   4.450  14.017 -0.2363 -0.2336 -0.0876
  846MPD2    H512437   4.693   4.510  14.000  0.7177  1.5673  1.7566
  846MPD2    N112438   0.088   4.532  13.535  0.1188 -0.5824 -0.4817
  846MPD2    H712439   0.058   4.629  13.543 -1.5093 -1.1049 -0.2889
  847MPD2     C12440   4.462   0.280  14.329 -0.8383  0.8300  0.3195
  847MPD2    C112441   4.581   0.332  14.370  0.1297 -0.7001 -0.0342
  847MPD2    C212442   4.631   0.280  14.488 -0.5341  0.3349  0.3227
  847MPD2    C312443   4.570   0.176  14.561 -0.6184 -0.3324 -0.2633
  847MPD2    C412444   4.456   0.125  14.513  0.4652  0.4283 -0.3934
  847MPD2    C512445   4.399   0.181  14.402  0.4475  0.2975 -0.0276
  847MPD2     H12446   0.001   0.304  14.537 -0.6401 -0.2875  0.8255
  847MPD2    H112447   4.395   0.044  14.552 -0.9289  1.9284  0.5151
  847MPD2    H212448   4.404   0.330  14.252 -0.7782  3.2891  1.8615
  847MPD2    H312449   4.304   0.141  14.370  0.1613 -0.7952  2.2336
  847MPD2     N12450   4.630   0.136  14.681  0.3137 -0.5331  0.3780
  847MPD2    H512451   4.722   0.175  14.700 -1.1108  3.1219 -0.3608
  847MPD2    N112452   4.662   0.411  14.286 -0.5536 -0.6141 -0.0824
  847MPD2    H712453   0.035   0.419  14.318 -0.4277 -1.1287 -0.3263
  848MPD2     C12454   2.368   3.334  16.541 -0.0679  0.2311  0.2692
  848MPD2    C112455   2.406   3.421  16.645  0.2205 -0.3250  0.3510
  848MPD2    C212456   2.441   3.551  16.611 -0.5801  0.4103 -0.1880
  848MPD2    C312457   2.429   3.598  16.482  0.1053  0.1905  0.3721
  848MPD2    C412458   2.389   3.513  16.384 -0.6839 -0.4275 -0.0848
  848MPD2    C512459   2.354   3.382  16.410 -0.1257  0.2826 -0.3986
  848MPD2     H12460   2.465   3.615  16.695  0.3208 -1.3069  0.8526
  848MPD2    H112461   2.379   3.543  16.280 -0.5197 -1.5406 -0.4218
  848MPD2    H212462   2.354   3.228  16.558 -1.0664 -0.0641 -2.4497
  848MPD2    H312463   2.306   3.313  16.342  0.9513 -0.8174 -0.0420
  848MPD2     N12464   2.439   3.740  16.451  0.0051 -0.0420  0.1336
  848MPD2    H512465   2.406   3.763  16.358 -1.6157 -2.6459  0.0775
  848MPD2    N112466   2.425   3.390  16.778  0.2346  0.5690 -0.8803
  848MPD2    H712467   2.448   3.464  16.844  1.7243  1.0423 -1.9242
  849MPD2     C12468   1.992   3.266  14.525  0.0558 -0.2058 -0.6682
  849MPD2    C112469   2.061   3.270  14.405 -0.3799  0.5748 -0.0142
  849MPD2    C212470   2.197   3.284  14.398  0.0463 -0.0298  0.1039
  849MPD2    C312471   2.274   3.303  14.513  0.4400 -0.5146  1.0095
  849MPD2    C412472   2.203   3.302  14.632  0.0783  0.3146  0.0261
  849MPD2    C512473   2.066   3.279  14.638 -0.1675 -0.3774 -0.1768
  849MPD2     H12474   2.241   3.296  14.299 -0.5199 -2.4503 -0.4372
  849MPD2    H112475   2.262   3.300  14.723 -1.1212  1.5826  0.8446
  849MPD2    H212476   1.885   3.247  14.523 -0.4821  3.0024 -2.7711
  849MPD2    H312477   2.011   3.277  14.732  1.1098 -0.4180  0.5776
  849MPD2     N12478   2.406   3.334  14.492  0.2109 -0.9498  0.3875
  849MPD2    H512479   2.435   3.345  14.396  0.6891  2.8701  0.9440
  849MPD2    N112480   1.992   3.270  14.282  0.2969 -0.3731  0.2529
  849MPD2    H712481   2.047   3.277  14.197  1.0986  0.9414  0.8758
  850MPD2     C12482   4.605   1.304  14.636  0.3701  0.3402 -0.0295
  850MPD2    C112483   4.597   1.419  14.709 -0.1427 -0.2140 -0.2066
  850MPD2    C212484   4.710   1.496  14.729 -0.5990  0.5163 -0.1032
  850MPD2    C312485   0.111   1.441  14.695  0.1598 -0.1891  0.4495
  850MPD2    C412486   0.120   1.328  14.623 -0.2494  0.0758  0.0355
  850MPD2    C512487   0.004   1.260  14.594  0.6727 -0.1622 -0.2648
  850MPD2     H12488   4.716   1.597  14.766 -0.8147  0.3621  0.3498
  850MPD2    H112489   0.205   1.282  14.575 -1.4492 -1.3931 -0.6976
  850MPD2    H212490   4.511   1.260  14.605  1.3666 -0.7410 -1.5443
  850MPD2    H312491   0.019   1.174  14.529  1.3944  1.7920 -2.7097
  850MPD2     N12492   0.233   1.497  14.735  0.4896 -0.0554 -0.1551
  850MPD2    H512493   0.312   1.440  14.709 -1.3012 -2.1948 -0.9192
  850MPD2    N112494   4.466   1.463  14.744 -0.1443 -0.2403 -0.0936
  850MPD2    H712495   4.391   1.428  14.684  1.5529  0.1519 -2.4468
  851MPD2     C12496   0.325   1.503  15.407  0.2440 -0.0340  0.3926
  851MPD2    C112497   0.267   1.473  15.283 -0.2413 -0.2646  0.2044
  851MPD2    C212498   0.333   1.384  15.203  0.0978 -0.5264  0.2372
  851MPD2    C312499   0.446   1.323  15.252  0.4281 -0.2630 -0.9277
  851MPD2    C412500   0.500   1.349  15.381  0.2422  0.2951  0.2964
  851MPD2    C512501   0.437   1.446  15.454 -0.0041 -0.5450 -0.6506
  851MPD2     H12502   0.284   1.344  15.115  1.6930  0.7142 -1.2238
  851MPD2    H112503   0.589   1.306  15.426  0.2878  0.0641 -0.0140
  851MPD2    H212504   0.280   1.585  15.462 -2.0334 -1.3138  0.4474
  851MPD2    H312505   0.486   1.476  15.546 -1.6696  0.1833  0.0015
  851MPD2     N12506   0.503   1.233  15.154 -0.1439 -0.2252  0.3765
  851MPD2    H512507   0.442   1.210  15.077  0.2862  0.6915 -0.2454
  851MPD2    N112508   0.141   1.519  15.249 -0.0997 -0.1006 -0.6729
  851MPD2    H712509   0.091   1.569  15.321 -0.5843  0.9941 -1.7758
  852MPD2     C12510   3.910   4.366  10.773  0.3721 -0.3051 -0.5222
  852MPD2    C112511   4.036   4.396  10.829 -0.1054 -0.2180 -0.8397
  852MPD2    C212512   4.115   4.477  10.749 -0.4137  0.3983  0.9299
  852MPD2    C312513   4.080   4.536  10.633 -0.2345  0.2068 -0.1620
  852MPD2    C412514   3.946   4.526  10.596 -0.0685 -0.0907 -0.1111
  852MPD2    C512515   3.862   4.445  10.665 -1.0156 -0.4059  0.0336
  852MPD2     H12516   4.221   4.493  10.770 -0.5654 -0.6188  2.4409
  852MPD2    H112517   3.890   4.578  10.519 -1.2273 -1.1683  0.0109
  852MPD2    H212518   3.838   4.297  10.815 -0.3193  0.3092 -0.6969
  852MPD2    H312519   3.759   4.436  10.634 -1.6152 -0.4437  2.0199
  852MPD2     N12520   4.175   4.615  10.571  0.3138 -0.3884  0.5557
  852MPD2    H512521   4.267   4.629  10.613 -0.3277  0.6624  1.5937
  852MPD2    N112522   4.094   4.338  10.946 -0.2420 -0.1478  0.2900
  852MPD2    H712523   4.193   4.359  10.961 -0.2452 -1.6666  2.5259
  853MPD2     C12524   1.668   3.803  12.481 -0.2197 -0.1344  0.0874
  853MPD2    C112525   1.557   3.873  12.434  0.7954  0.0871 -0.6597
  853MPD2    C212526   1.530   3.876  12.300  0.1736  0.1770 -0.2678
  853MPD2    C312527   1.606   3.801  12.209  0.1779 -0.3856 -0.0107
  853MPD2    C412528   1.723   3.743  12.257  0.3126 -0.1171  0.2362
  853MPD2    C512529   1.752   3.746  12.392  0.5952 -0.0299 -0.3178
  853MPD2     H12530   1.446   3.936  12.265 -1.1780  0.0417  2.7215
  853MPD2    H112531   1.786   3.688  12.189  1.7828  0.5276  1.0954
  853MPD2    H212532   1.682   3.798  12.589 -1.7130  0.2503  0.2881
  853MPD2    H312533   1.845   3.700  12.425  0.2602 -0.5949 -0.1566
  853MPD2     N12534   1.568   3.787  12.078 -0.2775  0.5387  0.8531
  853MPD2    H512535   1.619   3.722  12.019  0.0674  2.2999 -0.7891
  853MPD2    N112536   1.473   3.929  12.534 -0.2815  0.2783 -0.1820
  853MPD2    H712537   1.490   3.901  12.630 -0.5860 -0.8497 -0.4643
  854MPD2     C12538   3.444   4.517  12.606 -0.1004 -0.5007 -0.5317
  854MPD2    C112539   3.358   4.492  12.718  0.0392 -0.1297 -0.0459
  854MPD2    C212540   3.351   4.356  12.755  0.3078 -0.1244 -0.3442
  854MPD2    C312541   3.430   4.256  12.696 -1.1223  0.1198 -0.5288
  854MPD2    C412542   3.515   4.287  12.600  0.1446  0.2882  0.1245
  854MPD2    C512543   3.523   4.417  12.559 -0.3107  0.7961  0.2818
  854MPD2     H12544   3.287   4.337  12.840  0.0596  0.4078 -0.4115
  854MPD2    H112545   3.583   4.211  12.564 -0.2301 -1.3286  2.8040
  854MPD2    H212546   3.445   4.616  12.563  0.9858 -0.8054 -1.2189
  854MPD2    H312547   3.589   4.422  12.473  0.1595  1.4285  0.6789
  854MPD2     N12548   3.404   4.122  12.726 -0.1769 -0.4079  0.6111
  854MPD2    H512549   3.458   4.058  12.668 -0.4591 -1.0183  1.0289
  854MPD2    N112550   3.270   4.590  12.763  0.0300 -1.0378 -0.2413
  854MPD2    H712551   3.287   4.684  12.728  0.2986 -0.0068  2.6840
  855MPD2     C12552   3.641   3.890  13.563 -0.0321 -0.5475  0.2676
  855MPD2    C112553   3.592   3.766  13.520 -0.5077  0.0076 -0.0246
  855MPD2    C212554   3.565   3.743  13.385 -0.6650  0.2544 -0.0689
  855MPD2    C312555   3.576   3.844  13.293 -0.4157 -0.3606 -0.0323
  855MPD2    C412556   3.628   3.963  13.337 -0.0710  0.1585  0.0448
  855MPD2    C512557   3.673   3.981  13.464  0.1345  0.0415 -0.0360
  855MPD2     H12558   3.533   3.645  13.351  2.8298 -0.6612 -0.6501
  855MPD2    H112559   3.621   4.053  13.278 -1.7217  0.3656  0.5615
  855MPD2    H212560   3.668   3.898  13.667 -0.9171  2.4897  0.2415
  855MPD2    H312561   3.714   4.078  13.491  3.4116 -1.6385  1.0685
  855MPD2     N12562   3.531   3.836  13.158  0.2772 -0.6204 -0.4975
  855MPD2    H512563   3.542   3.916  13.097 -1.1808 -0.1859 -0.1844
  855MPD2    N112564   3.559   3.667  13.611 -0.0007 -0.2163  0.4604
  855MPD2    H712565   3.534   3.579  13.568 -0.2437 -0.3440  0.8614
  856MPD2     C12566   1.167   4.656  13.782 -0.6234 -0.2819 -0.0230
  856MPD2    C112567   1.266   0.022  13.758 -0.4349  0.2732 -0.7027
  856MPD2    C212568   1.230   0.142  13.700 -0.2228  0.7019  0.5373
  856MPD2    C312569   1.096   0.173  13.657 -0.5132  0.1965 -0.0269
  856MPD2    C412570   0.999   0.083  13.696  0.0473  0.3025 -0.0661
  856MPD2    C512571   1.034   4.689  13.752 -0.5055 -0.1915 -0.8411
  856MPD2     H12572   1.312   0.208  13.674 -0.0806 -0.2174 -1.3582
  856MPD2    H112573   0.895   0.100  13.669  0.1702  0.2353 -0.5833
  856MPD2    H212574   1.179   4.568  13.844  3.0773 -0.1635 -0.5465
  856MPD2    H312575   0.959   4.618  13.786 -1.1245  1.8828  2.1196
  856MPD2     N12576   1.053   0.296  13.605 -0.2743  0.3961  0.1246
  856MPD2    H512577   0.957   0.305  13.574  0.3436  2.0905 -1.3459
  856MPD2    N112578   1.393   4.713  13.808 -0.2008 -0.4509  0.6146
  856MPD2    H712579   1.466   0.058  13.791 -0.3723 -0.7040 -1.0980
  857MPD2     C12580   1.974   2.104  12.825 -0.1149  0.2331 -0.1604
  857MPD2    C112581   2.100   2.128  12.797  0.6002 -0.7435  0.5676
  857MPD2    C212582   2.165   2.243  12.849  0.4613 -0.5833 -0.1781
  857MPD2    C312583   2.094   2.334  12.923  0.3007  0.1029 -0.2416
  857MPD2    C412584   1.954   2.315  12.942  0.1435  0.0207  0.2799
  857MPD2    C512585   1.897   2.199  12.902  0.3085  0.0651  0.3954
  857MPD2     H12586   2.269   2.260  12.823 -0.5786 -0.6507 -4.4594
  857MPD2    H112587   1.892   2.388  12.992 -0.2299  0.9440 -1.5367
  857MPD2    H212588   1.937   2.003  12.810  0.9686 -0.4433  1.6163
  857MPD2    H312589   1.795   2.165  12.913  1.0857 -2.4287 -0.1806
  857MPD2     N12590   2.172   2.440  12.983 -0.4525 -0.0432 -0.1193
  857MPD2    H512591   2.271   2.422  12.978 -0.3873  0.7075 -1.3252
  857MPD2    N112592   2.168   2.020  12.738  0.4363  0.3272  0.4655
  857MPD2    H712593   2.108   1.951  12.695  0.6386  0.5139 -0.1151
  858MPD2     C12594   3.256   0.893  16.736  0.2731  0.0990  0.1228
  858MPD2    C112595   3.301   0.812  16.844 -0.3835  0.7939  0.4645
  858MPD2    C212596   3.310   0.878  16.970  0.0514  0.3325 -0.3238
  858MPD2    C312597   3.290   1.016  16.984  0.1251  0.3933 -0.2731
  858MPD2    C412598   3.248   1.089  16.876 -0.0231  0.5772 -0.3500
  858MPD2    C512599   3.243   1.034  16.751  0.6521 -0.1827  0.3341
  858MPD2     H12600   3.344   0.825  17.058 -0.8593 -0.8464 -0.6832
  858MPD2    H112601   3.237   1.197  16.880  1.7543  0.7884 -1.2914
  858MPD2    H212602   3.251   0.863  16.632 -0.5727  2.9047 -0.6467
  858MPD2    H312603   3.232   1.094  16.662  1.1180 -1.5230 -0.6133
  858MPD2     N12604   3.311   1.089  17.106  0.4302 -0.2755  0.1922
  858MPD2    H512605   3.281   1.186  17.093 -0.6999 -0.5282  0.9433
  858MPD2    N112606   3.317   0.672  16.826  0.3620 -0.1273 -0.6280
  858MPD2    H712607   3.282   0.642  16.735 -1.2199  0.3444 -0.1771
  859MPD2     C12608   1.714   3.339  14.872 -0.1710 -0.1763  0.3698
  859MPD2    C112609   1.827   3.366  14.952 -0.4474 -0.1275  0.9462
  859MPD2    C212610   1.846   3.287  15.067  0.0565  0.6718 -0.9144
  859MPD2    C312611   1.750   3.188  15.092  1.0987  0.2472  0.0003
  859MPD2    C412612   1.644   3.169  15.010  0.6479 -0.0963 -0.0721
  859MPD2    C512613   1.620   3.246  14.901 -0.0054 -0.3175 -0.6611
  859MPD2     H12614   1.944   3.292  15.114 -0.7967 -1.8320  1.1271
  859MPD2    H112615   1.583   3.082  15.032 -0.5363 -0.0710 -3.2240
  859MPD2    H212616   1.695   3.397  14.783  1.0157 -1.0129 -0.4420
  859MPD2    H312617   1.531   3.240  14.840 -1.1174  1.6745  0.7483
  859MPD2     N12618   1.771   3.087  15.187  0.6963 -0.2903  0.8909
  859MPD2    H512619   1.714   3.003  15.185 -0.2578  0.4212 -1.7124
  859MPD2    N112620   1.922   3.457  14.903  0.5830  0.9578 -0.2796
  859MPD2    H712621   1.894   3.513  14.823  0.9276  2.0746  0.3868
  860MPD2     C12622   4.218   3.471  11.377  0.4773  0.0098  0.5954
  860MPD2    C112623   4.234   3.521  11.504  0.3172  0.2424 -0.3878
  860MPD2    C212624   4.140   3.609  11.554  0.1181  0.2119 -0.7121
  860MPD2    C312625   4.017   3.640  11.488 -0.3693 -0.2944 -0.3073
  860MPD2    C412626   4.001   3.583  11.364  0.3769  0.0947  0.6145
  860MPD2    C512627   4.106   3.517  11.309  0.1134 -0.6363  0.1737
  860MPD2     H12628   4.155   3.653  11.652 -2.1036  1.2340 -0.8427
  860MPD2    H112629   3.910   3.591  11.307  2.2581 -1.4413 -2.5834
  860MPD2    H212630   4.289   3.404  11.329 -0.7886  0.0957 -1.3955
  860MPD2    H312631   4.083   3.467  11.215 -1.6496 -0.7969  0.6908
  860MPD2     N12632   3.921   3.710  11.555  0.1934 -0.3749  0.1604
  860MPD2    H512633   3.952   3.755  11.641  0.9870  1.2705 -1.0027
  860MPD2    N112634   4.327   3.470  11.601 -0.4052  0.1335  0.0355
  860MPD2    H712635   4.311   3.514  11.691  1.8411  2.6463 -0.7710
  861MPD2     C12636   3.213   2.245  10.844 -0.5009 -0.7215 -0.0698
  861MPD2    C112637   3.111   2.187  10.914  0.3164  0.4068  0.5647
  861MPD2    C212638   2.989   2.162  10.850  0.3521  0.0797 -0.2749
  861MPD2    C312639   2.977   2.184  10.719 -0.6060 -0.8198 -0.1279
  861MPD2    C412640   3.088   2.224  10.650 -0.0795  0.2732 -0.6074
  861MPD2    C512641   3.200   2.271  10.709 -1.1134  0.2556 -0.7380
  861MPD2     H12642   2.904   2.133  10.911  1.7357 -0.4795  1.3953
  861MPD2    H112643   3.094   2.246  10.544  1.0192  1.9499 -0.1995
  861MPD2    H212644   3.312   2.267  10.882 -0.7516  2.7556 -1.4440
  861MPD2    H312645   3.274   2.329  10.655  0.2461 -0.8298 -0.0193
  861MPD2     N12646   2.854   2.184  10.644 -0.6424  0.3827 -0.4260
  861MPD2    H512647   2.863   2.211  10.546 -0.8888 -0.4685 -0.6921
  861MPD2    N112648   3.121   2.154  11.048  0.5611  0.7392 -0.1908
  861MPD2    H712649   3.034   2.116  11.084  2.9105 -0.9447  3.7111
  862MPD2     C12650   2.712   2.230   9.990 -0.0327 -0.3886 -0.4395
  862MPD2    C112651   2.637   2.165  10.084 -0.5860  0.6803  0.5661
  862MPD2    C212652   2.580   2.044  10.047  0.3966  0.1324 -0.6354
  862MPD2    C312653   2.600   1.981   9.926  1.2195 -0.3310  0.3707
  862MPD2    C412654   2.682   2.050   9.832 -0.9379  0.2812  0.1915
  862MPD2    C512655   2.729   2.168   9.867  1.2058 -0.0313  0.7300
  862MPD2     H12656   2.524   1.993  10.126 -0.7825 -0.8562 -2.1010
  862MPD2    H112657   2.697   2.025   9.728  1.3504 -1.7313  1.0121
  862MPD2    H212658   2.761   2.324  10.015 -1.8630  0.1984  0.9656
  862MPD2    H312659   2.785   2.226   9.795 -0.6292  0.2993 -0.4495
  862MPD2     N12660   2.550   1.861   9.875  0.0354  0.9024 -0.1016
  862MPD2    H512661   2.561   1.833   9.778 -0.9795 -0.9723  0.3278
  862MPD2    N112662   2.609   2.221  10.210  0.5302 -0.3899 -0.3630
  862MPD2    H712663   2.570   2.157  10.279 -0.5935 -0.2826 -0.8974
  863MPD2     C12664   1.400   4.257  16.567 -0.1313  0.1336 -0.5023
  863MPD2    C112665   1.487   4.359  16.560  0.0532 -0.1213 -0.7735
  863MPD2    C212666   1.598   4.366  16.644 -0.2396 -0.4336  0.8007
  863MPD2    C312667   1.611   4.276  16.747  0.0026  0.7979 -0.1982
  863MPD2    C412668   1.525   4.172  16.749  0.2466 -0.1487  0.3147
  863MPD2    C512669   1.422   4.155  16.667  0.3033  0.6394  0.3229
  863MPD2     H12670   1.670   4.445  16.627 -1.1913  0.0194 -1.0529
  863MPD2    H112671   1.537   4.097  16.827 -0.0457  1.7609  2.1988
  863MPD2    H212672   1.314   4.247  16.503 -0.7471 -1.2700  0.5419
  863MPD2    H312673   1.364   4.065  16.680 -2.3963  2.4163  0.6782
  863MPD2     N12674   1.711   4.277  16.850  0.0027  0.2398  0.4598
  863MPD2    H512675   1.703   4.205  16.920  0.5526 -1.5389 -1.3140
  863MPD2    N112676   1.460   4.450  16.455  0.6607 -0.8045 -0.0043
  863MPD2    H712677   1.368   4.449  16.411  0.5973 -1.5866  0.1622
  864MPD2     C12678   1.954   1.117   0.062 -0.5874  0.2610  0.0109
  864MPD2    C112679   2.001   1.071  17.638  0.2877 -0.0967  0.2673
  864MPD2    C212680   2.055   1.163  17.548  0.1347  0.1651  0.3431
  864MPD2    C312681   2.062   1.300  17.582  0.1604  0.1232  0.1776
  864MPD2    C412682   2.004   1.348   0.001 -0.4461  0.1690 -0.0186
  864MPD2    C512683   1.958   1.252   0.092 -0.4585 -0.2842  0.4523
  864MPD2     H12684   2.102   1.125  17.457 -2.9130  0.8784 -1.5442
  864MPD2    H112685   2.008   1.448   0.043  2.1285  0.3758 -0.7966
  864MPD2    H212686   1.943   1.047   0.144  0.3905  0.0264 -0.0614
  864MPD2    H312687   1.924   1.284   0.190 -1.5832 -0.1557  0.0200
  864MPD2     N12688   2.145   1.381  17.504 -0.6734  0.0214  0.2252
  864MPD2    H512689   2.183   1.332  17.424 -2.9819  1.8584 -2.0279
  864MPD2    N112690   2.020   0.934  17.611 -0.0649  0.4621  0.4989
  864MPD2    H712691   1.990   0.869  17.683  1.0783 -0.0912  0.4813
  865MPD2     C12692   1.955   1.512  16.604  0.0513  0.5758 -0.4634
  865MPD2    C112693   1.998   1.387  16.648  0.2550 -0.1195  0.8468
  865MPD2    C212694   2.046   1.384  16.776  0.0672 -0.1598  0.4169
  865MPD2    C312695   2.048   1.491  16.861  0.0337 -0.1306  0.1617
  865MPD2    C412696   2.000   1.606  16.818 -0.2612  0.7605  0.4361
  865MPD2    C512697   1.951   1.611  16.692  0.5439 -0.2076 -0.3217
  865MPD2     H12698   2.097   1.298  16.818 -0.7419 -0.4657  0.7625
  865MPD2    H112699   2.009   1.693  16.881  3.6158  1.6330 -1.3394
  865MPD2    H212700   1.916   1.525  16.503 -0.9854 -2.4219 -0.4500
  865MPD2    H312701   1.930   1.706  16.645 -1.7803 -0.2282  0.6698
  865MPD2     N12702   2.109   1.481  16.987  0.6818  0.1366  0.4349
  865MPD2    H512703   2.166   1.398  16.999  0.2262 -0.4911 -1.6468
  865MPD2    N112704   2.005   1.276  16.565 -0.2732  0.3844  0.0530
  865MPD2    H712705   1.993   1.285  16.465 -0.6524  0.7390  0.1307
  866MPD2     C12706   3.578   2.369  11.370 -0.3735 -0.5740 -0.2615
  866MPD2    C112707   3.588   2.380  11.232 -0.2215  0.5708  0.4317
  866MPD2    C212708   3.480   2.430  11.161  0.3807 -0.2764  0.2652
  866MPD2    C312709   3.377   2.486  11.229 -0.2500 -0.5316  0.1884
  866MPD2    C412710   3.367   2.473  11.371 -0.0375  1.2988  0.3708
  866MPD2    C512711   3.473   2.417  11.435 -0.0479  0.3319 -0.0233
  866MPD2     H12712   3.493   2.429  11.053 -0.4281 -0.5307  0.1719
  866MPD2    H112713   3.274   2.503  11.418 -1.0126 -0.9524 -0.1258
  866MPD2    H212714   3.662   2.332  11.427 -0.6521  0.4844  0.8471
  866MPD2    H312715   3.478   2.420  11.543 -1.4275  0.7499  0.0305
  866MPD2     N12716   3.273   2.543  11.160  0.6683  0.3438 -0.2769
  866MPD2    H512717   3.200   2.584  11.218  1.3846 -0.0043  0.8864
  866MPD2    N112718   3.705   2.322  11.174 -0.1532 -0.3478  0.2716
  866MPD2    H712719   3.751   2.253  11.232  0.5866 -1.3666 -1.5426
  867MPD2     C12720   0.882   0.983  16.627  0.2057 -0.1083 -0.1625
  867MPD2    C112721   0.956   1.024  16.737 -0.1518 -0.6132  0.2952
  867MPD2    C212722   0.905   1.105  16.832 -1.3064  0.6829 -0.4932
  867MPD2    C312723   0.766   1.146  16.822  0.0113  0.3649 -0.6034
  867MPD2    C412724   0.700   1.117  16.708 -0.5467 -0.2767 -0.9747
  867MPD2    C512725   0.756   1.036  16.613  0.7914  0.6385 -0.6025
  867MPD2     H12726   0.968   1.153  16.906 -4.1103  2.6131  0.6633
  867MPD2    H112727   0.598   1.142  16.683 -0.2734 -0.1411 -1.9762
  867MPD2    H212728   0.917   0.912  16.553 -2.3204 -2.2514  0.6802
  867MPD2    H312729   0.697   1.020  16.524 -1.1986 -1.0031  1.0146
  867MPD2     N12730   0.690   1.220  16.921 -0.7110 -0.9134 -0.0291
  867MPD2    H512731   0.598   1.253  16.894  0.0694  2.1070  0.9968
  867MPD2    N112732   1.082   0.961  16.754  0.1381 -0.2007 -0.3354
  867MPD2    H712733   1.113   0.907  16.674 -1.1261 -1.3087 -0.0785
  868MPD2     C12734   2.544   0.609  13.066 -0.8173 -0.3691 -0.1250
  868MPD2    C112735   2.613   0.489  13.100 -0.1471  0.3756  0.8519
  868MPD2    C212736   2.546   0.386  13.170 -0.2137 -0.2180 -0.1892
  868MPD2    C312737   2.407   0.404  13.201  0.3588 -0.3485  0.7703
  868MPD2    C412738   2.343   0.525  13.175  0.7214  0.3395 -0.3059
  868MPD2    C512739   2.416   0.620  13.106 -0.3486  0.3397  0.0876
  868MPD2     H12740   2.594   0.296  13.208 -1.9509 -0.4698  1.3480
  868MPD2    H112741   2.235   0.538  13.185  0.6352 -1.6218  1.3532
  868MPD2    H212742   2.582   0.677  12.991 -1.9376  1.1793  0.7317
  868MPD2    H312743   2.366   0.712  13.077 -0.7283 -0.2956 -1.2778
  868MPD2     N12744   2.349   0.290  13.273 -0.0699 -0.3469  0.2222
  868MPD2    H512745   2.405   0.206  13.285  0.2873 -0.0275  0.8399
  868MPD2    N112746   2.739   0.468  13.042 -0.2016  0.3126 -0.1868
  868MPD2    H712747   2.781   0.551  13.002 -2.3244  0.2768 -2.4407
  869MPD2     C12748   3.332   3.255   1.544 -0.0592  0.0327 -0.4054
  869MPD2    C112749   3.466   3.216   1.559 -0.2753  0.0715 -0.2575
  869MPD2    C212750   3.550   3.212   1.448 -0.5712  0.0993  0.3706
  869MPD2    C312751   3.506   3.257   1.326 -0.0620  0.4820  0.6578
  869MPD2    C412752   3.370   3.290   1.307 -0.1059  0.4180  0.1468
  869MPD2    C512753   3.289   3.291   1.419  0.0352 -0.6377  0.0660
  869MPD2     H12754   3.655   3.189   1.460 -0.0045  2.3607 -0.0939
  869MPD2    H112755   3.339   3.328   1.211  0.1923 -0.5680 -0.3316
  869MPD2    H212756   3.263   3.253   1.628 -0.7062  1.7534 -0.9009
  869MPD2    H312757   3.183   3.313   1.417  0.5791  1.9733  0.0614
  869MPD2     N12758   3.594   3.278   1.219  0.5658 -0.0634  0.1634
  869MPD2    H512759   3.545   3.299   1.133  2.0306 -1.7091 -1.0649
  869MPD2    N112760   3.515   3.177   1.687  0.0467 -0.4039  0.7435
  869MPD2    H712761   3.445   3.173   1.761 -2.5548  1.5934 -1.6039
  870MPD2     C12762   2.749   2.278   1.698 -0.5379  0.5320 -0.5746
  870MPD2    C112763   2.885   2.253   1.682  0.2562 -0.0968 -0.6695
  870MPD2    C212764   2.926   2.225   1.554  0.7037  0.1320 -0.3970
  870MPD2    C312765   2.840   2.236   1.446 -0.9402 -0.0913  0.5324
  870MPD2    C412766   2.703   2.258   1.469 -0.1631 -0.7537 -0.4856
  870MPD2    C512767   2.657   2.280   1.596 -0.2379  0.4185 -1.0905
  870MPD2     H12768   3.028   2.190   1.547  0.8341  0.4165  0.0618
  870MPD2    H112769   2.626   2.268   1.393  0.3656 -0.6747 -1.0134
  870MPD2    H212770   2.706   2.304   1.794 -1.0370 -2.1323 -0.0640
  870MPD2    H312771   2.552   2.293   1.620 -0.1265  3.1153 -2.0640
  870MPD2     N12772   2.889   2.216   1.311 -0.1535  0.2364 -0.6191
  870MPD2    H512773   2.981   2.172   1.307  0.4701  1.6148 -1.5310
  870MPD2    N112774   2.970   2.264   1.793 -0.0558 -0.0916  0.3878
  870MPD2    H712775   2.925   2.286   1.881 -2.9529 -1.0779 -0.8421
  871MPD2     C12776   4.291   1.206  16.484  0.4520 -0.8887 -0.4948
  871MPD2    C112777   4.313   1.196  16.619 -0.7490 -0.4097 -0.6919
  871MPD2    C212778   4.358   1.078  16.675 -0.4797  0.2939  0.5456
  871MPD2    C312779   4.380   0.971  16.595 -0.0603 -0.9289 -0.4209
  871MPD2    C412780   4.370   0.981  16.454 -0.4364  0.6598  0.6284
  871MPD2    C512781   4.318   1.096  16.400 -0.2710 -0.4462 -0.8983
  871MPD2     H12782   4.363   1.067  16.783 -1.9153  0.3269  0.6147
  871MPD2    H112783   4.384   0.902  16.381 -0.2397  1.5680 -0.3273
  871MPD2    H212784   4.253   1.299  16.444  0.9629 -1.4869 -2.3443
  871MPD2    H312785   4.298   1.110  16.295  1.6308 -1.6019 -1.4157
  871MPD2     N12786   4.410   0.851  16.673 -0.0251 -0.1581  0.2613
  871MPD2    H512787   4.401   0.861  16.773  0.1470 -0.7708  0.3382
  871MPD2    N112788   4.292   1.311  16.691 -0.2381  0.6929 -0.1371
  871MPD2    H712789   4.247   1.386  16.639  0.9269  0.2223 -1.8071
  872MPD2     C12790   1.017   3.848  14.471  1.0601 -0.8811  0.3231
  872MPD2    C112791   0.981   3.918  14.354 -0.0869  0.0222  0.7018
  872MPD2    C212792   0.850   3.957  14.340  0.1105 -0.4017 -0.8713
  872MPD2    C312793   0.751   3.921  14.426  0.6597  0.1059  0.0526
  872MPD2    C412794   0.783   3.841  14.533 -0.1746 -0.0876  0.3693
  872MPD2    C512795   0.918   3.816  14.560  0.6878  0.1990 -0.3567
  872MPD2     H12796   0.816   4.011  14.253  0.8347  1.6078  0.0989
  872MPD2    H112797   0.702   3.806  14.596 -2.7830  0.9253 -2.4264
  872MPD2    H212798   1.119   3.818  14.493  1.5723  0.0832 -0.7296
  872MPD2    H312799   0.944   3.770  14.655 -1.1448 -0.5982 -0.2347
  872MPD2     N12800   0.617   3.953  14.421 -0.1354  0.2599  0.1612
  872MPD2    H512801   0.555   3.922  14.495 -1.4442  0.0205 -1.0181
  872MPD2    N112802   1.072   3.965  14.251  0.3781 -0.7690 -0.0471
  872MPD2    H712803   1.027   4.026  14.184 -0.3867 -1.2903 -0.0096
  873MPD2     C12804   3.142   3.717   0.864  0.5087 -0.6536 -0.2987
  873MPD2    C112805   3.009   3.700   0.870 -0.7462 -0.9497 -0.3107
  873MPD2    C212806   2.949   3.609   0.778  0.0231  0.2273 -0.2241
  873MPD2    C312807   3.025   3.532   0.701 -0.3047 -0.7874 -0.1683
  873MPD2    C412808   3.158   3.535   0.720 -0.0537 -0.3564 -0.5542
  873MPD2    C512809   3.219   3.626   0.800 -0.0179 -1.0478 -0.2172
  873MPD2     H12810   2.841   3.602   0.766  0.2613 -2.7830 -0.5616
  873MPD2    H112811   3.224   3.468   0.666  0.4760 -0.4537  0.2191
  873MPD2    H212812   3.191   3.791   0.927 -0.5524 -1.1753  1.1352
  873MPD2    H312813   3.327   3.634   0.799 -0.0458 -0.6809 -1.2183
  873MPD2     N12814   2.982   3.437   0.608 -0.5317 -0.4930  0.2818
  873MPD2    H512815   3.052   3.393   0.549 -1.3421 -0.8475 -0.4050
  873MPD2    N112816   2.935   3.783   0.963  0.0627 -0.5421 -0.1009
  873MPD2    H712817   2.995   3.842   1.020 -1.3496  0.0655  0.7748
  874MPD2     C12818   1.874   3.846  16.146  0.0049  0.5146 -0.2147
  874MPD2    C112819   1.931   3.804  16.260 -0.0667  0.5285  0.0548
  874MPD2    C212820   2.023   3.875  16.330 -0.1264  0.3863 -0.3419
  874MPD2    C312821   2.075   3.994  16.279  0.0768 -0.0998 -0.1380
  874MPD2    C412822   2.018   4.038  16.161  0.7984 -0.1923 -0.5961
  874MPD2    C512823   1.912   3.968  16.097 -0.5092 -0.6421  0.8681
  874MPD2     H12824   2.071   3.853  16.425 -0.6520  0.6362 -0.0144
  874MPD2    H112825   2.061   4.129  16.120  1.8600 -0.1754  0.5528
  874MPD2    H212826   1.798   3.787  16.096 -2.0343  2.1133  1.0388
  874MPD2    H312827   1.870   4.000  16.002 -0.0029 -0.9105  0.5567
  874MPD2     N12828   2.188   4.049  16.345  0.0488  0.6351  0.3893
  874MPD2    H512829   2.216   4.008  16.433  0.2747 -0.1997 -0.0684
  874MPD2    N112830   1.879   3.673  16.301  0.3235 -0.8353 -0.3938
  874MPD2    H712831   1.820   3.629  16.231  1.8534 -1.6558 -1.1782
  875MPD2     C12832   3.094   2.368  14.453 -0.2770  0.5484 -0.1659
  875MPD2    C112833   2.968   2.383  14.500  0.4089 -0.2244 -0.6805
  875MPD2    C212834   2.941   2.424  14.629 -0.1514 -0.1031  0.4027
  875MPD2    C312835   3.047   2.462  14.716  0.3242  0.1837  0.4925
  875MPD2    C412836   3.171   2.455  14.660  0.7026 -0.1884  0.0987
  875MPD2    C512837   3.196   2.382  14.547  0.1965 -0.3687 -0.4270
  875MPD2     H12838   2.838   2.441  14.658 -0.4962 -0.1756 -0.7729
  875MPD2    H112839   3.258   2.483  14.719 -0.2067 -0.1325  1.3962
  875MPD2    H212840   3.122   2.331  14.355  2.4565 -0.0690  0.8414
  875MPD2    H312841   3.298   2.379  14.510  0.2590 -1.9003 -0.0882
  875MPD2     N12842   3.040   2.494  14.858 -0.7898  0.2798 -0.0692
  875MPD2    H512843   3.126   2.528  14.898  0.1073 -0.3372 -1.4620
  875MPD2    N112844   2.852   2.353  14.424 -0.4714  0.1712 -0.3333
  875MPD2    H712845   2.772   2.393  14.472 -1.5145 -1.5389 -0.6397
  876MPD2     C12846   2.371   3.820  15.918  0.4222  0.4803  0.1911
  876MPD2    C112847   2.430   3.733  15.832 -0.6815  0.2472  0.8427
  876MPD2    C212848   2.371   3.608  15.818 -0.3461 -0.6827  0.2822
  876MPD2    C312849   2.264   3.569  15.893  0.0085 -0.1115 -0.1779
  876MPD2    C412850   2.193   3.668  15.965 -0.1147  0.5049  0.2939
  876MPD2    C512851   2.257   3.787  15.982 -0.7111  0.2908  1.0211
  876MPD2     H12852   2.428   3.538  15.759 -1.4990 -3.6360  2.6642
  876MPD2    H112853   2.108   3.644  16.027  0.5841 -0.1335  1.0082
  876MPD2    H212854   2.410   3.918  15.940 -0.3751  0.8250  0.0671
  876MPD2    H312855   2.207   3.858  16.047  1.0644  0.3844  2.2732
  876MPD2     N12856   2.229   3.432  15.897 -0.0219 -0.1607  0.0709
  876MPD2    H512857   2.262   3.376  15.819 -1.0118 -1.5127  0.6061
  876MPD2    N112858   2.537   3.773  15.746  0.3016  0.8920 -0.2732
  876MPD2    H712859   2.577   3.700  15.687 -0.3220 -0.5236  1.0370
  877MPD2     C12860   2.629   4.138  15.385  0.1792  0.0747 -0.1428
  877MPD2    C112861   2.731   4.223  15.346 -0.2801  0.5060  0.4460
  877MPD2    C212862   2.728   4.266  15.214 -0.9828 -0.2297 -0.0904
  877MPD2    C312863   2.648   4.201  15.125  0.2896 -0.0055  0.3245
  877MPD2    C412864   2.549   4.111  15.164 -0.2764 -0.3567 -0.7384
  877MPD2    C512865   2.531   4.091  15.300  0.0478  0.8050  0.6048
  877MPD2     H12866   2.798   4.343  15.183  0.0786 -0.1965  2.3724
  877MPD2    H112867   2.475   4.067  15.098 -1.5278 -2.1648  1.8828
  877MPD2    H212868   2.619   4.125  15.493 -0.2752 -1.5925 -0.3931
  877MPD2    H312869   2.448   4.030  15.333  0.3131 -0.1637 -0.4917
  877MPD2     N12870   2.645   4.232  14.991 -0.1296  0.6716 -0.6767
  877MPD2    H512871   2.577   4.173  14.945  0.6507 -0.6877 -0.0794
  877MPD2    N112872   2.830   4.271  15.434  0.7135 -0.4252 -0.0932
  877MPD2    H712873   2.882   4.351  15.400  0.9784 -0.4471  0.2621
  878MPD2     C12874   1.456   3.283  13.361  0.3051  0.3543  0.6617
  878MPD2    C112875   1.555   3.379  13.357 -0.2319 -0.2175 -0.1045
  878MPD2    C212876   1.622   3.402  13.479  0.0341  0.3921  0.1006
  878MPD2    C312877   1.587   3.330  13.596  0.0793 -1.1123 -0.4189
  878MPD2    C412878   1.483   3.247  13.596  0.2452  0.6705  0.0693
  878MPD2    C512879   1.413   3.226  13.480 -0.3629  0.8966  0.6049
  878MPD2     H12880   1.706   3.470  13.482  2.2591 -2.3413 -0.4816
  878MPD2    H112881   1.456   3.185  13.681 -0.4072  1.3666  0.3681
  878MPD2    H212882   1.388   3.267  13.278 -1.4441  0.5856  2.0243
  878MPD2    H312883   1.334   3.152  13.472 -1.1366  1.5284  2.4244
  878MPD2     N12884   1.667   3.350  13.709 -0.2063 -0.7369 -0.3730
  878MPD2    H512885   1.739   3.422  13.707 -0.5419 -0.4466 -2.0226
  878MPD2    N112886   1.583   3.458  13.240 -0.3071 -0.3016 -0.1769
  878MPD2    H712887   1.525   3.436  13.159  1.2815 -0.7377 -1.1902
  879MPD2     C12888   2.389   4.704  16.689 -0.8973  0.5848  0.6020
  879MPD2    C112889   2.356   4.591  16.761  0.1700  0.8555  0.9775
  879MPD2    C212890   2.273   4.495  16.704 -0.6224  0.4043 -0.5043
  879MPD2    C312891   2.212   4.521  16.588  0.5384 -0.0104  0.2524
  879MPD2    C412892   2.236   4.640  16.522 -0.3381  0.5604 -0.2254
  879MPD2    C512893   2.323   0.006  16.574  0.3103  0.4502  0.0388
  879MPD2     H12894   2.255   4.400  16.755  1.3505 -0.0943 -0.7568
  879MPD2    H112895   2.183   4.677  16.435  1.8760  0.1344 -1.7419
  879MPD2    H212896   2.457   0.058  16.723  1.4173 -0.5170 -1.4900
  879MPD2    H312897   2.341   0.099  16.521  1.6310 -0.1385 -0.5316
  879MPD2     N12898   2.110   4.435  16.532 -0.4165  0.4162  0.2972
  879MPD2    H512899   2.078   4.466  16.441 -0.1270 -1.3586 -0.4070
  879MPD2    N112900   2.430   4.573  16.884  0.4074 -0.3140  0.0263
  879MPD2    H712901   2.471   4.654  16.929  1.4604 -0.5898 -0.4430
  880MPD2     C12902   4.041   1.222   0.285 -0.0151  0.9953  0.3208
  880MPD2    C112903   3.953   1.215   0.390 -0.5688  0.3609 -0.4656
  880MPD2    C212904   3.925   1.090   0.453 -0.0507  0.7678 -0.4254
  880MPD2    C312905   3.993   0.975   0.407 -0.1381  0.0153  0.8798
  880MPD2    C412906   4.098   0.989   0.318  0.7494 -0.4283  0.1825
  880MPD2    C512907   4.101   1.103   0.249  0.1212  0.9837 -0.2415
  880MPD2     H12908   3.837   1.075   0.515 -0.3040  1.3394 -0.6475
  880MPD2    H112909   4.154   0.903   0.282  1.5905 -0.0423  0.5624
  880MPD2    H212910   4.065   1.314   0.233 -0.4505  1.1835  0.4532
  880MPD2    H312911   4.162   1.115   0.160  0.2565  1.4283 -0.0884
  880MPD2     N12912   3.953   0.855   0.468 -0.7968  0.0998 -0.2671
  880MPD2    H512913   3.904   0.865   0.556 -0.7739  1.7362 -0.4399
  880MPD2    N112914   3.870   1.331   0.407 -0.5074 -0.0047  0.2988
  880MPD2    H712915   3.873   1.397   0.331 -1.7818  0.0502  0.2993
  881MPD2     C12916   3.582   2.124   0.028 -0.1867  0.0652 -0.0434
  881MPD2    C112917   3.615   2.003  17.666  0.2771  0.5556  0.3594
  881MPD2    C212918   3.593   1.891   0.045  0.5014 -0.2530  0.4585
  881MPD2    C312919   3.562   1.901   0.183  0.7373  0.1455 -0.1167
  881MPD2    C412920   3.546   2.024   0.232 -0.1475  0.0080 -0.9071
  881MPD2    C512921   3.549   2.137   0.158 -0.2074 -0.1905 -0.1861
  881MPD2     H12922   3.607   1.799  17.686 -0.9487 -0.5295  0.5595
  881MPD2    H112923   3.510   2.038   0.333  3.1856  1.0862  0.1234
  881MPD2    H212924   3.599   2.220  17.674 -1.4196  0.4443  0.2760
  881MPD2    H312925   3.522   2.231   0.206 -2.7242 -1.2480  0.4675
  881MPD2     N12926   3.547   1.798   0.278  0.3565  0.3121  0.3041
  881MPD2    H512927   3.540   1.818   0.378  2.2622  1.5092  0.1901
  881MPD2    N112928   3.656   1.998  17.525 -0.1856 -0.2996  0.0275
  881MPD2    H712929   3.664   2.082  17.470 -1.5191  0.4084  0.8852
  882MPD2     C12930   2.500   3.872  14.498 -0.6976  0.6985 -0.2805
  882MPD2    C112931   2.424   3.989  14.509  0.4957  0.3906  0.0298
  882MPD2    C212932   2.285   3.983  14.493 -0.2973 -0.3360 -0.3634
  882MPD2    C312933   2.216   3.859  14.478 -0.6719 -0.2547 -0.2894
  882MPD2    C412934   2.300   3.749  14.466  0.2614  0.3855  0.2623
  882MPD2    C512935   2.436   3.751  14.477  0.8853  0.1561  0.2368
  882MPD2     H12936   2.233   4.077  14.508 -0.0470 -0.2939  0.2613
  882MPD2    H112937   2.249   3.655  14.448  1.4141 -0.1555 -0.1221
  882MPD2    H212938   2.606   3.867  14.523 -0.4762 -3.3877 -2.0911
  882MPD2    H312939   2.492   3.658  14.475  1.3093  0.4707 -2.2166
  882MPD2     N12940   2.079   3.847  14.466 -0.7642 -0.0975  0.7379
  882MPD2    H512941   2.038   3.757  14.442  3.3902 -1.2076 -2.2841
  882MPD2    N112942   2.497   4.102  14.517 -0.5081 -0.0575 -0.2525
  882MPD2    H712943   2.597   4.092  14.506 -0.5415 -0.9074  0.2597
  883MPD2     C12944   4.311   3.785  16.821  0.1590 -0.1725  0.1852
  883MPD2    C112945   4.386   3.795  16.706  0.6440  0.7419  0.8524
  883MPD2    C212946   4.522   3.820  16.725 -0.4374 -0.3017 -0.0382
  883MPD2    C312947   4.580   3.810  16.853  0.0522  0.1209 -0.5810
  883MPD2    C412948   4.501   3.787  16.963  0.4348 -0.6603 -0.2292
  883MPD2    C512949   4.370   3.782  16.942 -0.2251 -1.1815 -0.5811
  883MPD2     H12950   4.579   3.847  16.637  0.1835  1.2184  0.8224
  883MPD2    H112951   4.543   3.788  17.063  3.1379  0.6644 -1.3492
  883MPD2    H212952   4.203   3.786  16.825  0.1080  1.1003 -1.6596
  883MPD2    H312953   4.309   3.763  17.029 -2.7880 -1.2198 -2.4035
  883MPD2     N12954   4.721   3.827  16.862 -0.3999 -0.1278 -0.0280
  883MPD2    H512955   0.038   3.868  16.779  1.9142 -3.0766 -0.3427
  883MPD2    N112956   4.324   3.802  16.581  0.9599 -0.1344  0.6054
  883MPD2    H712957   4.372   3.844  16.503  0.1505 -0.0837  0.1338
  884MPD2     C12958   1.494   4.591  14.976 -0.6925 -0.1448 -0.0246
  884MPD2    C112959   1.487   4.707  14.898 -0.3000 -0.3712 -0.1828
  884MPD2    C212960   1.385   0.073  14.927  0.0160  0.1227  0.0359
  884MPD2    C312961   1.283   0.045  15.018 -0.2139  0.2305 -0.1715
  884MPD2    C412962   1.291   4.660  15.097 -0.0377  0.0113 -0.7151
  884MPD2    C512963   1.399   4.575  15.074 -0.8316 -0.5285 -0.2173
  884MPD2     H12964   1.370   0.163  14.869 -0.1947  0.5064  0.6765
  884MPD2    H112965   1.217   4.621  15.166 -0.5643  2.9643  0.3560
  884MPD2    H212966   1.578   4.525  14.989  0.7260  1.2568 -2.1700
  884MPD2    H312967   1.408   4.491  15.143  1.8450  1.8255  2.3087
  884MPD2     N12968   1.168   0.131  15.030 -0.0376 -0.1661 -0.3908
  884MPD2    H512969   1.151   0.203  14.961  0.5414 -0.4673 -0.8421
  884MPD2    N112970   1.586   0.029  14.810  0.3016  0.0717  0.0724
  884MPD2    H712971   1.576   0.120  14.767 -0.6880 -0.1662 -0.1846
  885MPD2     C12972   4.168   0.094  17.665 -0.2519 -0.1659 -1.0055
  885MPD2    C112973   4.300   0.087  17.613  0.2123  0.6414  0.0543
  885MPD2    C212974   4.314   0.121  17.479  0.3665 -0.2836  0.0773
  885MPD2    C312975   4.210   0.165  17.396 -0.5164  0.6530  0.2970
  885MPD2    C412976   4.088   0.172  17.454  0.5467  0.2471  0.5797
  885MPD2    C512977   4.067   0.137  17.584  0.1936  0.2668 -0.3383
  885MPD2     H12978   4.412   0.130  17.433  0.8083 -0.7684  0.9204
  885MPD2    H112979   4.003   0.197  17.391 -0.4064  0.1945  1.8377
  885MPD2    H212980   4.153   0.072   0.074  1.8163 -0.1488 -0.7003
  885MPD2    H312981   3.966   0.134  17.622  0.5403 -0.6926  0.5177
  885MPD2     N12982   4.239   0.181  17.257 -0.4149  0.2882  0.1316
  885MPD2    H512983   4.330   0.156  17.220 -0.7520 -0.8232  0.0676
  885MPD2    N112984   4.398   0.029  17.695 -0.4720  0.1209  0.2706
  885MPD2    H712985   4.370   4.704   0.083  2.8381 -0.7644  0.8520
  886MPD2     C12986   0.555   3.561  14.976 -0.5582 -0.5207 -0.5127
  886MPD2    C112987   0.679   3.556  15.041 -0.6603  0.0001  0.0167
  886MPD2    C212988   0.769   3.645  15.001  0.1614 -0.1169  0.1003
  886MPD2    C312989   0.746   3.758  14.918  0.2450 -0.0636  0.9288
  886MPD2    C412990   0.623   3.765  14.855  0.0686  0.9248  0.1828
  886MPD2    C512991   0.527   3.669  14.888 -0.5668 -0.1865 -0.4408
  886MPD2     H12992   0.870   3.631  15.039 -0.4525 -3.1528  0.6204
  886MPD2    H112993   0.590   3.845  14.791  0.1803  0.2550 -0.7041
  886MPD2    H212994   0.484   3.479  14.979 -0.7122 -0.4074 -0.9916
  886MPD2    H312995   0.441   3.654  14.824 -1.0989 -0.4064  0.3146
  886MPD2     N12996   0.845   3.858  14.892 -0.4476 -0.5418 -0.3970
  886MPD2    H512997   0.822   3.942  14.841  2.7268  0.5103 -0.0877
  886MPD2    N112998   0.727   3.454  15.131 -0.6798  0.1394 -0.3767
  886MPD2    H712999   0.822   3.457  15.166  0.4809 -3.3094 -3.2174
  887MPD2     C13000   1.332   3.131  15.313  0.0215  1.0995  0.9461
  887MPD2    C113001   1.251   3.243  15.309  0.1263 -0.0657  0.8326
  887MPD2    C213002   1.311   3.371  15.315  0.5328 -0.3068 -0.2260
  887MPD2    C313003   1.447   3.381  15.338 -0.5060 -0.4009  0.2269
  887MPD2    C413004   1.523   3.269  15.341  0.0576  0.4423 -0.3451
  887MPD2    C513005   1.465   3.146  15.333  0.6803  0.7953  0.2633
  887MPD2     H13006   1.248   3.459  15.315  0.1841 -0.5536 -1.0031
  887MPD2    H113007   1.624   3.270  15.380  0.1682  1.3041 -0.6575
  887MPD2    H213008   1.303   3.028  15.302  2.6042  0.6521 -1.6013
  887MPD2    H313009   1.529   3.058  15.334 -1.4417 -0.7309  2.4542
  887MPD2     N13010   1.505   3.511  15.358  0.2270  0.1922  0.6832
  887MPD2    H513011   1.439   3.588  15.354  1.1005  0.9099 -0.0062
  887MPD2    N113012   1.108   3.232  15.302 -0.2909 -0.0541 -0.9416
  887MPD2    H713013   1.061   3.320  15.283 -0.5497  0.6365  3.0951
  888MPD2     C13014   3.434   3.630  14.870 -0.3836 -0.1124 -0.1616
  888MPD2    C113015   3.468   3.669  14.992 -0.4174  0.5504  0.4654
  888MPD2    C213016   3.547   3.777  15.008 -0.2884 -0.0246 -0.1185
  888MPD2    C313017   3.587   3.845  14.904 -0.4533 -0.1516  0.0766
  888MPD2    C413018   3.558   3.806  14.776 -0.5778 -0.0697 -0.1769
  888MPD2    C513019   3.479   3.699  14.761 -0.1651 -0.5480 -0.2167
  888MPD2     H13020   3.567   3.816  15.107 -1.5191 -0.3323  0.2577
  888MPD2    H113021   3.589   3.866  14.692  1.9834 -1.7949 -0.4651
  888MPD2    H213022   3.359   3.554  14.854 -0.2843 -0.4520  0.9220
  888MPD2    H313023   3.418   3.671  14.676  0.5701  0.7115 -1.1622
  888MPD2     N13024   3.655   3.964  14.934  0.3967  0.0497 -1.0686
  888MPD2    H513025   3.658   3.992  15.031 -1.7961 -0.0095 -0.9857
  888MPD2    N113026   3.421   3.608  15.112  0.2641 -0.2466 -0.4494
  888MPD2    H713027   3.447   3.654  15.199 -1.4429  1.1244 -0.6434
  889MPD2     C13028   2.274   3.272  12.865 -0.0280 -0.0477 -0.8751
  889MPD2    C113029   2.343   3.235  12.983 -0.2345  0.5006 -0.5264
  889MPD2    C213030   2.385   3.335  13.073 -0.7128 -0.9029  0.0692
  889MPD2    C313031   2.372   3.467  13.032 -0.1451  0.4930 -0.4542
  889MPD2    C413032   2.318   3.504  12.912  0.1954  0.1676 -0.2802
  889MPD2    C513033   2.269   3.404  12.833 -0.1672  0.0287  0.2885
  889MPD2     H13034   2.435   3.304  13.164 -1.5261  2.1335  1.5598
  889MPD2    H113035   2.322   3.608  12.884  1.7379  0.2574  0.2279
  889MPD2    H213036   2.256   3.195  12.790 -0.8139 -0.2199 -0.5122
  889MPD2    H313037   2.231   3.429  12.735 -1.0363  0.5987  0.7701
  889MPD2     N13038   2.415   3.561  13.129 -0.0613 -0.2207  0.0803
  889MPD2    H513039   2.472   3.529  13.207  0.3683 -0.8549 -0.4886
  889MPD2    N113040   2.347   3.107  13.041  0.2136  0.0272  0.5106
  889MPD2    H713041   2.389   3.099  13.133 -2.7485  2.0773  2.0239
  890MPD2     C13042   2.380   4.672  14.516 -0.0430 -0.8900  0.5099
  890MPD2    C113043   2.489   0.006  14.575  0.3934  0.1043  0.2123
  890MPD2    C213044   2.520   4.689  14.706 -0.4144  0.5314 -0.4269
  890MPD2    C313045   2.436   4.612  14.774  0.3763 -0.1394 -0.5303
  890MPD2    C413046   2.325   4.561  14.717 -0.0740  0.0423  0.3073
  890MPD2    C513047   2.305   4.583  14.582 -0.2789 -0.3822 -0.2066
  890MPD2     H13048   2.598   0.023  14.756 -0.9181  1.7702 -1.0608
  890MPD2    H113049   2.240   4.516  14.768  0.4167 -0.9051  0.2824
  890MPD2    H213050   2.356   4.684  14.411 -0.6002 -0.3813  0.6996
  890MPD2    H313051   2.219   4.534  14.538  0.1572 -3.0863  1.9244
  890MPD2     N13052   2.471   4.593  14.911 -0.3310 -0.4356 -0.2325
  890MPD2    H513053   2.563   4.634  14.925 -0.7949  0.3808  0.3999
  890MPD2    N113054   2.551   0.116  14.514  0.8874 -0.0127  0.2979
  890MPD2    H713055   2.524   0.138  14.418 -0.1650 -2.2195  0.0915
  891MPD2     C13056   4.720   2.473  16.506 -0.2369  0.0776  0.0270
  891MPD2    C113057   4.711   2.562  16.615 -0.3051 -0.2004 -0.1826
  891MPD2    C213058   0.050   2.536  16.736 -0.3249  0.3735 -0.8133
  891MPD2    C313059   0.139   2.429  16.746  0.7397  0.2278  0.2918
  891MPD2    C413060   0.139   2.332  16.642  0.3231  0.3622 -0.0826
  891MPD2    C513061   0.075   2.359  16.527 -0.5163 -0.0298  0.1895
  891MPD2     H13062   0.049   2.606  16.819 -0.2471 -1.3581  0.6369
  891MPD2    H113063   0.180   2.232  16.653 -1.6905 -0.4340  0.0774
  891MPD2    H213064   4.654   2.479  16.420 -0.9941  1.4302  0.7019
  891MPD2    H313065   0.062   2.280  16.453 -1.1927 -0.3285  0.6285
  891MPD2     N13066   0.219   2.414  16.864 -0.1848 -0.5593 -0.4023
  891MPD2    H513067   0.202   2.475  16.944 -1.1742 -0.8590 -0.3839
  891MPD2    N113068   4.619   2.671  16.597  0.7204  0.2639 -0.0324
  891MPD2    H713069   4.565   2.675  16.511 -0.3119 -0.9471  0.5532
  892MPD2     C13070   1.540   4.626  14.387  0.1953  0.3012  0.3244
  892MPD2    C113071   1.449   4.542  14.453  0.2037 -1.2671 -0.2399
  892MPD2    C213072   1.481   4.404  14.468  0.1225  0.8844  0.1527
  892MPD2    C313073   1.604   4.353  14.414 -0.1998  0.2065 -0.2983
  892MPD2    C413074   1.697   4.441  14.371 -0.2170 -0.1918 -0.0617
  892MPD2    C513075   1.659   4.576  14.352  0.1621 -0.2245  0.6613
  892MPD2     H13076   1.416   4.336  14.521 -1.0382  1.8246 -0.0612
  892MPD2    H113077   1.789   4.402  14.329 -0.1379  1.0335 -1.0266
  892MPD2    H213078   1.517   0.005  14.363 -0.0398 -0.1997 -1.5349
  892MPD2    H313079   1.734   4.641  14.309  1.6553 -2.6010 -0.3717
  892MPD2     N13080   1.642   4.220  14.416  0.3497  0.1073 -0.2830
  892MPD2    H513081   1.740   4.212  14.390  0.5264  1.5900 -0.0840
  892MPD2    N113082   1.327   4.580  14.511  0.0966  0.0580 -0.0613
  892MPD2    H713083   1.278   4.506  14.559  0.2201  1.1477  1.7686
  893MPD2     C13084   2.344   2.514   1.282  0.4265  0.1743 -0.2022
  893MPD2    C113085   2.406   2.539   1.408 -0.1838 -0.5203 -0.0182
  893MPD2    C213086   2.328   2.540   1.524 -0.5789  0.4817  0.2293
  893MPD2    C313087   2.192   2.532   1.518 -0.0004  0.5025 -0.1689
  893MPD2    C413088   2.133   2.515   1.395 -0.1256 -0.2883 -0.0815
  893MPD2    C513089   2.213   2.497   1.281  0.8647  0.3850 -0.1405
  893MPD2     H13090   2.381   2.574   1.612  1.8630  0.2859 -1.1655
  893MPD2    H113091   2.025   2.507   1.388 -0.1781  0.7759 -0.4767
  893MPD2    H213092   2.394   2.501   1.187  0.5287 -1.9832  0.1469
  893MPD2    H313093   2.163   2.471   1.188  1.1908 -1.7076  0.2825
  893MPD2     N13094   2.107   2.556   1.628  0.6438 -0.0786 -0.5603
  893MPD2    H513095   2.008   2.561   1.604  0.3813 -2.4651  0.0612
  893MPD2    N113096   2.548   2.553   1.398 -0.5734  0.1230 -0.0787
  893MPD2    H713097   2.590   2.541   1.306 -0.2073  1.0248 -0.0342
  894MPD2     C13098   0.995   0.001   1.138  0.1383 -0.3889  0.1629
  894MPD2    C113099   1.074   0.021   1.245 -0.2500  0.1905  0.3965
  894MPD2    C213100   1.203   0.064   1.219  0.0923  0.4076 -0.1554
  894MPD2    C313101   1.248   0.101   1.095 -0.5180 -0.1225 -0.2248
  894MPD2    C413102   1.156   0.078   0.989  0.5719  0.8155  0.6380
  894MPD2    C513103   1.030   0.033   1.009 -0.8506  0.5555 -0.1541
  894MPD2     H13104   1.271   0.079   1.303  0.7948  0.2392 -0.6913
  894MPD2    H113105   1.171   0.115   0.888  1.3898 -1.3154 -0.0170
  894MPD2    H213106   0.896   4.686   1.156 -1.2854  1.3243 -4.0025
  894MPD2    H313107   0.956   0.021   0.930 -4.2221  2.3156  2.7735
  894MPD2     N13108   1.375   0.167   1.082  1.0115 -0.9119 -0.3639
  894MPD2    H513109   1.426   0.181   1.169 -1.9483 -2.3700  1.6034
  894MPD2    N113110   1.035   4.718   1.380  0.1288  0.4413  0.9790
  894MPD2    H713111   1.109   0.010   1.448 -0.8649  0.9168  1.9540
  895MPD2     C13112   0.559   3.626  13.760 -0.5132 -0.0931 -0.4988
  895MPD2    C113113   0.523   3.631  13.627  0.6296 -0.2895 -0.7150
  895MPD2    C213114   0.540   3.516  13.553 -0.4896 -0.9056 -0.3954
  895MPD2    C313115   0.572   3.391  13.614  0.0866  0.3579 -0.9075
  895MPD2    C413116   0.592   3.392  13.749  0.4591 -0.5410  0.5990
  895MPD2    C513117   0.592   3.510  13.820 -0.0066 -0.1231 -0.4545
  895MPD2     H13118   0.510   3.525  13.450 -0.6238 -0.4631 -0.3194
  895MPD2    H113119   0.618   3.301  13.801 -1.1077 -0.9016  0.7732
  895MPD2    H213120   0.569   3.718  13.817  0.8638 -1.1157  0.8921
  895MPD2    H313121   0.626   3.508  13.923 -0.7458  0.0189 -0.2079
  895MPD2     N13122   0.577   3.274  13.544 -0.0602 -0.2169  0.2115
  895MPD2    H513123   0.554   3.189  13.595  1.2422  0.0318  1.1915
  895MPD2    N113124   0.474   3.743  13.561  0.2847 -0.0276 -0.1054
  895MPD2    H713125   0.437   3.729  13.468  1.7980  1.2406 -0.8810
  896MPD2     C13126   2.962   0.886   1.982  0.1126  0.0142 -0.2390
  896MPD2    C113127   2.895   0.893   1.861  0.0502  0.1293 -0.4051
  896MPD2    C213128   2.808   0.790   1.827 -0.3225 -0.1939 -0.1070
  896MPD2    C313129   2.790   0.677   1.915  0.1049  0.1516 -0.0530
  896MPD2    C413130   2.858   0.675   2.040 -0.6826 -0.5420  0.7307
  896MPD2    C513131   2.945   0.779   2.071 -0.6113  0.5911 -0.0278
  896MPD2     H13132   2.754   0.792   1.733 -0.5346  0.8201  0.0389
  896MPD2    H113133   2.839   0.595   2.111 -0.8653 -0.7644  0.4317
  896MPD2    H213134   3.027   0.970   2.005  0.7225  0.1546 -2.4201
  896MPD2    H313135   3.006   0.772   2.161 -0.0612  2.0303 -0.2875
  896MPD2     N13136   2.706   0.574   1.868  0.4794  0.9514 -0.2663
  896MPD2    H513137   2.673   0.577   1.772  0.0601  0.0994 -0.1548
  896MPD2    N113138   2.928   1.005   1.779 -0.0467 -0.5507 -0.2118
  896MPD2    H713139   2.992   1.076   1.814 -0.9429  0.9033 -1.5115
  897MPD2     C13140   3.702   3.333  10.063  0.1055  0.4161 -0.3090
  897MPD2    C113141   3.647   3.432  10.135  0.7831  0.2109 -0.2125
  897MPD2    C213142   3.534   3.404  10.210 -0.0283 -0.5013  0.3909
  897MPD2    C313143   3.489   3.277  10.225 -0.6754 -0.0771  0.1171
  897MPD2    C413144   3.547   3.174  10.152 -0.1907  0.5611 -0.0014
  897MPD2    C513145   3.651   3.206  10.068 -0.2643 -0.0963  0.5725
  897MPD2     H13146   3.489   3.475  10.278 -1.5420  1.6554 -2.8264
  897MPD2    H113147   3.506   3.075  10.136 -1.2328  1.0604 -0.4473
  897MPD2    H213148   3.787   3.363  10.004  1.7007 -0.2186  1.6600
  897MPD2    H313149   3.693   3.127  10.007 -1.2489  0.1922 -0.4930
  897MPD2     N13150   3.373   3.258  10.310 -0.0959  0.7197 -0.3238
  897MPD2    H513151   3.337   3.339  10.359 -2.0238 -0.1156 -0.3719
  897MPD2    N113152   3.699   3.559  10.120 -0.1312 -0.5425 -0.3178
  897MPD2    H713153   3.759   3.577  10.040  2.0134 -0.2342  1.3667
  898MPD2     C13154   1.127   2.971  17.330  0.9467  0.0021  0.0732
  898MPD2    C113155   1.169   3.098  17.325 -0.8261  0.2212  0.0324
  898MPD2    C213156   1.111   3.186  17.236 -0.2147  0.3205 -0.0538
  898MPD2    C313157   1.016   3.139  17.147 -0.3513  0.2081  0.2135
  898MPD2    C413158   0.976   3.010  17.147  0.1894 -0.1747 -0.3845
  898MPD2    C513159   1.029   2.926  17.247  0.3430  0.2677 -0.5114
  898MPD2     H13160   1.145   3.289  17.236  2.9648 -0.7179  1.9013
  898MPD2    H113161   0.894   2.975  17.084  0.9848  0.6037 -1.8553
  898MPD2    H213162   1.171   2.895  17.394  0.5367  0.5890  1.0543
  898MPD2    H313163   0.986   2.826  17.254  2.1469 -0.4118  0.7095
  898MPD2     N13164   0.968   3.228  17.050  0.2080  0.6668 -0.1934
  898MPD2    H513165   1.018   3.316  17.038  1.1894  0.1659  0.2269
  898MPD2    N113166   1.245   3.166  17.421 -0.3789 -0.0846 -0.4029
  898MPD2    H713167   1.253   3.267  17.414  1.2115 -0.2086 -0.4640
  899MPD2     C13168   2.029   4.003  17.528  0.0223  0.2298  0.2656
  899MPD2    C113169   1.928   4.097  17.509 -0.3019 -0.0609 -0.3233
  899MPD2    C213170   1.816   4.087  17.590  0.3865 -0.5860  0.0728
  899MPD2    C313171   1.817   3.998  17.692 -0.2972 -0.4000  0.1930
  899MPD2    C413172   1.917   3.912   0.014 -0.5994  0.5742  0.3429
  899MPD2    C513173   2.024   3.914  17.632 -0.4083 -0.4646 -0.1659
  899MPD2     H13174   1.733   4.157  17.585 -1.7646 -3.1275 -0.4485
  899MPD2    H113175   1.919   3.847   0.101 -2.1270  0.8734  0.6155
  899MPD2    H213176   2.114   4.000  17.461  0.1879  1.3645  0.4226
  899MPD2    H313177   2.110   3.850  17.650 -0.1493 -0.2660 -0.6799
  899MPD2     N13178   1.722   3.999   0.102 -0.3791 -0.6480  0.3760
  899MPD2    H513179   1.734   3.943   0.186 -1.9245 -2.1456 -0.3818
  899MPD2    N113180   1.939   4.189  17.401  0.2066 -0.2638 -0.2137
  899MPD2    H713181   2.028   4.193  17.351 -1.2688 -0.9346 -2.9048
  900MPD2     C13182   1.314   1.585  12.621 -0.4934  0.4428  0.0818
  900MPD2    C113183   1.272   1.470  12.556 -0.5468  0.9593  0.7550
  900MPD2    C213184   1.158   1.485  12.481 -0.0583 -0.0622  0.3663
  900MPD2    C313185   1.072   1.591  12.491 -0.1821 -0.0168 -0.2265
  900MPD2    C413186   1.114   1.699  12.561 -0.2589 -0.5934  1.0248
  900MPD2    C513187   1.236   1.694  12.622  1.0159 -0.1051 -0.2909
  900MPD2     H13188   1.134   1.401  12.418 -0.8088 -0.3805  1.0739
  900MPD2    H113189   1.070   1.798  12.555 -0.3495 -0.6034  1.5255
  900MPD2    H213190   1.412   1.586  12.666  1.2274  0.7620 -3.6469
  900MPD2    H313191   1.276   1.786  12.661  1.7749 -0.4808 -0.1982
  900MPD2     N13192   0.959   1.590  12.408 -0.0607 -0.0088  0.3091
  900MPD2    H513193   0.938   1.501  12.365  0.1030  0.1084 -0.0136
  900MPD2    N113194   1.343   1.353  12.563  0.4685  0.5747 -1.0349
  900MPD2    H713195   1.306   1.274  12.512  2.1833 -1.5700  1.0542
  901MPD2     C13196   1.158   0.441  12.371  0.2737  0.0870 -0.7836
  901MPD2    C113197   1.259   0.418  12.462  0.2777 -0.2581 -0.1472
  901MPD2    C213198   1.347   0.516  12.499  0.6758 -0.2740 -0.2288
  901MPD2    C313199   1.310   0.645  12.454 -0.2390 -0.4624  0.0440
  901MPD2    C413200   1.204   0.670  12.371 -0.2765  0.1450  0.9645
  901MPD2    C513201   1.122   0.568  12.330 -0.5038 -0.4407 -0.3208
  901MPD2     H13202   1.421   0.505  12.577  1.6517 -0.2689 -1.1481
  901MPD2    H113203   1.173   0.769  12.339  1.3211  0.4006  0.2094
  901MPD2    H213204   1.100   0.364  12.323 -0.2523 -0.5224  0.8478
  901MPD2    H313205   1.038   0.596  12.267  0.3974 -1.8083 -2.1408
  901MPD2     N13206   1.382   0.751  12.512 -0.0703  0.5963  0.0662
  901MPD2    H513207   1.475   0.734  12.547  0.2726  1.5481 -0.3622
  901MPD2    N113208   1.278   0.282  12.499  0.0819  0.2035  0.5456
  901MPD2    H713209   1.211   0.215  12.463  0.3307  0.6260 -0.7103
  902MPD2     C13210   0.212   3.798  12.730  0.0302 -0.4869  0.2424
  902MPD2    C113211   0.292   3.886  12.660 -0.8218  0.1719 -0.8810
  902MPD2    C213212   0.418   3.842  12.609 -0.0490  0.4100  0.5120
  902MPD2    C313213   0.457   3.706  12.627 -0.3669  0.0118  0.3169
  902MPD2    C413214   0.374   3.623  12.703  0.1446 -0.4026 -0.2378
  902MPD2    C513215   0.258   3.671  12.753  0.1859 -0.1575  0.5216
  902MPD2     H13216   0.480   3.911  12.554 -0.5984  0.7834  0.3636
  902MPD2    H113217   0.406   3.523  12.729 -1.2012 -0.4030  1.4101
  902MPD2    H213218   0.113   3.826  12.765  0.7000  1.1960  0.7654
  902MPD2    H313219   0.201   3.603  12.814  0.0044 -1.2748 -0.8956
  902MPD2     N13220   0.562   3.646  12.552 -0.5430  0.3732 -0.7088
  902MPD2    H513221   0.567   3.546  12.567 -0.3241  0.7582  1.8031
  902MPD2    N113222   0.237   4.016  12.654  0.2002 -0.4158 -0.0459
  902MPD2    H713223   0.137   4.030  12.667  0.1272  0.2633 -1.3502
  903MPD2     C13224   0.644   3.142  11.874 -0.1940 -0.0279 -0.5921
  903MPD2    C113225   0.574   3.220  11.967 -0.4185 -0.0353  0.9224
  903MPD2    C213226   0.438   3.258  11.940 -0.3660  0.1065 -0.4244
  903MPD2    C313227   0.369   3.215  11.834  0.0984  0.1135 -0.4839
  903MPD2    C413228   0.435   3.131  11.743  0.6470  0.2784 -0.0265
  903MPD2    C513229   0.571   3.101  11.765 -0.1784 -0.4475 -0.1840
  903MPD2     H13230   0.404   3.334  12.009  0.7776  1.1104 -0.9467
  903MPD2    H113231   0.392   3.093  11.651 -0.4306  2.2336 -0.3333
  903MPD2    H213232   0.750   3.127  11.890 -0.3889 -1.5872 -0.7482
  903MPD2    H313233   0.607   3.031  11.690  1.1041  1.1302 -1.0378
  903MPD2     N13234   0.232   3.250  11.828 -0.2462  0.3246 -0.2536
  903MPD2    H513235   0.198   3.288  11.915 -0.4654 -1.9683  0.6707
  903MPD2    N113236   0.649   3.274  12.072  0.2313  0.2885  0.8350
  903MPD2    H713237   0.751   3.271  12.072  0.1603 -2.1096  0.2053
  904MPD2     C13238   4.529   3.218  14.213  0.2871  0.8088 -0.4448
  904MPD2    C113239   4.619   3.314  14.240 -0.1128  0.4531  0.6258
  904MPD2    C213240   0.010   3.272  14.305  0.8266  0.1622 -0.2245
  904MPD2    C313241   0.038   3.147  14.335 -0.5669 -0.7055 -0.4207
  904MPD2    C413242   4.664   3.055  14.309 -0.5766 -0.0860  0.3930
  904MPD2    C513243   4.549   3.091  14.253 -0.2109  0.3303  0.2623
  904MPD2     H13244   0.076   3.354  14.331 -1.5357  2.1071 -0.2959
  904MPD2    H113245   4.684   2.952  14.336  0.1394 -0.2855 -0.9482
  904MPD2    H213246   4.435   3.232  14.161  1.1993  0.1744 -2.2480
  904MPD2    H313247   4.482   3.011  14.225 -0.7071  1.0630 -0.6546
  904MPD2     N13248   0.158   3.108  14.395 -0.3430 -0.2593 -0.0015
  904MPD2    H513249   0.173   3.009  14.411  1.8817  0.2185  0.8243
  904MPD2    N113250   4.610   3.446  14.194  0.2112 -0.4465  0.6748
  904MPD2    H713251   4.692   3.497  14.225  0.8203 -0.3628 -1.1218
  905MPD2     C13252   4.473   3.362  13.520  0.1479  0.0668  0.0162
  905MPD2    C113253   4.583   3.437  13.537 -0.4446 -0.4408 -0.1310
  905MPD2    C213254   4.694   3.399  13.474  0.0431 -0.3193 -0.2412
  905MPD2    C313255   4.700   3.287  13.385 -0.2364 -0.5770 -0.9235
  905MPD2    C413256   4.590   3.205  13.379 -0.1180 -0.0566 -0.6958
  905MPD2    C513257   4.477   3.246  13.440 -0.2415 -0.1913 -0.0974
  905MPD2     H13258   0.056   3.465  13.481 -0.2160  0.0059 -0.0991
  905MPD2    H113259   4.593   3.115  13.319 -1.5721 -0.7490  0.2813
  905MPD2    H213260   4.388   3.391  13.581  0.9794  0.2907  1.0557
  905MPD2    H313261   4.390   3.189  13.412  0.5175 -1.3024 -0.1885
  905MPD2     N13262   0.086   3.249  13.309 -0.2728 -0.8633  0.5893
  905MPD2    H513263   0.078   3.166  13.252  2.6307  1.9447 -3.9547
  905MPD2    N113264   4.569   3.541  13.633  0.1445  0.1066 -0.4137
  905MPD2    H713265   4.478   3.548  13.677  0.1276 -0.6944 -0.3318
  906MPD2     C13266   2.194   3.137  11.384 -0.0322 -1.2245  0.6048
  906MPD2    C113267   2.196   3.063  11.268  0.3418  0.0374  1.0282
  906MPD2    C213268   2.140   2.939  11.268  0.2376  0.2831 -0.1718
  906MPD2    C313269   2.119   2.868  11.389 -1.1217 -0.5221 -0.2888
  906MPD2    C413270   2.140   2.937  11.504 -0.0285  0.3754 -0.6367
  906MPD2    C513271   2.175   3.068  11.501 -0.2036  0.3287 -0.1499
  906MPD2     H13272   2.124   2.896  11.170 -0.3580 -0.1805  0.1305
  906MPD2    H113273   2.128   2.891  11.601 -1.0971  1.8460 -0.0573
  906MPD2    H213274   2.214   3.244  11.389  2.2856 -1.6595  0.9978
  906MPD2    H313275   2.176   3.116  11.598 -3.8074 -0.7375  0.3935
  906MPD2     N13276   2.065   2.735  11.394 -0.5223 -0.4787  0.4932
  906MPD2    H513277   2.050   2.693  11.485 -0.5500 -2.0154 -0.2083
  906MPD2    N113278   2.221   3.122  11.141 -0.8299  0.3633 -0.5110
  906MPD2    H713279   2.196   3.064  11.061  0.0984 -0.8313  0.0496
  907MPD2     C13280   0.662   2.253  15.509  0.0998 -0.4967 -0.1986
  907MPD2    C113281   0.796   2.219  15.481  0.2055 -0.5410  0.3458
  907MPD2    C213282   0.891   2.255  15.574  0.3291  0.5462  0.0097
  907MPD2    C313283   0.857   2.336  15.678  0.2707 -0.1779  0.1938
  907MPD2    C413284   0.725   2.373  15.704 -0.2278 -0.3025 -0.2700
  907MPD2    C513285   0.626   2.320  15.625 -0.3175  0.0061 -0.2794
  907MPD2     H13286   0.989   2.211  15.557 -0.7999 -2.5529  1.5933
  907MPD2    H113287   0.697   2.440  15.784 -0.6636  2.0982 -2.4311
  907MPD2    H213288   0.578   2.213  15.453 -0.0535 -0.5809  0.0929
  907MPD2    H313289   0.523   2.350  15.642  0.6197  1.7223  2.4267
  907MPD2     N13290   0.965   2.383  15.754 -0.4936  0.0193 -0.4255
  907MPD2    H513291   1.060   2.355  15.729 -0.1428  0.6935  0.1505
  907MPD2    N113292   0.834   2.139  15.376 -0.2860 -0.3905 -0.3236
  907MPD2    H713293   0.933   2.117  15.366 -0.2318  0.0434 -0.7723
  908MPD2     C13294   3.913   3.858   9.349  0.0241 -1.0175 -0.1971
  908MPD2    C113295   3.812   3.782   9.400  0.3144  0.1531 -0.1852
  908MPD2    C213296   3.785   3.790   9.533 -0.7466 -0.6122  0.1934
  908MPD2    C313297   3.860   3.869   9.622 -0.1867 -0.0956  0.8566
  908MPD2    C413298   3.969   3.930   9.572  0.5975 -0.1034  0.0887
  908MPD2    C513299   3.992   3.926   9.435  0.6034 -0.3315 -0.4981
  908MPD2     H13300   3.698   3.740   9.575 -2.4337 -1.3262 -4.1717
  908MPD2    H113301   4.043   3.981   9.633  0.5737 -1.9090  1.6527
  908MPD2    H213302   3.938   3.876   9.244 -2.8849 -0.8064 -0.8455
  908MPD2    H313303   4.070   3.990   9.396  0.6441 -0.3170 -0.3911
  908MPD2     N13304   3.825   3.867   9.758 -0.5662  0.0306  0.0883
  908MPD2    H513305   3.762   3.793   9.788  0.3744 -0.5352  0.6850
  908MPD2    N113306   3.736   3.684   9.323  0.5758 -0.0009 -0.7052
  908MPD2    H713307   3.658   3.639   9.370  2.5443 -0.6779  1.9179
  909MPD2     C13308   4.038   0.925  11.735  0.7178  0.3570 -0.1094
  909MPD2    C113309   4.036   1.054  11.686 -0.4139  0.1092 -0.7175
  909MPD2    C213310   3.996   1.161  11.762 -0.0201  0.1356  0.5513
  909MPD2    C313311   3.947   1.135  11.889 -0.4417 -0.0053 -1.1739
  909MPD2    C413312   3.948   1.002  11.940  0.2382  0.2246 -0.3426
  909MPD2    C513313   3.992   0.899  11.865 -0.1076  0.5117 -0.1134
  909MPD2     H13314   4.015   1.264  11.735  2.6036  0.3733  3.2440
  909MPD2    H113315   3.908   0.977  12.038 -1.5483  1.1002 -0.8448
  909MPD2    H213316   4.059   0.840  11.672  1.3007 -0.1109  0.7213
  909MPD2    H313317   3.983   0.801  11.910  0.8273  0.3274 -0.3251
  909MPD2     N13318   3.894   1.246  11.963  0.2631 -0.0242  0.5388
  909MPD2    H513319   3.899   1.335  11.913 -0.5011 -0.1875  0.1678
  909MPD2    N113320   4.094   1.092  11.562  0.1979 -0.5686  0.1360
  909MPD2    H713321   4.089   1.191  11.542  1.4584 -0.5311  0.0390
  910MPD2     C13322   0.276   2.391  16.074  0.3197  0.2627  0.2204
  910MPD2    C113323   0.386   2.394  15.985  0.6482 -0.9146  0.3549
  910MPD2    C213324   0.371   2.470  15.870 -0.3019 -0.2213  0.5846
  910MPD2    C313325   0.252   2.543  15.836  0.2675 -0.2872  0.0596
  910MPD2    C413326   0.149   2.538  15.933  0.0947  0.0329 -0.1476
  910MPD2    C513327   0.165   2.455  16.041 -1.5212  0.3568  0.0657
  910MPD2     H13328   0.457   2.481  15.807 -0.7973 -2.3109 -0.4607
  910MPD2    H113329   0.064   2.604  15.926 -1.1162 -1.2218  2.5552
  910MPD2    H213330   0.274   2.345  16.172  1.9876 -1.6694 -0.6512
  910MPD2    H313331   0.080   2.454  16.108 -0.4139  0.4045  1.4964
  910MPD2     N13332   0.238   2.627  15.727  0.1697 -0.2668  0.1564
  910MPD2    H513333   0.158   2.689  15.714 -0.0080 -0.0245  2.2447
  910MPD2    N113334   0.513   2.344  16.015 -0.0438 -0.8101 -0.0143
  910MPD2    H713335   0.572   2.332  15.933 -1.6619 -2.1799 -0.9766
  911MPD2     C13336   3.288   3.423  16.480 -0.3122 -0.0728  0.5446
  911MPD2    C113337   3.229   3.302  16.464 -0.1893 -0.2516 -0.3175
  911MPD2    C213338   3.093   3.299  16.442 -0.4462  0.0867  0.4714
  911MPD2    C313339   3.023   3.413  16.413 -0.0648 -0.4617 -0.4616
  911MPD2    C413340   3.087   3.533  16.436 -0.8726  0.5586  0.0727
  911MPD2    C513341   3.217   3.540  16.464 -0.4640 -0.4130 -0.8542
  911MPD2     H13342   3.046   3.202  16.453  0.1438 -0.2172  0.3025
  911MPD2    H113343   3.028   3.624  16.434 -1.1500  0.4107  1.5231
  911MPD2    H213344   3.392   3.441  16.506 -0.5072  0.2100  1.1098
  911MPD2    H313345   3.266   3.634  16.489 -0.1842 -0.9195  0.4860
  911MPD2     N13346   2.882   3.420  16.384 -0.5307 -0.1305 -0.2777
  911MPD2    H513347   2.838   3.511  16.379 -1.2500 -0.2825  3.2817
  911MPD2    N113348   3.315   3.189  16.460 -0.7352 -0.0764  0.2354
  911MPD2    H713349   3.414   3.199  16.481 -0.5683 -1.4947  0.1656
  912MPD2     C13350   2.436   2.866  15.853  0.1038 -0.1982  0.0239
  912MPD2    C113351   2.412   2.916  15.984  0.4081  0.4555  0.0106
  912MPD2    C213352   2.358   2.834  16.087 -0.2012 -0.2175 -0.3822
  912MPD2    C313353   2.334   2.697  16.059  0.1164 -0.6405  0.0709
  912MPD2    C413354   2.352   2.654  15.930  0.1885 -0.3975  0.8232
  912MPD2    C513355   2.400   2.739  15.830 -0.3635 -0.0931  0.2711
  912MPD2     H13356   2.352   2.872  16.189 -3.9497 -2.9322  0.4150
  912MPD2    H113357   2.310   2.559  15.899  0.6445 -0.3971  0.1930
  912MPD2    H213358   2.445   2.924  15.761 -3.3341 -0.5073 -0.4919
  912MPD2    H313359   2.390   2.696  15.731 -1.8267 -1.5754  1.0569
  912MPD2     N13360   2.268   2.619  16.158  0.3692  0.4037  0.2523
  912MPD2    H513361   2.251   2.654  16.251 -0.5771  1.0386 -0.1573
  912MPD2    N113362   2.451   3.053  16.007 -0.2467 -1.1020  0.3745
  912MPD2    H713363   2.490   3.102  15.928 -1.8433 -2.2080 -1.1197
  913MPD2     C13364   2.846   4.325  10.718 -0.0684  0.1472  0.5192
  913MPD2    C113365   2.928   4.412  10.650 -0.6161  0.1667  0.2892
  913MPD2    C213366   2.905   4.437  10.514 -0.6269  0.0823  0.3222
  913MPD2    C313367   2.791   4.388  10.455 -0.3686  0.4785 -0.1744
  913MPD2    C413368   2.705   4.314  10.527  0.0511  0.8344  0.0842
  913MPD2    C513369   2.735   4.280  10.657 -0.0266 -0.6115  0.0758
  913MPD2     H13370   2.970   4.498  10.453  1.9120  0.1642  3.1086
  913MPD2    H113371   2.611   4.270  10.494 -0.1333  1.6396 -0.4504
  913MPD2    H213372   2.873   4.314  10.822  0.6754 -0.8564  0.2132
  913MPD2    H313373   2.665   4.215  10.708  0.7759 -0.2099  1.6811
  913MPD2     N13374   2.760   4.421  10.318  0.1264 -0.1873 -0.2178
  913MPD2    H513375   2.673   4.377  10.287 -0.4732 -0.3383  1.6530
  913MPD2    N113376   3.043   4.449  10.720 -0.3575  0.0198 -0.2741
  913MPD2    H713377   3.063   4.396  10.804 -0.6413 -0.1615 -0.3198
  914MPD2     C13378   1.022   4.485  11.925  0.8540 -0.1189 -0.3329
  914MPD2    C113379   1.098   4.600  11.915  0.4943 -0.8545 -0.1538
  914MPD2    C213380   1.189   4.618  12.016  0.3210 -0.4102 -0.0604
  914MPD2    C313381   1.197   4.536  12.127  0.0369  0.2756 -0.3009
  914MPD2    C413382   1.103   4.437  12.141  0.5201  0.7057  0.0704
  914MPD2    C513383   1.021   4.411  12.037 -0.3455  0.4244 -0.1773
  914MPD2     H13384   1.262   4.698  12.007  0.8344 -0.7543  0.9481
  914MPD2    H113385   1.100   4.373  12.229 -0.2926 -0.2302 -0.6281
  914MPD2    H213386   0.952   4.451  11.849 -2.0879  1.1407  1.8346
  914MPD2    H313387   0.949   4.332  12.055  0.3765 -0.2632 -0.3324
  914MPD2     N13388   1.295   4.575  12.226  0.0369  0.1759 -0.9794
  914MPD2    H513389   1.354   4.656  12.210 -0.2005  0.4395 -0.5108
  914MPD2    N113390   1.066   4.695  11.820 -0.1840  0.5993 -0.3617
  914MPD2    H713391   0.991   4.667  11.758 -1.8661  0.0146  1.9197
  915MPD2     C13392   4.603   0.017  15.341  0.3172  0.1058 -0.2889
  915MPD2    C113393   4.502   4.684  15.417  0.2481  0.0839 -0.3083
  915MPD2    C213394   4.516   4.695  15.550 -0.5164  0.3743 -0.5534
  915MPD2    C313395   4.619   0.041  15.609 -0.1199  0.6151  0.2467
  915MPD2    C413396   4.716   0.096  15.526 -0.1529 -0.7185  0.1808
  915MPD2    C513397   4.711   0.064  15.393 -0.0372  0.5840  0.0398
  915MPD2     H13398   4.443   4.656  15.620  0.2489 -1.4256 -0.7420
  915MPD2    H113399   0.079   0.142  15.571 -1.9927  2.8189  0.0906
  915MPD2    H213400   4.611   0.015  15.233 -2.2004  0.4156 -0.4943
  915MPD2    H313401   0.070   0.094  15.329 -0.4332 -0.9429 -1.1908
  915MPD2     N13402   4.602   0.093  15.743  0.1173  0.9469 -0.2389
  915MPD2    H513403   4.633   0.189  15.756 -1.3461  1.3415  0.2404
  915MPD2    N113404   4.378   4.634  15.371  0.1850  0.1284 -0.2941
  915MPD2    H713405   4.310   4.609  15.442 -0.5264  0.5320 -0.8323
  916MPD2     C13406   2.271   3.021  15.384 -0.1563 -0.3582  0.2310
  916MPD2    C113407   2.228   2.953  15.495 -0.6711 -0.5678 -1.0561
  916MPD2    C213408   2.239   2.813  15.493 -0.5005  0.7602  0.6062
  916MPD2    C313409   2.293   2.743  15.383  0.4008  0.7559 -0.7694
  916MPD2    C413410   2.339   2.823  15.276  0.1532 -0.6161  0.3835
  916MPD2    C513411   2.327   2.959  15.270 -0.5277 -0.1104  0.2196
  916MPD2     H13412   2.206   2.750  15.575  2.5146 -3.6453 -1.5580
  916MPD2    H113413   2.401   2.784  15.196  2.3230  0.3761  1.6014
  916MPD2    H213414   2.248   3.127  15.387 -0.4496 -0.4690  1.9139
  916MPD2    H313415   2.376   3.016  15.192  0.7115 -1.4238  0.0546
  916MPD2     N13416   2.303   2.603  15.381 -0.6672  0.0227 -0.0917
  916MPD2    H513417   2.264   2.560  15.464 -1.7388  0.5847 -0.3031
  916MPD2    N113418   2.178   3.030  15.603 -1.1039 -0.0096 -0.3434
  916MPD2    H713419   2.160   3.129  15.590  2.4535  0.3229 -2.7233
  917MPD2     C13420   3.041   0.792  11.377 -0.1503 -0.3788 -0.0895
  917MPD2    C113421   2.920   0.766  11.316 -0.0826 -0.0757  0.1595
  917MPD2    C213422   2.888   0.830  11.193  0.0277  0.4383  0.7200
  917MPD2    C313423   2.978   0.927  11.145  0.2064 -0.0038 -0.0701
  917MPD2    C413424   3.101   0.944  11.203  0.0947 -0.2552  0.4897
  917MPD2    C513425   3.129   0.871  11.315 -0.1033  0.0547 -0.8253
  917MPD2     H13426   2.802   0.802  11.133 -1.2704  1.0362  2.2987
  917MPD2    H113427   3.179   1.013  11.173  0.5776 -1.5364 -1.2256
  917MPD2    H213428   3.072   0.741  11.468  1.1902  1.0338  0.2467
  917MPD2    H313429   3.226   0.880  11.362 -0.5308  3.2600 -0.5265
  917MPD2     N13430   2.955   1.021  11.043 -0.0738  0.4505 -0.5023
  917MPD2    H513431   3.029   1.088  11.024 -0.1279  0.6055 -0.1784
  917MPD2    N113432   2.834   0.672  11.379 -0.3692  0.2884 -0.1388
  917MPD2    H713433   2.866   0.636  11.469 -1.0617 -0.4263 -0.1814
  918MPD2     C13434   2.727   1.077  11.997 -0.1754 -0.2532  0.6918
  918MPD2    C113435   2.817   0.976  12.017  0.1467  0.7456 -0.7845
  918MPD2    C213436   2.779   0.844  11.982 -0.5139 -0.0106  0.3688
  918MPD2    C313437   2.674   0.822  11.898  0.1348  0.2633 -0.7358
  918MPD2    C413438   2.581   0.929  11.875 -0.4690 -0.4063  0.2643
  918MPD2    C513439   2.604   1.056  11.927 -0.1403 -0.2062 -0.2512
  918MPD2     H13440   2.850   0.765  12.005 -0.8920 -0.1612  1.0453
  918MPD2    H113441   2.490   0.931  11.817  1.2056  3.9822 -2.2426
  918MPD2    H213442   2.746   1.178  12.032  1.9729 -0.7752  1.0499
  918MPD2    H313443   2.539   1.141  11.913 -0.9293 -0.2973  2.8624
  918MPD2     N13444   2.651   0.691  11.842  0.1846  0.2228  0.0774
  918MPD2    H513445   2.722   0.619  11.852 -0.7679 -0.2162  3.7087
  918MPD2    N113446   2.942   0.992  12.080  0.3357  0.0783 -0.4486
  918MPD2    H713447   2.996   0.906  12.081 -1.2911 -0.9655 -0.8279
  919MPD2     C13448   3.349   0.052  11.936  0.9108 -0.3326 -0.0288
  919MPD2    C113449   3.266   4.667  11.905  0.2534 -0.2586 -0.4879
  919MPD2    C213450   3.212   4.671  11.774  0.6191  0.1602 -0.4880
  919MPD2    C313451   3.241   0.048  11.685 -0.5522 -0.1002  0.2175
  919MPD2    C413452   3.333   0.153  11.718 -0.2873 -0.3865 -0.2882
  919MPD2    C513453   3.378   0.150  11.846  0.0963 -0.3637 -0.1135
  919MPD2     H13454   3.147   4.589  11.745  1.5379 -0.4658 -0.7583
  919MPD2    H113455   3.366   0.229  11.648  1.3475  1.3315  2.3501
  919MPD2    H213456   3.397   0.051  12.033  0.7716 -1.2131  0.0358
  919MPD2    H313457   3.460   0.214  11.875  0.0551 -1.1549  1.7758
  919MPD2     N13458   3.182   0.047  11.556 -0.0700 -0.0920 -0.1917
  919MPD2    H513459   3.209   0.121  11.492  0.6932 -1.2249 -1.1797
  919MPD2    N113460   3.234   4.569  12.006 -0.0529  0.2116 -0.4960
  919MPD2    H713461   3.190   4.483  11.973  0.1902  0.1959 -0.7824
  920MPD2     C13462   3.291   0.326  10.598 -0.1548 -0.6346 -0.1502
  920MPD2    C113463   3.167   0.266  10.584 -0.0128  0.3933  0.5265
  920MPD2    C213464   3.125   0.203  10.697 -0.3867  1.3046  0.2435
  920MPD2    C313465   3.190   0.201  10.816  0.5759 -0.0904  0.1163
  920MPD2    C413466   3.318   0.254  10.834 -0.7134 -0.6795 -0.3556
  920MPD2    C513467   3.361   0.319  10.720  0.3439  0.0010  0.4031
  920MPD2     H13468   3.026   0.158  10.693 -0.4842  1.7226 -2.3323
  920MPD2    H113469   3.387   0.227  10.913  1.7226  1.0756 -1.8630
  920MPD2    H213470   3.344   0.353  10.507 -0.8567  0.6625 -0.1719
  920MPD2    H313471   3.464   0.348  10.730  0.7997 -1.1839 -0.7322
  920MPD2     N13472   3.117   0.145  10.928 -0.3819  0.3060  0.1656
  920MPD2    H513473   3.037   0.094  10.892  1.0066 -2.3998  0.9112
  920MPD2    N113474   3.102   0.244  10.461  0.0553  0.0137  0.5311
  920MPD2    H713475   3.013   0.195  10.459  0.3715 -0.5919  1.2975
  921MPD2     C13476   4.026   3.148  16.941 -0.4928 -0.4225 -0.0920
  921MPD2    C113477   4.036   3.080  16.819  0.0694  0.0565  0.2845
  921MPD2    C213478   3.923   3.027  16.755  0.1337  0.1632  0.0769
  921MPD2    C313479   3.796   3.060  16.799 -0.0275  0.2684 -0.3665
  921MPD2    C413480   3.789   3.147  16.905  0.4404  0.3803  0.1629
  921MPD2    C513481   3.902   3.189  16.973  0.3032 -0.1112 -1.1809
  921MPD2     H13482   3.930   2.974  16.661  0.7256 -2.2565  1.4743
  921MPD2    H113483   3.693   3.176  16.947  0.6396  2.2125 -0.6532
  921MPD2    H213484   4.110   3.186  16.997 -0.0453  1.2615 -1.9050
  921MPD2    H313485   3.873   3.246  17.061 -1.9671 -2.4417 -0.4401
  921MPD2     N13486   3.680   3.022  16.728 -0.3765 -0.2365 -0.2920
  921MPD2    H513487   3.596   3.072  16.752 -1.0484 -1.4800 -0.0398
  921MPD2    N113488   4.155   3.063  16.746 -0.7069  0.3499 -0.4406
  921MPD2    H713489   4.141   3.028  16.651 -0.5030 -1.1608  0.0793
  922MPD2     C13490   0.492   1.074  17.571 -0.5782 -0.2300  0.1249
  922MPD2    C113491   0.428   0.981  17.490  0.0127 -1.3186 -0.0732
  922MPD2    C213492   0.296   0.946  17.523  0.3408  0.7599  0.2285
  922MPD2    C313493   0.237   0.993  17.634 -0.0471  0.1473  0.0364
  922MPD2    C413494   0.303   1.093   0.012 -0.1427 -0.3571  0.2878
  922MPD2    C513495   0.428   1.135  17.673 -0.8497  0.3199  1.0390
  922MPD2     H13496   0.243   0.875  17.460  0.5035 -0.7493  1.7659
  922MPD2    H113497   0.255   1.153   0.089 -0.7076 -0.1118 -0.2563
  922MPD2    H213498   0.590   1.112  17.546  0.5532 -2.1308  1.6462
  922MPD2    H313499   0.464   1.221   0.034 -1.5679  2.4498 -1.7028
  922MPD2     N13500   0.105   0.957  17.648 -0.6454 -0.2442  0.3253
  922MPD2    H513501   0.074   0.894  17.575  0.7919 -1.5395  0.8168
  922MPD2    N113502   0.497   0.949  17.375  0.1660 -0.4466  0.8868
  922MPD2    H713503   0.579   1.005  17.352 -0.3637  0.0086  0.0801
  923MPD2     C13504   0.949   3.570   8.553  0.7626  0.3744 -0.5333
  923MPD2    C113505   0.968   3.619   8.681 -0.8832  0.6939 -0.0073
  923MPD2    C213506   1.034   3.538   8.767 -0.0557  0.0645 -0.0116
  923MPD2    C313507   1.094   3.420   8.732  0.0140  0.0046 -0.2420
  923MPD2    C413508   1.081   3.376   8.596  0.6117 -0.0022 -0.3988
  923MPD2    C513509   0.997   3.450   8.509  0.8892  1.0564 -0.1681
  923MPD2     H13510   1.045   3.570   8.870 -0.5393  2.3945 -0.6965
  923MPD2    H113511   1.128   3.284   8.563  1.1847  1.0024 -2.4092
  923MPD2    H213512   0.893   3.629   8.482  0.8449  0.8262 -0.2199
  923MPD2    H313513   0.985   3.408   8.410  1.6444 -0.2899  0.3037
  923MPD2     N13514   1.154   3.332   8.830 -0.2541  0.4128  0.1347
  923MPD2    H513515   1.151   3.231   8.816 -3.5029  0.6413 -0.8021
  923MPD2    N113516   0.888   3.724   8.714 -0.3457  0.3666  0.3501
  923MPD2    H713517   0.844   3.772   8.636 -0.2834 -1.4891 -0.8238
  924MPD2     C13518   1.574   2.520  15.443  0.4011 -0.6493 -0.0728
  924MPD2    C113519   1.603   2.481  15.573 -0.9009  0.0585  0.2119
  924MPD2    C213520   1.518   2.535  15.670  0.5411 -0.4517 -0.3206
  924MPD2    C313521   1.410   2.625  15.647  0.3066  0.2867  0.3074
  924MPD2    C413522   1.395   2.665  15.511 -0.0206  0.7867 -0.8294
  924MPD2    C513523   1.475   2.613  15.409 -0.9368  0.1658  0.5177
  924MPD2     H13524   1.536   2.512  15.774 -0.9991 -0.2355 -0.0085
  924MPD2    H113525   1.323   2.736  15.474 -0.1078 -0.1161 -2.4127
  924MPD2    H213526   1.629   2.471  15.363 -1.2604 -2.9813  0.2231
  924MPD2    H313527   1.458   2.626  15.303 -2.0522 -2.0839  0.4175
  924MPD2     N13528   1.322   2.673  15.750 -0.4342 -0.1016 -0.7066
  924MPD2    H513529   1.236   2.722  15.727 -0.4825  0.9152  1.6650
  924MPD2    N113530   1.703   2.380  15.592 -0.3084  0.1240 -0.4917
  924MPD2    H713531   1.740   2.335  15.510 -1.6335  1.5510 -1.8842
  925MPD2     C13532   0.290   4.133  14.981  0.0454 -0.3946 -0.3917
  925MPD2    C113533   0.183   4.167  14.901 -0.0980  1.0614 -0.7910
  925MPD2    C213534   0.067   4.213  14.955 -0.2235 -0.6310 -0.4209
  925MPD2    C313535   0.063   4.232  15.090  0.4330 -0.1523 -0.6551
  925MPD2    C413536   0.170   4.201  15.176 -0.0730  0.4033 -0.3911
  925MPD2    C513537   0.281   4.154  15.115 -0.3956  0.2716 -0.3904
  925MPD2     H13538   4.706   4.242  14.894 -1.9034  0.3999  2.4074
  925MPD2    H113539   0.165   4.216  15.283 -0.6175 -0.7453 -0.2597
  925MPD2    H213540   0.378   4.079  14.947  1.9561  1.3903  1.6137
  925MPD2    H313541   0.366   4.125  15.175  0.0779  0.5418 -0.9273
  925MPD2     N13542   4.660   4.261  15.148 -0.0956  0.0838 -0.3423
  925MPD2    H513543   4.586   4.267  15.079 -0.3193  1.0047 -0.0206
  925MPD2    N113544   0.189   4.143  14.759  0.1717  0.0547 -0.1302
  925MPD2    H713545   0.109   4.156  14.697  1.2862 -2.4802 -2.0944
  926MPD2     C13546   3.260   2.291  13.484 -0.1730 -0.5048 -0.0684
  926MPD2    C113547   3.232   2.423  13.477  0.3114  0.5065 -0.5742
  926MPD2    C213548   3.306   2.486  13.379  0.5693  0.2293  0.2480
  926MPD2    C313549   3.405   2.425  13.303  0.5423 -0.5112  0.1799
  926MPD2    C413550   3.435   2.298  13.321  0.5380  0.4275 -0.3115
  926MPD2    C513551   3.364   2.228  13.415  0.1067 -0.1126  0.1859
  926MPD2     H13552   3.287   2.593  13.370  0.4732  0.2054  0.1652
  926MPD2    H113553   3.507   2.257  13.251  0.5549 -0.4812  0.2410
  926MPD2    H213554   3.202   2.226  13.548  1.4695 -0.9542  0.9520
  926MPD2    H313555   3.384   2.123  13.429 -2.0198 -1.0387 -3.6273
  926MPD2     N13556   3.472   2.491  13.205  0.0760 -0.0316 -0.0900
  926MPD2    H513557   3.558   2.450  13.170  1.0514  0.7245  1.3764
  926MPD2    N113558   3.141   2.493  13.563  0.2896 -0.4637  0.2739
  926MPD2    H713559   3.122   2.592  13.553 -1.3885 -0.7979  0.1009
  927MPD2     C13560   3.533   4.191   0.258 -0.0425  0.5396 -0.7095
  927MPD2    C113561   3.629   4.284   0.297  0.4653 -0.0127 -1.0604
  927MPD2    C213562   3.738   4.308   0.224  1.3772 -0.1835  0.0133
  927MPD2    C313563   3.761   4.220   0.115 -0.0452 -0.7105 -0.1993
  927MPD2    C413564   3.679   4.111   0.091 -0.4667  0.1537  0.2566
  927MPD2    C513565   3.565   4.108   0.159 -0.2667 -0.1243 -0.7438
  927MPD2     H13566   3.808   4.390   0.237  0.3789  0.4907  1.0872
  927MPD2    H113567   3.704   4.033   0.021 -1.5838  2.1739 -2.3961
  927MPD2    H213568   3.434   4.178   0.299 -0.8492 -1.4726 -3.2646
  927MPD2    H313569   3.503   4.024   0.128  0.6681 -1.1477  0.1326
  927MPD2     N13570   3.870   4.248   0.032 -0.3421 -0.3365  0.8959
  927MPD2    H513571   3.935   4.316   0.069  0.0225 -1.4818  2.3384
  927MPD2    N113572   3.582   4.377   0.392  0.0369  0.0682 -0.5913
  927MPD2    H713573   3.497   4.365   0.447 -1.5714 -1.6029 -3.4138
  928MPD2     C13574   1.812   2.735   1.110  0.4753  0.2340 -0.2592
  928MPD2    C113575   1.942   2.771   1.083 -0.0467  0.0170 -0.3116
  928MPD2    C213576   1.966   2.818   0.957 -0.3496  0.2622  0.1513
  928MPD2    C313577   1.865   2.805   0.856 -0.5191 -0.1456  0.1218
  928MPD2    C413578   1.744   2.744   0.885  0.1814  0.3278 -0.3914
  928MPD2    C513579   1.720   2.714   1.014  0.9085 -0.2842  1.1058
  928MPD2     H13580   2.056   2.876   0.942  1.0244 -1.9493 -0.1332
  928MPD2    H113581   1.658   2.741   0.818 -1.3006  0.1068  1.5377
  928MPD2    H213582   1.778   2.725   1.212 -0.3598 -0.6092 -0.6180
  928MPD2    H313583   1.622   2.678   1.043  0.6043 -0.2128  0.1699
  928MPD2     N13584   1.891   2.838   0.715  0.7414  0.7229 -0.1085
  928MPD2    H513585   1.812   2.824   0.654 -0.1748  2.5698  0.6393
  928MPD2    N113586   2.027   2.788   1.194 -0.2977  0.5577  0.3785
  928MPD2    H713587   1.990   2.776   1.287  0.0501 -1.1196  0.2947
  929MPD2     C13588   0.768   3.541   9.779 -0.5525  0.1215  0.3057
  929MPD2    C113589   0.726   3.421   9.829 -0.7717  0.1193  0.0108
  929MPD2    C213590   0.748   3.302   9.757  0.1438 -1.0282  0.3076
  929MPD2    C313591   0.779   3.312   9.622  0.9441 -0.4043 -0.0789
  929MPD2    C413592   0.836   3.431   9.575  0.5049 -0.2615  0.5969
  929MPD2    C513593   0.826   3.543   9.653  0.3313 -0.0649 -0.5795
  929MPD2     H13594   0.715   3.208   9.797 -1.8713 -0.3707  0.1715
  929MPD2    H113595   0.862   3.447   9.471  1.4656 -1.5591  0.6374
  929MPD2    H213596   0.757   3.626   9.845  0.5150 -1.5361  2.6346
  929MPD2    H313597   0.853   3.637   9.605 -1.3646 -0.1215 -1.6234
  929MPD2     N13598   0.760   3.202   9.521 -0.4494 -0.4368  0.2460
  929MPD2    H513599   0.818   3.197   9.438  0.0395  0.2159  0.5415
  929MPD2    N113600   0.656   3.422   9.950 -0.3166 -0.0155 -0.3736
  929MPD2    H713601   0.628   3.512   9.987  2.4186  1.0164 -0.7935
  930MPD2     C13602   3.407   0.387  14.190  0.5947 -0.4374  0.1327
  930MPD2    C113603   3.396   0.478  14.092  0.0323 -0.0748 -0.5587
  930MPD2    C213604   3.352   0.434  13.970 -0.3817 -0.1300  0.5183
  930MPD2    C313605   3.335   0.301  13.941  0.4752 -0.6145  0.5116
  930MPD2    C413606   3.362   0.208  14.044 -0.2580 -0.5549 -0.6518
  930MPD2    C513607   3.389   0.253  14.165 -0.4445  0.2949 -0.5331
  930MPD2     H13608   3.334   0.508  13.893 -2.1062 -0.2352  0.8237
  930MPD2    H113609   3.347   0.101  14.030 -1.4386 -0.3997 -0.5933
  930MPD2    H213610   3.449   0.409  14.288  2.7093  2.6527 -1.4450
  930MPD2    H313611   3.398   0.178  14.243 -1.0957  1.1947  0.4120
  930MPD2     N13612   3.294   0.251  13.814 -0.6401 -0.6165  0.5678
  930MPD2    H513613   3.291   0.151  13.799  1.9889 -0.4762 -0.8350
  930MPD2    N113614   3.443   0.607  14.127 -0.0581 -0.9884  0.0586
  930MPD2    H713615   3.483   0.625  14.218  0.8502 -1.2356 -0.2880
  931MPD2     C13616   3.535   0.266   1.098 -0.6159  0.1134 -0.7966
  931MPD2    C113617   3.580   0.146   1.045  0.4140  0.4917  0.3618
  931MPD2    C213618   3.638   0.052   1.131 -0.3702 -0.4279 -0.6347
  931MPD2    C313619   3.657   0.080   1.266  0.1159 -0.2608 -0.6027
  931MPD2    C413620   3.619   0.201   1.316 -0.8311 -0.2233 -0.8959
  931MPD2    C513621   3.561   0.294   1.233 -0.3479  0.0055  0.1339
  931MPD2     H13622   3.660   4.677   1.092  1.1895 -0.5719  0.6113
  931MPD2    H113623   3.644   0.235   1.416  0.5288 -1.3420 -0.8510
  931MPD2    H213624   3.490   0.339   1.032 -2.6349 -1.1862 -0.8492
  931MPD2    H313625   3.545   0.397   1.264  2.1792  0.7060 -0.8583
  931MPD2     N13626   3.700   4.708   1.359 -0.0768  0.2619 -0.1121
  931MPD2    H513627   3.667   0.004   1.453  0.8918 -1.6721  0.6460
  931MPD2    N113628   3.563   0.117   0.910 -0.3002 -0.1232  0.0819
  931MPD2    H713629   3.502   0.179   0.858  0.7527  0.5584 -0.3423
  932MPD2     C13630   0.643   3.290  11.031  0.3113  0.4326  0.2237
  932MPD2    C113631   0.730   3.392  11.067 -0.2256 -0.2821  0.4454
  932MPD2    C213632   0.860   3.355  11.105 -0.5774  0.4342  0.0817
  932MPD2    C313633   0.903   3.224  11.110  0.3103  0.5043 -0.1107
  932MPD2    C413634   0.814   3.124  11.075  0.2104 -0.3023  0.1290
  932MPD2    C513635   0.690   3.157  11.034  0.0969 -0.0037  0.0366
  932MPD2     H13636   0.932   3.435  11.115  0.3760 -0.2565 -1.3365
  932MPD2    H113637   0.847   3.021  11.075  0.2535 -0.3014 -1.7192
  932MPD2    H213638   0.537   3.300  11.011  0.5279 -2.3028 -2.3194
  932MPD2    H313639   0.628   3.077  10.996 -0.0435 -0.6280  1.6127
  932MPD2     N13640   1.022   3.172  11.165 -0.2309  0.4732  0.5185
  932MPD2    H513641   1.029   3.071  11.171 -0.7879  0.3385 -1.0528
  932MPD2    N113642   0.689   3.530  11.070 -0.4354 -0.4866 -0.4126
  932MPD2    H713643   0.752   3.607  11.089 -1.0429  0.2320 -1.2804
  933MPD2     C13644   2.181   2.840   2.000  0.3778 -0.2962  0.6640
  933MPD2    C113645   2.095   2.884   1.898 -0.1616 -0.5753  0.2874
  933MPD2    C213646   1.959   2.900   1.924 -0.3988 -0.3065  0.5216
  933MPD2    C313647   1.909   2.874   2.052 -0.4517 -0.3216 -0.2938
  933MPD2    C413648   1.990   2.840   2.156 -0.7025 -0.3203  0.3843
  933MPD2    C513649   2.125   2.827   2.129 -0.1474  0.1324  0.3187
  933MPD2     H13650   1.882   2.922   1.850 -0.3091 -2.8219 -0.3253
  933MPD2    H113651   1.948   2.812   2.252  2.1410  2.1829  2.3488
  933MPD2    H213652   2.285   2.813   1.982 -0.3685 -3.2230  0.7538
  933MPD2    H313653   2.196   2.791   2.203  0.0119 -0.1496  0.0313
  933MPD2     N13654   1.771   2.860   2.054  0.1803  0.1589  0.2450
  933MPD2    H513655   1.720   2.884   1.970  1.8040  1.3083 -0.4069
  933MPD2    N113656   2.157   2.889   1.772 -0.0858  0.4472  0.1459
  933MPD2    H713657   2.256   2.866   1.774  0.3502  2.2707 -1.5623
  934MPD2     C13658   2.742   0.169   2.168  0.4502 -0.0464  0.4747
  934MPD2    C113659   2.818   0.163   2.055  0.0513  0.2223 -0.3060
  934MPD2    C213660   2.773   0.108   1.936 -0.4907  0.4943 -0.5441
  934MPD2    C313661   2.642   0.048   1.936  0.3933  0.3337 -0.4131
  934MPD2    C413662   2.568   0.060   2.054  0.3434  0.1333  0.4011
  934MPD2    C513663   2.608   0.133   2.164 -0.8709 -0.7630  0.0416
  934MPD2     H13664   2.837   0.104   1.849  0.4473 -1.8899  0.2489
  934MPD2    H113665   2.473   0.010   2.069 -1.8847  3.5293 -2.4099
  934MPD2    H213666   2.774   0.218   2.259 -1.5307 -1.0638  1.7058
  934MPD2    H313667   2.549   0.127   2.255  0.6776  0.5436  1.1514
  934MPD2     N13668   2.592   4.707   1.821 -0.4866  0.1843 -0.0039
  934MPD2    H513669   2.500   4.664   1.829 -0.6121  0.4127 -0.2500
  934MPD2    N113670   2.945   0.232   2.050 -0.6087  0.0229 -0.4401
  934MPD2    H713671   2.992   0.236   1.960 -1.2345 -0.4182 -0.7877
  935MPD2     C13672   2.926   4.201   0.994 -0.5985  0.2243 -0.3958
  935MPD2    C113673   2.795   4.217   0.979  0.6287 -0.4120 -0.1881
  935MPD2    C213674   2.719   4.284   1.079  0.4483 -0.5093 -0.0652
  935MPD2    C313675   2.782   4.322   1.198 -0.4865 -0.1866  0.5630
  935MPD2    C413676   2.922   4.305   1.216 -0.0890  0.7178 -0.5710
  935MPD2    C513677   2.988   4.248   1.110 -0.7905 -0.0436 -0.5580
  935MPD2     H13678   2.616   4.308   1.055  0.9790  2.8194  0.8854
  935MPD2    H113679   2.968   4.332   1.311 -0.9872 -0.3960  0.1809
  935MPD2    H213680   2.994   4.151   0.926  0.2979  0.3043  0.4378
  935MPD2    H313681   3.095   4.231   1.113 -0.6009  1.2782  0.1664
  935MPD2     N13682   2.708   4.381   1.304 -0.2223 -0.0345  0.1692
  935MPD2    H513683   2.763   4.428   1.375  0.2565  1.2713 -1.0654
  935MPD2    N113684   2.725   4.174   0.869  0.3791  0.0030 -0.2922
  935MPD2    H713685   2.623   4.177   0.876  0.4376  0.4783  0.3300
  936MPD2     C13686   0.713   3.070  12.498  1.3882  0.6923 -0.3156
  936MPD2    C113687   0.705   2.959  12.579 -0.1853  0.2759 -0.4455
  936MPD2    C213688   0.780   2.848  12.554  0.1242  0.2257 -0.4674
  936MPD2    C313689   0.861   2.834  12.437 -0.4866  0.1016 -0.9232
  936MPD2    C413690   0.850   2.942  12.355  0.3652  0.1885 -0.0016
  936MPD2    C513691   0.785   3.061  12.387  0.5921 -0.4667  0.1086
  936MPD2     H13692   0.773   2.769  12.628  0.2494  1.6424  1.0492
  936MPD2    H113693   0.900   2.944  12.259 -2.4367  0.2172 -1.4714
  936MPD2    H213694   0.672   3.167  12.525  2.4487  0.7847  0.9753
  936MPD2    H313695   0.791   3.142  12.315 -0.0829  0.3011  0.9115
  936MPD2     N13696   0.930   2.719  12.397  0.5433 -0.4468 -0.1863
  936MPD2    H513697   0.987   2.719  12.314 -0.1673  1.7805 -0.6733
  936MPD2    N113698   0.635   2.954  12.705  0.2764  0.2868  0.4238
  936MPD2    H713699   0.632   2.861  12.744  0.9721 -0.2716 -0.8735
  937MPD2     C13700   3.279   3.917  11.899 -0.2552 -0.7820  0.2511
  937MPD2    C113701   3.376   4.016  11.894  0.4222  0.6602 -0.2808
  937MPD2    C213702   3.413   4.072  11.773 -0.6493  0.0042  0.7197
  937MPD2    C313703   3.396   4.000  11.656 -0.1137  0.1831 -0.2452
  937MPD2    C413704   3.317   3.885  11.668  0.3276 -0.7263 -0.2913
  937MPD2    C513705   3.260   3.846  11.787  0.2718 -0.4613  0.2808
  937MPD2     H13706   3.482   4.155  11.769 -1.5005  0.6989  0.5970
  937MPD2    H113707   3.310   3.820  11.581 -1.4307  3.3532 -3.1907
  937MPD2    H213708   3.241   3.878  11.992 -2.8641 -0.5375 -0.7270
  937MPD2    H313709   3.197   3.759  11.796 -0.9928  0.5860  1.4342
  937MPD2     N13710   3.445   4.050  11.530  1.0524  0.5356  0.2393
  937MPD2    H513711   3.493   4.139  11.540  0.0351  1.0408  0.6575
  937MPD2    N113712   3.391   4.104  11.996 -1.0670  0.4274 -0.3831
  937MPD2    H713713   3.431   4.195  11.977  0.0117  0.1415  0.5501
  938MPD2     C13714   1.650   4.657   0.818  0.1170 -0.3697 -0.2820
  938MPD2    C113715   1.761   4.632   0.891  0.2323 -0.2031 -0.0799
  938MPD2    C213716   1.735   4.581   1.018 -0.0975  0.0398 -0.3418
  938MPD2    C313717   1.606   4.555   1.067  0.3595 -0.1999 -1.1964
  938MPD2    C413718   1.499   4.592   0.985  0.1455  0.0743  0.5319
  938MPD2    C513719   1.523   4.636   0.864 -0.3431  0.7693  0.0099
  938MPD2     H13720   1.820   4.547   1.075  0.2319 -0.6137 -1.2356
  938MPD2    H113721   1.401   4.567   1.025  0.1552 -1.5975 -0.4734
  938MPD2    H213722   1.654   4.695   0.717  0.4757 -0.5341 -0.3292
  938MPD2    H313723   1.438   4.653   0.799 -1.8281 -0.1428  1.7165
  938MPD2     N13724   1.577   4.486   1.188  0.3236  0.3755 -0.5960
  938MPD2    H513725   1.483   4.450   1.197  0.6137 -0.0063  0.9156
  938MPD2    N113726   1.892   4.670   0.867  0.1317 -0.4471 -0.5127
  938MPD2    H713727   1.959   4.659   0.942  3.2441 -0.7981 -3.3263
  939MPD2     C13728   2.600   1.343   1.460 -0.4248 -0.3924 -0.4714
  939MPD2    C113729   2.674   1.444   1.409 -0.2540  0.3536 -0.1801
  939MPD2    C213730   2.717   1.426   1.277 -0.6782 -0.2225  0.6338
  939MPD2    C313731   2.678   1.318   1.198  0.1370  0.0726 -0.1646
  939MPD2    C413732   2.591   1.231   1.251  0.1717 -0.4066 -0.0452
  939MPD2    C513733   2.560   1.241   1.382  0.4018 -0.9893  0.8291
  939MPD2     H13734   2.777   1.497   1.221  0.6614 -1.0826  0.9732
  939MPD2    H113735   2.544   1.146   1.205 -0.1761 -1.7236  2.7686
  939MPD2    H213736   2.560   1.348   1.560  0.0798  1.2109 -0.3596
  939MPD2    H313737   2.496   1.164   1.424 -0.6109 -0.4426  0.2952
  939MPD2     N13738   2.713   1.324   1.062 -0.3545 -0.1053 -0.1312
  939MPD2    H513739   2.753   1.406   1.018 -2.5235 -0.0728 -2.0820
  939MPD2    N113740   2.702   1.555   1.488 -0.6096  0.5192 -0.2044
  939MPD2    H713741   2.653   1.571   1.575 -0.3657  0.6363 -0.0873
  940MPD2     C13742   0.548   2.287  12.949 -0.6331  0.0891  0.1912
  940MPD2    C113743   0.656   2.249  13.029  0.8313  0.1269  0.0031
  940MPD2    C213744   0.769   2.197  12.980  0.0790  0.5047  0.4323
  940MPD2    C313745   0.772   2.163  12.846  0.6348  0.6033  0.0565
  940MPD2    C413746   0.667   2.195  12.767  0.0966 -0.6225  0.6555
  940MPD2    C513747   0.555   2.257  12.815  0.3959  0.0903  0.3208
  940MPD2     H13748   0.848   2.180  13.052 -0.3135 -1.0257  0.5024
  940MPD2    H113749   0.664   2.172  12.662  1.9643 -2.1766  0.9513
  940MPD2    H213750   0.455   2.319  12.994 -0.3601 -2.1195  2.3166
  940MPD2    H313751   0.474   2.271  12.745 -0.1740  1.6309  1.2927
  940MPD2     N13752   0.881   2.100  12.780 -0.3122 -0.1045  0.3594
  940MPD2    H513753   0.868   2.099  12.680 -2.1883  1.4982  0.5926
  940MPD2    N113754   0.652   2.266  13.167  0.3606 -0.2791  0.4748
  940MPD2    H713755   0.740   2.237  13.208  1.4272  0.4054 -1.3720
  941MPD2     C13756   0.273   1.089   9.642 -0.0182 -0.0798 -0.0200
  941MPD2    C113757   0.345   1.088   9.762  0.8370 -0.0188  0.1962
  941MPD2    C213758   0.290   1.018   9.865  0.1819  0.1371 -0.5863
  941MPD2    C313759   0.164   0.958   9.861 -0.3263 -0.0332 -0.8353
  941MPD2    C413760   0.095   0.972   9.746  0.7143  0.9730  0.1769
  941MPD2    C513761   0.146   1.034   9.640 -0.3989  0.1851 -0.1751
  941MPD2     H13762   0.359   1.003   9.947 -1.0782 -0.3472  0.3833
  941MPD2    H113763   0.007   0.915   9.721  2.4766 -0.7190 -2.1714
  941MPD2    H213764   0.309   1.137   9.551 -1.3518 -1.7674 -1.4256
  941MPD2    H313765   0.104   1.017   9.542  1.5461 -0.6888 -0.8587
  941MPD2     N13766   0.119   0.869   9.958  0.0013 -0.6177  0.2039
  941MPD2    H513767   0.168   0.862  10.046 -0.1761 -1.8635  0.1962
  941MPD2    N113768   0.469   1.156   9.782 -0.2282  0.2199  0.1248
  941MPD2    H713769   0.515   1.149   9.872  1.0333 -0.2858 -0.5593
  942MPD2     C13770   0.371   3.720   8.712 -0.1781  0.3419 -0.5024
  942MPD2    C113771   0.379   3.704   8.846 -0.4195 -1.0481  0.8923
  942MPD2    C213772   0.481   3.616   8.889  0.2795 -0.1480  0.2270
  942MPD2    C313773   0.566   3.549   8.797 -0.3269 -0.0689  0.4423
  942MPD2    C413774   0.564   3.585   8.674  0.0654  0.0620 -0.3193
  942MPD2    C513775   0.465   3.666   8.629  0.3598 -0.4019  0.2834
  942MPD2     H13776   0.484   3.608   8.997 -0.2729 -1.4787  0.1454
  942MPD2    H113777   0.633   3.540   8.603  1.0496  1.7006 -0.4054
  942MPD2    H213778   0.299   3.788   8.668 -0.1100  0.4453 -0.4539
  942MPD2    H313779   0.448   3.693   8.525  2.2626  0.7383  0.2485
  942MPD2     N13780   0.667   3.451   8.829  0.3711  0.4383  1.1440
  942MPD2    H513781   0.706   3.394   8.755  3.1909  2.0092  1.4404
  942MPD2    N113782   0.288   3.755   8.941 -0.8475  0.1727 -0.2701
  942MPD2    H713783   0.284   3.712   9.033 -0.5233  1.9332  0.5777
  943MPD2     C13784   3.752   0.981   9.646 -0.2484  0.3575 -0.6685
  943MPD2    C113785   3.614   0.966   9.650  0.3704  0.6322  0.3143
  943MPD2    C213786   3.529   1.067   9.610 -0.0051  0.1319  0.3441
  943MPD2    C313787   3.580   1.183   9.563 -0.3404 -0.2879  0.8861
  943MPD2    C413788   3.713   1.192   9.551  0.3148  0.2393  0.0993
  943MPD2    C513789   3.796   1.098   9.598  0.7445 -0.0452 -0.0183
  943MPD2     H13790   3.422   1.073   9.621 -0.3373  0.7844 -3.4273
  943MPD2    H113791   3.766   1.277   9.509  1.5716 -0.3000  0.5960
  943MPD2    H213792   3.828   0.909   9.674 -0.0117  0.8823  0.0434
  943MPD2    H313793   3.901   1.107   9.574  1.2020  0.4748  2.1766
  943MPD2     N13794   3.493   1.287   9.517  0.1515  0.0860  0.6903
  943MPD2    H513795   3.396   1.259   9.507 -0.5296  1.6735  2.9087
  943MPD2    N113796   3.570   0.835   9.690  0.4914 -0.3533  0.3750
  943MPD2    H713797   3.646   0.773   9.716  1.7743  0.5614 -1.2365
  944MPD2     C13798   3.732   1.385  10.592 -0.2826  0.6723 -0.3652
  944MPD2    C113799   3.766   1.249  10.577  0.1815 -0.1397  0.9197
  944MPD2    C213800   3.767   1.166  10.692  0.9846  0.6108  0.3877
  944MPD2    C313801   3.738   1.216  10.816 -0.6671 -0.2027  0.3996
  944MPD2    C413802   3.722   1.352  10.824 -0.4808 -0.2323 -0.1856
  944MPD2    C513803   3.730   1.437  10.718 -0.2722  0.4424  0.4151
  944MPD2     H13804   3.781   1.058  10.685 -1.5447  0.5026 -2.7031
  944MPD2    H113805   3.689   1.392  10.919  1.4989 -0.8360  0.7430
  944MPD2    H213806   3.740   1.454  10.509  0.4834  0.3082 -0.5929
  944MPD2    H313807   3.722   1.544  10.730  0.5524  0.5555 -0.0534
  944MPD2     N13808   3.756   1.129  10.933 -0.2398  0.8980  0.4132
  944MPD2    H513809   3.760   1.027  10.926  0.6498  0.9697 -0.2520
  944MPD2    N113810   3.804   1.199  10.448  0.1601 -0.3996  0.0769
  944MPD2    H713811   3.820   1.270  10.377 -0.5339  0.6599  0.9687
    1TCq1    O113812   2.815   0.952  14.323  0.0612  1.1100  0.1047
    1TCq1    C113813   2.846   1.068  14.376 -0.2811 -0.8335 -0.0086
    1TCq1    O213814   2.898   1.160  14.320 -0.1512 -0.3064 -0.0813
    1TCq1    C213815   2.871   1.048  14.519  0.2332 -0.0044  0.1234
    1TCq1    C313816   2.920   0.925  14.569  0.2421 -0.1993 -0.0937
    1TCq1    C413817   2.979   0.924  14.692 -0.2351  0.1836 -0.1814
    1TCq1    C513818   2.967   1.034  14.768  0.1605 -0.0261  0.2511
    1TCq1    C613819   2.913   1.151  14.720  0.1209 -0.1904  0.0942
    1TCq1    C713820   2.878   1.162  14.588  0.0662  0.2455 -0.0536
    1TCq1    C813821   2.868   1.249  14.821  0.1329  0.1014 -1.0053
    1TCq1    O413822   2.917   1.241  14.934  0.8720  0.0192  0.1582
    1TCq1    C913823   3.051   0.808  14.731  0.1476 -0.3388 -0.3592
    1TCq1    O513824   3.038   0.705  14.665 -0.1481 -0.0617  0.4939
    1TCq1    O613825   3.095   0.810  14.849 -0.4975 -0.2499 -0.5242
    1TCq1    H113826   2.786   0.886  14.390  3.2240  0.7151  1.0928
    1TCq1    H213827   2.939   0.841  14.503  0.4428  0.8700 -1.4166
    1TCq1    H313828   2.985   1.017  14.873 -0.7178 -0.4250  0.3396
    1TCq1    H413829   2.836   1.249  14.539  1.5366 -0.3182 -2.3211
    2MPD2     C13830   2.612   1.672  14.955 -0.7084 -0.2898  0.5370
    2MPD2    C113831   2.579   1.640  14.825 -0.2612 -0.0593 -0.2448
    2MPD2    C213832   2.630   1.524  14.767  0.1421 -0.7553  0.4045
    2MPD2    C313833   2.725   1.455  14.833 -0.4163 -0.2425 -0.4475
    2MPD2    C413834   2.754   1.476  14.967 -0.4100 -0.0435 -0.0399
    2MPD2    C513835   2.700   1.593  15.028 -0.0326  0.1522  0.4030
    2MPD2     H13836   2.610   1.496  14.664 -3.1913  0.4196  0.7362
    2MPD2    H113837   2.832   1.424  15.021 -0.3488  0.0541 -0.0340
    2MPD2    H213838   2.562   1.754  15.004 -1.8383 -0.8931  0.3881
    2MPD2    H313839   2.731   1.605  15.131 -0.3935 -2.2274  0.7964
    2MPD2     N13840   2.777   1.342  14.763  0.0004 -0.5148  0.6537
    2MPD2    H513841   2.757   1.335  14.664 -1.7832  1.3740  0.8869
    2MPD2    N113842   2.495   1.734  14.756 -0.6439  0.5555 -0.0194
    2MPD2    H713843   2.473   1.813  14.816 -1.4600 -0.4045  0.9331
    3TMC2    C113844   2.370   1.820  14.569 -0.5829  0.0732  0.0935
    3TMC2    C213845   2.393   1.946  14.604  0.4168 -0.6422 -0.0158
    3TMC2    C313846   2.380   2.046  14.513  0.2726  0.1595  0.0550
    3TMC2    C413847   2.317   1.794  14.442 -0.2218 -0.4433  0.2577
    3TMC2    C513848   2.293   1.899  14.359 -0.1994 -0.0755  0.3143
    3TMC2    C613849   2.316   2.028  14.398  0.0236 -0.1682 -0.3805
    3TMC2     C13850   2.439   1.711  14.633 -0.5927  0.1899 -0.7889
    3TMC2     O13851   2.443   1.606  14.568 -0.2641 -0.0887  0.4097
    3TMC2     H13852   2.443   1.982  14.693  0.3979  2.2913 -1.2205
    3TMC2    H113853   2.295   1.693  14.409 -1.4179  0.0179 -0.3522
    3TMC2    H213854   2.324   2.111  14.329 -1.8413 -0.0532 -0.4448
    3TMC2    C713855   2.254   1.883  14.221 -0.6121 -0.0057 -0.8386
    3TMC2    C813856   2.392   2.187  14.552 -0.0734  0.2312 -0.1946
    3TMC2    O113857   2.279   1.776  14.164  0.0939  0.6344  0.6564
    3TMC2    O213858   2.314   2.272  14.506  0.7428 -0.1209  0.1621
    3TMC2    O513859   2.504   2.206  14.621  1.1662  0.3135  0.4788
    3TMC2    H513860   2.571   2.136  14.603  0.3707 -0.6185  1.1480
    4MPD2     C13861   1.336   2.311  13.198  0.0247 -0.3732  0.1162
    4MPD2    C113862   1.394   2.431  13.194  0.0676  0.5746  0.5630
    4MPD2    C213863   1.455   2.484  13.304  0.1997 -0.2212  1.0797
    4MPD2    C313864   1.464   2.418  13.422 -0.2703  0.6832 -0.4898
    4MPD2    C413865   1.405   2.299  13.430 -0.6465 -0.5065  0.3485
    4MPD2    C513866   1.338   2.246  13.326  0.9594  0.4508  0.3971
    4MPD2     H13867   1.504   2.581  13.305  0.3457 -0.2675 -2.9804
    4MPD2    H113868   1.396   2.249  13.526 -2.6040 -0.5345  0.1595
    4MPD2    H213869   1.293   2.261  13.112  0.1754  1.0765 -0.8005
    4MPD2    H313870   1.301   2.144  13.326 -0.3207  0.9020 -1.4773
    4MPD2     N13871   1.532   2.474  13.531  0.1312  0.3513  0.4833
    4MPD2    H513872   1.581   2.562  13.515 -2.3289  1.5384 -0.6025
    4MPD2    N113873   1.389   2.504  13.075  0.4632 -0.5258  0.2056
    4MPD2    H713874   1.324   2.473  13.004  0.1280 -0.7831  0.6295
    5TCq2    C113875   1.541   2.420  13.659  0.3003  0.1378  0.2435
    5TCq2    O213876   1.518   2.305  13.699  0.3965 -0.0795 -0.4620
    5TCq2    C213877   1.623   2.498  13.749 -0.5658 -0.4083  0.3044
    5TCq2    C313878   1.675   2.617  13.708 -0.0208  0.3005  0.3213
    5TCq2    C413879   1.802   2.659  13.748  0.5260  0.0879  0.0092
    5TCq2    C513880   1.881   2.574  13.825 -0.2439  0.9362 -0.0116
    5TCq2    C613881   1.824   2.453  13.863 -0.4897 -0.2246 -0.4121
    5TCq2    C713882   1.700   2.415  13.831  0.4609  0.0446 -0.7129
    5TCq2    C813883   1.901   2.363  13.933  0.0667 -0.1954  0.4732
    5TCq2    O413884   1.974   2.405  14.024 -0.1738  0.1738  0.1389
    5TCq2    C913885   1.847   2.785  13.703  0.2131  0.0568  0.0202
    5TCq2    O513886   1.757   2.859  13.649  0.1123  0.1933 -0.2977
    5TCq2    O613887   1.963   2.823  13.727  0.1581 -0.2816 -0.0982
    5TCq2    H213888   1.617   2.690  13.653  1.1297  0.4841 -0.6342
    5TCq2    H313889   1.985   2.597  13.842 -0.0775  1.5111 -1.8268
    5TCq2    H413890   1.657   2.321  13.865  0.5832 -0.1132 -0.9982
    6MPD1     C13891   0.598   4.282  12.847  0.0459 -0.0508  0.5115
    6MPD1    C113892   0.700   4.282  12.759 -0.1954  0.2699  0.6780
    6MPD1    C213893   0.758   4.156  12.731 -0.0840  0.3154 -0.3720
    6MPD1    C313894   0.717   4.044  12.795 -0.4309 -0.1661 -0.4862
    6MPD1    C413895   0.622   4.047  12.892 -0.0054  0.1777  0.3128
    6MPD1    C513896   0.562   4.167  12.923 -0.7516 -0.7342  0.0122
    6MPD1     H13897   0.845   4.153  12.667  0.2936 -0.0464  0.1601
    6MPD1    H113898   0.593   3.956  12.943 -0.3611  0.3014  0.3287
    6MPD1    H213899   0.535   4.369  12.851  1.8192  1.2881 -0.5314
    6MPD1    H313900   0.482   4.171  12.996  0.4970  0.1079  1.3286
    6MPD1     N13901   0.779   3.923  12.781  0.0671 -0.3963 -0.0887
    6MPD1    H513902   0.736   3.848  12.835 -1.1609 -0.3434 -1.0055
    6MPD1    N113903   0.731   4.408  12.691  0.0951  0.4986  0.4589
    6MPD1    H613904   0.828   4.415  12.661 -0.3087  2.5503 -0.3188
    6MPD1    H713905   0.712   4.486  12.753  1.4889  0.7387  0.5803
    7MPD2     C13906   0.802   3.194  13.013  0.3445 -0.2964 -1.0009
    7MPD2    C113907   0.870   3.193  12.889  0.3519 -0.4852 -0.7065
    7MPD2    C213908   0.949   3.084  12.861 -0.2722 -0.2990  0.2126
    7MPD2    C313909   0.969   2.980  12.955 -0.0164  0.5015  0.1325
    7MPD2    C413910   0.914   2.988  13.077  0.1778  0.5938  0.6236
    7MPD2    C513911   0.828   3.089  13.098  0.3236 -0.1168 -0.0627
    7MPD2     H13912   1.008   3.090  12.770  0.4324 -1.3577  0.6088
    7MPD2    H113913   0.934   2.916  13.155  0.6480  0.7634  0.6599
    7MPD2    H213914   0.741   3.277  13.045 -0.4826 -2.1623  2.1881
    7MPD2    H313915   0.774   3.092  13.192  0.6676 -0.2674  0.1397
    7MPD2     N13916   1.054   2.874  12.924 -0.2842 -0.8078 -0.1893
    7MPD2    H513917   1.098   2.830  13.004 -0.2980  1.2582  0.9692
    7MPD2    N113918   0.884   3.303  12.807  0.7275  0.1032  0.1199
    7MPD2    H713919   0.957   3.300  12.736 -0.1495  0.4335 -0.7842
    8TMC3    C113920   1.229   2.754  12.802 -0.3541  0.0671  0.1267
    8TMC3    C213921   1.267   2.689  12.913  0.8173  0.6312  0.4696
    8TMC3    C313922   1.400   2.710  12.954 -0.4791  0.0809  0.2057
    8TMC3    C413923   1.318   2.815  12.715  0.5021  0.2848 -0.1951
    8TMC3    C513924   1.453   2.828  12.754  1.2072  0.3679  0.3663
    8TMC3    C613925   1.489   2.788  12.879  0.1669  0.5975 -0.3105
    8TMC3     C13926   1.101   2.830  12.800 -0.0554 -0.2784  0.3173
    8TMC3     O13927   1.068   2.855  12.685 -0.0972  0.3204 -0.0623
    8TMC3     H13928   1.200   2.636  12.980 -0.9784  0.9554 -1.0528
    8TMC3    H113929   1.285   2.860  12.622  1.3899 -1.5525 -1.3872
    8TMC3    H213930   1.591   2.809  12.910 -0.5127 -0.5566  2.6478
    8TMC3    C713931   1.539   2.935  12.697  0.0737 -0.2382 -0.1191
    8TMC3    C813932   1.465   2.619  13.049  0.0138  0.0248 -0.0980
    8TMC3    O113933   1.658   2.931  12.727 -0.5249 -0.0071 -0.3251
    8TMC3    O213934   1.571   2.655  13.099 -0.1465 -0.3431  0.3779
    9TMC3    C113935   0.939   3.765  12.708 -0.1951 -0.4658 -0.0415
    9TMC3    C213936   1.052   3.740  12.643  0.5761 -0.1271 -0.0449
    9TMC3    C313937   1.102   3.616  12.630 -0.1058  0.7694  0.4153
    9TMC3    C413938   0.865   3.669  12.764 -0.0636 -0.0012  0.2929
    9TMC3    C513939   0.912   3.540  12.754  0.1744  0.1355  0.8085
    9TMC3    C613940   1.025   3.513  12.687  0.4550  0.6697  0.8051
    9TMC3     C13941   0.879   3.896  12.691 -0.8722  0.2545 -0.3641
    9TMC3     O13942   0.927   3.973  12.608 -0.2948  0.1249  0.0009
    9TMC3     H13943   1.109   3.822  12.600 -0.4905  1.0446  0.7550
    9TMC3    H113944   0.768   3.683  12.810  0.1580  2.9791 -0.1339
    9TMC3    H213945   1.060   3.415  12.658 -2.4176 -0.7054  2.0447
    9TMC3    C713946   0.840   3.437  12.828  0.7600  0.1671 -0.0603
    9TMC3    C813947   1.243   3.586  12.605  0.1702 -0.0022 -1.0143
    9TMC3    O113948   0.747   3.470  12.898  0.1288 -0.1834 -0.3807
    9TMC3    O213949   1.324   3.675  12.607  0.8412 -0.7729 -0.2757
   10MPD2     C13950   1.611   3.209  12.612  0.5446  0.9028 -0.2230
   10MPD2    C113951   1.483   3.159  12.601 -0.4349  0.4447 -0.1623
   10MPD2    C213952   1.377   3.242  12.582 -0.3594 -0.6858  0.9239
   10MPD2    C313953   1.386   3.378  12.579  0.2102  0.0567  0.2031
   10MPD2    C413954   1.512   3.429  12.580  0.0775  0.2187 -0.4595
   10MPD2    C513955   1.620   3.344  12.592  0.1030  0.1661 -0.1954
   10MPD2     H13956   1.274   3.207  12.581 -0.2713 -0.9607  2.2159
   10MPD2    H113957   1.518   3.536  12.564 -0.2985  0.2366 -0.4764
   10MPD2    H213958   1.701   3.150  12.620  0.2566  0.4383 -0.4614
   10MPD2    H313959   1.714   3.397  12.603  0.3889 -0.2550 -0.5986
   10MPD2     N13960   1.266   3.453  12.586 -0.6539  0.0174 -0.2983
   10MPD2    H513961   1.178   3.405  12.571 -0.2378 -1.1526  1.0123
   10MPD2    N113962   1.457   3.024  12.625 -0.6060 -0.3357  0.5867
   10MPD2    H713963   1.360   3.007  12.652 -1.0140  1.0991  0.0337
   11MPD2     C13964   2.143   1.911  13.954  0.6054 -0.4181 -1.0743
   11MPD2    C113965   2.135   2.007  14.047  0.2822 -0.1325  0.6517
   11MPD2    C213966   2.054   2.118  14.026  0.4096 -0.0845 -0.4860
   11MPD2    C313967   1.988   2.135  13.904 -0.4206  0.3393  0.2564
   11MPD2    C413968   1.989   2.034  13.812  0.6396 -0.5679 -0.0684
   11MPD2    C513969   2.073   1.923  13.839 -0.7639 -0.1443 -0.8173
   11MPD2     H13970   2.039   2.184  14.110 -0.1429 -0.1184 -0.5610
   11MPD2    H113971   1.940   2.042  13.715 -1.2546  0.1269  0.9580
   11MPD2    H213972   2.208   1.825  13.966  0.2940 -0.5726 -0.4726
   11MPD2    H313973   2.076   1.842  13.767  0.3607 -0.3913 -0.4925
   11MPD2     N13974   1.908   2.245  13.868  0.1482  0.1403  0.3294
   11MPD2    H513975   1.868   2.243  13.775  1.6445 -1.1751 -0.2873
   11MPD2    N113976   2.192   1.999  14.178 -0.4233 -0.0892  0.1809
   11MPD2    H713977   2.166   2.074  14.242  0.9484 -0.5868  1.3151
    1MPD1     C13978   3.849   3.517  17.090 -1.0548 -0.4604 -0.2841
    1MPD1    C113979   3.965   3.478  17.152  0.2114  0.0164  0.4005
    1MPD1    C213980   4.085   3.477  17.082  0.0707  0.6037  0.4451
    1MPD1    C313981   4.086   3.520  16.952  0.1603  0.1040  0.2972
    1MPD1    C413982   3.964   3.555  16.895 -0.6821  0.2702 -0.1711
    1MPD1    C513983   3.846   3.560  16.962 -0.4906 -0.4486  0.0093
    1MPD1     H13984   4.171   3.429  17.128  0.5587  0.1838 -0.8767
    1MPD1    H113985   3.967   3.576  16.788  1.3561  1.0493  0.0329
    1MPD1    H213986   3.754   3.516  17.141 -1.3393 -1.8163 -0.8419
    1MPD1    H313987   3.754   3.578  16.907 -1.0431 -1.7731  0.5014
    1MPD1     N13988   4.192   3.494  16.859 -0.8141  0.1479 -0.2908
    1MPD1    H513989   4.175   3.532  16.766  1.8047  2.5213  0.1973
    1MPD1    N113990   3.962   3.456  17.289  0.5064 -0.4214 -0.5001
    1MPD1    H613991   3.873   3.430  17.331  0.8235 -1.0678 -0.2169
    1MPD1    H713992   4.040   3.400  17.324  1.2673  0.1893 -1.2361
    2MPD1     C13993   0.488   3.551  16.892 -0.1677  0.4800 -0.0401
    2MPD1    C113994   0.398   3.490  16.981  0.8365  0.7605 -0.2806
    2MPD1    C213995   0.264   3.477  16.948 -0.0416 -0.4847  0.0686
    2MPD1    C313996   0.223   3.522  16.824 -0.4904  0.4248  0.1061
    2MPD1    C413997   0.307   3.596  16.736  0.0268  0.2608 -0.1532
    2MPD1    C513998   0.437   3.604  16.775  0.2993  0.0623  0.4577
    2MPD1     H13999   0.191   3.436  17.017  0.8599 -1.8768  0.1941
    2MPD1    H114000   0.280   3.625  16.635 -0.3984  1.8968  0.4277
    2MPD1    H214001   0.595   3.551  16.909 -0.0863  2.5941 -0.6099
    2MPD1    H314002   0.508   3.644  16.704 -0.4155  1.3406  0.4582
    2MPD1     N14003   0.092   3.485  16.795 -0.0598 -0.3270 -0.3146
    2MPD1    H514004   0.034   3.428  16.856 -0.3728 -0.0710 -0.3754
    2MPD1    N114005   0.448   3.442  17.105  0.3138 -0.0127  0.3120
    2MPD1    H614006   0.395   3.359  17.132 -1.9294  0.9419 -1.1703
    2MPD1    H714007   0.548   3.420  17.105  0.3279  0.0452 -0.5067
    3TMC3    C114008   4.608   3.468  16.678  0.1248  0.7190 -0.0736
    3TMC3    C214009   4.563   3.446  16.550 -0.2533 -0.1925  0.1123
    3TMC3    C314010   4.431   3.419  16.552  0.2464 -0.4904  0.6330
    3TMC3    C414011   4.538   3.472  16.788 -0.0289  0.7779 -0.4524
    3TMC3    C514012   4.405   3.438  16.783 -0.4892  0.8083 -0.3874
    3TMC3    C614013   4.348   3.409  16.664  0.9038  0.6471  0.1714
    3TMC3     C14014   0.024   3.522  16.681 -0.8266 -0.5531  0.1741
    3TMC3     O14015   0.056   3.563  16.575 -0.3132  0.2256 -0.1657
    3TMC3     H14016   4.632   3.408  16.475  0.7643  1.7015  0.1055
    3TMC3    H114017   4.583   3.520  16.874  1.6174 -1.2573 -0.1903
    3TMC3    H214018   4.245   3.373  16.664  0.5696  1.5983  0.0584
    3TMC3    C714019   4.316   3.442  16.897 -0.1391  0.1170  0.1896
    3TMC3    C814020   4.368   3.408  16.424  0.0188 -0.3571 -0.3104
    3TMC3    O114021   4.367   3.447  17.008 -0.2270 -0.0136 -0.1208
    3TMC3    O214022   4.259   3.354  16.417  0.1308 -0.1917 -0.1558
    4MPD1     C14023   4.324   3.579  15.929  0.3020  0.1485  0.2652
    4MPD1    C114024   4.416   3.651  15.992 -0.8151  0.1438 -0.2919
    4MPD1    C214025   4.456   3.611  16.118 -0.7760  0.7210  0.2641
    4MPD1    C314026   4.388   3.514  16.194  0.4136  0.2727 -0.3090
    4MPD1    C414027   4.289   3.454  16.131 -0.6295 -0.2460 -0.4370
    4MPD1    C514028   4.253   3.495  16.004  0.7867  0.0085 -1.1583
    4MPD1     H14029   4.534   3.675  16.158  2.0490 -2.6941  0.1754
    4MPD1    H114030   4.216   3.394  16.183 -1.4010  0.8455 -0.2720
    4MPD1    H214031   4.292   3.593  15.826 -1.9537 -1.5182  0.7483
    4MPD1    H314032   4.170   3.443  15.957  1.1721 -1.2345 -0.4762
    4MPD1     N14033   4.435   3.486  16.329  0.6936 -0.1139 -0.2074
    4MPD1    H514034   4.520   3.539  16.345 -0.3078  1.4531 -0.0197
    4MPD1    N114035   4.495   3.741  15.919  0.1172 -0.1009 -0.5362
    4MPD1    H614036   4.533   3.818  15.974  0.0495 -1.2887  1.1878
    4MPD1    H714037   4.437   3.769  15.841  0.6020 -1.2261 -1.2906
    1TCq1    O114038   0.369   3.912  12.183 -0.3530 -0.3134 -0.3936
    1TCq1    C114039   0.435   3.793  12.185  0.0740 -0.4660  0.3361
    1TCq1    O214040   0.380   3.685  12.193  1.1624  0.0086  0.5719
    1TCq1    C214041   0.565   3.806  12.116  0.3600 -0.0723  0.3801
    1TCq1    C314042   0.637   3.920  12.138  0.0919 -0.5032 -0.0118
    1TCq1    C414043   0.730   3.959  12.046 -0.0791  0.3920 -0.1868
    1TCq1    C514044   0.768   3.858  11.959 -0.0593  0.0007 -0.1712
    1TCq1    C614045   0.689   3.747  11.936 -0.2576 -0.0648 -0.5349
    1TCq1    C714046   0.583   3.726  12.011  0.4673 -0.1725 -0.0358
    1TCq1    C814047   0.723   3.635  11.852 -0.2601  0.3480 -0.2463
    1TCq1    O414048   0.662   3.531  11.873  0.3778 -0.1839  0.2514
    1TCq1    C914049   0.831   4.052  12.089  0.7310 -0.8617  0.8752
    1TCq1    O514050   0.837   4.075  12.212 -0.7057 -0.6891  0.0558
    1TCq1    O614051   0.898   4.103  11.995 -0.5632 -0.3526  0.0244
    1TCq1    H114052   0.422   3.978  12.133 -0.2741 -0.5277 -0.5908
    1TCq1    H214053   0.619   3.988  12.220 -3.3533 -3.8326  2.0098
    1TCq1    H314054   0.860   3.868  11.902 -0.7372 -0.3205 -1.3265
    1TCq1    H414055   0.521   3.639  11.995 -0.2724  0.1414  1.1603
    2MPD1     C14056   0.938   3.412  11.450 -0.6138 -0.6133 -0.1828
    2MPD1    C114057   0.935   3.549  11.429  0.4067 -1.2583  0.2543
    2MPD1    C214058   0.906   3.632  11.535 -0.4016 -0.2311 -0.4441
    2MPD1    C314059   0.845   3.581  11.646  0.0451 -0.6001 -0.6624
    2MPD1    C414060   0.836   3.443  11.656  0.2214 -0.2347 -0.2837
    2MPD1    C514061   0.908   3.361  11.573 -0.1632  0.7123 -0.3975
    2MPD1     H14062   0.910   3.740  11.526  1.6931 -0.3666 -1.1824
    2MPD1    H114063   0.802   3.396  11.747  1.6192 -0.7484 -0.0388
    2MPD1    H214064   0.978   3.339  11.381 -1.2086  0.1920 -1.3827
    2MPD1    H314065   0.907   3.255  11.593 -2.0880  1.3901  3.0580
    2MPD1     N14066   0.802   3.671  11.746 -0.0198  0.6361 -0.0573
    2MPD1    H514067   0.830   3.767  11.727  1.1570  0.4721  0.8650
    2MPD1    N114068   1.003   3.604  11.322  0.5293  0.0982  0.2043
    2MPD1    H614069   0.954   3.690  11.297  0.2660 -0.1062  0.0130
    2MPD1    H714070   1.013   3.541  11.242  1.4837 -0.4072  0.7239
    1TCq1    O114071   0.446   3.212   8.975  0.0587  0.0820 -0.0824
    1TCq1    C114072   0.337   3.291   9.003 -0.1028  0.2210 -0.0927
    1TCq1    O214073   0.291   3.336   9.106  0.0667 -0.4708  0.4817
    1TCq1    C214074   0.279   3.342   8.881  0.3306  0.3999 -0.0942
    1TCq1    C314075   0.324   3.299   8.759 -0.1352  0.1254 -0.3687
    1TCq1    C414076   0.240   3.324   8.653  0.4463  0.3924 -0.3316
    1TCq1    C514077   0.120   3.395   8.672  0.0265  0.0793  0.4136
    1TCq1    C614078   0.085   3.431   8.801 -0.5301 -0.2079 -1.2577
    1TCq1    C714079   0.165   3.412   8.906 -0.3137 -0.0190 -0.2577
    1TCq1    C814080   4.691   3.520   8.819  0.4823 -0.1139  0.3099
    1TCq1    O414081   4.628   3.520   8.922  0.1545  0.0613  0.1399
    1TCq1    C914082   0.301   3.328   8.520 -0.3030 -0.4887  0.5173
    1TCq1    O514083   0.399   3.253   8.508 -0.9570  0.3063 -0.3625
    1TCq1    O614084   0.265   3.404   8.427 -0.6582 -0.1720 -0.2588
    1TCq1    H114085   0.438   3.172   8.886  0.8289 -1.1113  0.3900
    1TCq1    H214086   0.430   3.281   8.744  0.1516  0.3010  1.4346
    1TCq1    H314087   0.056   3.415   8.587 -0.6747  1.2297  1.2275
    1TCq1    H414088   0.128   3.443   9.003  0.2636 -1.8980  0.5764
    2MPD1     C14089   4.425   3.936   8.710  0.0926  0.0046  0.2840
    2MPD1    C114090   4.541   3.940   8.632 -1.2089  0.6200  0.5938
    2MPD1    C214091   4.614   3.825   8.628  0.4729  0.3773 -0.4177
    2MPD1    C314092   4.588   3.718   8.718 -0.7037  0.2482 -0.4036
    2MPD1    C414093   4.476   3.722   8.800 -0.8763  0.1197 -0.1308
    2MPD1    C514094   4.390   3.827   8.784 -0.1610  0.6663 -0.0338
    2MPD1     H14095   4.709   3.819   8.576  0.8127 -0.4507  0.3031
    2MPD1    H114096   4.463   3.641   8.871  1.2293  1.0839  1.3445
    2MPD1    H214097   4.355   4.018   8.713 -0.6921 -0.6463 -0.3839
    2MPD1    H314098   4.297   3.821   8.839 -0.3015  1.8735 -0.1467
    2MPD1     N14099   4.679   3.609   8.717 -0.1857  0.7594  0.7129
    2MPD1    H514100   0.022   3.607   8.640  0.0977  1.2449  0.9466
    2MPD1    N114101   4.569   4.056   8.555  0.2101 -0.4794  0.2231
    2MPD1    H614102   4.529   4.144   8.587 -0.1919 -0.5881  0.0088
    2MPD1    H714103   4.669   4.075   8.545  0.3329  0.8815  3.9685
    1MPD1     C14104   3.016   2.867  11.929 -0.0113  0.2135 -0.0863
    1MPD1    C114105   3.010   2.908  11.795 -0.0908  0.6782 -0.7573
    1MPD1    C214106   2.933   3.027  11.769  0.0249 -0.2743 -0.4957
    1MPD1    C314107   2.876   3.098  11.873  0.0660 -0.0313 -0.1491
    1MPD1    C414108   2.877   3.044  11.998  0.3711 -0.6535  0.1974
    1MPD1    C514109   2.953   2.937  12.023  0.2288  0.1089 -0.1720
    1MPD1     H14110   2.912   3.057  11.667 -1.1354  1.0929  0.1538
    1MPD1    H114111   2.847   3.101  12.085 -3.2683 -0.6830 -1.0535
    1MPD1    H214112   3.085   2.793  11.968  0.2659  0.9194  0.7549
    1MPD1    H314113   2.955   2.904  12.127 -0.0513  0.8991  0.0884
    1MPD1     N14114   2.818   3.222  11.847 -0.1556  0.9736  0.3749
    1MPD1    H514115   2.807   3.246  11.749 -0.5950 -0.9365 -0.0523
    1MPD1    N114116   3.061   2.832  11.687 -0.6478  0.3293  0.0640
    1MPD1    H614117   3.109   2.886  11.615  1.4176 -0.0049  1.1811
    1MPD1    H714118   3.126   2.764  11.727 -0.9074  0.8629  1.3941
    2MPD1     C14119   1.942   3.936   9.895 -0.0196  0.2498  0.0886
    2MPD1    C114120   1.807   3.923   9.901  0.0333 -0.8118 -0.7388
    2MPD1    C214121   1.751   3.820   9.976  0.4696  0.0462 -0.4452
    2MPD1    C314122   1.832   3.751  10.064  0.0076  0.1778  0.2684
    2MPD1    C414123   1.969   3.760  10.054 -0.5099  0.4840  0.3208
    2MPD1    C514124   2.019   3.852   9.964 -0.5881 -1.1666  0.1535
    2MPD1     H14125   1.644   3.805   9.985  0.5828 -1.9708 -2.4808
    2MPD1    H114126   2.038   3.706  10.117 -0.4453 -0.9792 -1.0109
    2MPD1    H214127   1.991   4.001   9.823  0.8501  1.7859  2.0602
    2MPD1    H314128   2.125   3.874   9.959 -0.4503 -1.7528  0.4607
    2MPD1     N14129   1.770   3.652  10.145 -0.1009  0.4644 -0.1098
    2MPD1    H514130   1.670   3.651  10.157  0.0082 -1.6596  0.7365
    2MPD1    N114131   1.730   3.999   9.812  0.1325  0.4985  0.0080
    2MPD1    H614132   1.634   4.009   9.845  0.1004  1.2145 -0.3004
    2MPD1    H714133   1.770   4.083   9.772  0.6428  0.0703 -0.3769
    3MPD1     C14134   1.101   3.165   9.913  0.0888 -0.0461  0.3559
    3MPD1    C114135   1.232   3.139   9.883 -0.0254  0.2658  0.2786
    3MPD1    C214136   1.327   3.180   9.976 -0.1986 -0.1838  0.3243
    3MPD1    C314137   1.298   3.254  10.086  0.6037 -0.2369 -0.3622
    3MPD1    C414138   1.171   3.270  10.128  0.6360  0.0309 -0.0008
    3MPD1    C514139   1.074   3.233  10.036  1.0281 -1.2716  0.0930
    3MPD1     H14140   1.430   3.150   9.963 -0.0329  0.8279 -0.6831
    3MPD1    H114141   1.143   3.310  10.225 -1.5594 -1.0355 -0.1836
    3MPD1    H214142   1.018   3.133   9.852 -0.4423 -0.8471  1.5000
    3MPD1    H314143   0.972   3.229  10.072  1.0119 -0.3261  0.1446
    3MPD1     N14144   1.414   3.298  10.168 -0.2941 -0.0328 -0.0904
    3MPD1    H514145   1.503   3.275  10.126 -0.1193 -2.1272  1.4104
    3MPD1    N114146   1.266   3.072   9.757  0.0968 -0.3469  0.5500
    3MPD1    H614147   1.362   3.088   9.727 -0.7389  2.1018 -0.8073
    3MPD1    H714148   1.219   3.109   9.675  0.3809 -0.9627  0.1162
    4MPD2     C14149   2.264   3.872  11.949 -0.2191  0.0775 -0.6272
    4MPD2    C114150   2.355   3.860  11.844  0.6807  0.8348 -0.8070
    4MPD2    C214151   2.315   3.892  11.717 -0.0603  0.0909  0.0767
    4MPD2    C314152   2.185   3.930  11.682 -0.4423  0.0869  0.4081
    4MPD2    C414153   2.088   3.928  11.786 -0.0299 -0.1260  0.3792
    4MPD2    C514154   2.132   3.900  11.922  0.2512  0.5053  0.0138
    4MPD2     H14155   2.382   3.878  11.633  2.3477  0.6641  1.8847
    4MPD2    H114156   1.988   3.954  11.756  0.7921  1.7512 -0.6870
    4MPD2    H214157   2.297   3.851  12.050  0.0844  0.2356 -0.6953
    4MPD2    H314158   2.057   3.893  12.001  0.1520 -0.8039 -0.2031
    4MPD2     N14159   2.158   3.941  11.541 -0.2448  0.2780 -0.4363
    4MPD2    H514160   2.242   3.945  11.484  0.5325  1.3433  0.7995
    4MPD2    N114161   2.482   3.802  11.860  0.0706  0.7994 -0.2188
    4MPD2    H714162   2.541   3.801  11.778 -1.2432  1.5420 -1.1703
    5TMC3    C114163   2.642   3.638  11.909  0.5665  0.1504 -0.8903
    5TMC3    C214164   2.626   3.503  11.937 -0.1915  0.3307  0.3514
    5TMC3    C314165   2.693   3.421  11.854  0.2412 -0.2608 -0.2595
    5TMC3    C414166   2.700   3.688  11.801 -0.0026 -0.0049  0.0838
    5TMC3    C514167   2.735   3.601  11.706 -0.3657 -0.5272 -0.1738
    5TMC3    C614168   2.738   3.460  11.734  0.0708  0.2725 -0.7972
    5TMC3     C14169   2.531   3.720  11.964  0.5516  0.0686 -0.1426
    5TMC3     O14170   2.465   3.677  12.057  0.0470 -0.2670  0.1168
    5TMC3     H14171   2.584   3.466  12.030  0.9113 -2.4482 -0.2838
    5TMC3    H114172   2.725   3.792  11.787  0.8461 -0.2452 -0.1782
    5TMC3    H214173   2.791   3.395  11.665  0.6231  1.0365 -1.0954
    5TMC3    C714174   2.693   3.654  11.581 -0.6848 -0.1496  0.1595
    5TMC3    C814175   2.739   3.298  11.925  0.6043 -0.6764 -0.3916
    5TMC3    O114176   2.615   3.747  11.586 -0.1760 -0.1839  0.1338
    5TMC3    O214177   2.710   3.291  12.043  0.3531 -0.7116 -0.0330
    6TMC3    C114178   1.751   3.503  10.311  0.3086 -0.1641  0.4291
    6TMC3    C214179   1.626   3.471  10.255 -0.1897 -0.0400  0.6105
    6TMC3    C314180   1.533   3.420  10.340 -0.1594  0.2341 -0.7993
    6TMC3    C414181   1.769   3.492  10.449 -0.0618  0.4409  0.8025
    6TMC3    C514182   1.675   3.445  10.531  0.5030 -0.8897 -0.5737
    6TMC3    C614183   1.554   3.409  10.473 -0.9737 -0.6844 -0.3902
    6TMC3     C14184   1.842   3.590  10.245  0.7164  0.2524 -0.0873
    6TMC3     O14185   1.954   3.607  10.289  0.7136  0.1243 -0.2740
    6TMC3     H14186   1.616   3.477  10.147 -0.1087  0.1984  0.6150
    6TMC3    H114187   1.869   3.503  10.489  0.9402  1.1152 -1.9079
    6TMC3    H214188   1.476   3.381  10.543 -0.6270  0.9909  0.6512
    6TMC3    C714189   1.695   3.457  10.675  0.2231 -0.1523 -0.2952
    6TMC3    C814190   1.408   3.370  10.283  0.2375 -0.0305  0.2985
    6TMC3    O114191   1.800   3.516  10.689 -0.1661  0.6432 -0.1047
    6TMC3    O214192   1.307   3.393  10.347  0.1052  0.0393 -0.3451
    7MPD2     C14193   2.557   3.596  11.087  0.0006  0.3077 -1.1931
    7MPD2    C114194   2.489   3.656  11.186  0.1749  0.2362 -0.2931
    7MPD2    C214195   2.542   3.644  11.318  0.0288  0.0058  0.1122
    7MPD2    C314196   2.656   3.571  11.349  0.2307  0.4427 -0.2360
    7MPD2    C414197   2.710   3.493  11.249 -0.0931 -0.0335  0.3820
    7MPD2    C514198   2.666   3.521  11.110 -0.4798 -0.7130  0.8401
    7MPD2     H14199   2.480   3.682  11.398 -0.2336  2.7529 -1.4134
    7MPD2    H114200   2.797   3.430  11.262 -0.2463 -0.1946  0.6135
    7MPD2    H214201   2.529   3.598  10.982 -0.2869 -0.2635 -1.1294
    7MPD2    H314202   2.713   3.459  11.034 -2.1789  2.0054 -2.4303
    7MPD2     N14203   2.705   3.559  11.483  0.0162 -0.1346  0.4217
    7MPD2    H514204   2.774   3.485  11.492 -0.7864 -1.2561 -2.6174
    7MPD2    N114205   2.370   3.720  11.158 -0.5451  0.3875  0.3914
    7MPD2    H714206   2.335   3.711  11.063  0.8404  0.8332 -0.1695
    8TMC3    C114207   2.194   3.873  11.198  0.0216 -0.2779  0.6614
    8TMC3    C214208   2.105   3.782  11.143  0.2482 -0.3341 -0.0559
    8TMC3    C314209   1.974   3.786  11.174 -0.1962  0.3000 -0.1025
    8TMC3    C414210   2.151   3.955  11.290 -0.2986  0.2764 -0.3823
    8TMC3    C514211   2.024   3.947  11.343 -0.4064 -0.6804 -0.0200
    8TMC3    C614212   1.932   3.859  11.288 -0.2981 -0.4277 -0.6129
    8TMC3     C14213   2.321   3.826  11.236 -0.5245 -0.0834  0.4569
    8TMC3     O14214   2.362   3.866  11.347  0.5726 -0.3170 -1.0693
    8TMC3     H14215   2.138   3.705  11.074 -1.7099 -1.1201 -0.0935
    8TMC3    H114216   2.225   4.031  11.315 -0.1703  0.4906 -1.4135
    8TMC3    H214217   1.828   3.875  11.313  0.0225 -0.3181  0.6343
    8TMC3    C714218   2.028   3.938  11.490 -0.2847  0.0135 -0.1105
    8TMC3    C814219   1.883   3.712  11.090  0.3033 -0.7434 -0.6274
    8TMC3    O114220   1.923   3.906  11.542 -0.5080 -0.0926  0.0953
    8TMC3    O214221   1.926   3.670  10.984  0.2137 -0.3683  0.0598
    9MPD2     C14222   1.529   3.598  11.136 -0.2095 -1.1486  0.4592
    9MPD2    C114223   1.652   3.613  11.071 -0.3976 -0.8754 -0.0007
    9MPD2    C214224   1.669   3.539  10.954 -0.5455  0.5740  0.1985
    9MPD2    C314225   1.572   3.475  10.887  0.3482  0.3814  0.1114
    9MPD2    C414226   1.451   3.473  10.948 -0.1266  0.1217  0.4120
    9MPD2    C514227   1.431   3.525  11.075 -0.1270  0.1435 -0.7499
    9MPD2     H14228   1.768   3.529  10.911 -0.7532 -1.7310  0.2807
    9MPD2    H114229   1.372   3.415  10.902  1.2032 -0.3149 -1.2813
    9MPD2    H214230   1.519   3.639  11.235  2.0290 -0.3560  0.3535
    9MPD2    H314231   1.330   3.527  11.115  0.5800 -1.8934  1.0905
    9MPD2     N14232   1.586   3.428  10.752 -0.1857 -0.3529  0.2604
    9MPD2    H514233   1.509   3.381  10.705 -0.2605 -1.4900  1.5241
    9MPD2    N114234   1.754   3.693  11.136 -0.0655  1.1669  0.7045
    9MPD2    H714235   1.720   3.742  11.219  1.5954  1.0740  1.4422
    1MPD1     C14236   2.586   2.209  16.686  0.0215  0.6056 -0.3565
    1MPD1    C114237   2.563   2.332  16.735 -0.5201 -0.2634  0.2524
    1MPD1    C214238   2.463   2.347  16.834 -0.7367 -0.0385 -0.4246
    1MPD1    C314239   2.392   2.243  16.884  0.1115  0.0003  0.1021
    1MPD1    C414240   2.419   2.118  16.831 -0.1712 -0.4768  0.2684
    1MPD1    C514241   2.519   2.101  16.733 -0.1868  0.5881  0.6940
    1MPD1     H14242   2.434   2.448  16.862 -0.2886 -0.1580  0.4346
    1MPD1    H114243   2.355   2.039  16.870 -0.6858  1.3076  3.0316
    1MPD1    H214244   2.658   2.196  16.606  2.0972 -0.1680  1.6507
    1MPD1    H314245   2.550   2.002  16.700 -2.0770 -0.2036  1.2633
    1MPD1     N14246   2.289   2.261  16.986  0.1162  0.0360 -0.6830
    1MPD1    H514247   2.224   2.184  16.999  1.1581 -0.7216 -0.0018
    1MPD1    N114248   2.602   2.445  16.653 -0.9593 -0.5437  0.3591
    1MPD1    H614249   2.695   2.436  16.613 -0.4720 -0.8810  1.5571
    1MPD1    H714250   2.596   2.537  16.696 -0.7978 -1.0550  1.4853
    2MPD1     C14251   1.425   2.818  17.164 -0.2188 -0.2161 -0.0619
    2MPD1    C114252   1.530   2.852  17.072 -0.2258 -0.0564  0.0074
    2MPD1    C214253   1.618   2.754  17.045  0.0905 -0.0399 -0.3534
    2MPD1    C314254   1.619   2.628  17.110 -0.1092 -0.2731 -0.4132
    2MPD1    C414255   1.514   2.604  17.193 -0.5434 -0.3945 -0.2169
    2MPD1    C514256   1.422   2.696  17.223 -0.3549 -0.2309 -0.6595
    2MPD1     H14257   1.697   2.775  16.973  1.1152  0.8224  1.0097
    2MPD1    H114258   1.520   2.516  17.255 -2.2309 -0.7239 -0.5122
    2MPD1    H214259   1.334   2.877  17.170  0.7146  1.3828 -1.2567
    2MPD1    H314260   1.342   2.675  17.293 -0.8101  0.4925 -0.9642
    2MPD1     N14261   1.726   2.531  17.106  0.1997 -0.2447 -0.4323
    2MPD1    H514262   1.717   2.456  17.174  0.2092  0.3579  0.2388
    2MPD1    N114263   1.506   2.959  16.981  0.0489  0.1421  0.6281
    2MPD1    H614264   1.463   3.036  17.031  4.1060  1.9090  1.3860
    2MPD1    H714265   1.590   2.998  16.939 -0.0983  3.6734  3.5975
    3TCq2    C114266   1.852   2.547  17.063 -0.1099  0.3379  0.2521
    3TCq2    O214267   1.906   2.639  17.005 -0.6212  0.4537 -0.3023
    3TCq2    C214268   1.942   2.440  17.109  0.2070  0.3530 -0.5611
    3TCq2    C314269   1.884   2.314  17.109  0.0785  0.1705  0.2738
    3TCq2    C414270   1.971   2.217  17.149  0.0482  0.4785  0.0071
    3TCq2    C514271   2.109   2.234  17.155 -0.2735  0.0636 -0.1412
    3TCq2    C614272   2.156   2.361  17.143 -0.1196  0.4310 -0.0788
    3TCq2    C714273   2.079   2.472  17.121 -0.6412 -0.1812 -0.1844
    3TCq2    C814274   2.280   2.368  17.068 -0.2389  0.0818 -0.6690
    3TCq2    O414275   2.347   2.469  17.080  0.3313 -0.1489  0.4370
    3TCq2    C914276   1.923   2.080  17.157  0.5767 -0.5470  0.6314
    3TCq2    O514277   2.013   1.994  17.180  0.2048 -0.2910  0.6537
    3TCq2    O614278   1.811   2.044  17.107 -0.4219  0.0341  0.5326
    3TCq2    H214279   1.780   2.297  17.083 -0.8437  2.3672  2.4503
    3TCq2    H314280   2.171   2.152  17.188  1.4816  1.3004 -0.3114
    3TCq2    H414281   2.117   2.573  17.109 -1.5894  0.3344  1.1255
    1TCq1    O114282   0.199   2.288  13.061  0.4461 -0.2940  0.1665
    1TCq1    C114283   0.158   2.169  13.011  0.5291  0.3327  0.5257
    1TCq1    O214284   0.094   2.155  12.909  0.3274 -0.4237 -1.4594
    1TCq1    C214285   0.280   2.087  13.041  0.0461  0.0388  1.1386
    1TCq1    C314286   0.351   2.027  12.940  0.3202 -0.3468  0.1929
    1TCq1    C414287   0.451   1.944  12.977  0.0667 -0.4603  0.2816
    1TCq1    C514288   0.478   1.921  13.110 -0.1093 -0.4831 -0.7785
    1TCq1    C614289   0.410   1.985  13.203 -0.4914 -0.0304  0.0672
    1TCq1    C714290   0.296   2.056  13.174 -0.4167  0.5377 -0.8777
    1TCq1    C814291   0.430   1.952  13.349 -0.0045  0.3230 -0.0940
    1TCq1    O414292   0.335   1.972  13.424 -0.6466  0.0084  0.0941
    1TCq1    C914293   0.519   1.865  12.878 -0.4218  0.4178 -0.0078
    1TCq1    O514294   0.572   1.764  12.927  0.0249 -0.7248  0.3836
    1TCq1    O614295   0.479   1.875  12.760  0.6363  0.3949 -0.5599
    1TCq1    H114296   0.282   2.293  13.114  0.0419  0.8292  0.6827
    1TCq1    H214297   0.333   2.051  12.836 -0.3347 -1.8340 -0.0290
    1TCq1    H314298   0.555   1.851  13.140  1.4307  0.6426 -2.1171
    1TCq1    H414299   0.222   2.097  13.241 -0.3038  0.3370 -0.6327
    2MPD2     C14300   0.539   1.917  13.618  0.3727  0.3783 -0.1629
    2MPD2    C114301   0.613   1.887  13.507 -0.1032 -0.5746 -0.3753
    2MPD2    C214302   0.739   1.831  13.519  0.2206 -0.1939 -0.0994
    2MPD2    C314303   0.797   1.814  13.646  0.4594  0.4187  0.3748
    2MPD2    C414304   0.715   1.837  13.756 -0.2836  0.2646  0.0663
    2MPD2    C514305   0.592   1.879  13.735 -0.3619  0.6556 -0.1938
    2MPD2     H14306   0.794   1.811  13.428  1.5949 -0.2798  0.7409
    2MPD2    H114307   0.748   1.819  13.857 -0.7265  0.0376  0.1698
    2MPD2    H214308   0.440   1.960  13.621 -0.5105 -1.6680 -0.4682
    2MPD2    H314309   0.526   1.900  13.819  0.7867  1.1549  0.5902
    2MPD2     N14310   0.936   1.777  13.657 -0.1715  0.0491 -0.0601
    2MPD2    H514311   0.988   1.767  13.571 -1.4568  1.1156 -0.9548
    2MPD2    N114312   0.555   1.906  13.379 -0.3044  0.2156  0.8820
    2MPD2    H714313   0.614   1.898  13.296 -1.7885  0.5708 -0.1913
    3TCq1    O114314   1.235   1.485  13.469  0.5939 -0.4899  0.0189
    3TCq1    C114315   1.312   1.467  13.580 -0.6780 -0.3930 -0.8487
    3TCq1    O214316   1.342   1.362  13.636 -0.0664 -0.6442 -0.1677
    3TCq1    C214317   1.284   1.583  13.676 -0.3027 -0.6396 -0.3652
    3TCq1    C314318   1.381   1.610  13.771 -0.5161  0.7225  1.0887
    3TCq1    C414319   1.356   1.708  13.863  0.2700  0.0116 -0.0441
    3TCq1    C514320   1.233   1.762  13.858 -0.2393 -0.1618 -0.0680
    3TCq1    C614321   1.135   1.730  13.763  1.0136 -0.2346  0.9236
    3TCq1    C714322   1.160   1.641  13.668 -0.1926  0.1397  0.8309
    3TCq1    C814323   1.003   1.785  13.781  0.0853 -0.8523  0.9270
    3TCq1    O414324   0.970   1.815  13.895 -0.7258  0.0171 -0.3358
    3TCq1    C914325   1.445   1.755  13.963 -0.4855 -0.9654  0.1726
    3TCq1    O514326   1.415   1.854  14.030  0.2248  0.5228  0.2284
    3TCq1    O614327   1.559   1.699  13.977  0.0634 -0.4418  0.0880
    3TCq1    H114328   1.215   1.579  13.450 -0.7140 -0.7170  0.2726
    3TCq1    H214329   1.482   1.570  13.759 -0.0253  1.7426  1.8454
    3TCq1    H314330   1.211   1.838  13.931 -0.2635  0.0230 -0.2692
    3TCq1    H414331   1.077   1.604  13.607  0.5741  2.5524 -1.6662
    1MPD2     C14332   0.046   2.684  15.029 -0.4322  0.0633 -0.7088
    1MPD2    C114333   4.691   2.583  14.988 -0.2316 -0.2887  0.0604
    1MPD2    C214334   0.025   2.493  14.896  0.1558 -0.1187  0.0071
    1MPD2    C314335   0.154   2.504  14.846 -0.3102 -0.8489  0.1071
    1MPD2    C414336   0.232   2.607  14.900  0.0167 -0.1822 -0.3405
    1MPD2    C514337   0.179   2.694  14.989 -0.1295  0.1917  0.0355
    1MPD2     H14338   4.681   2.416  14.859 -0.6319  0.9498 -0.7464
    1MPD2    H114339   0.335   2.622  14.870 -0.1585  0.6814 -0.4947
    1MPD2    H214340   0.010   2.759  15.099 -2.2297  0.1919 -1.7393
    1MPD2    H314341   0.251   2.761  15.034  0.2099 -0.2920  0.2102
    1MPD2     N14342   0.206   2.409  14.757 -0.1627 -0.5859  0.3249
    1MPD2    H514343   0.304   2.408  14.732 -0.1144  0.4166  0.4524
    1MPD2    N114344   4.559   2.573  15.042  0.2652 -0.5867  0.2389
    1MPD2    H714345   4.527   2.658  15.088 -1.2121 -0.3076 -1.3246
    2TMC3    C114346   4.353   2.486  15.077 -0.3228 -0.1002  1.0186
    2TMC3    C214347   4.286   2.372  15.090 -0.1187 -0.2577  0.0055
    2TMC3    C314348   4.167   2.367  15.021  0.2290 -0.7690 -0.1231
    2TMC3    C414349   4.308   2.597  15.021 -0.5533  0.1999  0.2816
    2TMC3    C514350   4.184   2.586  14.960  0.1719  0.2730 -0.5538
    2TMC3    C614351   4.109   2.474  14.955  0.2257 -0.4849 -0.2681
    2TMC3     C14352   4.487   2.460  15.044 -0.3878 -0.4456 -0.0385
    2TMC3     O14353   4.521   2.347  15.041 -0.2607  0.3027 -0.5051
    2TMC3     H14354   4.321   2.294  15.156 -0.9565 -0.7747 -0.1614
    2TMC3    H114355   4.367   2.688  15.027  0.4532 -0.3507 -1.1737
    2TMC3    H214356   4.019   2.459  14.898  1.0447  1.2032 -2.0010
    2TMC3    C714357   4.167   2.660  14.838 -0.3581 -0.1526  0.1344
    2TMC3    C814358   4.169   2.252  14.929  0.4051  0.0194 -0.4989
    2TMC3    O114359   4.052   2.665  14.789 -0.0434 -0.3997 -0.5214
    2TMC3    O214360   4.091   2.249  14.830 -0.5359 -0.5623  0.0369
    3TCq1    O114361   0.161   3.683  14.583 -0.1509  0.1179  0.6300
    3TCq1    C114362   0.084   3.603  14.511 -0.1527 -0.2058  0.9494
    3TCq1    O214363   0.087   3.588  14.390 -0.2671  0.6610 -0.3023
    3TCq1    C214364   0.049   3.501  14.597  0.0154 -0.9444 -0.0576
    3TCq1    C314365   0.152   3.447  14.670 -0.2191  0.1750 -0.4372
    3TCq1    C414366   0.129   3.321  14.722  0.2150 -0.1215  0.9241
    3TCq1    C514367   0.009   3.260  14.702  0.1185  0.6709 -0.3453
    3TCq1    C614368   4.632   3.315  14.625  0.0467  0.2865 -0.0014
    3TCq1    C714369   4.653   3.437  14.577  0.4029 -0.6177  0.2713
    3TCq1    C814370   4.505   3.241  14.593  0.2009  0.4890  0.4918
    3TCq1    O414371   4.413   3.301  14.533 -0.0511  0.1776 -0.1434
    3TCq1    C914372   0.224   3.255  14.808  0.8222  0.6014  0.2370
    3TCq1    O514373   0.315   3.319  14.873  0.3971  0.4911  0.3751
    3TCq1    O614374   0.209   3.130  14.807 -0.3317 -0.3360  0.3439
    3TCq1    H114375   0.151   3.678  14.680  0.5146 -1.1587  0.6355
    3TCq1    H214376   0.252   3.489  14.669  0.3502 -1.0421  2.5445
    3TCq1    H314377   4.715   3.163  14.748 -0.6018 -0.3423 -2.7113
    3TCq1    H414378   4.577   3.484  14.516 -0.2855 -1.3957  0.5285
    4MPD2     C14379   4.316   3.029  14.519  0.2355  0.1605 -0.4612
    4MPD2    C114380   4.394   3.031  14.630  0.0282 -0.3937 -0.1132
    4MPD2    C214381   4.377   2.937  14.722 -0.6692  0.2042 -0.6228
    4MPD2    C314382   4.279   2.836  14.711 -0.4434  0.0362 -0.8997
    4MPD2    C414383   4.186   2.837  14.604  0.2055 -0.3288  0.2456
    4MPD2    C514384   4.212   2.935  14.516 -0.4999 -0.3066  0.9529
    4MPD2     H14385   4.445   2.935  14.806 -1.1552 -0.5373 -0.2452
    4MPD2    H114386   4.109   2.763  14.586  0.7310 -0.2946 -2.1154
    4MPD2    H214387   4.317   3.102  14.439 -1.2302  0.3490 -0.3089
    4MPD2    H314388   4.154   2.934  14.424 -1.7828 -0.0365  1.7650
    4MPD2     N14389   4.278   2.740  14.815 -0.2223 -0.0780  0.1344
    4MPD2    H514390   4.352   2.742  14.885  1.6314  1.2726 -1.8750
    4MPD2    N114391   4.496   3.123  14.656  0.0534 -0.3531  0.5361
    4MPD2    H714392   4.555   3.103  14.736  2.6829  1.3040 -0.9721
    5TMC2    C114393   0.151   2.001  14.751 -0.5308 -0.5513  0.0786
    5TMC2    C214394   0.261   1.996  14.831  0.2781 -0.1734  0.7715
    5TMC2    C314395   0.355   2.082  14.798 -0.4893  0.7757  0.4526
    5TMC2    C414396   0.132   2.093  14.650  0.5202  0.1694  0.3450
    5TMC2    C514397   0.207   2.197  14.650 -0.1582  0.1902  0.4649
    5TMC2    C614398   0.329   2.193  14.718 -0.8336 -0.4360  0.4190
    5TMC2     C14399   0.035   1.970  14.825 -0.6502 -0.1942 -0.4197
    5TMC2     O14400   0.023   2.008  14.941 -0.4353 -0.3194 -0.0625
    5TMC2     H14401   0.286   1.911  14.893 -0.5550 -0.4258  0.7567
    5TMC2    H114402   0.045   2.099  14.587  0.5441  1.4702  0.4445
    5TMC2    H214403   0.402   2.270  14.701  0.1925 -1.4719  0.1230
    5TMC2    C714404   0.131   2.311  14.697  1.0300  0.5126  0.3868
    5TMC2    C814405   0.471   2.092  14.877 -0.7804  0.0048  0.8940
    5TMC2    O114406   0.009   2.299  14.686  0.0729  0.0850 -0.5346
    5TMC2    O214407   0.555   2.172  14.845  0.2869  0.3811 -0.3881
    5TMC2    O514408   0.443   2.057  15.003  0.5290 -0.4765  0.2845
    5TMC2    H514409   0.355   2.018  15.019 -0.0534  0.6405 -0.1947
    6MPD2     C14410   4.250   2.018  14.768  0.1820 -0.2127 -0.2729
    6MPD2    C114411   4.337   2.088  14.857 -0.0607  0.5128  1.0940
    6MPD2    C214412   4.476   2.052  14.855 -1.0062  0.7986 -0.8849
    6MPD2    C314413   4.526   1.963  14.755  0.1451 -0.2064  0.0095
    6MPD2    C414414   4.434   1.896  14.677 -0.0750  0.2094  0.2478
    6MPD2    C514415   4.302   1.924  14.681 -0.8051  0.6600 -0.3679
    6MPD2     H14416   4.548   2.109  14.912  0.0320 -1.5464  0.1560
    6MPD2    H114417   4.473   1.823  14.606 -0.4824  2.0326 -1.8788
    6MPD2    H214418   4.142   2.030  14.771  0.1171 -1.3281  2.1865
    6MPD2    H314419   4.243   1.865  14.612  0.3980  0.5229 -1.2700
    6MPD2     N14420   4.665   1.935  14.733 -0.5351 -0.9016  0.4795
    6MPD2    H514421   4.701   1.897  14.647 -0.0288 -1.2877  0.8592
    6MPD2    N114422   4.287   2.188  14.944 -0.2494  0.6217 -0.4232
    6MPD2    H714423   4.351   2.217  15.017  0.4632 -0.4587 -0.6202
  945NH3     N114424   1.052   4.019  16.799  0.3398  0.0154  0.0587
  945NH3     H214425   1.042   3.945  16.868  1.0252 -0.7273 -0.6369
  945NH3     H314426   1.016   3.972  16.716  0.6584 -1.3223  0.6800
  945NH3     H414427   0.977   4.084  16.819  1.1380  0.3593  1.9324
  946SOD     NA14428   3.497   3.916  13.970  0.2764  0.4204  0.0126
  947SOD     NA14429   1.820   3.011  12.851  0.5846 -0.3914 -0.0379
  948SOD     NA14430   4.714   2.988   3.635 -0.5063 -0.1378 -0.2553
  949SOD     NA14431   4.438   2.924   9.780 -0.4335 -0.6826 -0.1642
  950SOD     NA14432   2.518   1.712   3.359 -0.3934  0.2548  0.2625
  951SOD     NA14433   2.152   0.485   0.788  0.3157 -0.5971  0.1505
  952SOD     NA14434   3.817   0.252   9.463 -0.3609  0.2817 -0.3162
  953SOD     NA14435   0.368   3.117  16.510  0.0734  0.0613  0.5392
  954SOD     NA14436   3.627   0.094  10.477 -0.2760 -0.1978  0.5942
  955SOD     NA14437   2.688   2.223  14.902  0.0890 -0.0016 -0.1895
  956SOD     NA14438   4.152   0.309   9.329  0.1940  0.0658 -0.1907
  957SOD     NA14439   0.375   2.882  11.061  0.7286 -0.2717 -0.3112
  958SOD     NA14440   2.677   4.017   0.090  0.3578  0.1088 -0.0788
  959SOD     NA14441   1.618   1.848  14.135 -0.0762 -0.1513  0.1936
  960SOD     NA14442   3.118   4.267  13.020 -0.6127 -0.1619 -0.0546
  961SOD     NA14443   1.339   2.050  11.613  0.6466 -0.2098 -0.1208
  962SOD     NA14444   1.283   2.220  11.346 -0.1569  0.3003 -0.1075
  963SOD     NA14445   2.451   0.507   0.643  0.1304 -0.2171 -0.0332
  964SOD     NA14446   3.473   1.956   9.140  0.1759 -0.1902 -0.2616
  965SOD     NA14447   0.075   0.680  15.092  0.2573  0.5658 -0.5988
  966SOD     NA14448   4.061   3.560  15.520  0.1105 -0.4440  0.0169
  967SOD     NA14449   2.317   2.266   7.159 -0.2518 -0.2383  0.4576
  968SOD     NA14450   1.644   2.818  15.905  0.2600 -0.0285  0.1217
  969SOD     NA14451   0.309   1.425  10.990 -0.1353 -0.1213 -0.1884
  970SOD     NA14452   0.319   1.232  10.724  0.0506  0.0849  0.3417
  971SOD     NA14453   1.765   1.822  14.411 -0.2496  0.3152 -0.4959
  972SOD     NA14454   4.702   3.086  12.228 -0.1477 -0.0432 -0.0753
  973SOD     NA14455   4.157   0.653  10.333 -0.0129 -0.3874 -0.1025
  974SOD     NA14456   0.485   1.574  12.952  0.0017  0.1930  0.0905
  975SOD     NA14457   2.219   0.506   0.428  0.4476  0.2333  0.0496
  976SOD     NA14458   1.926   0.743  12.297 -0.1291  0.1880  0.1159
  977SOD     NA14459   1.631   3.253   3.929 -0.1373  0.4603  0.1532
  978SOD     NA14460   2.479   2.752  17.406  0.1327  0.4297  0.5486
  979SOD     NA14461   2.660   3.142  12.854  0.2330  0.0467 -0.0667
  980SOD     NA14462   3.069   0.607  14.934  0.1029 -0.0075  0.2002
  981SOD     NA14463   1.894   1.834  17.059  0.3735 -0.4484 -0.1210
  982SOD     NA14464   1.481   3.895   7.461 -0.1409 -0.3778 -0.3915
  983SOD     NA14465   0.380   3.204  15.036 -0.2189  0.0660 -0.0342
  984SOD     NA14466   4.544   4.043  10.982 -0.0851  0.3539  0.3370
  985SOD     NA14467   0.584   4.290  12.525  0.6003  0.2631  0.6711
  986SOD     NA14468   2.136   2.089   1.142  0.1364 -0.5346  0.0579
  987SOD     NA14469   0.899   2.175   7.853 -0.1197 -0.0821 -0.0548
  988SOD     NA14470   3.340   1.975   1.687 -0.1910 -0.1586  0.0307
  989SOD     NA14471   0.923   1.699   5.460  0.4748  0.5161  0.6265
  990SOD     NA14472   0.851   0.057   0.672  0.8781  0.2292 -0.3905
  991SOD     NA14473   1.495   1.926  14.442 -0.1403 -0.3149 -0.3066
  992SOD     NA14474   0.437   2.221  15.179 -0.3636  0.4383 -0.0761
  993SOD     NA14475   1.083   3.717   2.782 -0.0126  0.1320 -0.7899
  994SOD     NA14476   1.073   1.090  12.402  0.1905 -0.2521 -0.1775
  995SOD     NA14477   0.272   3.016  13.979 -0.0399  0.8190  0.4942
  996SOD     NA14478   4.287   1.393  10.048  0.7092 -0.3191 -0.3137
  997SOD     NA14479   0.505   1.330  10.253  0.3793  0.2924  0.3086
  998SOD     NA14480   3.614   3.687   1.545  0.0786 -0.0721  0.1278
  999SOD     NA14481   4.478   3.346  17.217  0.0997  0.0619 -0.1242
 1000SOD     NA14482   1.424   0.903  14.247 -0.5865 -0.2132  0.2672
 1001SOD     NA14483   4.437   3.431   9.971 -0.0312 -0.1065 -0.4596
 1002SOD     NA14484   2.359   2.266  13.790 -0.1005 -0.6974  0.5309
 1003SOD     NA14485   4.332   2.139  10.572 -0.0147  0.3718 -0.4987
 1004SOD     NA14486   3.237   1.342  10.967 -0.2595  0.2840 -0.4016
 1005SOD     NA14487   4.594   1.584  12.954 -0.5574  0.0678  0.3930
 1006SOD     NA14488   4.413   3.942   2.020 -0.6634 -0.2381  0.0008
 1007SOD     NA14489   1.180   3.908  12.210 -0.0142  0.1898 -0.4286
 1008SOD     NA14490   1.650   3.129  15.796 -0.0704  0.0532  0.3271
 1009SOD     NA14491   3.780   1.322  13.085  0.1526  0.0161 -0.0031
 1010SOD     NA14492   4.308   1.113   9.923  0.0363 -0.2713  0.3103
 1011SOD     NA14493   2.310   0.830   1.106 -0.4517 -0.0571  0.3697
 1012SOL     OW14494   4.309   2.059   9.998  0.0462 -0.2110  1.1246
 1012SOL    HW114495   4.325   1.987  10.059 -1.4549 -0.9327  0.6554
 1012SOL    HW214496   4.330   2.013   9.917 -1.7042  1.4723 -0.2802
 1013SOL     OW14497   1.259   4.159   3.554  0.4981 -0.3863 -0.5165
 1013SOL    HW114498   1.271   4.117   3.639  0.6974  0.4677 -0.1252
 1013SOL    HW214499   1.351   4.165   3.529  1.0639  2.0289  2.0237
 1014SOL     OW14500   1.454   2.291  17.198  0.4322 -0.1476  0.1208
 1014SOL    HW114501   1.399   2.329  17.267 -1.6297 -1.6848 -0.6900
 1014SOL    HW214502   1.514   2.231  17.243  0.2091 -0.6420 -0.2549
 1015SOL     OW14503   2.236   1.957   9.704  0.2585 -0.0796  0.2955
 1015SOL    HW114504   2.294   2.015   9.753  0.0145 -1.8259  2.6670
 1015SOL    HW214505   2.282   1.955   9.620  0.4663  0.5348  0.3996
 1016SOL     OW14506   0.938   3.538  10.044 -0.0167  0.0462 -0.6915
 1016SOL    HW114507   0.897   3.484   9.977 -0.2372  0.4442 -0.8768
 1016SOL    HW214508   0.940   3.472  10.113 -0.5327  1.3978  0.6210
 1017SOL     OW14509   4.347   4.183   6.485 -0.1360 -0.0621  0.2118
 1017SOL    HW114510   4.314   4.120   6.549 -0.4949  0.0166  0.1057
 1017SOL    HW214511   4.311   4.154   6.401 -0.3878 -1.5403  0.8383
 1018SOL     OW14512   2.579   4.333   7.014  0.0335  0.3936 -0.1517
 1018SOL    HW114513   2.585   4.381   6.931  2.2470 -0.4442 -0.4944
 1018SOL    HW214514   2.645   4.381   7.065  0.2458 -1.6538  1.5178
 1019SOL     OW14515   0.488   3.271   5.790 -0.3103 -0.4573  0.0154
 1019SOL    HW114516   0.520   3.189   5.755 -2.5052 -1.3898  0.1764
 1019SOL    HW214517   0.436   3.243   5.865  0.6003 -3.0289 -0.3394
 1020SOL     OW14518   3.923   4.275  12.583  0.2867 -0.2180  0.2579
 1020SOL    HW114519   3.927   4.359  12.537  0.6686 -0.1783  0.3672
 1020SOL    HW214520   3.902   4.305  12.672  2.2341  0.0990  0.6083
 1021SOL     OW14521   1.421   1.689  17.050  0.0454 -0.1378  0.0942
 1021SOL    HW114522   1.330   1.672  17.025 -0.5367 -0.2641  2.3333
 1021SOL    HW214523   1.414   1.686  17.145 -1.2688 -2.0662 -0.0590
 1022SOL     OW14524   0.463   2.134   3.625 -0.7860 -0.1732  0.0559
 1022SOL    HW114525   0.381   2.088   3.642 -1.4533  1.0440  0.0859
 1022SOL    HW214526   0.493   2.071   3.559  2.1154 -0.5422  1.7226
 1023SOL     OW14527   2.964   1.270   4.232 -0.0237 -0.3431 -1.0863
 1023SOL    HW114528   2.987   1.363   4.231 -0.0737 -0.3145  1.1107
 1023SOL    HW214529   3.007   1.250   4.315 -0.6905 -1.5878 -1.0390
 1024SOL     OW14530   1.293   1.700   6.575  0.7914 -0.4285 -0.0951
 1024SOL    HW114531   1.341   1.631   6.531 -2.3274 -1.6218 -1.6715
 1024SOL    HW214532   1.334   1.707   6.661 -1.6351  0.9629  0.9594
 1025SOL     OW14533   0.334   0.192   8.087 -0.0124  0.4628 -0.1566
 1025SOL    HW114534   0.288   0.147   8.158  0.8668 -0.1677  0.0274
 1025SOL    HW214535   0.389   0.118   8.060  1.5694  2.1969 -1.7069
 1026SOL     OW14536   2.291   1.830   1.896 -0.7298 -0.1784  0.1939
 1026SOL    HW114537   2.263   1.786   1.816 -2.3870 -0.1988  0.7968
 1026SOL    HW214538   2.376   1.867   1.871 -0.3092 -1.3513 -0.1490
 1027SOL     OW14539   4.250   0.231   8.790  0.0082  0.0500  0.1478
 1027SOL    HW114540   4.306   0.188   8.854  2.7854  1.0383 -1.6099
 1027SOL    HW214541   4.302   0.305   8.758 -2.5930  1.1625 -1.5084
 1028SOL     OW14542   3.360   1.798  13.835  0.3136 -0.3146 -0.4010
 1028SOL    HW114543   3.328   1.717  13.794 -1.3455  0.6030 -0.9139
 1028SOL    HW214544   3.285   1.852  13.810  1.9808  1.3466 -1.7973
 1029SOL     OW14545   4.628   3.534  11.319 -0.4135 -0.3714 -0.0023
 1029SOL    HW114546   4.567   3.484  11.372 -2.4089  1.1272 -0.8735
 1029SOL    HW214547   4.589   3.516  11.233  0.8892  0.7344 -0.8237
 1030SOL     OW14548   1.209   0.170   0.484 -0.5177 -0.3106  0.3470
 1030SOL    HW114549   1.224   0.099   0.423 -1.6487  0.4385 -0.7981
 1030SOL    HW214550   1.155   0.227   0.430 -1.3964 -0.8222  0.6778
 1031SOL     OW14551   4.327   0.324   4.878 -0.4907  0.6912  0.1701
 1031SOL    HW114552   4.314   0.332   4.784  1.8028  1.0018 -0.1382
 1031SOL    HW214553   4.304   0.413   4.905 -1.6845  0.1295  1.0344
 1032SOL     OW14554   0.068   3.102   8.410  0.9003 -0.6155 -0.1820
 1032SOL    HW114555   0.055   3.162   8.336 -1.9577 -1.8397 -0.6739
 1032SOL    HW214556   0.028   3.022   8.375  0.8919 -0.4752 -0.4989
 1033SOL     OW14557   1.569   1.475   2.589  0.0834 -0.6667 -0.3080
 1033SOL    HW114558   1.536   1.423   2.515 -2.6666 -2.3112  2.0781
 1033SOL    HW214559   1.664   1.477   2.575 -0.0297  0.1377 -0.9327
 1034SOL     OW14560   0.450   4.607   5.426 -0.0720 -0.1582 -0.4319
 1034SOL    HW114561   0.425   4.519   5.455  2.2499 -0.2429  1.2962
 1034SOL    HW214562   0.517   4.629   5.491 -0.8836 -2.8410  1.3301
 1035SOL     OW14563   3.134   4.515   7.255  0.3104  0.1773 -0.4572
 1035SOL    HW114564   3.140   4.481   7.344 -1.8990 -0.0340 -0.3942
 1035SOL    HW214565   3.080   4.447   7.215  1.8804 -1.8082  0.8299
 1036SOL     OW14566   3.067   1.359  14.253  0.0561 -0.0226 -0.0922
 1036SOL    HW114567   3.007   1.284  14.254  0.5029 -0.3995 -1.6284
 1036SOL    HW214568   3.031   1.391  14.336  1.0776  2.2960 -0.5346
 1037SOL     OW14569   3.673   3.425   7.716  0.1610 -0.3470 -0.3139
 1037SOL    HW114570   3.673   3.378   7.799  0.6772 -0.3510 -0.3179
 1037SOL    HW214571   3.705   3.513   7.737 -0.9034  0.0731 -0.4647
 1038SOL     OW14572   0.330   0.064   8.591  0.2689 -0.1036 -0.1460
 1038SOL    HW114573   0.418   0.028   8.597 -0.1481 -1.1324 -0.2579
 1038SOL    HW214574   0.330   0.100   8.680  0.0518  0.3593 -0.3306
 1039SOL     OW14575   3.160   4.267  15.812 -0.0029  0.0013 -0.0381
 1039SOL    HW114576   3.090   4.241  15.751 -0.2105  0.0512  0.1771
 1039SOL    HW214577   3.143   4.360  15.826  2.4133  0.2939  0.8393
 1040SOL     OW14578   1.474   0.074   4.250  0.1609  0.0750 -0.1631
 1040SOL    HW114579   1.492   4.708   4.220  0.3322  0.1803 -0.3724
 1040SOL    HW214580   1.378   0.070   4.256  0.3396  0.4994  2.8913
 1041SOL     OW14581   3.619   4.145  13.928 -0.3220 -0.7690  0.2515
 1041SOL    HW114582   3.576   4.146  14.013 -1.3907 -0.6715 -0.2869
 1041SOL    HW214583   3.597   4.233  13.900 -0.1876 -0.9967 -0.5749
 1042SOL     OW14584   4.292   0.939   3.562 -0.1304  0.1867 -0.0494
 1042SOL    HW114585   4.312   0.846   3.558 -2.5074 -0.3259  0.1463
 1042SOL    HW214586   4.239   0.948   3.641  1.2460  0.8618  0.8012
 1043SOL     OW14587   1.704   0.113   2.843 -0.4899  0.0366  0.2481
 1043SOL    HW114588   1.703   0.084   2.934 -1.7485 -0.4980  0.0655
 1043SOL    HW214589   1.684   0.028   2.803 -1.9114  0.3207  0.3445
 1044SOL     OW14590   1.992   3.286   6.203 -0.6639  0.3090  0.1814
 1044SOL    HW114591   1.985   3.191   6.211 -1.1377  0.4312  1.3316
 1044SOL    HW214592   1.958   3.302   6.291 -0.7008  1.6930 -0.0743
 1045SOL     OW14593   2.352   1.054   2.049  0.6451 -0.3595 -0.3165
 1045SOL    HW114594   2.439   1.049   2.089 -0.0346 -2.9952  0.8693
 1045SOL    HW214595   2.318   0.973   2.087 -0.3701 -0.6032 -1.7487
 1046SOL     OW14596   2.026   0.666  13.166  0.4785 -0.0994 -0.3648
 1046SOL    HW114597   2.023   0.585  13.115 -0.9880 -0.4133  0.1989
 1046SOL    HW214598   1.974   0.643  13.244  2.3353 -0.9882  0.5997
 1047SOL     OW14599   1.699   3.103  10.871 -0.0823 -0.1418 -0.1242
 1047SOL    HW114600   1.657   3.080  10.788  0.8548 -2.1906 -0.0324
 1047SOL    HW214601   1.756   3.168  10.832  1.4340 -0.4467  1.6051
 1048SOL     OW14602   1.043   2.716  12.145 -0.4515 -0.0347 -0.0363
 1048SOL    HW114603   1.091   2.796  12.126  1.5414 -0.8002  1.7420
 1048SOL    HW214604   1.022   2.678  12.060 -1.9057  0.5360  0.0783
 1049SOL     OW14605   1.542   1.881   2.619  0.3240 -0.1731 -0.2228
 1049SOL    HW114606   1.619   1.830   2.594  0.9887 -0.1628  1.8574
 1049SOL    HW214607   1.511   1.919   2.537 -1.5974  0.6837  0.8875
 1050SOL     OW14608   2.939   4.109   3.554 -0.0383  0.4031  0.0547
 1050SOL    HW114609   2.965   4.017   3.553 -2.2917 -0.2562  2.1567
 1050SOL    HW214610   3.006   4.154   3.501  0.9386 -0.3985  0.6131
 1051SOL     OW14611   2.021   4.065   9.073 -0.0196  0.2809  0.4113
 1051SOL    HW114612   2.036   4.013   9.151  0.0312 -0.6986 -0.2591
 1051SOL    HW214613   1.933   4.031   9.056  0.9545 -0.9003 -2.3723
 1052SOL     OW14614   4.122   2.711   2.265  0.2000  0.2790  0.1768
 1052SOL    HW114615   4.198   2.665   2.230  0.7444  1.2304  0.1055
 1052SOL    HW214616   4.139   2.799   2.232 -5.0722  2.3271  2.8686
 1053SOL     OW14617   1.027   0.441  13.963 -0.1457  0.5089  0.4027
 1053SOL    HW114618   0.958   0.493  13.922 -1.6436 -0.8948  1.1640
 1053SOL    HW214619   0.994   0.355  13.986  0.2443  0.3286  0.2787
 1054SOL     OW14620   4.220   1.666   5.058  0.1544 -0.1226  0.3241
 1054SOL    HW114621   4.194   1.577   5.083 -0.7934 -0.4933 -1.9198
 1054SOL    HW214622   4.211   1.659   4.962  0.0525 -0.1757  0.3369
 1055SOL     OW14623   1.078   3.170  14.962  0.4273 -0.3978 -0.0188
 1055SOL    HW114624   1.163   3.134  14.988  0.5192 -0.1618  0.0078
 1055SOL    HW214625   1.086   3.165  14.866 -0.6369  0.2550 -0.1421
 1056SOL     OW14626   3.495   3.121   3.576  0.9716  0.0784  0.6408
 1056SOL    HW114627   3.575   3.167   3.602 -0.4621  2.7783  0.3201
 1056SOL    HW214628   3.476   3.069   3.654  0.9324  1.2563  1.4292
 1057SOL     OW14629   0.570   0.569   8.848 -0.3153 -0.2422  0.5092
 1057SOL    HW114630   0.548   0.657   8.876  0.6826  0.1736 -0.0147
 1057SOL    HW214631   0.664   0.569   8.867  0.6191  1.2782 -4.1367
 1058SOL     OW14632   3.257   3.896  10.629 -0.0740 -0.1645  0.2365
 1058SOL    HW114633   3.250   3.856  10.542  0.1280 -1.0174  0.6120
 1058SOL    HW214634   3.263   3.988  10.602  0.8280 -0.2448  0.1657
 1059SOL     OW14635   3.946   2.807   3.210  0.3829  0.4306  0.3500
 1059SOL    HW114636   3.964   2.865   3.135  0.3063 -1.8452 -1.4426
 1059SOL    HW214637   3.851   2.819   3.217  0.2291 -0.1882 -0.7451
 1060SOL     OW14638   2.357   2.844   5.869  0.5092 -0.0621 -0.3049
 1060SOL    HW114639   2.384   2.848   5.777  3.4323  3.3105  0.7079
 1060SOL    HW214640   2.405   2.768   5.902  1.6104 -0.2098 -2.2044
 1061SOL     OW14641   2.788   3.371   7.084  0.4263 -0.7491  0.3756
 1061SOL    HW114642   2.733   3.446   7.061  1.9738  0.0490 -0.7383
 1061SOL    HW214643   2.862   3.411   7.128 -1.5114  2.2078  0.9076
 1062SOL     OW14644   1.013   4.413   4.647  0.6757 -0.3540  0.5333
 1062SOL    HW114645   1.034   4.358   4.571 -0.9735 -1.2290  0.7273
 1062SOL    HW214646   1.089   4.472   4.651 -0.1228  0.7031  0.0775
 1063SOL     OW14647   3.464   0.490  15.868 -0.1051  0.3164  0.6158
 1063SOL    HW114648   3.448   0.484  15.774 -0.4294  1.4255  0.5975
 1063SOL    HW214649   3.488   0.583  15.866  2.9651 -0.5059 -0.3962
 1064SOL     OW14650   2.452   3.037   1.867 -0.2348 -0.4700 -0.2833
 1064SOL    HW114651   2.381   3.099   1.882 -0.1364 -0.5671  0.5458
 1064SOL    HW214652   2.528   3.094   1.877  0.2927 -0.9625 -1.4473
 1065SOL     OW14653   2.640   2.501  17.119 -0.1436 -0.2795 -0.2835
 1065SOL    HW114654   2.693   2.459  17.052 -0.9715 -3.3021  0.9704
 1065SOL    HW214655   2.554   2.471  17.090 -0.0665  0.8448 -1.6883
 1066SOL     OW14656   0.667   1.433   1.217 -0.6516  0.7287  0.1092
 1066SOL    HW114657   0.714   1.400   1.140  0.2923  0.3416  0.8456
 1066SOL    HW214658   0.606   1.498   1.182 -0.2201  1.3728  0.5461
 1067SOL     OW14659   2.531   2.055   8.355 -0.1171 -0.2880  0.5863
 1067SOL    HW114660   2.582   1.983   8.393  1.8441  0.4891 -0.5406
 1067SOL    HW214661   2.464   2.074   8.420  0.2637 -2.6271  1.6536
 1068SOL     OW14662   2.505   3.432  12.485  0.0813 -0.5210 -0.2534
 1068SOL    HW114663   2.552   3.498  12.434  0.4065 -0.5715 -0.0226
 1068SOL    HW214664   2.429   3.485  12.509 -0.0435 -0.6764 -0.3025
 1069SOL     OW14665   3.075   4.663   3.396 -0.5593  0.1324  0.4173
 1069SOL    HW114666   3.106   4.700   3.313  1.1365 -0.1263  0.9334
 1069SOL    HW214667   3.146   4.681   3.457  0.5733 -0.6352 -0.6801
 1070SOL     OW14668   2.492   1.363   5.611  0.5897  0.2716  0.3033
 1070SOL    HW114669   2.586   1.354   5.596  0.4712  1.5589 -1.1461
 1070SOL    HW214670   2.489   1.388   5.704  0.9298  2.1280 -0.1871
 1071SOL     OW14671   3.148   0.798   5.948 -0.2509 -0.2963 -0.2431
 1071SOL    HW114672   3.180   0.885   5.974 -1.0186 -0.2089  0.4010
 1071SOL    HW214673   3.200   0.800   5.868  0.7912  0.0882  0.4512
 1072SOL     OW14674   1.834   1.266  11.344 -0.5495  0.0171 -0.0629
 1072SOL    HW114675   1.808   1.321  11.418 -0.7857  1.5804 -1.3026
 1072SOL    HW214676   1.761   1.206  11.330  0.5946 -2.0767  2.9462
 1073SOL     OW14677   0.355   0.412   8.949 -0.3436  0.5060 -0.4388
 1073SOL    HW114678   0.430   0.464   8.919  0.8547 -1.3319 -0.6016
 1073SOL    HW214679   0.352   0.437   9.041  2.3296  0.4580 -0.3400
 1074SOL     OW14680   1.516   3.832   7.851 -0.2445 -0.1962  0.3289
 1074SOL    HW114681   1.604   3.866   7.834  1.1484 -2.9366  2.0339
 1074SOL    HW214682   1.535   3.810   7.942 -0.9778  1.6169  0.9184
 1075SOL     OW14683   1.119   3.934   9.062  0.2657 -0.1900  0.1557
 1075SOL    HW114684   1.038   3.928   9.012 -0.1656  1.5595  0.6584
 1075SOL    HW214685   1.105   3.858   9.119 -0.5474  0.0866  0.3207
 1076SOL     OW14686   2.540   2.152   7.619  0.3526  0.0071 -0.0293
 1076SOL    HW114687   2.630   2.119   7.616 -0.1168 -1.5193  2.5821
 1076SOL    HW214688   2.502   2.096   7.688  1.8896 -0.4324  0.4560
 1077SOL     OW14689   2.230   3.538   3.265  0.5071 -0.1253 -0.6841
 1077SOL    HW114690   2.269   3.618   3.301 -0.5374  1.2633 -2.6574
 1077SOL    HW214691   2.210   3.562   3.175 -2.1608 -1.0113 -0.3152
 1078SOL     OW14692   0.492   2.027   0.223 -0.2145  0.1855  0.0145
 1078SOL    HW114693   0.466   2.117   0.207 -0.6542  0.2920  1.3293
 1078SOL    HW214694   0.491   1.987   0.136 -1.1910 -2.0748  1.0348
 1079SOL     OW14695   3.348   0.186  17.205 -0.0301 -0.8025 -0.4423
 1079SOL    HW114696   3.285   0.116  17.188 -1.7882  0.7433 -0.2700
 1079SOL    HW214697   3.416   0.156  17.144  0.9851 -0.6680  0.6243
 1080SOL     OW14698   4.657   0.106   1.758 -0.1945 -0.4368  0.2761
 1080SOL    HW114699   4.597   0.172   1.792 -0.1915 -0.6808  0.7490
 1080SOL    HW214700   4.597   0.079   1.688 -0.3665 -0.1808  0.3250
 1081SOL     OW14701   1.220   1.287   4.269 -0.1224  0.1938 -0.0447
 1081SOL    HW114702   1.294   1.262   4.324  1.0297  1.7658 -0.8856
 1081SOL    HW214703   1.252   1.276   4.179 -1.1973 -2.2833 -0.1190
 1082SOL     OW14704   1.838   1.681  13.124 -0.3268  0.4258  0.2624
 1082SOL    HW114705   1.897   1.611  13.150  1.3276  2.0875  0.9921
 1082SOL    HW214706   1.900   1.740  13.082  0.0308  1.6525  2.4870
 1083SOL     OW14707   2.732   4.352   9.089 -0.4826  0.2599 -0.1587
 1083SOL    HW114708   2.704   4.425   9.035  1.7066  2.4606  1.6521
 1083SOL    HW214709   2.807   4.322   9.038 -0.6837  1.0601 -0.9245
 1084SOL     OW14710   4.061   1.304   6.520 -0.4693  0.3524 -0.2866
 1084SOL    HW114711   4.102   1.387   6.495  0.7600 -0.2621 -0.2754
 1084SOL    HW214712   4.138   1.257   6.550  1.1624  3.1283 -0.1484
 1085SOL     OW14713   1.267   0.741  15.689 -0.0562  0.2331 -0.0034
 1085SOL    HW114714   1.359   0.726  15.670 -0.4957 -0.6523 -1.4374
 1085SOL    HW214715   1.271   0.837  15.688 -1.4063  0.2981  0.4137
 1086SOL     OW14716   1.656   4.558   2.381  0.3424  0.6794 -0.1019
 1086SOL    HW114717   1.623   4.490   2.440 -0.0891  0.9052 -0.0784
 1086SOL    HW214718   1.571   4.596   2.357 -0.3284 -0.2844  0.7477
 1087SOL     OW14719   4.400   4.218  16.775 -0.6384 -0.1160  0.1928
 1087SOL    HW114720   4.441   4.234  16.860 -1.4581  0.7011  0.4294
 1087SOL    HW214721   4.307   4.224  16.796 -1.3208  0.0096 -2.9092
 1088SOL     OW14722   0.071   3.601   1.959  0.1536  0.9353 -0.3886
 1088SOL    HW114723   0.127   3.542   2.009 -0.3000 -1.4667 -2.7358
 1088SOL    HW214724   0.096   3.582   1.868  1.2177  0.7043 -0.0515
 1089SOL     OW14725   0.631   1.647  11.385  0.2332  0.8317  0.6833
 1089SOL    HW114726   0.652   1.735  11.416  1.2553  0.9145 -0.2634
 1089SOL    HW214727   0.551   1.619  11.430  0.1299 -1.8455 -1.1944
 1090SOL     OW14728   0.979   3.293   7.401 -0.0147 -0.5006  0.4526
 1090SOL    HW114729   0.966   3.210   7.448 -3.5406 -1.0282 -1.4327
 1090SOL    HW214730   0.892   3.331   7.393 -0.5964 -1.8193  0.4974
 1091SOL     OW14731   1.797   2.874   5.296  0.4850 -0.0536 -0.0480
 1091SOL    HW114732   1.864   2.943   5.298 -2.3866  2.6521  1.6699
 1091SOL    HW214733   1.846   2.794   5.313 -0.2049 -0.8581 -1.8736
 1092SOL     OW14734   0.548   0.561   3.584  0.0757  0.0464 -0.0522
 1092SOL    HW114735   0.623   0.585   3.529  1.4772  1.9763  2.6616
 1092SOL    HW214736   0.488   0.513   3.527  1.7957 -2.1748  0.0149
 1093SOL     OW14737   3.055   1.883   3.854  0.0785 -0.2119  0.5948
 1093SOL    HW114738   3.086   1.808   3.803 -0.6809  1.6032 -2.5518
 1093SOL    HW214739   2.962   1.874   3.837  0.4201 -0.1301 -1.2894
 1094SOL     OW14740   0.189   2.295   7.014 -0.3036 -0.0480 -0.7519
 1094SOL    HW114741   0.209   2.201   7.012  1.8185  0.3571  1.1012
 1094SOL    HW214742   0.136   2.295   6.935  0.9053  1.4688 -1.5481
 1095SOL     OW14743   1.566   1.273   3.304  0.3096 -0.1778 -0.5152
 1095SOL    HW114744   1.642   1.232   3.346  0.8093  0.2962 -0.9574
 1095SOL    HW214745   1.586   1.285   3.211 -1.1023  0.7670 -0.6913
 1096SOL     OW14746   3.890   2.164   8.888 -0.1059  0.0777  0.4521
 1096SOL    HW114747   3.977   2.136   8.859 -2.0302 -1.5813 -3.7073
 1096SOL    HW214748   3.848   2.079   8.901 -0.8190 -0.1399 -3.3317
 1097SOL     OW14749   1.561   3.650   4.652  0.5975  0.5938  0.3257
 1097SOL    HW114750   1.624   3.706   4.606  1.8768 -1.8810 -0.9156
 1097SOL    HW214751   1.486   3.651   4.593 -0.4604 -3.3405  1.5916
 1098SOL     OW14752   4.606   1.491   0.454  0.3175 -0.1110  0.2867
 1098SOL    HW114753   4.648   1.480   0.368 -1.0508  0.6591 -0.4693
 1098SOL    HW214754   4.673   1.542   0.500  0.5870  0.9289 -1.2324
 1099SOL     OW14755   1.365   1.907   0.233  0.0319 -0.1072 -0.4225
 1099SOL    HW114756   1.414   1.981   0.269 -1.8911  1.2445 -0.5638
 1099SOL    HW214757   1.290   1.948   0.189  0.7856 -0.2104 -1.8075
 1100SOL     OW14758   0.811   2.856   5.978  0.2103  0.3724  0.0189
 1100SOL    HW114759   0.750   2.788   5.950 -1.1847  1.5887  0.1075
 1100SOL    HW214760   0.889   2.808   6.006  1.3534  2.3827  0.2867
 1101SOL     OW14761   4.583   2.484   4.853 -0.1605  0.0274 -0.0363
 1101SOL    HW114762   4.625   2.470   4.768 -2.1752  0.5092 -1.1055
 1101SOL    HW214763   4.495   2.506   4.824 -0.4878 -1.6953 -0.3175
 1102SOL     OW14764   1.335   2.646   2.965 -0.3021 -0.0154 -0.0990
 1102SOL    HW114765   1.285   2.582   3.015 -1.6059  0.0047 -1.3679
 1102SOL    HW214766   1.344   2.597   2.883 -1.0553 -0.8270  0.3116
 1103SOL     OW14767   4.705   0.104  16.500 -0.1005 -0.4441 -0.2096
 1103SOL    HW114768   4.643   0.139  16.564  0.8096  3.1610 -1.3051
 1103SOL    HW214769   4.646   0.041  16.458 -2.2153 -0.0218  2.1270
 1104SOL     OW14770   3.960   2.419   7.801 -0.1264 -0.3202 -0.5474
 1104SOL    HW114771   3.957   2.449   7.891  0.0282 -2.4910  0.1785
 1104SOL    HW214772   3.889   2.468   7.760 -0.5455 -2.4498 -2.3879
 1105SOL     OW14773   3.481   0.744   3.604 -0.5655  0.0640 -0.6189
 1105SOL    HW114774   3.573   0.766   3.589 -0.0442 -1.1768  0.8918
 1105SOL    HW214775   3.453   0.812   3.666 -0.5561 -1.4198  0.9965
 1106SOL     OW14776   2.780   2.074   6.674 -0.2092 -0.0137 -0.4906
 1106SOL    HW114777   2.734   2.090   6.756 -1.7649 -1.6128 -1.0688
 1106SOL    HW214778   2.725   2.111   6.606 -0.2226  1.2350  0.1983
 1107SOL     OW14779   0.692   4.089   6.979 -0.1072  0.2246 -0.1966
 1107SOL    HW114780   0.735   4.106   7.062 -2.2979 -0.3119  1.0480
 1107SOL    HW214781   0.686   3.994   6.979  1.2032  0.1629  0.9005
 1108SOL     OW14782   1.106   2.833   8.100  0.6954  0.3030  0.1681
 1108SOL    HW114783   1.067   2.912   8.138  2.5934  1.1792  0.2994
 1108SOL    HW214784   1.036   2.779   8.063  2.3008 -1.7080  0.0756
 1109SOL     OW14785   1.611   2.115  16.915 -0.1953 -0.0341  0.1629
 1109SOL    HW114786   1.673   2.095  16.985 -0.2719  0.4765  0.3783
 1109SOL    HW214787   1.566   2.030  16.912 -0.1507 -0.0370 -0.3452
 1110SOL     OW14788   1.953   4.587   7.611  0.5737  0.6162  0.3833
 1110SOL    HW114789   1.913   4.520   7.666  0.1107  0.5723 -0.0072
 1110SOL    HW214790   1.944   4.552   7.522  0.4606 -0.8602  0.9711
 1111SOL     OW14791   2.114   0.474   6.538 -0.0821  0.0915  0.4473
 1111SOL    HW114792   2.065   0.557   6.537 -0.1006  0.1058  2.0979
 1111SOL    HW214793   2.161   0.488   6.456 -1.8361  0.0958 -0.5718
 1112SOL     OW14794   1.972   4.118   6.119  0.2126 -0.1618  0.2036
 1112SOL    HW114795   2.005   4.151   6.203 -2.0925  0.3788  0.8863
 1112SOL    HW214796   1.943   4.032   6.149  1.7447 -0.2190  1.5312
 1113SOL     OW14797   3.887   3.612  13.871 -0.5985 -0.4939 -0.0133
 1113SOL    HW114798   3.896   3.669  13.948  0.3666 -0.2801 -0.2795
 1113SOL    HW214799   3.940   3.651  13.802 -1.4915  1.1856  0.2581
 1114SOL     OW14800   1.656   3.479   5.959 -0.0851 -0.0827 -0.8135
 1114SOL    HW114801   1.562   3.488   5.945 -0.0841 -0.8710 -1.3193
 1114SOL    HW214802   1.674   3.500   5.868  4.1331 -1.4446 -0.2774
 1115SOL     OW14803   1.175   2.292   3.475  0.2857 -0.8669  0.2344
 1115SOL    HW114804   1.206   2.381   3.458  0.2965 -0.9162 -0.0037
 1115SOL    HW214805   1.256   2.242   3.483  2.0309  1.8543 -0.1173
 1116SOL     OW14806   2.641   2.969   4.226 -0.1791 -0.3581 -0.5925
 1116SOL    HW114807   2.591   2.890   4.207  0.9596 -1.4419  1.0099
 1116SOL    HW214808   2.728   2.941   4.199  0.4908 -1.4023  2.6269
 1117SOL     OW14809   4.022   3.831   2.634  0.6517  0.2208  0.3527
 1117SOL    HW114810   4.031   3.867   2.722 -0.4131  2.4934 -0.4492
 1117SOL    HW214811   4.049   3.911   2.588  1.7894  0.0515  0.7424
 1118SOL     OW14812   0.467   0.808   1.342  0.4285 -0.3686 -0.2119
 1118SOL    HW114813   0.553   0.848   1.352 -1.2186  3.0651  0.0922
 1118SOL    HW214814   0.418   0.886   1.367 -0.3745 -1.1979  0.8552
 1119SOL     OW14815   2.081   3.933   5.397  0.3323 -0.6885 -0.0703
 1119SOL    HW114816   2.057   3.984   5.473  2.2123 -2.3199  1.6300
 1119SOL    HW214817   2.003   3.878   5.382 -0.6099  0.7880 -0.5767
 1120SOL     OW14818   2.175   1.675  10.120 -0.1365  0.1566  0.3456
 1120SOL    HW114819   2.249   1.723  10.083  0.2967 -1.4252 -0.8252
 1120SOL    HW214820   2.098   1.726  10.096 -0.7493 -0.2451  1.4519
 1121SOL     OW14821   1.397   0.365  14.261 -0.1787  0.9886 -0.6969
 1121SOL    HW114822   1.429   0.276  14.276  0.7620  0.9902 -2.6199
 1121SOL    HW214823   1.333   0.357  14.190 -0.2563  2.0537 -0.7378
 1122SOL     OW14824   3.180   3.687   5.824 -0.0469  0.2427 -0.2141
 1122SOL    HW114825   3.175   3.782   5.831  0.7682  0.4709 -2.4399
 1122SOL    HW214826   3.222   3.664   5.907  0.3657 -0.9349 -0.7380
 1123SOL     OW14827   2.166   4.704   7.251  0.2447 -0.0577  0.0783
 1123SOL    HW114828   2.208   0.057   7.291  2.8465 -1.1814 -0.4810
 1123SOL    HW214829   2.092   0.023   7.207 -0.8527 -1.7510  0.3063
 1124SOL     OW14830   4.427   3.655   6.312  0.4068 -0.4406  0.0819
 1124SOL    HW114831   4.458   3.746   6.308  0.2748 -0.3682  0.7390
 1124SOL    HW214832   4.350   3.671   6.366  0.6429  1.1019 -0.0349
 1125SOL     OW14833   2.924   4.337   0.575  0.2769  0.3441  0.1829
 1125SOL    HW114834   2.986   4.300   0.512 -0.1100 -0.9057  0.5275
 1125SOL    HW214835   2.899   4.258   0.623  0.6026 -0.3499 -0.7914
 1126SOL     OW14836   3.858   2.304   4.072  0.8996  0.1902 -0.0244
 1126SOL    HW114837   3.810   2.248   4.011 -0.8651  1.0546  0.5687
 1126SOL    HW214838   3.892   2.243   4.137  1.4670 -0.4147 -0.8943
 1127SOL     OW14839   0.865   3.847   7.882  0.3288 -0.5783  0.5065
 1127SOL    HW114840   0.914   3.927   7.902  1.0732 -0.6792 -0.9326
 1127SOL    HW214841   0.931   3.780   7.898  0.8543 -1.0915 -3.7400
 1128SOL     OW14842   4.606   2.458   6.030 -0.2351 -0.1961  0.2885
 1128SOL    HW114843   4.544   2.387   6.047  2.5651 -2.5010  0.9221
 1128SOL    HW214844   4.661   2.459   6.108 -2.3838 -0.8716  1.8308
 1129SOL     OW14845   3.528   3.222   7.556 -0.1554 -0.1119  0.2903
 1129SOL    HW114846   3.571   3.278   7.621 -2.7444  1.3775  0.7051
 1129SOL    HW214847   3.437   3.207   7.580 -0.0747 -2.2305 -0.7463
 1130SOL     OW14848   3.205   2.678  17.299 -0.1800  0.5064  0.0147
 1130SOL    HW114849   3.136   2.683  17.233  0.6684 -1.8104 -1.0569
 1130SOL    HW214850   3.249   2.762  17.283 -0.5558  0.2095 -2.4921
 1131SOL     OW14851   0.529   4.576   1.530  0.0316 -0.1629 -0.9332
 1131SOL    HW114852   0.580   4.623   1.464 -0.0741 -1.0123 -1.6182
 1131SOL    HW214853   0.466   4.645   1.554 -2.6662 -3.4966  1.4751
 1132SOL     OW14854   3.509   0.097   2.323 -0.3184 -0.5616  0.2346
 1132SOL    HW114855   3.514   0.192   2.310 -0.3032 -0.6283 -0.2323
 1132SOL    HW214856   3.580   0.070   2.265  1.3325  1.1303  1.4753
 1133SOL     OW14857   4.188   0.619  13.064  0.4792 -0.0166  0.1682
 1133SOL    HW114858   4.123   0.618  12.994 -0.2630  1.8981  0.8403
 1133SOL    HW214859   4.169   0.536  13.109  0.7573  1.2677  2.7009
 1134SOL     OW14860   0.732   4.617  12.887  0.0752  0.3602 -0.1596
 1134SOL    HW114861   0.814   4.606  12.935 -0.3737 -1.4247  0.1886
 1134SOL    HW214862   0.681   4.656  12.958  1.2703  1.3551  0.1608
 1135SOL     OW14863   1.132   2.241  15.087 -0.4279 -0.6600  0.7237
 1135SOL    HW114864   1.068   2.301  15.125  1.3046  2.0350 -0.6606
 1135SOL    HW214865   1.139   2.275  14.998 -1.4036 -0.6329  0.6532
 1136SOL     OW14866   3.508   0.977   7.030 -0.2836 -0.2243 -0.1642
 1136SOL    HW114867   3.587   0.967   6.977  1.9563 -0.0120  3.0982
 1136SOL    HW214868   3.485   1.068   7.010 -3.2469 -0.6827  1.1007
 1137SOL     OW14869   2.681   1.060   2.148  0.6887 -0.3892 -0.3976
 1137SOL    HW114870   2.678   1.008   2.068  0.7591 -2.4523  0.9388
 1137SOL    HW214871   2.708   1.150   2.130 -2.7668  0.4480 -1.4427
 1138SOL     OW14872   0.898   1.658  13.251 -0.3837 -0.3913  0.4924
 1138SOL    HW114873   0.837   1.699  13.190 -1.1915  0.1831  1.6823
 1138SOL    HW214874   0.848   1.580  13.277 -0.0738 -1.9319 -3.4657
 1139SOL     OW14875   2.927   1.896   2.156  0.1117  0.3326  0.2474
 1139SOL    HW114876   2.907   1.974   2.208  1.7004  0.4851  0.6363
 1139SOL    HW214877   2.982   1.852   2.221  1.3330  0.9093 -0.3846
 1140SOL     OW14878   2.414   1.735   2.977 -0.5758 -0.2061  0.4391
 1140SOL    HW114879   2.446   1.798   3.042 -0.1775  2.1331 -2.0104
 1140SOL    HW214880   2.400   1.799   2.906 -0.0611  1.1110  1.5266
 1141SOL     OW14881   0.074   0.602   3.615  0.5677 -0.0786 -0.1956
 1141SOL    HW114882   0.063   0.556   3.698 -0.6031 -0.5600 -0.6141
 1141SOL    HW214883   0.156   0.648   3.627 -0.8321  1.7830  2.2479
 1142SOL     OW14884   3.015   0.803  16.883  0.0864  0.1760  0.0162
 1142SOL    HW114885   3.108   0.809  16.861  0.2194 -2.6163 -0.1102
 1142SOL    HW214886   3.017   0.750  16.963 -0.7963 -2.5993 -1.8084
 1143SOL     OW14887   1.094   4.541   3.091  0.2696 -0.1227 -0.2162
 1143SOL    HW114888   1.019   4.488   3.118  0.0193  0.2239 -0.2335
 1143SOL    HW214889   1.050   4.605   3.035 -0.1987 -1.2323 -1.1353
 1144SOL     OW14890   2.828   0.744   8.010 -0.1461 -0.1145 -0.2042
 1144SOL    HW114891   2.821   0.657   7.970 -0.6895 -0.1828  0.0320
 1144SOL    HW214892   2.738   0.775   7.997 -0.4894 -0.5478  1.1392
 1145SOL     OW14893   4.072   2.883   7.103  0.4613  0.0096  0.2216
 1145SOL    HW114894   4.032   2.928   7.178 -1.9446 -0.4287 -0.7766
 1145SOL    HW214895   4.157   2.926   7.092 -0.0784  1.2351  0.8680
 1146SOL     OW14896   1.330   3.681   1.811  0.8586  0.2113  0.0787
 1146SOL    HW114897   1.368   3.753   1.761  1.8360  0.6766  1.4930
 1146SOL    HW214898   1.292   3.629   1.740  1.3661  0.8643 -0.6703
 1147SOL     OW14899   3.855   2.063   3.385  0.3667  0.3302  0.1479
 1147SOL    HW114900   3.861   2.007   3.462 -0.8209  0.5181  0.3704
 1147SOL    HW214901   3.844   1.993   3.320  0.3055  0.5931 -0.1216
 1148SOL     OW14902   1.864   0.900  17.134  0.0865  0.3276 -0.5371
 1148SOL    HW114903   1.776   0.908  17.172  0.9852  0.7424  1.4745
 1148SOL    HW214904   1.840   0.872  17.046  2.4857 -0.5795 -0.9089
 1149SOL     OW14905   2.592   0.562   6.248 -0.2494  0.1644 -0.3821
 1149SOL    HW114906   2.539   0.521   6.180 -1.7430  0.6133  0.5161
 1149SOL    HW214907   2.683   0.537   6.229 -0.2156 -2.6172  3.7124
 1150SOL     OW14908   0.438   2.372   0.963  0.3283 -0.1654  0.4122
 1150SOL    HW114909   0.363   2.333   1.007  1.2278 -2.4181 -0.0845
 1150SOL    HW214910   0.492   2.395   1.039 -1.2590 -0.1023  1.5182
 1151SOL     OW14911   2.840   3.505   1.898  0.0717 -0.2006 -0.2998
 1151SOL    HW114912   2.811   3.547   1.817 -1.9034 -1.5733 -0.3085
 1151SOL    HW214913   2.757   3.506   1.947  0.1466  1.9475 -0.1848
 1152SOL     OW14914   3.964   2.151   5.232 -0.0095 -0.5374  0.0988
 1152SOL    HW114915   3.946   2.132   5.140 -0.0127  1.7943 -0.3911
 1152SOL    HW214916   3.880   2.186   5.261  0.7437  2.6078 -1.3837
 1153SOL     OW14917   2.140   4.362  10.182 -0.5367 -0.0052 -1.2745
 1153SOL    HW114918   2.100   4.305  10.117 -1.0678 -0.3189 -0.6700
 1153SOL    HW214919   2.215   4.393  10.132 -1.5273  0.7436 -2.3066
 1154SOL     OW14920   3.521   3.036   4.954  0.4811  0.0268 -0.1042
 1154SOL    HW114921   3.501   3.111   5.011 -0.5225 -1.4970  1.5444
 1154SOL    HW214922   3.551   3.076   4.872  0.2771 -0.9181 -0.6415
 1155SOL     OW14923   1.403   4.389  16.961 -0.6188 -0.0742  0.4488
 1155SOL    HW114924   1.483   4.440  16.946  0.1427 -2.5662 -3.8880
 1155SOL    HW214925   1.411   4.337  16.881 -0.6583 -1.4560  1.3450
 1156SOL     OW14926   1.263   2.572   1.194  0.1872  0.4559  0.0609
 1156SOL    HW114927   1.168   2.576   1.206 -0.0845  0.8580 -2.2487
 1156SOL    HW214928   1.279   2.478   1.199  1.0432  0.5775 -0.5407
 1157SOL     OW14929   3.321   4.018   4.181 -0.2621  0.0541  0.3501
 1157SOL    HW114930   3.238   4.045   4.219  0.1863 -0.3958  1.6673
 1157SOL    HW214931   3.302   4.029   4.088 -1.3690  1.1228  0.7030
 1158SOL     OW14932   3.819   0.020  13.991  0.3533 -0.6732 -0.9534
 1158SOL    HW114933   3.755   0.041  13.923  0.5582  0.9124 -0.6461
 1158SOL    HW214934   3.799   4.653  14.017 -1.9883  0.2146  0.2660
 1159SOL     OW14935   2.592   2.627   6.240 -0.1605 -0.2197  0.2284
 1159SOL    HW114936   2.566   2.542   6.276  0.0244 -0.2794  0.2254
 1159SOL    HW214937   2.509   2.671   6.222  0.4225  0.9688  0.4347
 1160SOL     OW14938   2.520   4.011  16.810  0.0289 -0.7616  0.5758
 1160SOL    HW114939   2.502   3.968  16.894  0.6347  0.0381  1.1077
 1160SOL    HW214940   2.503   3.929  16.763  1.1717 -0.7694  0.1769
 1161SOL     OW14941   1.503   0.160  16.617  0.0165  0.4455 -0.3291
 1161SOL    HW114942   1.571   0.107  16.659 -0.6022 -0.1703 -0.0950
 1161SOL    HW214943   1.555   0.224  16.569  3.0179  0.7198  3.2687
 1162SOL     OW14944   3.264   1.873  13.475  0.7144 -0.1356 -0.4316
 1162SOL    HW114945   3.260   1.777  13.468 -0.3350 -0.2086  1.1174
 1162SOL    HW214946   3.348   1.894  13.435  0.3935 -0.2098 -1.1400
 1163SOL     OW14947   0.382   4.478   4.841  0.0074 -0.0431  0.3839
 1163SOL    HW114948   0.452   4.541   4.827 -2.6680  2.8540  0.1134
 1163SOL    HW214949   0.367   4.481   4.935  0.2861 -2.4784  0.5161
 1164SOL     OW14950   0.741   0.492   7.028  0.2052  0.3695 -0.2185
 1164SOL    HW114951   0.761   0.486   6.935 -1.8847 -2.5560 -0.5146
 1164SOL    HW214952   0.744   0.400   7.056 -2.0809  0.4107  0.1609
 1165SOL     OW14953   4.557   1.664  14.432  0.3318 -0.2542 -0.0268
 1165SOL    HW114954   4.488   1.625  14.486 -1.2061  0.2938 -1.5926
 1165SOL    HW214955   4.513   1.672  14.348 -0.8550  0.2670  0.6432
 1166SOL     OW14956   1.649   1.375   4.913 -0.5098  0.6067 -0.0778
 1166SOL    HW114957   1.590   1.316   4.866  1.6360 -1.6039  0.0168
 1166SOL    HW214958   1.695   1.308   4.962 -1.5472  0.7740  1.1269
 1167SOL     OW14959   2.590   3.132  13.363  0.1451  0.7851  0.1329
 1167SOL    HW114960   2.574   3.066  13.430  0.6652 -0.3565 -0.8657
 1167SOL    HW214961   2.523   3.199  13.380 -0.0960 -0.1505  2.7821
 1168SOL     OW14962   2.743   2.941   8.983 -0.4248  0.1819  0.1559
 1168SOL    HW114963   2.729   2.915   9.074 -1.7910 -0.4168 -0.2204
 1168SOL    HW214964   2.658   2.942   8.938  1.0862  0.7999 -2.7368
 1169SOL     OW14965   3.121   0.398  11.725 -0.4170 -0.4075 -0.1108
 1169SOL    HW114966   3.215   0.411  11.737 -0.4869 -1.6187  1.7694
 1169SOL    HW214967   3.094   0.357  11.806 -0.1487  0.8542  0.6269
 1170SOL     OW14968   2.863   2.274   4.937 -0.1980 -0.1859  0.5839
 1170SOL    HW114969   2.845   2.180   4.942 -1.0225 -0.0995 -0.7809
 1170SOL    HW214970   2.782   2.310   4.973 -0.7539 -0.4893 -0.3788
 1171SOL     OW14971   1.334   0.599   3.695  0.3908 -0.3722  0.4306
 1171SOL    HW114972   1.268   0.563   3.635 -1.1083  2.1681  0.5626
 1171SOL    HW214973   1.386   0.519   3.692  1.1028  0.0730  0.9690
 1172SOL     OW14974   3.391   1.951   7.899  0.1035  0.5407  0.5477
 1172SOL    HW114975   3.454   1.937   7.969  0.8212 -1.3135 -0.4798
 1172SOL    HW214976   3.338   2.026   7.925 -0.2431  1.2072 -2.0917
 1173SOL     OW14977   2.868   1.918  16.550  0.3167  0.2146  0.4837
 1173SOL    HW114978   2.864   1.903  16.645 -2.5641 -3.2158 -0.1760
 1173SOL    HW214979   2.889   2.011  16.545 -2.6249  0.9219  1.2452
 1174SOL     OW14980   2.886   3.930  16.924 -0.2676  0.2290  0.5066
 1174SOL    HW114981   2.887   3.898  16.834  0.2753  3.2412 -0.5448
 1174SOL    HW214982   2.941   4.008  16.928 -0.6236  0.4708  0.6032
 1175SOL     OW14983   4.507   4.082   7.200  0.5786 -0.3684 -0.4478
 1175SOL    HW114984   4.578   4.098   7.262  0.0405  3.1027 -0.7233
 1175SOL    HW214985   4.453   4.161   7.209  0.5928 -0.4518  0.3921
 1176SOL     OW14986   3.374   4.372   0.859 -0.1771 -0.0394 -0.1996
 1176SOL    HW114987   3.373   4.404   0.949 -1.7351  0.7872 -0.5052
 1176SOL    HW214988   3.281   4.371   0.837 -0.3888 -1.9576  0.7488
 1177SOL     OW14989   1.022   1.647   1.186 -0.2171 -0.7240 -0.4909
 1177SOL    HW114990   0.970   1.727   1.192  2.5941  0.8870  2.2988
 1177SOL    HW214991   1.003   1.602   1.268 -1.5242  2.1064  0.7433
 1178SOL     OW14992   3.994   3.456   7.428 -0.3203 -0.4429 -0.2489
 1178SOL    HW114993   4.018   3.535   7.477  0.5794 -0.1294 -1.1929
 1178SOL    HW214994   3.899   3.455   7.440 -0.3176 -3.5918 -0.5731
 1179SOL     OW14995   2.248   4.674   0.067 -0.0377  0.3245  0.3207
 1179SOL    HW114996   2.198   0.007   0.008 -2.3035 -1.3278  0.6832
 1179SOL    HW214997   2.235   0.016   0.136  1.9823 -1.0690  2.0232
 1180SOL     OW14998   1.767   0.009   6.292  0.0465  0.4529  0.3939
 1180SOL    HW114999   1.678   0.035   6.316 -0.7997 -0.6403 -1.5053
 1180SOL    HW215000   1.775   4.648   6.336  1.4097  0.7602  0.7381
 1181SOL     OW15001   3.860   0.751   8.565 -0.5407  0.3190  0.7398
 1181SOL    HW115002   3.849   0.844   8.543  1.0145  0.7486  1.8341
 1181SOL    HW215003   3.769   0.721   8.563 -0.9436  1.4857  1.2635
 1182SOL     OW15004   0.172   0.575   5.474  0.0031  0.2995 -0.3515
 1182SOL    HW115005   0.236   0.646   5.465  0.1260  0.2074 -0.1969
 1182SOL    HW215006   0.209   0.510   5.414 -0.0140 -0.5122  0.5262
 1183SOL     OW15007   3.899   2.013   7.296  0.2914 -0.4566  0.4310
 1183SOL    HW115008   3.942   2.019   7.211 -1.5377  2.5477 -0.2891
 1183SOL    HW215009   3.906   2.097   7.343 -1.1597 -0.4489  0.6261
 1184SOL     OW15010   4.440   1.709   1.263 -0.7452 -0.4688 -0.1588
 1184SOL    HW115011   4.352   1.747   1.262  0.8630  3.3359  0.3802
 1184SOL    HW215012   4.437   1.651   1.187 -0.4574  0.4885 -0.9010
 1185SOL     OW15013   0.290   1.091  16.690 -0.0772 -0.0949 -0.4993
 1185SOL    HW115014   0.216   1.082  16.751  0.6834 -1.3414  0.2490
 1185SOL    HW215015   0.342   1.018  16.723  0.2234  0.9269  1.2875
 1186SOL     OW15016   4.304   1.913   7.232  0.3899 -0.0552  0.1918
 1186SOL    HW115017   4.297   2.004   7.261  0.2309 -0.2722  0.8465
 1186SOL    HW215018   4.344   1.928   7.146  0.1052  2.1167  0.4456
 1187SOL     OW15019   0.918   1.893   6.024 -0.3823  0.0450  0.1897
 1187SOL    HW115020   0.908   1.985   6.003 -0.2232  0.2856  1.1481
 1187SOL    HW215021   0.972   1.894   6.103  1.5511 -0.4114 -1.1317
 1188SOL     OW15022   0.035   2.253   0.128  0.3435 -0.0767  0.3095
 1188SOL    HW115023   0.018   2.308   0.052  0.1451  0.5208  0.7883
 1188SOL    HW215024   4.688   2.275   0.188 -0.2831 -1.8103  0.2141
 1189SOL     OW15025   0.278   1.939  12.587  0.0273  0.2002 -1.1361
 1189SOL    HW115026   0.346   1.918  12.651 -0.2425  1.7726 -0.3411
 1189SOL    HW215027   0.309   1.898  12.506  1.2877 -0.8077 -0.1506
 1190SOL     OW15028   0.053   1.745   9.329  0.1454 -0.3666  0.4707
 1190SOL    HW115029   4.683   1.732   9.310  0.1367  2.8487 -1.6946
 1190SOL    HW215030   0.092   1.674   9.278  1.3024 -0.0078  0.8762
 1191SOL     OW15031   1.676   2.372   3.814  0.3845  0.5295  0.6005
 1191SOL    HW115032   1.695   2.437   3.882 -1.9858 -0.1626  1.9505
 1191SOL    HW215033   1.645   2.304   3.874 -0.6118  0.0093 -0.5055
 1192SOL     OW15034   4.001   4.242   2.025  0.1300  0.4256  0.1655
 1192SOL    HW115035   3.942   4.232   2.099 -0.8707  1.7108 -0.4635
 1192SOL    HW215036   3.943   4.281   1.960 -0.1602 -0.7073 -0.2435
 1193SOL     OW15037   1.490   4.286  10.477  0.0831 -0.0303 -0.3682
 1193SOL    HW115038   1.555   4.356  10.488 -1.5991  1.3292  0.8607
 1193SOL    HW215039   1.413   4.329  10.441  1.1118  1.5687 -0.6706
 1194SOL     OW15040   4.183   4.620   3.597 -0.0626 -0.2010  0.3498
 1194SOL    HW115041   4.202   4.603   3.504  1.6184 -0.1706  0.6836
 1194SOL    HW215042   4.246   4.690   3.609  0.2542 -0.5152  0.5051
 1195SOL     OW15043   3.466   3.667  16.691 -0.3017 -0.3974 -0.3207
 1195SOL    HW115044   3.555   3.644  16.663 -1.3643 -2.3483 -2.0716
 1195SOL    HW215045   3.471   3.762  16.680  0.4189 -0.4837 -0.7309
 1196SOL     OW15046   1.357   0.458  10.454  0.4132  0.0245  0.1349
 1196SOL    HW115047   1.293   0.389  10.468  0.9613 -0.4613  0.2738
 1196SOL    HW215048   1.340   0.496  10.368 -1.8297 -1.0360  0.1175
 1197SOL     OW15049   1.016   0.280  10.336 -0.5799  0.0841 -0.0153
 1197SOL    HW115050   1.063   0.296  10.418 -0.9316 -1.3833  0.4735
 1197SOL    HW215051   0.983   0.192  10.353 -0.0613  0.0365  0.7687
 1198SOL     OW15052   2.204   4.670   3.252 -0.1036  0.0379 -0.0051
 1198SOL    HW115053   2.299   4.672   3.240  0.2184 -2.2811  2.2925
 1198SOL    HW215054   2.181   4.666   3.159 -4.0218 -0.1811  0.9351
 1199SOL     OW15055   1.598   2.387  12.767 -0.4801  0.3644  0.1344
 1199SOL    HW115056   1.610   2.312  12.824 -0.5622 -0.5018 -0.9850
 1199SOL    HW215057   1.645   2.451  12.821  2.8174  0.5556 -2.8671
 1200SOL     OW15058   0.697   0.592   5.931 -0.0787  0.1645  0.0795
 1200SOL    HW115059   0.726   0.664   5.876  2.2783 -0.8141  0.0709
 1200SOL    HW215060   0.646   0.546   5.864 -0.8781  0.3818  0.5281
 1201SOL     OW15061   2.610   0.690   9.023 -0.0134 -0.7375 -0.4285
 1201SOL    HW115062   2.579   0.599   9.019 -0.8449 -0.5111  1.2046
 1201SOL    HW215063   2.588   0.721   8.935  1.1857 -1.5964 -1.0376
 1202SOL     OW15064   3.936   1.402   1.652  0.2167  0.2456  0.8257
 1202SOL    HW115065   3.951   1.351   1.731 -0.4499  0.3794  1.0422
 1202SOL    HW215066   3.870   1.468   1.675 -0.8322  0.2883 -2.3739
 1203SOL     OW15067   0.742   2.155   2.897  0.1711 -0.0993  0.8344
 1203SOL    HW115068   0.665   2.211   2.901  0.4720  0.3357  0.4941
 1203SOL    HW215069   0.714   2.065   2.914 -0.0209 -0.4499 -1.3230
 1204SOL     OW15070   2.760   3.638  16.672 -0.5292 -0.2147  0.4341
 1204SOL    HW115071   2.819   3.712  16.659 -1.8593  0.7617 -0.0295
 1204SOL    HW215072   2.683   3.676  16.629 -0.8634 -0.3357  0.9297
 1205SOL     OW15073   1.152   3.651  15.719 -0.2949  0.2841  0.2591
 1205SOL    HW115074   1.225   3.592  15.736  0.4632  2.0010  2.8925
 1205SOL    HW215075   1.203   3.728  15.693 -0.5260  0.5231  0.5122
 1206SOL     OW15076   3.056   1.065   6.989  0.0552 -0.8928  0.2980
 1206SOL    HW115077   3.116   1.137   7.008  0.1181 -0.9336  0.2567
 1206SOL    HW215078   3.015   1.058   7.076 -1.2404  1.5349 -0.1356
 1207SOL     OW15079   0.711   3.578   3.024  0.0780  0.9725  0.3272
 1207SOL    HW115080   0.618   3.576   3.047 -0.0764 -0.1285 -0.3975
 1207SOL    HW215081   0.696   3.619   2.938 -0.0142  0.7393  0.2310
 1208SOL     OW15082   3.627   0.782  10.575  0.3023  0.3607  0.4058
 1208SOL    HW115083   3.678   0.838  10.516 -0.3584  2.5108  1.8944
 1208SOL    HW215084   3.552   0.755  10.521 -0.1029  2.7205 -0.2450
 1209SOL     OW15085   0.915   1.615   3.185 -0.6049 -0.4984 -0.3636
 1209SOL    HW115086   0.876   1.528   3.190 -0.4071 -0.6106 -0.7088
 1209SOL    HW215087   0.990   1.595   3.128 -0.5741  0.0467 -0.5118
 1210SOL     OW15088   1.497   1.025   5.989 -0.5539 -0.3567  0.3197
 1210SOL    HW115089   1.579   0.985   6.018 -0.9331  1.4660  3.8303
 1210SOL    HW215090   1.456   1.071   6.062 -1.6512 -1.0543  0.1425
 1211SOL     OW15091   2.688   3.336   1.081  0.7537 -0.0118 -0.1044
 1211SOL    HW115092   2.658   3.323   0.991  1.0156  0.0225 -0.1979
 1211SOL    HW215093   2.636   3.265   1.119  0.9930  0.5250  1.2489
 1212SOL     OW15094   1.972   3.200  13.364 -0.4459 -0.4232 -0.3005
 1212SOL    HW115095   1.890   3.179  13.407 -0.3510  1.2692  0.6964
 1212SOL    HW215096   1.973   3.120  13.311 -0.1800 -0.9731  0.5259
 1213SOL     OW15097   4.365   0.923   7.158 -0.1413  0.1738  0.1385
 1213SOL    HW115098   4.324   0.917   7.244  2.0641 -1.1304  1.0981
 1213SOL    HW215099   4.319   1.002   7.128  0.7172  1.0179  1.0062
 1214SOL     OW15100   3.513   0.966   6.168 -0.6118  0.1920 -0.2038
 1214SOL    HW115101   3.432   1.008   6.138 -0.1798  1.1339 -0.0673
 1214SOL    HW215102   3.526   1.009   6.253  1.4414 -1.0202  0.0807
 1215SOL     OW15103   0.293   2.988   5.729  0.2626  0.0460  0.3071
 1215SOL    HW115104   0.378   2.988   5.772  0.8927  0.7893 -0.9283
 1215SOL    HW215105   0.305   2.912   5.672 -1.2677  0.0705 -0.0445
 1216SOL     OW15106   0.023   1.309  12.460 -0.3869  0.0023  1.2244
 1216SOL    HW115107   0.096   1.252  12.436  1.9252  3.1232  0.8035
 1216SOL    HW215108   0.069   1.393  12.458  0.4308 -0.4981 -0.8869
 1217SOL     OW15109   1.333   1.435   9.193 -0.3528  0.5903  0.3186
 1217SOL    HW115110   1.396   1.505   9.209  0.4472  0.0322 -0.3762
 1217SOL    HW215111   1.288   1.428   9.277 -1.6735  1.3168 -0.3388
 1218SOL     OW15112   2.863   2.825   2.856 -0.1602 -0.1189 -0.0030
 1218SOL    HW115113   2.778   2.780   2.858 -0.9223  1.3560  1.5005
 1218SOL    HW215114   2.883   2.848   2.765 -0.7677 -0.9288 -0.3384
 1219SOL     OW15115   1.965   3.671   0.742  0.4121  0.2603 -0.2696
 1219SOL    HW115116   1.959   3.582   0.778  1.1592 -0.0009 -0.7925
 1219SOL    HW215117   2.035   3.707   0.796  0.0635 -1.1559  1.1308
 1220SOL     OW15118   4.070   0.614   5.486 -0.5173  0.1614  0.1122
 1220SOL    HW115119   4.056   0.628   5.393  1.3839  0.4482 -0.1335
 1220SOL    HW215120   4.146   0.668   5.508 -0.4004 -0.0386  0.2010
 1221SOL     OW15121   0.793   4.116   8.387 -0.6847  0.2112  0.1200
 1221SOL    HW115122   0.768   4.087   8.299 -0.3869 -0.9012  0.3917
 1221SOL    HW215123   0.715   4.078   8.429 -0.3021 -0.8857 -0.1491
 1222SOL     OW15124   3.860   0.330   5.047 -1.0562 -0.3010 -0.5577
 1222SOL    HW115125   3.856   0.243   5.007 -1.2530 -0.9344  0.8299
 1222SOL    HW215126   3.868   0.300   5.137  0.1587  1.0163 -0.2441
 1223SOL     OW15127   3.217   4.455   9.121  0.1363 -0.1117 -0.0530
 1223SOL    HW115128   3.211   4.372   9.170  1.7342  0.3761  0.9754
 1223SOL    HW215129   3.278   4.501   9.179  0.3329 -1.5540  0.9086
 1224SOL     OW15130   1.443   1.622   5.045 -0.5611  0.0970  0.2964
 1224SOL    HW115131   1.534   1.607   5.018 -0.6360 -0.5867  0.4280
 1224SOL    HW215132   1.394   1.618   4.962 -2.1121  0.3229  1.2042
 1225SOL     OW15133   0.612   0.819   5.556  0.1154 -0.0283 -0.1438
 1225SOL    HW115134   0.624   0.895   5.498  1.0281  1.5665  2.1175
 1225SOL    HW215135   0.642   0.847   5.643  0.3026  0.4003 -0.3412
 1226SOL     OW15136   4.073   2.296   6.773 -0.1613  0.1364  0.0657
 1226SOL    HW115137   4.140   2.295   6.841  0.8657  0.1884 -0.9534
 1226SOL    HW215138   4.028   2.378   6.794 -2.1622 -0.4699 -1.8862
 1227SOL     OW15139   0.029   0.107  13.590  0.2691 -0.5842 -0.0652
 1227SOL    HW115140   4.663   0.078  13.571 -0.1021 -0.1273  0.9918
 1227SOL    HW215141   0.005   0.146  13.674  1.0128  0.4622 -0.3524
 1228SOL     OW15142   0.633   3.242   6.068 -0.0046  0.1782 -0.1254
 1228SOL    HW115143   0.647   3.302   5.995  1.0484 -0.6172 -0.5823
 1228SOL    HW215144   0.543   3.211   6.070 -0.1284  0.3112 -3.2380
 1229SOL     OW15145   2.126   2.421   7.110  0.3326  0.1492 -0.1140
 1229SOL    HW115146   2.112   2.482   7.037 -0.1281 -1.0450 -1.0279
 1229SOL    HW215147   2.047   2.428   7.163 -1.0650  1.0066 -2.2760
 1230SOL     OW15148   2.807   3.234   9.068  0.0821 -0.3588 -0.1135
 1230SOL    HW115149   2.731   3.203   9.117  0.2066 -0.4314  0.0343
 1230SOL    HW215150   2.773   3.298   9.005 -0.3241 -0.1662  0.3015
 1231SOL     OW15151   3.599   2.009  14.752 -0.4280  0.5190 -0.1925
 1231SOL    HW115152   3.577   1.964  14.833 -0.1861  0.4966 -0.1381
 1231SOL    HW215153   3.683   2.054  14.762 -0.3486  0.6313 -1.3922
 1232SOL     OW15154   2.337   0.533   6.697 -0.5091  0.1902 -0.0443
 1232SOL    HW115155   2.274   0.508   6.629  1.9474  0.1515 -2.2981
 1232SOL    HW215156   2.417   0.542   6.646 -0.0728  2.6908  1.0648
 1233SOL     OW15157   1.108   3.681   7.925  0.4570  0.2986 -0.0248
 1233SOL    HW115158   1.073   3.592   7.938  0.9998  0.1526  0.4233
 1233SOL    HW215159   1.164   3.663   7.850 -0.5396 -2.5578 -0.0888
 1234SOL     OW15160   1.137   2.011   0.062  0.0989  0.5809  0.4249
 1234SOL    HW115161   1.145   2.020  17.662 -0.0660 -0.0567  0.3495
 1234SOL    HW215162   1.103   1.921   0.062 -3.5835  1.9462  1.7395
 1235SOL     OW15163   3.229   1.937   4.800  0.0066 -0.6094  0.6161
 1235SOL    HW115164   3.207   2.021   4.759 -1.3864 -1.6114 -0.6671
 1235SOL    HW215165   3.152   1.933   4.857 -0.5717 -0.4852 -0.1603
 1236SOL     OW15166   1.367   0.857   5.240  0.1209  0.0757 -0.3617
 1236SOL    HW115167   1.437   0.916   5.212 -0.0694  0.7792  0.6229
 1236SOL    HW215168   1.338   0.907   5.317 -1.7248 -1.1312 -0.2759
 1237SOL     OW15169   2.878   0.479   7.955 -0.1171 -0.6491 -0.2057
 1237SOL    HW115170   2.892   0.387   7.935 -1.3630 -0.5856 -1.3346
 1237SOL    HW215171   2.808   0.472   8.020  0.6001 -0.4348  0.5961
 1238SOL     OW15172   0.465   3.638   5.927  0.4126 -0.3134  0.0783
 1238SOL    HW115173   0.525   3.683   5.986  1.1669 -0.1920 -0.7813
 1238SOL    HW215174   0.468   3.683   5.843 -1.2705 -0.4027 -0.0264
 1239SOL     OW15175   1.368   3.042   8.046 -0.5040  0.0947 -0.2874
 1239SOL    HW115176   1.377   3.138   8.048  0.5538  0.0049 -0.7989
 1239SOL    HW215177   1.430   3.019   7.977 -2.3925 -1.8530 -1.3152
 1240SOL     OW15178   1.467   0.329  17.259  0.1921 -0.1280  0.7261
 1240SOL    HW115179   1.499   0.408  17.217  0.5790  0.3498  1.9377
 1240SOL    HW215180   1.470   0.274  17.180 -1.4242  0.8427 -0.0179
 1241SOL     OW15181   0.265   4.130   7.176 -0.1775 -0.0507 -0.5937
 1241SOL    HW115182   0.242   4.221   7.198 -1.9025 -0.4845 -0.6120
 1241SOL    HW215183   0.218   4.087   7.247 -0.9691  1.7167 -0.0390
 1242SOL     OW15184   4.111   2.609   3.353  0.6272 -0.0093 -0.5236
 1242SOL    HW115185   4.039   2.671   3.346 -0.0659 -0.9077 -1.4418
 1242SOL    HW215186   4.186   2.661   3.324  0.4342  0.9093  0.6403
 1243SOL     OW15187   4.589   4.036   2.128 -0.3811 -0.2448  0.1970
 1243SOL    HW115188   4.632   3.993   2.203 -0.5214  0.0248  0.4325
 1243SOL    HW215189   4.623   4.125   2.129  0.1458 -0.4392 -0.2039
 1244SOL     OW15190   3.209   3.884  10.315 -0.0563  0.3468 -0.3875
 1244SOL    HW115191   3.239   3.897  10.225  2.3059  0.7097  0.4523
 1244SOL    HW215192   3.246   3.799  10.339 -2.2417  0.0394  1.9063
 1245SOL     OW15193   0.661   2.921   7.003 -0.3116 -0.1067 -0.5456
 1245SOL    HW115194   0.687   2.921   7.095 -0.9615 -0.3192 -0.3643
 1245SOL    HW215195   0.701   3.001   6.970 -1.9706  0.1958 -1.7673
 1246SOL     OW15196   4.700   4.242   3.703  0.2204  0.3283 -0.5413
 1246SOL    HW115197   4.668   4.323   3.742  0.6133 -0.8585  2.2037
 1246SOL    HW215198   4.636   4.216   3.636 -0.5773  1.0269 -0.0596
 1247SOL     OW15199   0.373   3.735   1.724 -0.2469 -0.1272 -0.1905
 1247SOL    HW115200   0.464   3.718   1.698 -0.3683 -1.1780  0.0689
 1247SOL    HW215201   0.330   3.696   1.648  1.1943 -0.3648 -0.8823
 1248SOL     OW15202   2.518   0.736   2.094 -0.2016  0.2843 -0.4517
 1248SOL    HW115203   2.579   0.672   2.059 -0.7328 -0.6489  0.3214
 1248SOL    HW215204   2.469   0.762   2.016  1.5506  0.7084 -1.4003
 1249SOL     OW15205   1.798   1.851   6.060  0.4178  0.2807  0.4932
 1249SOL    HW115206   1.740   1.908   6.008  1.1119 -0.1523 -0.7486
 1249SOL    HW215207   1.744   1.827   6.135 -0.1346  0.4473  0.1512
 1250SOL     OW15208   0.130   4.057   5.791  0.0051 -0.0746 -0.5779
 1250SOL    HW115209   0.160   3.968   5.776 -1.1185 -0.0157 -3.2060
 1250SOL    HW215210   0.188   4.086   5.861 -2.3954  2.6587  0.2626
 1251SOL     OW15211   4.133   3.528   3.829  0.7013 -0.7228  0.3145
 1251SOL    HW115212   4.156   3.526   3.922  0.5374 -1.0971  0.3482
 1251SOL    HW215213   4.038   3.541   3.836  0.8410  0.0505  0.8085
 1252SOL     OW15214   1.597   4.264  12.588  0.0185  0.8154 -0.1148
 1252SOL    HW115215   1.675   4.233  12.635  0.7127  0.7660 -1.2943
 1252SOL    HW215216   1.621   4.317  12.512 -0.0525  2.8059  1.2462
 1253SOL     OW15217   0.376   2.770  12.599  0.5257  0.1077  0.0797
 1253SOL    HW115218   0.391   2.756  12.506  1.2835  0.8807  0.0886
 1253SOL    HW215219   0.301   2.830  12.601  1.7986  1.7035  0.0665
 1254SOL     OW15220   2.559   3.605   8.266 -0.2811 -0.1140 -0.2073
 1254SOL    HW115221   2.502   3.679   8.287 -0.0721 -0.4863  1.6525
 1254SOL    HW215222   2.626   3.656   8.221 -0.2865 -0.6814 -0.8670
 1255SOL     OW15223   4.122   0.716   2.579 -0.4751 -0.2410  0.4777
 1255SOL    HW115224   4.075   0.636   2.554 -0.8660  0.5352 -1.2908
 1255SOL    HW215225   4.186   0.681   2.641 -3.8512 -2.2566  2.8275
 1256SOL     OW15226   4.500   3.055  12.652 -0.2400  0.0371  0.4299
 1256SOL    HW115227   4.444   2.983  12.623 -1.0344  1.5666 -1.8406
 1256SOL    HW215228   4.536   3.089  12.570 -0.7379 -1.2173 -0.3022
 1257SOL     OW15229   2.290   1.573  15.148 -0.1684 -0.2676  0.0403
 1257SOL    HW115230   2.286   1.541  15.058 -1.1767 -1.2206  0.4335
 1257SOL    HW215231   2.272   1.495  15.200  0.0465 -0.5277 -0.2700
 1258SOL     OW15232   4.295   4.488   2.549  0.6895 -0.3328  0.2490
 1258SOL    HW115233   4.237   4.552   2.508 -0.3025  0.7355  3.2602
 1258SOL    HW215234   4.319   4.434   2.474 -1.4337 -0.6221 -0.2100
 1259SOL     OW15235   4.676   4.170   7.604  0.5044  0.1438  0.3100
 1259SOL    HW115236   4.723   4.092   7.635 -1.7545 -1.4976 -0.3784
 1259SOL    HW215237   4.675   4.221   7.685  1.5017  0.5240  0.0849
 1260SOL     OW15238   3.380   0.720   1.510 -0.2833 -0.7502 -0.5527
 1260SOL    HW115239   3.288   0.720   1.539 -0.1382 -1.0939 -0.0922
 1260SOL    HW215240   3.438   0.728   1.585  0.8353  1.6257 -1.6791
 1261SOL     OW15241   3.248   1.988  15.679 -0.2143  0.7833  0.3861
 1261SOL    HW115242   3.312   1.939  15.730 -0.4901  1.5396  1.4468
 1261SOL    HW215243   3.300   2.030  15.611  1.0491  1.9441  2.0810
 1262SOL     OW15244   2.472   3.855   6.503 -0.2754 -0.2034  0.2680
 1262SOL    HW115245   2.480   3.762   6.484 -1.3431  0.3186 -2.7989
 1262SOL    HW215246   2.410   3.883   6.435 -1.7118 -1.3841  1.0984
 1263SOL     OW15247   2.670   0.733   4.244  0.3388  0.0281 -0.0212
 1263SOL    HW115248   2.612   0.681   4.299  1.1054  1.0644  1.7952
 1263SOL    HW215249   2.742   0.758   4.303 -0.1461 -2.0370  1.4579
 1264SOL     OW15250   3.291   0.112   9.223  0.2717  0.2749 -0.3523
 1264SOL    HW115251   3.260   0.192   9.265 -1.8153 -1.3106  1.1215
 1264SOL    HW215252   3.224   0.101   9.155  0.1718 -0.3490 -0.1617
 1265SOL     OW15253   4.472   3.211   7.317 -0.1511 -0.1949  0.0695
 1265SOL    HW115254   4.517   3.164   7.247  0.6334 -0.5366  0.7914
 1265SOL    HW215255   4.446   3.134   7.369  0.4848  1.1518  2.3672
 1266SOL     OW15256   0.907   2.138   5.855  0.1011  0.1516 -0.2069
 1266SOL    HW115257   0.982   2.089   5.821  0.6857  0.2934  0.9059
 1266SOL    HW215258   0.950   2.223   5.866 -1.8860  1.1643 -0.2740
 1267SOL     OW15259   0.352   0.956   7.374 -0.0062  0.9421  0.0312
 1267SOL    HW115260   0.319   0.993   7.456  0.2033  1.5309 -0.1575
 1267SOL    HW215261   0.304   1.007   7.309 -1.6243 -1.4953 -0.6974
 1268SOL     OW15262   1.577   1.324  11.166  0.6534 -0.0137 -0.3704
 1268SOL    HW115263   1.530   1.300  11.087  1.6814 -4.6457  0.4106
 1268SOL    HW215264   1.615   1.411  11.150  1.9246 -0.4321  0.3430
 1269SOL     OW15265   0.922   3.739  15.336  0.2709  0.3060  0.2631
 1269SOL    HW115266   0.906   3.810  15.273  2.0432  2.0572  1.7731
 1269SOL    HW215267   0.986   3.768  15.401  0.2851 -1.1964  0.8988
 1270SOL     OW15268   2.367   2.162   5.113 -0.0550 -0.8366  0.6343
 1270SOL    HW115269   2.308   2.214   5.059  0.3696 -1.7900 -0.7449
 1270SOL    HW215270   2.414   2.219   5.173 -1.1780 -0.1348  0.8385
 1271SOL     OW15271   4.675   2.989   1.281  0.8416 -0.1571 -0.0557
 1271SOL    HW115272   4.663   3.069   1.332 -0.1621 -1.0912  1.1675
 1271SOL    HW215273   4.718   3.028   1.205 -0.1808  2.8801  0.9303
 1272SOL     OW15274   1.852   2.440   5.055 -0.7890  0.2284 -0.1372
 1272SOL    HW115275   1.903   2.498   4.998 -0.1533 -0.4739 -0.2830
 1272SOL    HW215276   1.804   2.497   5.115 -0.2034  1.7128 -1.0888
 1273SOL     OW15277   0.763   0.337  13.077  0.9476  0.1892 -0.1550
 1273SOL    HW115278   0.817   0.261  13.054 -0.5312 -0.8486 -0.1916
 1273SOL    HW215279   0.827   0.404  13.100 -0.5879  1.0335  1.6972
 1274SOL     OW15280   1.665   1.876   0.290  0.0823  0.3941  0.0705
 1274SOL    HW115281   1.604   1.949   0.297  0.0989  0.5260 -1.2678
 1274SOL    HW215282   1.700   1.898   0.204  0.0110 -0.6109 -0.2201
 1275SOL     OW15283   2.441   1.928   6.265  0.2569 -0.0179  0.5889
 1275SOL    HW115284   2.380   1.976   6.209 -0.9585  0.4388  2.3142
 1275SOL    HW215285   2.416   1.840   6.290 -2.0106  0.6076  0.5222
 1276SOL     OW15286   1.042   4.494   8.468 -0.1778 -0.8043 -1.1078
 1276SOL    HW115287   1.060   4.559   8.400  1.6055  0.4335  0.5465
 1276SOL    HW215288   0.952   4.474   8.443 -0.7810 -1.3539  1.4424
 1277SOL     OW15289   3.341   0.384   8.283 -0.8259  0.5432 -0.1665
 1277SOL    HW115290   3.392   0.379   8.202  1.3454  0.5941  1.2143
 1277SOL    HW215291   3.409   0.379   8.349  0.7315 -1.3734 -1.9169
 1278SOL     OW15292   2.858   4.121  13.271  0.2451  0.3203 -0.4454
 1278SOL    HW115293   2.911   4.201  13.264  0.1770  0.4036 -0.0211
 1278SOL    HW215294   2.801   4.123  13.194  1.7207  0.8151 -1.5187
 1279SOL     OW15295   3.332   1.675  11.924  0.4550  0.0958  0.2451
 1279SOL    HW115296   3.331   1.588  11.884  3.1562  0.1020  0.1227
 1279SOL    HW215297   3.253   1.711  11.884  0.4445  0.4662  0.5997
 1280SOL     OW15298   1.259   4.595   7.644 -0.1011  0.0272  0.0740
 1280SOL    HW115299   1.183   4.630   7.597  0.2850 -0.6123 -1.0005
 1280SOL    HW215300   1.297   4.550   7.569  0.5501 -0.0787  0.4646
 1281SOL     OW15301   4.259   2.847   2.828  0.0186 -0.2540 -0.0537
 1281SOL    HW115302   4.213   2.914   2.878 -0.1859  1.3865 -2.4212
 1281SOL    HW215303   4.210   2.844   2.745 -0.3980  0.3760  0.1720
 1282SOL     OW15304   3.570   0.628   1.761  0.1366  0.1398  0.3949
 1282SOL    HW115305   3.591   0.621   1.854  0.5299 -0.8563  0.2290
 1282SOL    HW215306   3.475   0.643   1.762  0.1130 -0.1233  1.3189
 1283SOL     OW15307   0.541   1.334   3.615 -0.1217 -0.2830 -0.7272
 1283SOL    HW115308   0.529   1.407   3.676  1.0604 -0.4681 -0.2787
 1283SOL    HW215309   0.459   1.289   3.638  0.4707 -0.1696  1.6607
 1284SOL     OW15310   0.949   2.479   1.393  0.0522  0.2563  0.7050
 1284SOL    HW115311   1.024   2.424   1.372  0.3753  1.2373 -0.6616
 1284SOL    HW215312   0.943   2.546   1.325  0.2846 -1.3864 -0.9274
 1285SOL     OW15313   0.932   0.030   3.734 -0.0784 -0.1614  0.2111
 1285SOL    HW115314   0.914   4.665   3.702 -1.5062  0.4002 -0.5130
 1285SOL    HW215315   1.026   0.016   3.748  0.0067  0.6883  0.5175
 1286SOL     OW15316   1.190   0.679   5.128 -0.1454  0.5439 -0.0793
 1286SOL    HW115317   1.125   0.718   5.187 -0.7339  0.1066 -0.4492
 1286SOL    HW215318   1.268   0.727   5.156  0.3821 -1.5081  1.9841
 1287SOL     OW15319   2.522   1.285  15.060 -0.4065  0.3846  0.4412
 1287SOL    HW115320   2.554   1.369  15.027  1.6820 -0.8370 -0.6843
 1287SOL    HW215321   2.433   1.288  15.026  0.0645 -2.2333 -1.0833
 1288SOL     OW15322   3.276   4.715   2.207  0.1031  0.5642 -0.0730
 1288SOL    HW115323   3.311   4.626   2.199  0.3895  0.5905  0.8385
 1288SOL    HW215324   3.351   0.027   2.256  0.0246 -1.2343  1.3718
 1289SOL     OW15325   0.713   3.861   1.117  0.0691 -0.1514 -0.0200
 1289SOL    HW115326   0.635   3.911   1.141  0.6499 -0.3516  2.3208
 1289SOL    HW215327   0.688   3.821   1.035 -2.2448 -2.7077  1.9354
 1290SOL     OW15328   3.814   0.431  13.211 -0.1714 -0.2015  0.2690
 1290SOL    HW115329   3.870   0.358  13.186  0.3657  0.7471 -1.2864
 1290SOL    HW215330   3.787   0.410  13.301 -0.3695 -0.5392  0.1297
 1291SOL     OW15331   2.011   1.899  17.414 -0.2093 -0.6313  0.2157
 1291SOL    HW115332   2.032   1.922  17.324  0.6722 -0.7479  0.3862
 1291SOL    HW215333   2.077   1.946  17.465 -2.6432  3.6405 -0.5770
 1292SOL     OW15334   1.509   0.970   7.342  0.0148 -0.4053  0.1471
 1292SOL    HW115335   1.528   1.044   7.284 -0.3779 -2.5001 -2.6624
 1292SOL    HW215336   1.467   0.915   7.276 -0.5296  1.0935 -0.7613
 1293SOL     OW15337   2.943   0.539   6.661 -0.1122  0.2312  0.7315
 1293SOL    HW115338   2.983   0.544   6.574 -2.1084  1.2389 -0.1277
 1293SOL    HW215339   3.015   0.571   6.715 -0.3243 -1.4926  2.0474
 1294SOL     OW15340   4.686   2.349  10.726 -0.2098 -0.3059  0.2220
 1294SOL    HW115341   4.621   2.304  10.671  0.8618 -1.0361 -0.4720
 1294SOL    HW215342   4.635   2.362  10.805  0.7581  1.2901  0.5812
 1295SOL     OW15343   3.869   0.368   4.654  0.0740  0.2095  0.0345
 1295SOL    HW115344   3.955   0.367   4.696 -0.5296  0.1425  1.2681
 1295SOL    HW215345   3.823   0.309   4.713 -0.4295 -0.3033 -0.8632
 1296SOL     OW15346   0.743   1.916   2.166 -0.3850 -0.1170 -0.5028
 1296SOL    HW115347   0.657   1.931   2.125 -1.7481 -4.3225  0.7935
 1296SOL    HW215348   0.721   1.963   2.246 -2.4675  0.1009 -1.1812
 1297SOL     OW15349   2.787   4.310   3.580 -0.2281 -0.2101 -0.0081
 1297SOL    HW115350   2.852   4.380   3.593  1.8616 -2.6871  3.1450
 1297SOL    HW215351   2.838   4.229   3.579 -1.8731 -1.1822 -2.9778
 1298SOL     OW15352   0.134   2.165  17.252  0.7924 -0.4418  0.0731
 1298SOL    HW115353   0.093   2.250  17.234 -1.3781 -1.4086  0.5197
 1298SOL    HW215354   0.150   2.177  17.345  2.3679  0.0197 -0.2461
 1299SOL     OW15355   1.283   1.173  12.334  0.2521  0.0969 -0.0059
 1299SOL    HW115356   1.313   1.246  12.279  0.3157  0.7023  0.8256
 1299SOL    HW215357   1.330   1.105  12.286 -0.9470 -1.0043  0.3798
 1300SOL     OW15358   0.113   4.555   2.231  0.2482 -0.8381  0.4739
 1300SOL    HW115359   0.083   4.617   2.165 -0.7683  0.9408  2.6205
 1300SOL    HW215360   0.183   4.601   2.279  1.9140 -1.4881 -1.2989
 1301SOL     OW15361   4.350   1.869  11.957 -0.3217  0.8422  0.0799
 1301SOL    HW115362   4.272   1.814  11.964  2.1178 -2.7585 -0.6899
 1301SOL    HW215363   4.412   1.806  11.995  0.4374  1.3650 -0.3093
 1302SOL     OW15364   0.683   4.123  14.771  0.5675 -0.8754  0.4752
 1302SOL    HW115365   0.591   4.147  14.783  0.2880 -1.3935 -0.6738
 1302SOL    HW215366   0.714   4.197  14.718 -0.1600 -0.3292  0.8102
 1303SOL     OW15367   0.589   0.823   0.674 -0.1927 -0.2359 -0.3723
 1303SOL    HW115368   0.576   0.807   0.580  0.1497 -0.5522 -0.3643
 1303SOL    HW215369   0.517   0.879   0.702  0.4312  0.6037 -0.4624
 1304SOL     OW15370   0.531   0.844   1.908 -0.2016 -0.0960 -0.0614
 1304SOL    HW115371   0.543   0.845   1.813  1.6506  2.0199  0.2011
 1304SOL    HW215372   0.478   0.923   1.918 -0.4692 -0.2934  0.0676
 1305SOL     OW15373   3.134   0.522   8.411 -0.1056  0.1691  0.2730
 1305SOL    HW115374   3.050   0.490   8.380 -1.2636  2.0111  1.5016
 1305SOL    HW215375   3.188   0.469   8.353  0.8221  0.9224  0.4469
 1306SOL     OW15376   1.100   0.584   6.326  0.0536 -0.0605 -0.2221
 1306SOL    HW115377   1.048   0.511   6.292  0.9006 -0.8671  0.1924
 1306SOL    HW215378   1.033   0.638   6.366  0.1910  0.4300 -0.6581
 1307SOL     OW15379   4.682   0.540   0.441 -0.3939 -0.3159  0.3243
 1307SOL    HW115380   4.592   0.562   0.418 -0.4963 -2.4817 -1.4415
 1307SOL    HW215381   4.676   0.445   0.448 -0.2236 -0.3475  0.0303
 1308SOL     OW15382   0.025   0.263   6.226  0.3241 -0.0601 -0.2433
 1308SOL    HW115383   0.008   0.348   6.186  3.1479  0.1317 -0.9860
 1308SOL    HW215384   0.014   0.297   6.315  0.3410  0.4896 -0.4505
 1309SOL     OW15385   3.229   3.638  15.527 -0.8282  0.7488 -0.0550
 1309SOL    HW115386   3.174   3.667  15.454 -2.1050 -2.1223 -0.2217
 1309SOL    HW215387   3.231   3.716  15.582 -0.8689  1.8345 -1.5694
 1310SOL     OW15388   0.096   4.117   3.268  0.7503  0.6275 -0.4692
 1310SOL    HW115389   0.106   4.086   3.178  1.6362  1.5715 -0.7017
 1310SOL    HW215390   0.169   4.066   3.302  0.1289  1.1079  1.5365
 1311SOL     OW15391   3.687   4.275   2.114  0.0889  0.0451 -0.5071
 1311SOL    HW115392   3.641   4.192   2.122 -1.0290  0.6511 -0.5510
 1311SOL    HW215393   3.624   4.331   2.160  2.9060  0.8962  2.3073
 1312SOL     OW15394   0.231   3.974   8.147  0.0003  0.2784 -0.1545
 1312SOL    HW115395   0.265   3.937   8.229 -2.6287  0.8382  1.1786
 1312SOL    HW215396   0.271   4.061   8.140 -2.9308  1.5876 -0.3922
 1313SOL     OW15397   1.708   0.264  12.513  0.6616  0.1194 -0.2516
 1313SOL    HW115398   1.670   0.288  12.428 -0.9022 -2.0128 -0.1395
 1313SOL    HW215399   1.632   0.264  12.571 -0.1772  0.7969 -1.3367
 1314SOL     OW15400   3.432   1.394   5.216 -0.2651 -0.0801 -0.0750
 1314SOL    HW115401   3.347   1.352   5.212 -0.2110 -0.1783 -0.2177
 1314SOL    HW215402   3.473   1.373   5.131 -3.1844  0.0263 -1.4932
 1315SOL     OW15403   1.527   0.198   6.286 -0.1709  0.6559  0.1658
 1315SOL    HW115404   1.571   0.280   6.309 -0.3954  0.7270  0.3447
 1315SOL    HW215405   1.465   0.223   6.217  0.4746 -0.9921 -1.0071
 1316SOL     OW15406   1.596   2.700   2.547  0.2986 -0.5314  0.0012
 1316SOL    HW115407   1.548   2.620   2.525  0.7542 -1.1704  1.3326
 1316SOL    HW215408   1.641   2.715   2.464 -2.1675 -1.7407 -1.5308
 1317SOL     OW15409   4.264   2.313   2.409 -0.2795 -0.5681  0.0043
 1317SOL    HW115410   4.179   2.352   2.425 -0.6760 -2.4014  2.4824
 1317SOL    HW215411   4.265   2.314   2.313 -0.6056 -4.3854 -0.0581
 1318SOL     OW15412   4.082   2.974  12.402 -0.1115 -0.6766 -0.0332
 1318SOL    HW115413   4.056   2.982  12.310 -0.2063  1.2851  0.1616
 1318SOL    HW215414   4.020   3.034  12.444 -0.1322  0.4027 -1.6005
 1319SOL     OW15415   1.355   1.287   7.735  0.0730  0.2581 -0.1460
 1319SOL    HW115416   1.379   1.378   7.749 -0.2634  0.5214 -1.3122
 1319SOL    HW215417   1.438   1.241   7.749  0.8425  1.9287  0.7418
 1320SOL     OW15418   2.991   3.845   2.328 -0.0198  0.5617  0.1925
 1320SOL    HW115419   3.046   3.838   2.250 -1.0223  1.0855 -0.5576
 1320SOL    HW215420   2.927   3.907   2.293 -0.4590  0.0260  0.0566
 1321SOL     OW15421   0.350   3.346   5.346  0.1713 -0.4015  0.6623
 1321SOL    HW115422   0.360   3.423   5.290 -0.2036 -0.2243  0.8379
 1321SOL    HW215423   0.329   3.374   5.436 -3.2026 -0.8741 -0.0067
 1322SOL     OW15424   3.680   1.685  10.027  0.5791  0.0101 -0.1258
 1322SOL    HW115425   3.719   1.748   9.966  0.6766 -0.5738 -0.6686
 1322SOL    HW215426   3.757   1.637  10.056  0.4739  0.2074  0.4668
 1323SOL     OW15427   3.771   0.871   8.939 -0.4047 -0.2758  0.8054
 1323SOL    HW115428   3.694   0.904   8.893  0.2633  0.9514  0.5727
 1323SOL    HW215429   3.836   0.934   8.907 -1.4583  1.3948  1.9432
 1324SOL     OW15430   1.508   1.262   1.235 -0.4583 -0.7370 -0.1552
 1324SOL    HW115431   1.438   1.214   1.190 -1.1899 -1.5541  1.8635
 1324SOL    HW215432   1.492   1.351   1.203  1.7709  0.5017  2.1738
 1325SOL     OW15433   1.148   2.030   4.855  0.0954  0.7616  0.0028
 1325SOL    HW115434   1.130   2.120   4.828  1.3935  1.4434  1.4409
 1325SOL    HW215435   1.061   2.005   4.887 -0.2756 -0.6526 -2.0405
 1326SOL     OW15436   3.050   3.628   8.453 -0.0060 -0.2716  0.2707
 1326SOL    HW115437   3.140   3.641   8.423  0.2556  1.9177  1.9992
 1326SOL    HW215438   3.043   3.658   8.544 -0.2919 -1.2965  0.5940
 1327SOL     OW15439   2.469   3.243   5.195  0.2594  0.1761  0.1130
 1327SOL    HW115440   2.398   3.202   5.244  0.4826 -0.5865 -0.1976
 1327SOL    HW215441   2.542   3.213   5.249  0.0965 -0.3052  0.0623
 1328SOL     OW15442   1.399   2.782  16.707  0.4294 -0.6173  0.3008
 1328SOL    HW115443   1.417   2.847  16.775 -0.7985 -0.6608  0.6698
 1328SOL    HW215444   1.460   2.710  16.723 -0.3032 -0.8389  2.0771
 1329SOL     OW15445   4.163   3.189   5.234 -0.0221 -0.0625  0.1776
 1329SOL    HW115446   4.138   3.097   5.243  1.4572 -0.3674  1.2232
 1329SOL    HW215447   4.080   3.235   5.251  0.4756  1.1181 -0.6122
 1330SOL     OW15448   3.727   0.929   5.490  0.5976 -0.4376 -0.2425
 1330SOL    HW115449   3.709   0.841   5.457  1.3359 -0.3652 -0.8367
 1330SOL    HW215450   3.700   0.984   5.417  0.2196  0.5982  0.6916
 1331SOL     OW15451   1.740   2.148   1.174  0.4435 -0.2270 -0.2183
 1331SOL    HW115452   1.711   2.209   1.105 -2.7026 -2.4461 -0.8668
 1331SOL    HW215453   1.671   2.152   1.240 -0.4517 -0.1535 -1.1551
 1332SOL     OW15454   2.097   2.996  16.724 -0.3486 -0.4619 -0.1963
 1332SOL    HW115455   2.179   3.036  16.754 -0.3892  0.0939 -0.8192
 1332SOL    HW215456   2.134   2.944  16.652 -1.3543 -1.4317 -0.0050
 1333SOL     OW15457   1.716   4.181  10.601  1.0854 -0.4727 -0.0187
 1333SOL    HW115458   1.704   4.154  10.692  2.0025 -0.2414  0.1739
 1333SOL    HW215459   1.631   4.199  10.561  1.0136 -0.5012  0.1231
 1334SOL     OW15460   3.696   2.811   5.832  0.4071 -0.2938  0.4070
 1334SOL    HW115461   3.770   2.779   5.884  0.1554 -1.4336  0.0666
 1334SOL    HW215462   3.691   2.891   5.885 -0.3889 -0.8771  1.2083
 1335SOL     OW15463   2.766   1.997  14.355 -0.0026  0.6335 -0.3613
 1335SOL    HW115464   2.859   2.002  14.377  0.5246 -1.5104 -2.1413
 1335SOL    HW215465   2.729   2.009  14.443 -2.7066 -0.7163 -1.3092
 1336SOL     OW15466   1.449   3.261   5.061 -0.1606  0.3164 -0.3206
 1336SOL    HW115467   1.495   3.245   5.143 -0.1098  1.7433 -0.0610
 1336SOL    HW215468   1.479   3.191   5.004  0.7196 -0.7628  1.4646
 1337SOL     OW15469   4.223   3.151   4.973 -0.0939 -0.1793  0.3697
 1337SOL    HW115470   4.162   3.077   4.973  0.1549 -0.3942  2.6422
 1337SOL    HW215471   4.216   3.171   5.067 -1.1786  0.3363  0.1837
 1338SOL     OW15472   0.569   1.485  16.326 -0.0947  0.1323  0.0143
 1338SOL    HW115473   0.568   1.414  16.389  2.0604 -1.3468 -1.5973
 1338SOL    HW215474   0.513   1.553  16.362 -0.2448  0.6946 -1.2563
 1339SOL     OW15475   3.476   2.895   5.678  0.0877  0.0252 -0.0740
 1339SOL    HW115476   3.402   2.874   5.736 -0.3028  1.3706 -0.1057
 1339SOL    HW215477   3.548   2.870   5.736  0.0020  0.6670  0.3016
 1340SOL     OW15478   2.842   3.430  13.207  0.1254  0.4032 -0.1765
 1340SOL    HW115479   2.804   3.502  13.257  0.0643 -1.9637  3.2191
 1340SOL    HW215480   2.892   3.476  13.140  1.4176 -2.2314 -1.0490
 1341SOL     OW15481   3.122   1.550   5.894  0.1019 -0.2404 -0.2819
 1341SOL    HW115482   3.106   1.462   5.860  1.2574 -0.6002  0.0998
 1341SOL    HW215483   3.067   1.606   5.840 -0.3982 -0.3075  0.1556
 1342SOL     OW15484   3.127   4.606   6.551 -0.3793  0.2601  0.1989
 1342SOL    HW115485   3.190   4.626   6.621  1.1670 -1.2840 -0.7564
 1342SOL    HW215486   3.170   4.644   6.475  0.2052 -0.9659 -0.0744
 1343SOL     OW15487   0.282   0.204   6.203  0.0394 -0.6328  0.6037
 1343SOL    HW115488   0.317   0.293   6.206  0.0944 -0.6511  0.5174
 1343SOL    HW215489   0.188   0.216   6.214  0.1246 -1.0496  1.7635
 1344SOL     OW15490   0.560   0.890  15.897 -0.0727  0.4051 -0.7433
 1344SOL    HW115491   0.499   0.942  15.845 -0.3898  0.2754 -0.5002
 1344SOL    HW215492   0.499   0.846  15.957  2.6799 -0.1065  1.7157
 1345SOL     OW15493   1.570   3.080   4.454  0.1351 -0.1807  0.0933
 1345SOL    HW115494   1.641   3.085   4.390  1.8101 -0.8651  1.8685
 1345SOL    HW215495   1.555   2.985   4.453  2.7756 -0.6325  3.1092
 1346SOL     OW15496   2.536   3.460   2.153  0.0897  0.3471 -0.0333
 1346SOL    HW115497   2.587   3.540   2.144  1.8910 -0.8757 -0.8216
 1346SOL    HW215498   2.508   3.457   2.062 -3.4304 -0.7593  1.0733
 1347SOL     OW15499   4.547   1.947   9.560  0.3238  0.1216 -0.2153
 1347SOL    HW115500   4.632   1.970   9.596 -0.5519  1.8770  0.6898
 1347SOL    HW215501   4.493   1.953   9.639  1.5228 -2.6259  0.8175
 1348SOL     OW15502   0.409   4.585   3.301 -0.5642  0.2024  0.1070
 1348SOL    HW115503   0.459   4.546   3.373 -1.5978  2.0495  1.8208
 1348SOL    HW215504   0.475   4.614   3.238 -2.0665 -0.3001 -1.6979
 1349SOL     OW15505   3.455   1.287  10.473 -0.0420 -0.1186  0.0897
 1349SOL    HW115506   3.506   1.330  10.405  0.1045 -1.7202 -0.8325
 1349SOL    HW215507   3.380   1.255  10.422  1.1342 -0.5540 -1.3843
 1350SOL     OW15508   4.526   2.809   6.108  0.5573 -0.2431 -0.3967
 1350SOL    HW115509   4.548   2.900   6.090 -2.3327  0.1093 -2.1247
 1350SOL    HW215510   4.516   2.807   6.203 -0.7370 -2.7235 -0.5536
 1351SOL     OW15511   4.578   1.400   5.821  0.0309 -0.1924 -0.4014
 1351SOL    HW115512   4.554   1.339   5.892 -2.3753  0.5287 -0.6020
 1351SOL    HW215513   4.487   1.422   5.800 -0.3359 -0.1764  1.1462
 1352SOL     OW15514   2.557   3.858  17.060  0.4340  0.0616 -0.3386
 1352SOL    HW115515   2.603   3.938  17.086  1.4328 -1.5793  3.0501
 1352SOL    HW215516   2.628   3.794  17.054  0.6709  0.1939  1.1093
 1353SOL     OW15517   1.351   0.739   6.762 -0.2506 -0.0335 -0.2469
 1353SOL    HW115518   1.299   0.762   6.840  1.5474 -0.0461  0.9398
 1353SOL    HW215519   1.411   0.683   6.811 -0.9853 -1.4911 -1.0136
 1354SOL     OW15520   0.701   1.356   0.892  0.2759 -0.3952  0.0090
 1354SOL    HW115521   0.640   1.427   0.913  1.2459  1.0175 -1.9418
 1354SOL    HW215522   0.723   1.374   0.800  1.8429 -4.0575 -0.2965
 1355SOL     OW15523   1.263   0.365   4.245 -0.3161 -0.6153 -0.3460
 1355SOL    HW115524   1.242   0.274   4.267  0.6430 -0.6129  0.6014
 1355SOL    HW215525   1.344   0.369   4.295  0.6898  0.4292 -2.0315
 1356SOL     OW15526   2.299   3.830   6.273 -0.2444 -0.1330  0.1079
 1356SOL    HW115527   2.315   3.909   6.222 -0.9416 -0.1198 -0.1024
 1356SOL    HW215528   2.365   3.774   6.233 -0.8177  0.2560 -1.4187
 1357SOL     OW15529   2.606   1.384  13.527 -0.2481  0.2673  0.6431
 1357SOL    HW115530   2.586   1.291  13.538  1.6692 -0.1016  0.9408
 1357SOL    HW215531   2.588   1.422  13.613 -1.7174 -0.6050  0.7137
 1358SOL     OW15532   2.605   4.018  14.243  0.4786  0.1113 -0.4465
 1358SOL    HW115533   2.602   3.970  14.326 -1.8886 -0.0068 -0.5956
 1358SOL    HW215534   2.512   4.017  14.219 -0.2612  1.5195  2.3475
 1359SOL     OW15535   2.869   0.671   4.061  0.2821  0.3969 -0.3098
 1359SOL    HW115536   2.800   0.736   4.071 -0.3545 -0.3622  0.2106
 1359SOL    HW215537   2.842   0.618   4.136 -1.2891  0.9947 -0.4662
 1360SOL     OW15538   0.610   3.168   8.603  0.5024  0.2008  0.1674
 1360SOL    HW115539   0.570   3.112   8.669 -0.7181 -1.3515 -1.8974
 1360SOL    HW215540   0.531   3.199   8.557 -0.7799 -1.4254  1.2681
 1361SOL     OW15541   0.110   2.770   1.410  0.0656 -0.0261  0.0756
 1361SOL    HW115542   0.079   2.778   1.500  1.0558 -0.2906  0.4346
 1361SOL    HW215543   0.046   2.830   1.371 -1.1953 -0.1608  1.9185
 1362SOL     OW15544   4.462   0.994   5.692  0.5196  0.3854 -0.0481
 1362SOL    HW115545   4.532   0.973   5.754  0.3588 -2.6207 -0.9124
 1362SOL    HW215546   4.407   1.053   5.744  1.4184  0.2638  1.0463
 1363SOL     OW15547   1.385   1.013   1.530  0.3382 -0.1040 -0.7343
 1363SOL    HW115548   1.322   1.072   1.488  0.0850  1.4609  1.8238
 1363SOL    HW215549   1.433   1.080   1.579 -1.3203  0.7053 -0.2014
 1364SOL     OW15550   4.006   4.200   4.012 -0.1451 -0.4604  0.1073
 1364SOL    HW115551   3.946   4.264   3.975 -0.6435 -0.1308  1.4867
 1364SOL    HW215552   3.968   4.115   3.988  2.3233 -1.1429 -1.3754
 1365SOL     OW15553   1.729   0.384   3.964  0.9419  0.1315 -0.4746
 1365SOL    HW115554   1.791   0.311   3.961  0.7020 -0.1800  1.7944
 1365SOL    HW215555   1.728   0.393   4.059  0.3217  0.6071 -0.5290
 1366SOL     OW15556   4.660   3.481   5.666  0.5315 -0.9596  0.2686
 1366SOL    HW115557   4.709   3.483   5.583  0.1638 -0.8677  0.0557
 1366SOL    HW215558   4.635   3.573   5.663 -0.3394 -1.1853  0.9012
 1367SOL     OW15559   2.351   3.428   2.906  0.4097  0.4416  0.4516
 1367SOL    HW115560   2.266   3.449   2.869  0.5793 -1.3376 -0.9060
 1367SOL    HW215561   2.395   3.377   2.838 -0.4851  0.5734 -0.2210
 1368SOL     OW15562   4.025   4.475   0.709 -1.1602  0.2443 -0.3525
 1368SOL    HW115563   3.979   4.484   0.792 -0.9649 -0.1241 -0.2026
 1368SOL    HW215564   4.110   4.513   0.732 -0.6906 -1.6892  1.1383
 1369SOL     OW15565   0.371   4.538  11.590 -0.2813  0.2257 -0.4414
 1369SOL    HW115566   0.460   4.570  11.577 -0.3622  0.8994  0.7159
 1369SOL    HW215567   0.373   4.475  11.517 -0.2496  0.4616 -0.6436
 1370SOL     OW15568   0.073   3.395   7.496  0.5873  0.5536  0.1788
 1370SOL    HW115569   0.013   3.468   7.512 -2.0595 -1.0733 -2.3942
 1370SOL    HW215570   0.022   3.317   7.517  0.7212  0.4813  0.2397
 1371SOL     OW15571   2.161   2.591   6.087  0.2017 -0.5001 -0.2336
 1371SOL    HW115572   2.122   2.509   6.118 -1.6968  0.1256 -0.9510
 1371SOL    HW215573   2.081   2.627   6.047  1.5505  1.1925 -1.4206
 1372SOL     OW15574   1.858   4.178   4.451  0.8644 -0.3979  0.3875
 1372SOL    HW115575   1.885   4.146   4.365  0.3354  1.2788 -0.4115
 1372SOL    HW215576   1.764   4.181   4.432  1.2850 -1.8051 -1.8751
 1373SOL     OW15577   0.447   1.197   5.970 -0.5763 -0.2813  0.5534
 1373SOL    HW115578   0.441   1.102   5.969  0.2809 -0.3123 -1.3635
 1373SOL    HW215579   0.506   1.206   5.895  0.9131  0.2933  1.8043
 1374SOL     OW15580   4.643   3.178   7.570 -0.0912  0.1598 -0.2279
 1374SOL    HW115581   4.560   3.155   7.530 -0.3009  2.2707 -0.9958
 1374SOL    HW215582   4.642   3.129   7.652  0.6635  1.4581  0.5589
 1375SOL     OW15583   4.044   2.938   5.069  0.5594 -0.0223  0.0996
 1375SOL    HW115584   4.134   2.903   5.069  0.5243 -0.1125  0.0527
 1375SOL    HW215585   4.004   2.896   5.144  1.1590  0.0075  0.4392
 1376SOL     OW15586   3.011   0.830   3.436 -0.3752  0.1841 -0.1642
 1376SOL    HW115587   2.918   0.818   3.416 -0.5223 -0.5077  0.9044
 1376SOL    HW215588   3.028   0.767   3.506  1.1586  1.9644  1.0901
 1377SOL     OW15589   0.981   4.605   4.950 -0.2148  0.5123  0.2643
 1377SOL    HW115590   0.910   4.543   4.933  0.0209 -0.0043  1.1953
 1377SOL    HW215591   1.057   4.553   4.924  0.4761  1.2536  0.7703
 1378SOL     OW15592   4.255   1.089   6.571  0.8514 -0.1546 -0.7115
 1378SOL    HW115593   4.313   1.032   6.521 -0.1397 -1.6099 -0.2298
 1378SOL    HW215594   4.312   1.165   6.562  1.8363 -0.8288 -0.0833
 1379SOL     OW15595   1.370   3.489   6.263 -1.1437  0.6797  0.4694
 1379SOL    HW115596   1.356   3.411   6.209 -1.4711  2.7030 -2.4041
 1379SOL    HW215597   1.442   3.456   6.316 -1.7277 -1.1093  0.1700
 1380SOL     OW15598   0.064   0.757   6.215 -0.3611 -0.1061 -0.7281
 1380SOL    HW115599   0.087   0.832   6.270 -0.4525 -0.8470  0.3191
 1380SOL    HW215600   0.022   0.703   6.282 -1.7546  0.3546 -1.2342
 1381SOL     OW15601   0.232   1.252   1.319  0.1000 -0.8780 -0.6443
 1381SOL    HW115602   0.210   1.292   1.235 -0.9488 -1.8480 -0.8191
 1381SOL    HW215603   0.149   1.258   1.367  0.5616  0.6119 -0.0241
 1382SOL     OW15604   1.779   2.651   7.861  0.1968 -0.6142 -0.4432
 1382SOL    HW115605   1.874   2.654   7.854  0.2174 -0.8073 -0.2408
 1382SOL    HW215606   1.749   2.662   7.771 -2.3734  1.0911  0.6216
 1383SOL     OW15607   2.097   1.530   6.063 -0.2640 -0.2973  0.2906
 1383SOL    HW115608   2.122   1.473   5.990  0.1391 -0.1890  0.3416
 1383SOL    HW215609   2.163   1.503   6.128  3.4823  2.6774 -2.2663
 1384SOL     OW15610   1.506   1.903   3.620 -0.2121  0.6181 -0.3654
 1384SOL    HW115611   1.448   1.864   3.554  0.4730 -0.2487 -0.4497
 1384SOL    HW215612   1.463   1.988   3.632 -1.6441 -0.1718  0.1096
 1385SOL     OW15613   2.098   1.331   7.141  0.0825  0.0579  0.6821
 1385SOL    HW115614   2.136   1.382   7.069 -0.4748  2.6450  2.1973
 1385SOL    HW215615   2.018   1.295   7.103 -0.2195  1.3012  0.1088
 1386SOL     OW15616   4.494   2.524   2.277 -0.1048  0.4055  0.4147
 1386SOL    HW115617   4.482   2.485   2.364 -0.1187  1.6428  0.9741
 1386SOL    HW215618   4.570   2.581   2.290  1.1715 -0.7339 -2.1452
 1387SOL     OW15619   0.966   3.780  15.856 -0.4877 -0.3747  0.2914
 1387SOL    HW115620   1.012   3.755  15.936  1.0486 -0.0029 -0.4710
 1387SOL    HW215621   1.004   3.721  15.791 -1.2565 -0.9263  0.3487
 1388SOL     OW15622   4.435   2.409   5.128 -0.8094  0.0160  0.6118
 1388SOL    HW115623   4.455   2.436   5.038  0.2013 -0.2011  0.7719
 1388SOL    HW215624   4.514   2.356   5.138 -2.0729 -2.1382 -0.6637
 1389SOL     OW15625   2.899   2.662   5.909  0.0854 -0.0585  0.0620
 1389SOL    HW115626   2.934   2.634   5.824 -0.5565  1.2375 -0.6429
 1389SOL    HW215627   2.844   2.589   5.936  1.0072 -1.3983 -1.6451
 1390SOL     OW15628   0.992   3.937  10.280 -0.0344 -0.2338 -0.4492
 1390SOL    HW115629   0.946   3.898  10.206 -1.3217 -0.4565  0.4752
 1390SOL    HW215630   1.055   3.868  10.303  0.9013  0.8775  0.3860
 1391SOL     OW15631   2.230   3.454   6.468 -0.5535  0.2294  0.5376
 1391SOL    HW115632   2.168   3.426   6.535  0.6250 -0.5075  1.3049
 1391SOL    HW215633   2.169   3.498   6.409 -2.0336  2.9025  4.1060
 1392SOL     OW15634   0.448   2.831   6.862  0.2003 -0.0651 -0.0686
 1392SOL    HW115635   0.502   2.783   6.800  1.6708 -1.0458  1.9844
 1392SOL    HW215636   0.516   2.874   6.913  0.7318 -0.8578 -0.1133
 1393SOL     OW15637   4.185   3.247   2.680  0.2248 -0.1147 -0.3829
 1393SOL    HW115638   4.155   3.228   2.591  0.9638 -0.6314 -0.5199
 1393SOL    HW215639   4.272   3.211   2.664 -0.4854 -0.5360 -3.4100
 1394SOL     OW15640   1.841   0.814   8.122  0.1883  0.6312 -0.4196
 1394SOL    HW115641   1.920   0.838   8.171  0.0043  0.3670  0.0092
 1394SOL    HW215642   1.873   0.787   8.036  1.5788  0.8447  0.0244
 1395SOL     OW15643   4.645   4.144  16.435  0.3692  0.1681  0.5529
 1395SOL    HW115644   4.583   4.201  16.390 -1.4785 -0.6661  2.0397
 1395SOL    HW215645   0.001   4.163  16.386 -0.5491 -0.0594 -0.9981
 1396SOL     OW15646   0.865   2.106   6.951 -0.6244 -0.3384  0.2509
 1396SOL    HW115647   0.781   2.136   6.987 -0.4746  1.0158 -0.4826
 1396SOL    HW215648   0.917   2.131   7.027 -2.5844  0.1407  1.4434
 1397SOL     OW15649   3.749   0.484  13.484  0.1574 -0.1683 -0.2184
 1397SOL    HW115650   3.788   0.571  13.494  1.4516 -0.5595 -1.7546
 1397SOL    HW215651   3.693   0.474  13.561  1.9239  0.4745  1.1491
 1398SOL     OW15652   3.389   4.557   3.183  0.2736 -0.9708 -0.4896
 1398SOL    HW115653   3.337   4.522   3.111  0.3241 -3.3718  0.6404
 1398SOL    HW215654   3.382   4.646   3.150  2.2145 -0.8585 -0.6192
 1399SOL     OW15655   1.096   3.495   1.236  0.0602  0.1391  0.5458
 1399SOL    HW115656   1.129   3.426   1.294 -0.3647 -0.3407  0.2208
 1399SOL    HW215657   1.150   3.562   1.277  2.4072 -0.6209 -1.3042
 1400SOL     OW15658   3.219   4.208  16.254  0.0139 -0.5971 -0.3535
 1400SOL    HW115659   3.139   4.254  16.229  1.0271  0.6139 -1.3804
 1400SOL    HW215660   3.198   4.192  16.346 -3.4469 -1.5527 -1.3162
 1401SOL     OW15661   2.443   0.433   7.799  0.4606  0.6291 -0.7453
 1401SOL    HW115662   2.441   0.494   7.872 -1.0353 -1.3327  0.8760
 1401SOL    HW215663   2.350   0.412   7.810 -0.4295  4.3411 -1.1162
 1402SOL     OW15664   4.099   0.498   1.585 -1.1526  0.0796  0.5708
 1402SOL    HW115665   4.063   0.517   1.672  2.5852 -1.7452  2.5191
 1402SOL    HW215666   4.191   0.526   1.584 -0.8662 -0.8824  0.0331
 1403SOL     OW15667   0.899   0.512   5.639 -0.4634  0.2049 -0.6741
 1403SOL    HW115668   0.963   0.575   5.607  1.5438 -1.9396 -0.8776
 1403SOL    HW215669   0.917   0.440   5.578 -0.6421 -0.1566 -0.3027
 1404SOL     OW15670   2.267   2.807   5.413 -0.0104 -1.2412  0.1659
 1404SOL    HW115671   2.224   2.841   5.334 -0.5082  1.7793  1.7329
 1404SOL    HW215672   2.196   2.750   5.443 -1.8401  0.6388 -0.5767
 1405SOL     OW15673   1.061   2.879   8.402  0.3552 -0.3770  0.1579
 1405SOL    HW115674   0.971   2.864   8.431 -0.7504  1.5527 -2.2403
 1405SOL    HW215675   1.096   2.796   8.434  0.6003 -0.6654 -0.8568
 1406SOL     OW15676   2.582   3.514   9.876  0.0087  0.8219 -0.1385
 1406SOL    HW115677   2.541   3.428   9.868 -3.1298  2.2320  0.7344
 1406SOL    HW215678   2.561   3.549   9.790 -1.8249  0.1279  0.0176
 1407SOL     OW15679   4.509   3.354   2.399 -0.2578 -0.3690 -0.1503
 1407SOL    HW115680   4.468   3.429   2.356 -0.4360  0.2941  1.1807
 1407SOL    HW215681   4.585   3.404   2.428  0.1901  0.0622 -2.0755
 1408SOL     OW15682   1.851   2.647  16.489 -0.0516 -0.5132  0.6336
 1408SOL    HW115683   1.879   2.623  16.401 -1.4376 -2.0126  0.5967
 1408SOL    HW215684   1.805   2.730  16.474  2.8731  1.0392  0.3235
 1409SOL     OW15685   3.367   4.615   9.345  0.8266  0.2880  0.2718
 1409SOL    HW115686   3.335   4.644   9.430 -1.8390 -2.6211  0.2580
 1409SOL    HW215687   3.354   4.695   9.293 -1.6728 -0.5290 -0.3574
 1410SOL     OW15688   1.981   1.650  15.268 -0.0772  0.0643  0.1887
 1410SOL    HW115689   2.013   1.567  15.303 -0.0152 -0.4704 -1.1122
 1410SOL    HW215690   1.901   1.653  15.322  0.8349  1.9330  1.4198
 1411SOL     OW15691   0.133   3.294   7.800 -0.3308  0.5746 -0.5419
 1411SOL    HW115692   0.060   3.249   7.757  1.1552 -1.4249 -0.9791
 1411SOL    HW215693   0.082   3.359   7.848 -1.0713 -1.3280  1.2645
 1412SOL     OW15694   1.392   4.635   2.285 -0.4800  0.0724 -0.0908
 1412SOL    HW115695   1.387   4.612   2.193  1.5098  0.7332 -0.3642
 1412SOL    HW215696   1.375   0.006   2.280 -0.6222 -0.1936 -4.6972
 1413SOL     OW15697   1.978   2.778   4.173 -0.4202 -0.4620 -0.1403
 1413SOL    HW115698   2.049   2.763   4.111  0.0968  1.3781  0.0092
 1413SOL    HW215699   1.968   2.691   4.211 -1.9807  0.4898  1.5961
 1414SOL     OW15700   0.524   4.280  14.011 -0.5457  0.1688 -0.6870
 1414SOL    HW115701   0.497   4.312  14.097  0.5324  1.8680 -0.9831
 1414SOL    HW215702   0.475   4.198  14.008 -1.7536  0.8918 -0.8745
 1415SOL     OW15703   2.717   0.183   4.745 -0.1401  0.4638 -0.2496
 1415SOL    HW115704   2.682   0.263   4.784 -2.0253  0.3237 -1.6284
 1415SOL    HW215705   2.727   0.205   4.652 -0.0740 -2.2910 -0.8980
 1416SOL     OW15706   0.072   0.116   5.432  0.6177 -0.2473 -0.3021
 1416SOL    HW115707   0.055   0.171   5.509  3.9389  0.6003 -0.1659
 1416SOL    HW215708   0.163   0.128   5.405  0.0980  0.2916 -1.8005
 1417SOL     OW15709   1.363   1.270   2.463  0.4419 -0.4916  0.0848
 1417SOL    HW115710   1.345   1.278   2.556  2.1495 -1.9030  0.5500
 1417SOL    HW215711   1.289   1.212   2.444 -0.2765  0.0172  1.3668
 1418SOL     OW15712   4.435   0.894   6.434  0.3762  0.1279 -0.4950
 1418SOL    HW115713   4.379   0.829   6.393  1.5562 -0.8187 -0.6036
 1418SOL    HW215714   4.461   0.947   6.358 -0.5449  2.2475  0.6568
 1419SOL     OW15715   0.080   0.149   2.500  0.3064 -0.2005  0.1627
 1419SOL    HW115716   0.125   0.078   2.545  0.5119 -0.1550  0.0294
 1419SOL    HW215717   0.145   0.201   2.453 -0.5356  1.7208  1.0918
 1420SOL     OW15718   4.022   3.797   8.479  0.2014 -0.3428  0.2159
 1420SOL    HW115719   3.961   3.746   8.532 -0.8500  0.5061 -0.1593
 1420SOL    HW215720   3.995   3.770   8.391  1.5207 -0.0531 -0.2711
 1421SOL     OW15721   1.302   3.761  13.894 -0.3665 -0.1927  0.0795
 1421SOL    HW115722   1.390   3.772  13.858 -0.2172  0.0405  0.5164
 1421SOL    HW215723   1.261   3.731  13.813  1.5830 -1.3320 -0.4736
 1422SOL     OW15724   3.385   0.899   5.763  0.2552  0.2033 -0.1132
 1422SOL    HW115725   3.458   0.959   5.747  2.2864 -1.3107  3.3497
 1422SOL    HW215726   3.425   0.849   5.834 -0.8892 -0.9425 -0.2733
 1423SOL     OW15727   4.022   1.595   7.888 -0.2694  0.1846  0.1055
 1423SOL    HW115728   4.104   1.620   7.846 -0.0546 -0.6164  0.0429
 1423SOL    HW215729   3.962   1.638   7.827 -0.5045 -1.3353 -0.7275
 1424SOL     OW15730   4.527   4.650   5.757 -0.7017 -0.1601  0.3623
 1424SOL    HW115731   4.587   4.602   5.700  1.3311  3.3054 -0.4485
 1424SOL    HW215732   4.462   4.679   5.693  0.4419  2.6592  0.4772
 1425SOL     OW15733   2.238   4.392   4.535 -0.2687 -0.1692 -0.4395
 1425SOL    HW115734   2.158   4.444   4.538 -0.1538 -0.0320  0.2882
 1425SOL    HW215735   2.201   4.308   4.564 -0.8056  0.5279  0.8700
 1426SOL     OW15736   3.410   0.629   7.552  0.4781  0.1690  0.4898
 1426SOL    HW115737   3.407   0.660   7.643 -1.3895 -0.9139  0.7893
 1426SOL    HW215738   3.340   0.564   7.556  0.4098  0.0998 -1.8455
 1427SOL     OW15739   2.693   3.998  11.526 -0.3636  0.2934 -0.3398
 1427SOL    HW115740   2.614   4.023  11.477 -0.3087 -0.4321 -0.7885
 1427SOL    HW215741   2.684   3.904  11.514  1.5267  0.1202 -0.3971
 1428SOL     OW15742   4.050   0.892   5.018 -0.4407 -0.0719 -0.2390
 1428SOL    HW115743   4.100   0.931   5.090 -0.2166 -2.5462  0.9354
 1428SOL    HW215744   4.107   0.914   4.944  0.1780 -0.0821  0.2317
 1429SOL     OW15745   1.754   2.381   8.097 -0.1924  0.0352  0.1484
 1429SOL    HW115746   1.773   2.313   8.162  1.7115  1.7889  1.4700
 1429SOL    HW215747   1.680   2.421   8.143 -0.4218  1.9010 -1.8307
 1430SOL     OW15748   0.747   0.858   5.819  0.0531 -0.2975 -0.4473
 1430SOL    HW115749   0.728   0.917   5.892  2.2076  0.6132 -0.6238
 1430SOL    HW215750   0.841   0.867   5.803  0.0866  0.7000  0.2769
 1431SOL     OW15751   0.808   3.912   5.180 -0.1316  0.1520 -0.0161
 1431SOL    HW115752   0.729   3.881   5.136 -2.3275  1.0837  3.2882
 1431SOL    HW215753   0.802   4.004   5.155 -0.8591 -0.0721 -0.6815
 1432SOL     OW15754   1.515   1.895  14.965  0.4843  0.5762 -0.3816
 1432SOL    HW115755   1.511   1.886  15.060 -0.4775  1.0244 -0.3797
 1432SOL    HW215756   1.421   1.896  14.946  0.4598 -1.9428 -0.4437
 1433SOL     OW15757   1.996   4.191   3.633  0.8351  0.9068 -0.8563
 1433SOL    HW115758   2.073   4.238   3.667 -0.0108  1.1359  0.7315
 1433SOL    HW215759   2.035   4.114   3.592  0.2620  0.6365 -0.8852
 1434SOL     OW15760   2.355   1.306  11.387 -0.3174  0.0942 -0.2057
 1434SOL    HW115761   2.267   1.312  11.350 -1.3781 -0.3878  2.2432
 1434SOL    HW215762   2.410   1.252  11.329 -0.1908 -1.2228  1.1395
 1435SOL     OW15763   4.431   3.775   6.001  0.5321  0.0556  0.6303
 1435SOL    HW115764   4.483   3.827   5.940  0.1848 -0.0820  0.2213
 1435SOL    HW215765   4.492   3.762   6.074  0.2261 -0.0976  0.8587
 1436SOL     OW15766   3.545   4.556  11.594 -0.1104  0.1156  0.3524
 1436SOL    HW115767   3.625   4.607  11.607 -0.1711  0.2907  0.0490
 1436SOL    HW215768   3.491   4.630  11.622  0.2546 -0.0539  1.5013
 1437SOL     OW15769   1.265   3.940   5.602 -0.4133 -0.2861 -0.1527
 1437SOL    HW115770   1.184   3.963   5.557 -0.4487  0.0492  0.0826
 1437SOL    HW215771   1.328   3.979   5.542  2.1009 -2.8314  0.8195
 1438SOL     OW15772   1.050   2.068  17.048 -0.1112 -0.2259 -0.8171
 1438SOL    HW115773   1.035   1.977  17.076  1.9115 -0.5287 -0.6908
 1438SOL    HW215774   1.146   2.071  17.045 -0.0704  1.8165  3.1176
 1439SOL     OW15775   2.904   1.631   5.689 -0.0186 -0.5418 -0.1828
 1439SOL    HW115776   2.969   1.661   5.625  2.2235 -1.2256  1.7749
 1439SOL    HW215777   2.829   1.689   5.672 -0.0475 -0.3461  0.6147
 1440SOL     OW15778   0.415   1.917   2.421 -0.3632  0.2367 -0.0374
 1440SOL    HW115779   0.366   1.949   2.345 -0.6018 -0.3116 -0.1145
 1440SOL    HW215780   0.492   1.973   2.410  0.3262 -0.6618  0.2534
 1441SOL     OW15781   0.931   2.792   4.200  0.3270 -0.0153  0.3729
 1441SOL    HW115782   0.973   2.763   4.281  0.6710  1.2940  0.6595
 1441SOL    HW215783   0.895   2.875   4.228  3.2739  0.5973  2.3144
 1442SOL     OW15784   4.115   3.968   7.062  0.6868 -0.2523 -1.0332
 1442SOL    HW115785   4.182   3.903   7.045  0.7031 -1.2286  2.6460
 1442SOL    HW215786   4.053   3.949   6.991 -1.0124  2.7361 -0.3848
 1443SOL     OW15787   0.329   0.269   4.856 -0.1050 -0.5681  0.4584
 1443SOL    HW115788   0.242   0.302   4.837  0.2936  0.0647 -0.2565
 1443SOL    HW215789   0.307   0.180   4.883  1.4694 -1.4467 -1.1813
 1444SOL     OW15790   3.363   1.389   7.857 -0.7001  0.0139  0.0673
 1444SOL    HW115791   3.313   1.414   7.934 -2.0426  0.4561 -0.9659
 1444SOL    HW215792   3.438   1.345   7.897 -0.5565  0.2468  0.0550
 1445SOL     OW15793   2.045   3.673   3.064 -0.2199  0.1534  0.3484
 1445SOL    HW115794   1.954   3.658   3.037 -0.2371  2.7880 -1.0614
 1445SOL    HW215795   2.054   3.754   3.015 -1.9943  0.8777  1.1921
 1446SOL     OW15796   0.562   2.773  17.056  0.5610 -0.1491 -0.1922
 1446SOL    HW115797   0.555   2.749  16.964 -3.3052 -1.1053  0.3168
 1446SOL    HW215798   0.505   2.849  17.062  0.2035 -0.4601  0.4078
 1447SOL     OW15799   3.351   3.724   3.403  0.0898  0.2008 -0.9107
 1447SOL    HW115800   3.372   3.632   3.416  0.6290  0.1335 -2.2839
 1447SOL    HW215801   3.379   3.756   3.318  2.7368  1.4722  0.4566
 1448SOL     OW15802   4.653   2.252   5.151 -0.2015 -0.1878 -0.2237
 1448SOL    HW115803   4.683   2.176   5.201 -0.5798 -0.4964 -0.4784
 1448SOL    HW215804   0.004   2.307   5.179 -0.5659  0.2626 -0.1500
 1449SOL     OW15805   4.023   1.668   3.200  0.4753 -0.1811  0.1173
 1449SOL    HW115806   3.930   1.653   3.188  0.2351  0.8855  0.5922
 1449SOL    HW215807   4.037   1.622   3.283 -1.8817  1.2409  1.3130
 1450SOL     OW15808   3.231   3.855   4.901  0.3774  0.4974  0.0523
 1450SOL    HW115809   3.255   3.869   4.992  0.6615 -1.5030  0.2804
 1450SOL    HW215810   3.136   3.857   4.898  0.3330 -0.8705  0.4857
 1451SOL     OW15811   3.520   2.975  11.535  0.1453  0.2283 -0.2717
 1451SOL    HW115812   3.557   3.063  11.537  2.7449 -0.8713  0.2206
 1451SOL    HW215813   3.571   2.933  11.466 -1.7079 -1.4263 -0.6234
 1452SOL     OW15814   3.081   0.865   6.482 -0.3966 -0.2598  0.3717
 1452SOL    HW115815   2.988   0.860   6.503 -0.3963  0.2759  0.5032
 1452SOL    HW215816   3.114   0.775   6.481 -1.4616 -0.5950 -3.7827
 1453SOL     OW15817   2.920   0.096   2.806 -0.4235  0.0081  0.4618
 1453SOL    HW115818   2.894   0.077   2.716 -1.9661  0.5750  0.7899
 1453SOL    HW215819   2.886   0.185   2.806  0.7277  0.4474 -1.8675
 1454SOL     OW15820   3.235   3.305   4.637 -0.3501 -0.5746 -0.7871
 1454SOL    HW115821   3.241   3.246   4.562 -1.9163 -1.5338 -0.1654
 1454SOL    HW215822   3.211   3.384   4.589 -1.9329  0.0705  1.0674
 1455SOL     OW15823   4.651   4.048   1.209 -0.5407 -0.1641 -0.0844
 1455SOL    HW115824   4.719   4.064   1.274  1.5098  1.8138 -2.7055
 1455SOL    HW215825   4.693   3.994   1.142  1.8749 -0.5805  1.7653
 1456SOL     OW15826   1.999   1.323   8.714 -0.1066  0.0377  0.0166
 1456SOL    HW115827   2.031   1.245   8.668 -1.6911 -0.4584 -0.2773
 1456SOL    HW215828   2.020   1.291   8.801 -0.9847 -0.2538  0.1270
 1457SOL     OW15829   0.595   1.273   1.930  0.0338  0.4246  0.0726
 1457SOL    HW115830   0.564   1.361   1.949  1.5879  1.2427 -1.1100
 1457SOL    HW215831   0.689   1.270   1.951  0.0392 -1.6423 -0.2221
 1458SOL     OW15832   3.058   3.943   0.291 -0.6814  0.1961  0.2651
 1458SOL    HW115833   2.962   3.942   0.293 -0.7623  3.6462 -0.8091
 1458SOL    HW215834   3.066   3.881   0.363  0.2496 -0.9893 -0.8555
 1459SOL     OW15835   1.964   3.685   7.722 -0.4544  0.0870 -0.1154
 1459SOL    HW115836   1.945   3.754   7.659 -1.1231  0.2928  0.3069
 1459SOL    HW215837   2.018   3.733   7.784  1.9955  0.5861 -2.6477
 1460SOL     OW15838   0.958   3.997   8.133  0.3852 -0.0856 -0.5511
 1460SOL    HW115839   0.868   3.971   8.153  0.8241 -0.4431  1.0110
 1460SOL    HW215840   1.006   3.924   8.173 -1.0045  0.0247  1.2955
 1461SOL     OW15841   3.312   3.273   2.121 -0.2571  0.7578 -0.1523
 1461SOL    HW115842   3.297   3.197   2.065  0.2301 -0.2363  1.0746
 1461SOL    HW215843   3.224   3.290   2.154 -1.6328 -3.3766 -1.6738
 1462SOL     OW15844   3.766   0.497   5.522 -0.5180  0.0369  0.4425
 1462SOL    HW115845   3.715   0.549   5.460 -0.4995 -1.8233 -1.1482
 1462SOL    HW215846   3.853   0.512   5.487  1.4886 -3.4110  3.9477
 1463SOL     OW15847   2.655   1.943  10.923 -0.9510  0.5758  0.6036
 1463SOL    HW115848   2.679   2.029  10.890  1.0358  0.7038  2.3767
 1463SOL    HW215849   2.560   1.948  10.912 -0.5210  3.3054 -1.8856
 1464SOL     OW15850   3.207   4.628   5.859 -0.2210  0.2195 -0.5991
 1464SOL    HW115851   3.148   4.701   5.841  0.7790  1.2821  0.4115
 1464SOL    HW215852   3.289   4.660   5.822 -0.2623  1.5119  0.4223
 1465SOL     OW15853   2.520   1.626  10.601  0.2472 -0.0326  0.7400
 1465SOL    HW115854   2.564   1.541  10.594 -0.4626 -0.1605 -2.4496
 1465SOL    HW215855   2.441   1.604  10.550  0.6329  0.5913 -0.1268
 1466SOL     OW15856   4.004   3.746  11.856  0.4078  0.4399  0.3937
 1466SOL    HW115857   3.948   3.705  11.923  0.4443 -1.1254 -0.5278
 1466SOL    HW215858   4.052   3.803  11.917  1.1776  0.1288  0.0801
 1467SOL     OW15859   0.407   2.894  13.854  0.6088  0.1433  0.1210
 1467SOL    HW115860   0.449   2.808  13.845 -1.3401 -0.7984 -0.0225
 1467SOL    HW215861   0.434   2.926  13.769  0.0405  1.8783  0.5948
 1468SOL     OW15862   2.663   0.570   3.188 -0.4531 -0.4468 -0.0787
 1468SOL    HW115863   2.691   0.485   3.153 -0.2664 -0.7668  0.8575
 1468SOL    HW215864   2.602   0.553   3.260  1.6108  1.6338  2.1845
 1469SOL     OW15865   3.154   0.864  13.002 -0.2463 -0.3664  0.0719
 1469SOL    HW115866   3.075   0.811  12.995  0.2242 -1.0294 -0.1975
 1469SOL    HW215867   3.213   0.797  13.036 -0.0864 -0.9947 -1.4463
 1470SOL     OW15868   0.056   0.734   5.667  0.0742  0.1921  0.4172
 1470SOL    HW115869   0.127   0.696   5.615  0.0776  1.1856 -0.3142
 1470SOL    HW215870   4.706   0.729   5.605  0.5686  0.2759 -0.1849
 1471SOL     OW15871   3.079   1.742   6.105 -0.2788  0.5755 -0.5198
 1471SOL    HW115872   3.128   1.689   6.041 -1.9367  1.2378 -2.3294
 1471SOL    HW215873   3.020   1.790   6.046  0.2425 -0.1077 -1.5989
 1472SOL     OW15874   2.043   1.383  10.316  0.1042 -0.1984 -0.3383
 1472SOL    HW115875   2.033   1.326  10.240 -3.3453  0.3427 -0.3097
 1472SOL    HW215876   2.010   1.324  10.383 -0.9290 -1.4079 -1.8973
 1473SOL     OW15877   0.772   0.486   2.946  0.7721 -0.9920  0.4555
 1473SOL    HW115878   0.824   0.534   3.010  1.5423 -1.0131 -0.1524
 1473SOL    HW215879   0.688   0.467   2.987  0.9731 -1.5134  0.6226
 1474SOL     OW15880   3.927   1.878   3.575 -0.7191 -1.2021 -0.2660
 1474SOL    HW115881   3.875   1.841   3.646 -0.6361  0.0047  0.4176
 1474SOL    HW215882   4.018   1.867   3.605 -0.2419  0.8815 -0.9496
 1475SOL     OW15883   3.984   2.154   0.674  0.0909 -0.3885 -0.2691
 1475SOL    HW115884   3.951   2.125   0.589 -1.0068  1.0952 -0.3456
 1475SOL    HW215885   3.905   2.150   0.729 -0.2480 -0.0160 -0.7278
 1476SOL     OW15886   0.203   1.941   0.956 -0.3651 -0.1419  0.6986
 1476SOL    HW115887   0.179   1.849   0.941  0.7524 -0.2522 -0.4216
 1476SOL    HW215888   0.267   1.937   1.027  3.0683  2.9536 -2.1955
 1477SOL     OW15889   0.882   0.393   6.354  0.2084 -0.5484 -0.0276
 1477SOL    HW115890   0.870   0.312   6.402  0.6228 -1.1410 -0.9184
 1477SOL    HW215891   0.904   0.364   6.266  1.4185  3.9466 -1.2445
 1478SOL     OW15892   3.523   2.236   3.140  0.0619  0.4867 -0.4689
 1478SOL    HW115893   3.526   2.244   3.235 -0.1783  2.3173 -0.6199
 1478SOL    HW215894   3.429   2.239   3.124  0.2532  1.6891 -1.3892
 1479SOL     OW15895   1.365   3.043   7.257  0.0791  0.1662  0.3136
 1479SOL    HW115896   1.413   3.044   7.174 -0.5578 -1.5639 -0.0748
 1479SOL    HW215897   1.338   3.134   7.259  0.3363  0.1832  3.1150
 1480SOL     OW15898   4.219   1.342   6.798 -0.1120 -0.0353 -0.1807
 1480SOL    HW115899   4.135   1.344   6.844 -0.2286 -0.9841 -0.3452
 1480SOL    HW215900   4.199   1.405   6.728 -0.0504 -0.5572 -0.6742
 1481SOL     OW15901   4.456   0.271   9.468  0.1672 -0.4194 -0.5582
 1481SOL    HW115902   4.368   0.234   9.466 -0.7247  1.6057  0.8071
 1481SOL    HW215903   4.492   0.205   9.526  1.1886  0.6075 -0.0170
 1482SOL     OW15904   1.066   4.331  16.949  0.4840 -0.2478 -0.3609
 1482SOL    HW115905   1.158   4.307  16.952  0.5582 -0.0475 -0.9754
 1482SOL    HW215906   1.026   4.331  17.036  0.7002 -0.4787 -0.2652
 1483SOL     OW15907   4.512   2.495  17.093  0.0557 -0.0874  0.8468
 1483SOL    HW115908   4.456   2.515  17.019  0.1914  0.1681  0.8138
 1483SOL    HW215909   4.486   2.559  17.159  0.4306  0.0980  0.8168
 1484SOL     OW15910   1.587   1.497   6.196  0.0678  0.3761 -0.0051
 1484SOL    HW115911   1.577   1.591   6.210  0.1652  0.1787  1.4604
 1484SOL    HW215912   1.682   1.487   6.185 -0.0133  2.5627 -2.5243
 1485SOL     OW15913   3.910   2.216   1.023  0.2567  0.4119  0.1052
 1485SOL    HW115914   3.950   2.290   0.978  0.8280 -0.1255 -0.2777
 1485SOL    HW215915   3.846   2.257   1.082  0.9651  0.4440  0.8430
 1486SOL     OW15916   3.543   1.548  16.096  0.3010 -0.2495  0.5619
 1486SOL    HW115917   3.631   1.540  16.061  0.7800  1.5585  1.3722
 1486SOL    HW215918   3.524   1.641  16.101  1.1810 -0.0083 -0.8336
 1487SOL     OW15919   0.807   0.321  11.401 -0.2501  0.6825  0.5096
 1487SOL    HW115920   0.777   0.374  11.327  1.2451 -2.1142 -2.0723
 1487SOL    HW215921   0.760   0.239  11.388  0.3940  0.3209  0.4688
 1488SOL     OW15922   3.669   3.905  16.096 -0.1698  0.2628  0.3111
 1488SOL    HW115923   3.758   3.900  16.060 -0.2917  1.3054 -0.1254
 1488SOL    HW215924   3.612   3.925  16.021  0.4463  1.1593  0.0816
 1489SOL     OW15925   4.457   3.657  14.808  0.3249 -0.3478  0.4984
 1489SOL    HW115926   4.448   3.740  14.760  1.2329 -1.7109 -1.9927
 1489SOL    HW215927   4.526   3.685  14.868  0.4597  0.0360  0.1677
 1490SOL     OW15928   1.073   0.059   3.453  0.2588 -0.2706  0.0599
 1490SOL    HW115929   1.137   0.124   3.481 -1.3860  0.9013  1.1778
 1490SOL    HW215930   1.123   4.707   3.424  0.6063 -0.5898  1.4655
 1491SOL     OW15931   0.752   2.970   2.711 -0.5345 -0.2087  0.2444
 1491SOL    HW115932   0.844   2.996   2.720 -0.2964 -1.0105  0.1481
 1491SOL    HW215933   0.734   3.012   2.627  1.4724 -0.7983 -0.4770
 1492SOL     OW15934   1.571   1.869   0.536 -0.1067  0.2624 -0.3440
 1492SOL    HW115935   1.586   1.777   0.558 -0.8390  0.2147 -0.0378
 1492SOL    HW215936   1.616   1.871   0.452  2.8815  1.1121  1.2687
 1493SOL     OW15937   0.609   0.307   8.629 -0.2547  0.0642  0.5244
 1493SOL    HW115938   0.627   0.400   8.644  0.0325  0.3683 -1.6309
 1493SOL    HW215939   0.513   0.299   8.633 -0.3783  1.4561  0.6354
 1494SOL     OW15940   4.377   0.109   7.625 -0.2926 -0.7259 -0.0554
 1494SOL    HW115941   4.453   0.074   7.672 -1.1611 -0.8827  1.2524
 1494SOL    HW215942   4.372   0.196   7.663 -0.2414 -1.3107  1.3023
 1495SOL     OW15943   4.530   2.767   4.023 -0.1700 -0.3325  0.4314
 1495SOL    HW115944   4.436   2.780   4.028 -0.3444 -2.0552  1.3195
 1495SOL    HW215945   4.545   2.732   3.935 -1.9405  1.9882 -0.7886
 1496SOL     OW15946   0.560   1.379  10.981 -0.3718  0.7452 -0.4548
 1496SOL    HW115947   0.511   1.301  11.007 -1.8583  1.8814  0.1496
 1496SOL    HW215948   0.541   1.376  10.887 -0.2053 -1.7083 -0.4036
 1497SOL     OW15949   3.640   1.679   2.878 -0.2239  0.6465 -0.2877
 1497SOL    HW115950   3.653   1.621   2.953 -1.6395  0.6595 -0.0360
 1497SOL    HW215951   3.555   1.720   2.895 -0.3562  0.1564  0.2447
 1498SOL     OW15952   4.103   1.892   6.563 -0.3978  0.1923 -0.2785
 1498SOL    HW115953   4.048   1.947   6.507 -1.8245  0.0361  0.9915
 1498SOL    HW215954   4.039   1.824   6.583 -1.1250  1.4897  1.7000
 1499SOL     OW15955   1.568   0.835  14.448 -0.3546  0.0703 -0.0594
 1499SOL    HW115956   1.517   0.825  14.529  1.5699  0.2625  1.1674
 1499SOL    HW215957   1.584   0.741  14.439  0.3282  0.1438  0.4223
 1500SOL     OW15958   4.600   1.803   4.756 -0.2008 -0.4388  0.4228
 1500SOL    HW115959   4.572   1.853   4.833  0.6204 -0.0033  0.4404
 1500SOL    HW215960   4.560   1.853   4.684 -0.6622 -1.3238  0.0620
 1501SOL     OW15961   0.788   1.845  13.063  0.6751 -0.6195  0.0647
 1501SOL    HW115962   0.729   1.800  13.003 -1.9696  1.3482  1.1442
 1501SOL    HW215963   0.864   1.876  13.014  0.8077 -1.6243 -0.3668
 1502SOL     OW15964   3.152   4.524   5.412  0.1021  0.1104  0.4848
 1502SOL    HW115965   3.208   4.561   5.480 -2.2394  1.5479  1.6490
 1502SOL    HW215966   3.070   4.501   5.457 -1.0744  0.6602 -1.3524
 1503SOL     OW15967   0.773   4.085   4.490  0.4126  0.1358  0.3307
 1503SOL    HW115968   0.783   4.159   4.550  0.4958 -0.3707  0.9319
 1503SOL    HW215969   0.698   4.039   4.529 -1.1387 -0.8038 -3.7421
 1504SOL     OW15970   3.019   2.600   7.532 -0.7513 -0.3188 -0.3336
 1504SOL    HW115971   3.046   2.682   7.491 -2.7217  0.5436  0.0958
 1504SOL    HW215972   3.066   2.539   7.475 -1.5636 -0.1120 -1.2276
 1505SOL     OW15973   4.027   2.294  10.076  0.4951  0.1412 -0.7569
 1505SOL    HW115974   4.051   2.201  10.071 -0.8386 -0.2434 -0.1801
 1505SOL    HW215975   3.949   2.280  10.021 -0.4528  0.1565  0.5831
 1506SOL     OW15976   3.768   4.356   5.786 -0.2292 -0.3157  0.0221
 1506SOL    HW115977   3.792   4.336   5.696 -1.7446 -1.6522 -0.0962
 1506SOL    HW215978   3.682   4.393   5.767 -1.4549 -2.3232  1.6308
 1507SOL     OW15979   2.979   1.688  17.343 -0.4341 -0.0700  0.3951
 1507SOL    HW115980   3.014   1.683  17.432  0.7948 -0.0949 -0.0861
 1507SOL    HW215981   2.885   1.705  17.350 -0.2462  0.7448  0.8834
 1508SOL     OW15982   2.899   3.783  12.059  0.1275  0.0579  0.1015
 1508SOL    HW115983   2.865   3.845  12.123  0.0881 -0.8631  0.9668
 1508SOL    HW215984   2.953   3.841  12.006 -1.5181  1.5627  0.0562
 1509SOL     OW15985   3.830   0.328   4.374 -0.5377  0.8198 -0.4445
 1509SOL    HW115986   3.737   0.351   4.366 -1.2139 -1.5557  0.7847
 1509SOL    HW215987   3.838   0.330   4.470 -0.2427 -1.4635 -0.4318
 1510SOL     OW15988   4.169   2.059   9.552  0.3045  0.3714  0.4523
 1510SOL    HW115989   4.211   2.129   9.501  1.4070 -0.0918  0.7179
 1510SOL    HW215990   4.082   2.065   9.515  0.2712  0.1779  0.5000
 1511SOL     OW15991   0.638   2.317   6.564  0.1373 -0.4160  0.1408
 1511SOL    HW115992   0.658   2.388   6.503 -1.4015  0.7150  0.9464
 1511SOL    HW215993   0.543   2.317   6.551  0.3673  0.5419 -1.5740
 1512SOL     OW15994   0.398   4.660  11.253 -0.6859 -0.0893  0.2285
 1512SOL    HW115995   0.476   4.614  11.282 -1.2680 -1.9228 -1.0959
 1512SOL    HW215996   0.361   4.685  11.337  2.4301  0.3214  1.4629
 1513SOL     OW15997   1.002   1.431   4.549 -0.6422 -0.3087 -0.6033
 1513SOL    HW115998   1.095   1.453   4.561 -0.6974 -0.9503  0.9733
 1513SOL    HW215999   0.963   1.517   4.537  1.1858  0.4389 -1.1647
 1514SOL     OW16000   0.964   3.119   1.183  0.1230  0.4218 -0.2052
 1514SOL    HW116001   0.879   3.095   1.218  1.2776 -1.1364  1.5341
 1514SOL    HW216002   0.951   3.108   1.089 -0.1477 -0.8311 -0.0287
 1515SOL     OW16003   3.328   2.874   5.429  0.0759 -0.5795  0.5707
 1515SOL    HW116004   3.253   2.932   5.439 -0.4342 -1.1514  0.0091
 1515SOL    HW216005   3.370   2.872   5.515 -0.0199 -0.4503  0.6208
 1516SOL     OW16006   4.555   0.449   2.596  0.1499 -0.6672 -0.2072
 1516SOL    HW116007   4.514   0.503   2.529  0.8056  0.3839  0.2419
 1516SOL    HW216008   4.539   0.362   2.560  1.4812 -0.6939 -0.7551
 1517SOL     OW16009   2.607   4.002   7.514 -0.0207 -0.5506  0.2738
 1517SOL    HW116010   2.587   4.095   7.521 -3.2782 -1.0999 -1.5156
 1517SOL    HW216011   2.542   3.978   7.448 -0.1346 -2.0453  0.9268
 1518SOL     OW16012   0.928   0.910   7.258  0.4776  0.4764  0.1681
 1518SOL    HW116013   0.904   0.880   7.346  0.3417  4.3231  1.4219
 1518SOL    HW216014   0.930   0.826   7.212 -0.6623  0.0360  0.8959
 1519SOL     OW16015   2.544   0.165   2.568 -0.2817  0.0488  0.2618
 1519SOL    HW116016   2.454   0.158   2.536  0.0229  0.9592 -0.7687
 1519SOL    HW216017   2.549   0.073   2.594  2.5080 -0.4806 -2.1380
 1520SOL     OW16018   3.642   1.044   6.384  0.5763 -0.0665  0.0273
 1520SOL    HW116019   3.712   1.109   6.380  0.2168  0.1194 -3.0540
 1520SOL    HW216020   3.601   1.061   6.469 -0.2723  1.0170 -0.6018
 1521SOL     OW16021   1.421   4.602   1.994 -0.1299  0.0610  0.2905
 1521SOL    HW116022   1.502   4.575   1.952  0.2322  0.3716  0.7886
 1521SOL    HW216023   1.365   4.605   1.916  0.7162 -1.3987 -0.3665
 1522SOL     OW16024   4.138   2.622   5.148  0.1240  0.0276  0.0062
 1522SOL    HW116025   4.188   2.586   5.221 -1.1948 -1.1632  0.3166
 1522SOL    HW216026   4.055   2.578   5.164  1.1807 -1.3860  1.6495
 1523SOL     OW16027   1.370   4.045  10.367  0.3564 -0.4932 -0.4409
 1523SOL    HW116028   1.399   4.067  10.456  0.4092  1.2006 -0.8653
 1523SOL    HW216029   1.412   4.115  10.317  2.3180 -2.5677 -1.6769
 1524SOL     OW16030   1.319   3.556   2.033  0.4584  0.1885  0.0929
 1524SOL    HW116031   1.332   3.592   1.945 -0.7018 -1.8192 -0.8995
 1524SOL    HW216032   1.234   3.513   2.022  0.6420 -0.3569  0.7601
 1525SOL     OW16033   3.259   3.509   1.833 -0.1246 -0.1673  0.2843
 1525SOL    HW116034   3.228   3.520   1.923 -1.2218 -0.7658 -0.0173
 1525SOL    HW216035   3.185   3.470   1.787 -1.5373  1.4968  1.1560
 1526SOL     OW16036   1.643   4.555   4.512  0.2962 -0.0686  0.5875
 1526SOL    HW116037   1.721   4.589   4.555  1.7518 -0.9071 -1.3973
 1526SOL    HW216038   1.688   4.549   4.428 -2.2859  1.9020 -0.9643
 1527SOL     OW16039   2.364   1.853   3.436 -0.2594  0.0710  0.6072
 1527SOL    HW116040   2.273   1.878   3.425 -0.0512  0.1854 -0.7804
 1527SOL    HW216041   2.408   1.935   3.460  1.5988 -0.5874 -0.5142
 1528SOL     OW16042   3.257   2.643   8.253 -0.1311  0.2955 -0.3187
 1528SOL    HW116043   3.221   2.705   8.316 -0.1157 -0.5991  0.5677
 1528SOL    HW216044   3.250   2.702   8.178 -0.3523  0.0029 -0.5283
 1529SOL     OW16045   2.912   2.983   8.762  0.3357 -0.3476  0.3138
 1529SOL    HW116046   2.952   2.896   8.756 -0.0171 -0.4306 -0.7356
 1529SOL    HW216047   2.848   2.965   8.831  0.8819  1.5756  1.3229
 1530SOL     OW16048   2.365   1.370   7.937  0.5009 -0.5429  0.2457
 1530SOL    HW116049   2.378   1.462   7.918 -0.8521 -0.7737 -1.9352
 1530SOL    HW216050   2.275   1.367   7.904 -0.1247 -0.3708  1.9800
 1531SOL     OW16051   2.318   0.677   1.556  0.3614  0.2988 -0.0573
 1531SOL    HW116052   2.241   0.729   1.581  0.5190  1.3713 -1.7877
 1531SOL    HW216053   2.298   0.589   1.589  1.9781 -0.6867 -1.7263
 1532SOL     OW16054   1.728   3.568   6.422 -0.6247  0.1301  0.2673
 1532SOL    HW116055   1.667   3.515   6.474 -2.3205 -0.7082 -2.5823
 1532SOL    HW216056   1.734   3.649   6.473  1.2427 -0.2098  0.6100
 1533SOL     OW16057   1.645   3.129   5.422  0.2010  0.3847  0.5927
 1533SOL    HW116058   1.591   3.088   5.489  1.3768  0.3354  1.5178
 1533SOL    HW216059   1.715   3.066   5.405 -0.2269  0.0274  0.1685
 1534SOL     OW16060   2.446   0.829  12.823 -0.4241 -0.6881  0.1532
 1534SOL    HW116061   2.363   0.791  12.792 -0.2292 -1.2255  0.2957
 1534SOL    HW216062   2.504   0.832  12.747 -1.3393 -1.5102 -0.5738
 1535SOL     OW16063   0.027   2.281  13.485 -0.2389  0.0535  0.5077
 1535SOL    HW116064   0.073   2.223  13.547 -2.6177 -1.0282  1.2948
 1535SOL    HW216065   4.660   2.254  13.502 -0.6634  0.8025 -0.6470
 1536SOL     OW16066   0.443   1.434  10.059  0.0218  0.0206  0.2566
 1536SOL    HW116067   0.352   1.460  10.047 -0.2091 -0.2848  1.3150
 1536SOL    HW216068   0.474   1.504  10.001  4.8451 -1.3930  1.1165
 1537SOL     OW16069   1.511   1.407   7.384  0.5286 -0.1033 -0.4674
 1537SOL    HW116070   1.439   1.454   7.426  0.6798 -1.0040  0.8390
 1537SOL    HW216071   1.552   1.358   7.456  1.1935 -0.3096 -0.9889
 1538SOL     OW16072   4.459   1.106   3.405 -0.1356  0.1682  0.0342
 1538SOL    HW116073   4.417   1.066   3.481  2.1408 -0.0815  1.1394
 1538SOL    HW216074   4.537   1.149   3.440  0.3398  0.4393 -1.3714
 1539SOL     OW16075   2.405   1.161   8.445 -0.4988  0.6644  0.5258
 1539SOL    HW116076   2.450   1.149   8.362 -0.2464 -2.6435  1.1397
 1539SOL    HW216077   2.316   1.189   8.425 -1.1506 -0.1242  2.2844
 1540SOL     OW16078   0.054   2.636   7.296  0.6152  0.1106 -0.1563
 1540SOL    HW116079   0.090   2.634   7.385  0.5902  0.9401 -0.1265
 1540SOL    HW216080   0.060   2.547   7.260  0.4939 -0.3168  0.8851
 1541SOL     OW16081   1.748   0.466  17.170  0.0781  0.3807 -0.0800
 1541SOL    HW116082   1.689   0.536  17.141 -0.1149  0.8407  1.4384
 1541SOL    HW216083   1.760   0.414  17.090 -2.3136 -0.6396  0.2465
 1542SOL     OW16084   0.565   4.682   2.789 -0.0624  0.2441 -0.4637
 1542SOL    HW116085   0.567   0.017   2.866 -0.2026  0.2120 -0.4361
 1542SOL    HW216086   0.650   4.639   2.798 -0.3033 -0.3417 -1.0125
 1543SOL     OW16087   0.953   3.919   8.456  0.4316  0.1246 -0.1868
 1543SOL    HW116088   0.994   3.956   8.534 -2.4088  2.0913  0.3943
 1543SOL    HW216089   0.912   3.996   8.417  1.0127  0.6688  0.2812
 1544SOL     OW16090   1.450   3.433   1.153  0.3394  0.4641  0.2632
 1544SOL    HW116091   1.415   3.455   1.239  2.0850  0.0763  1.0641
 1544SOL    HW216092   1.401   3.352   1.138  0.1649  0.4846  0.7342
 1545SOL     OW16093   2.579   2.193   2.595  0.1338  0.0664  0.8076
 1545SOL    HW116094   2.544   2.270   2.550 -2.4460 -1.0563  0.8824
 1545SOL    HW216095   2.500   2.140   2.582 -0.0696  0.6210 -0.2186
 1546SOL     OW16096   0.538   0.910   1.645 -0.4408 -0.3612 -0.1616
 1546SOL    HW116097   0.479   0.910   1.570 -0.3050 -0.4800 -0.2682
 1546SOL    HW216098   0.588   0.991   1.639 -3.9053  1.7305 -0.7108
 1547SOL     OW16099   2.022   0.685   5.283 -0.4540  0.6177  0.3338
 1547SOL    HW116100   1.941   0.635   5.279  0.4925 -0.9300  0.7770
 1547SOL    HW216101   2.057   0.669   5.371  0.7513 -0.7419 -0.4055
 1548SOL     OW16102   2.350   3.241  12.312  0.1913  0.2725 -0.3267
 1548SOL    HW116103   2.408   3.285  12.374 -0.3247  0.9026 -0.2992
 1548SOL    HW216104   2.329   3.322  12.265  1.3683  0.2424 -0.9142
 1549SOL     OW16105   3.993   4.539  11.741  0.6653 -0.5642  0.0816
 1549SOL    HW116106   4.052   4.612  11.723 -0.6733 -0.0706 -2.2006
 1549SOL    HW216107   4.066   4.476  11.741  1.0056 -0.1973  2.4598
 1550SOL     OW16108   0.590   3.172  11.334  0.3854  0.2102 -0.3538
 1550SOL    HW116109   0.587   3.260  11.371 -0.9176  0.2358 -0.5306
 1550SOL    HW216110   0.678   3.178  11.296  0.0884 -2.9204 -1.5293
 1551SOL     OW16111   4.254   3.014  14.190  0.0018 -0.7720 -0.1457
 1551SOL    HW116112   4.163   3.011  14.222 -0.3384  1.4598 -0.9078
 1551SOL    HW216113   4.295   2.941  14.235  0.6093  0.2470  0.9691
 1552SOL     OW16114   3.818   2.963   4.370  0.1455 -0.3296  0.0303
 1552SOL    HW116115   3.873   3.002   4.438  0.0254  1.1314 -0.7017
 1552SOL    HW216116   3.854   3.016   4.299  0.8005  1.7108  1.8723
 1553SOL     OW16117   4.488   2.461   2.003  0.0666  0.2714 -0.5174
 1553SOL    HW116118   4.515   2.469   2.095 -2.5074  0.0205  0.2825
 1553SOL    HW216119   4.398   2.431   2.016  0.5314 -0.5343  0.9276
 1554SOL     OW16120   1.689   1.008  14.668  0.6924 -0.3416  0.0725
 1554SOL    HW116121   1.686   0.931  14.726 -1.3799  0.6163  1.2497
 1554SOL    HW216122   1.663   0.974  14.582 -0.1240 -0.5385  0.3873
 1555SOL     OW16123   4.658   3.116   3.465 -0.4120 -0.7774  0.8786
 1555SOL    HW116124   4.575   3.088   3.425  1.1029  1.3717 -3.7866
 1555SOL    HW216125   4.626   3.205   3.481 -1.4795 -0.6018 -2.2300
 1556SOL     OW16126   1.576   4.637   7.476  0.5710  0.1344  0.0490
 1556SOL    HW116127   1.564   4.722   7.518 -0.4679  0.4872 -0.9480
 1556SOL    HW216128   1.486   4.611   7.457  0.0003  0.8817  1.7627
 1557SOL     OW16129   2.563   3.896  10.377 -0.0454  0.0953 -0.2989
 1557SOL    HW116130   2.500   3.965  10.398 -0.1879  0.3140 -1.4610
 1557SOL    HW216131   2.506   3.822  10.358 -1.2494  0.2772  2.5265
 1558SOL     OW16132   0.285   2.068   5.795 -0.0702 -0.5273  0.2210
 1558SOL    HW116133   0.247   1.980   5.802  1.4196 -1.1291  0.6851
 1558SOL    HW216134   0.218   2.114   5.744 -1.1340 -1.1875  1.0359
 1559SOL     OW16135   1.914   3.807   8.783 -0.3139 -0.4544 -0.6812
 1559SOL    HW116136   2.000   3.812   8.825 -0.4109 -0.2852 -0.4978
 1559SOL    HW216137   1.866   3.811   8.866  1.9152 -2.6873  0.7167
 1560SOL     OW16138   1.261   0.342   3.957  0.2660 -0.6185 -0.1370
 1560SOL    HW116139   1.254   0.374   4.047  0.8183  0.9814 -0.6629
 1560SOL    HW216140   1.323   0.404   3.919  0.7298 -0.9697  0.0523
 1561SOL     OW16141   4.526   2.729  14.047  0.1743 -0.5517  0.0462
 1561SOL    HW116142   4.560   2.697  13.964  1.7713 -1.2118  0.9544
 1561SOL    HW216143   4.595   2.705  14.109  1.3918  1.1946 -0.6181
 1562SOL     OW16144   1.132   3.513   4.642  0.1477  0.5528  0.0583
 1562SOL    HW116145   1.141   3.543   4.732  0.8788 -1.3281  0.6219
 1562SOL    HW216146   1.106   3.597   4.604 -0.6524  0.5237  0.5507
 1563SOL     OW16147   2.122   1.133  14.253  0.1408 -0.1419  0.1102
 1563SOL    HW116148   2.041   1.176  14.224 -1.3313 -2.6895  0.3997
 1563SOL    HW216149   2.131   1.067  14.183  2.1114 -0.9719  1.1404
 1564SOL     OW16150   0.491   3.321   6.673  0.7637  0.1059 -0.0306
 1564SOL    HW116151   0.509   3.397   6.617  1.3919 -1.5379 -2.0729
 1564SOL    HW216152   0.478   3.370   6.754  0.3389  0.5206 -0.3452
 1565SOL     OW16153   4.170   3.949   9.892 -0.5860 -0.3597 -0.0895
 1565SOL    HW116154   4.107   4.016   9.864  0.0641  0.3442  0.1550
 1565SOL    HW216155   4.208   3.922   9.808 -3.2121 -1.7629 -0.8445
 1566SOL     OW16156   0.178   1.769   9.587 -0.2211  0.0295 -0.0195
 1566SOL    HW116157   0.173   1.754   9.492  0.1975  1.5337 -0.2761
 1566SOL    HW216158   0.139   1.856   9.596  1.6071  0.9366 -0.9424
 1567SOL     OW16159   0.468   3.775   2.312 -0.1981  0.5935 -0.9176
 1567SOL    HW116160   0.395   3.824   2.349 -0.5920  0.3526 -1.3825
 1567SOL    HW216161   0.472   3.698   2.368 -0.9711 -0.3336 -2.1487
 1568SOL     OW16162   3.305   0.416   6.025 -0.3958 -0.1431  0.1819
 1568SOL    HW116163   3.300   0.500   5.978 -1.2396  0.6642  1.7091
 1568SOL    HW216164   3.400   0.404   6.027 -0.2810  0.5611 -0.8117
 1569SOL     OW16165   3.433   2.533   4.729 -0.4606  0.0081  0.0806
 1569SOL    HW116166   3.427   2.457   4.670  2.5358  0.3995 -0.7203
 1569SOL    HW216167   3.417   2.491   4.813 -0.5388 -1.6951 -0.7680
 1570SOL     OW16168   0.322   3.200   3.132  0.2611 -0.4037  0.2692
 1570SOL    HW116169   0.227   3.192   3.138  0.2695 -2.0554 -1.8106
 1570SOL    HW216170   0.330   3.243   3.047  3.9653  0.8798  1.2887
 1571SOL     OW16171   4.308   1.196   5.052  0.0272 -1.2414  0.4988
 1571SOL    HW116172   4.285   1.160   4.966  2.0563 -2.0669  0.3039
 1571SOL    HW216173   4.370   1.259   5.018  1.3540 -2.2857  0.9895
 1572SOL     OW16174   3.390   2.432   6.153  0.9342 -0.1393 -0.1295
 1572SOL    HW116175   3.336   2.508   6.176  1.1164 -0.4502  1.3744
 1572SOL    HW216176   3.435   2.435   6.238 -0.3383  1.0966  0.5126
 1573SOL     OW16177   1.800   4.149  12.709  0.6302  0.1944  0.0326
 1573SOL    HW116178   1.823   4.126  12.619  0.1054  0.0597 -0.0675
 1573SOL    HW216179   1.753   4.071  12.739  1.1400  0.5854  1.7952
 1574SOL     OW16180   4.240   2.081   4.548  0.1144 -0.2136 -0.5703
 1574SOL    HW116181   4.211   2.127   4.469 -0.5307  0.4093  0.0329
 1574SOL    HW216182   4.265   2.154   4.605  1.2587 -0.0307 -1.3122
 1575SOL     OW16183   1.807   3.728   3.946  0.3401 -0.0127 -0.0924
 1575SOL    HW116184   1.887   3.678   3.929  0.3091 -0.3809  0.8576
 1575SOL    HW216185   1.790   3.755   3.855 -1.5345  0.0746  0.2753
 1576SOL     OW16186   3.546   0.487  11.539 -0.2245 -0.2147 -0.1211
 1576SOL    HW116187   3.595   0.469  11.459  1.7301 -1.8680  1.4494
 1576SOL    HW216188   3.537   0.579  11.515  1.3872 -0.9544 -3.4838
 1577SOL     OW16189   4.150   3.105   5.535  0.1703  0.2771 -0.1964
 1577SOL    HW116190   4.225   3.108   5.475  2.6765 -0.2744  2.9150
 1577SOL    HW216191   4.134   3.199   5.542  0.5284  0.3199  0.0432
 1578SOL     OW16192   0.924   2.148   7.224 -0.1606 -0.6854  0.0859
 1578SOL    HW116193   0.865   2.110   7.288  0.6447  1.6904  2.2164
 1578SOL    HW216194   1.013   2.126   7.253 -0.4489 -0.5791  1.0263
 1579SOL     OW16195   3.181   2.437  12.055  0.3308  0.3714 -0.5832
 1579SOL    HW116196   3.158   2.466  11.967 -1.9486 -1.8111 -0.6912
 1579SOL    HW216197   3.113   2.374  12.078  1.3199 -0.0845  1.1292
 1580SOL     OW16198   3.499   4.170   4.970 -0.0641  0.4419 -0.7575
 1580SOL    HW116199   3.436   4.191   5.038 -0.4266  2.1493 -1.6440
 1580SOL    HW216200   3.452   4.178   4.887  0.3740  1.5444 -0.8960
 1581SOL     OW16201   2.687   1.218   1.872  0.0331 -0.4088 -0.7837
 1581SOL    HW116202   2.650   1.285   1.815 -1.2325 -0.3532  0.1069
 1581SOL    HW216203   2.726   1.276   1.938 -1.3699 -2.0270  1.4758
 1582SOL     OW16204   0.707   2.338   8.721  0.6111  0.2298  0.6915
 1582SOL    HW116205   0.765   2.395   8.670 -2.6005  1.2077 -1.8533
 1582SOL    HW216206   0.739   2.249   8.709 -1.0214 -0.4060  1.0818
 1583SOL     OW16207   4.003   3.621  12.752 -0.0329  0.0002  0.5531
 1583SOL    HW116208   3.997   3.628  12.847 -0.8966 -0.1905  0.5101
 1583SOL    HW216209   4.094   3.595  12.736  0.5059  2.3630 -0.2126
 1584SOL     OW16210   3.189   0.344   9.292 -0.0730  0.9837  0.9348
 1584SOL    HW116211   3.166   0.435   9.313  0.6174  0.6798  3.0529
 1584SOL    HW216212   3.104   0.304   9.307  1.4117 -2.0266  1.2033
 1585SOL     OW16213   4.252   4.429   4.663  0.1495 -0.2199  0.0562
 1585SOL    HW116214   4.321   4.433   4.730 -2.4085  0.4590  2.6221
 1585SOL    HW216215   4.288   4.505   4.617 -1.6546 -0.5498 -1.9061
 1586SOL     OW16216   1.239   1.760   6.162 -0.3358  0.3324  0.2132
 1586SOL    HW116217   1.162   1.764   6.219 -1.5751  0.8705 -1.5248
 1586SOL    HW216218   1.241   1.665   6.151  0.3581  0.0148  3.0389
 1587SOL     OW16219   0.840   3.051   4.242  0.1014 -0.6198  0.2894
 1587SOL    HW116220   0.858   3.104   4.319 -0.7503 -0.6979  0.5401
 1587SOL    HW216221   0.879   3.101   4.170 -0.7602  0.0036  0.2481
 1588SOL     OW16222   4.111   0.459   7.415  0.3973 -0.6652  0.8567
 1588SOL    HW116223   4.097   0.541   7.463  1.0819  0.5080 -0.9372
 1588SOL    HW216224   4.026   0.442   7.376  1.7469 -1.1791 -1.8820
 1589SOL     OW16225   0.673   2.702   8.661  0.3544  0.2526 -0.1538
 1589SOL    HW116226   0.578   2.688   8.655  0.2252  0.7238  0.7827
 1589SOL    HW216227   0.662   2.768   8.729 -0.4051 -0.2567  0.2147
 1590SOL     OW16228   1.612   2.119   2.719 -0.3668 -0.1317  0.2170
 1590SOL    HW116229   1.575   2.042   2.677  0.0098 -1.0765  1.6149
 1590SOL    HW216230   1.671   2.081   2.784  1.5417  2.2507 -0.1074
 1591SOL     OW16231   3.455   4.475   5.243  0.1745  0.0293 -0.4725
 1591SOL    HW116232   3.539   4.438   5.269 -0.0988 -0.3518 -0.1179
 1591SOL    HW216233   3.388   4.445   5.305  0.3826  1.0393  0.2304
 1592SOL     OW16234   4.186   4.546   1.009 -0.4578  0.3565  0.1414
 1592SOL    HW116235   4.187   4.573   0.917  0.1776  0.9610  0.3288
 1592SOL    HW216236   4.097   4.512   1.017 -0.1388 -0.4837  0.1333
 1593SOL     OW16237   4.495   3.273   1.122  0.3862 -0.3603  0.7479
 1593SOL    HW116238   4.545   3.286   1.203  0.8037 -2.0568  0.7622
 1593SOL    HW216239   4.414   3.248   1.166  0.0291  0.0094  0.2993
 1594SOL     OW16240   2.791   0.255  13.518 -0.4814  0.1668  0.1133
 1594SOL    HW116241   2.754   0.332  13.561 -0.9083 -0.7475  1.3713
 1594SOL    HW216242   2.770   0.182  13.576  1.0568  0.6850  1.3291
 1595SOL     OW16243   1.705   1.700  14.835 -0.6471  0.2880  0.5026
 1595SOL    HW116244   1.777   1.684  14.895 -0.0567 -1.6153 -0.7351
 1595SOL    HW216245   1.648   1.760  14.884  0.6443  1.5947  0.4300
 1596SOL     OW16246   0.189   2.148   0.482  0.1174  0.3293 -0.1283
 1596SOL    HW116247   0.097   2.161   0.503  0.3263  0.3862  0.7165
 1596SOL    HW216248   0.222   2.237   0.494  0.2833 -0.1863  3.2063
 1597SOL     OW16249   1.838   2.961  14.567 -0.4647 -0.1034  0.5682
 1597SOL    HW116250   1.912   3.018  14.589  0.3381 -0.8981 -0.0775
 1597SOL    HW216251   1.871   2.875  14.543  0.9281  0.3688  0.7883
 1598SOL     OW16252   4.271   0.942   7.440 -0.1101 -0.0961  0.1722
 1598SOL    HW116253   4.266   0.891   7.521 -2.0933 -1.2691 -0.6825
 1598SOL    HW216254   4.206   1.009   7.460  1.1748  1.6186 -1.4159
 1599SOL     OW16255   2.347   2.924   4.614  1.1065 -0.5717  0.1599
 1599SOL    HW116256   2.412   2.863   4.650 -0.0254 -1.2571  1.0706
 1599SOL    HW216257   2.342   2.903   4.521  0.5359  0.9505 -0.1579
 1600SOL     OW16258   0.678   0.669   0.864 -0.0903 -0.6319  0.1599
 1600SOL    HW116259   0.608   0.642   0.924  0.2714 -1.6643  0.1127
 1600SOL    HW216260   0.629   0.713   0.794  0.1180  1.5283  1.3686
 1601SOL     OW16261   2.483   1.547   4.898  0.1404  0.4948 -0.0892
 1601SOL    HW116262   2.389   1.549   4.881 -0.7621 -4.4601  4.4214
 1601SOL    HW216263   2.503   1.458   4.871  0.7975  1.4793 -2.8707
 1602SOL     OW16264   2.665   0.116   8.880  0.1905 -0.1816  0.0449
 1602SOL    HW116265   2.718   0.120   8.801 -0.2963  0.3733 -0.2460
 1602SOL    HW216266   2.588   0.157   8.843  0.7279 -0.2743 -1.1627
 1603SOL     OW16267   0.762   0.427  16.070 -0.2849  0.1127  0.5192
 1603SOL    HW116268   0.714   0.470  15.999 -0.2469 -1.7196 -0.6045
 1603SOL    HW216269   0.848   0.433  16.029 -0.4456 -0.7696  0.0654
 1604SOL     OW16270   4.672   3.091  10.421 -0.4741 -0.6009  0.0259
 1604SOL    HW116271   0.023   3.118  10.474 -1.2957  3.2356 -0.7677
 1604SOL    HW216272   4.670   2.996  10.433 -2.2253 -0.3366  1.7307
 1605SOL     OW16273   3.701   3.857   2.728  0.0868  0.4008 -0.8411
 1605SOL    HW116274   3.656   3.788   2.678 -0.7216  1.0004 -0.9286
 1605SOL    HW216275   3.698   3.830   2.820 -1.7622  0.7864 -0.8002
 1606SOL     OW16276   4.313   3.583   8.245 -0.5085 -0.1749  0.1286
 1606SOL    HW116277   4.289   3.670   8.214 -0.6084  0.1267  1.0320
 1606SOL    HW216278   4.404   3.601   8.268 -1.0071  1.6536  0.6867
 1607SOL     OW16279   3.103   2.918  14.897  0.1544 -0.3991 -0.2572
 1607SOL    HW116280   3.172   2.884  14.840 -0.1176 -1.5424  0.1040
 1607SOL    HW216281   3.139   3.000  14.931 -0.7332 -0.4910  0.9210
 1608SOL     OW16282   2.764   1.805   5.180  0.2971  0.1059 -0.6779
 1608SOL    HW116283   2.793   1.892   5.206  1.4634 -0.0423 -1.4761
 1608SOL    HW216284   2.670   1.797   5.198  0.6936 -0.1330  1.1937
 1609SOL     OW16285   2.822   4.204   8.700 -0.0859 -0.1423 -0.0143
 1609SOL    HW116286   2.854   4.131   8.648 -0.2017  0.2905 -0.6935
 1609SOL    HW216287   2.737   4.168   8.724 -0.8513  1.3025 -0.5433
 1610SOL     OW16288   3.159   1.869  17.689  0.4708  0.0956 -0.4587
 1610SOL    HW116289   3.184   1.955  17.654 -0.8822  1.2427  1.3764
 1610SOL    HW216290   3.153   1.886   0.087  0.8705 -1.3800 -0.1702
 1611SOL     OW16291   0.248   1.565   6.892 -0.1681 -0.0932  0.2684
 1611SOL    HW116292   0.215   1.631   6.953  1.5056 -0.3794  1.4872
 1611SOL    HW216293   0.220   1.481   6.929 -1.9673  0.4680  0.1875
 1612SOL     OW16294   0.696   2.729   9.351  0.2991 -0.1401  0.1013
 1612SOL    HW116295   0.674   2.820   9.369 -1.3722 -0.4096 -0.5741
 1612SOL    HW216296   0.710   2.735   9.256 -1.7837 -0.2100 -0.2073
 1613SOL     OW16297   4.293   0.161   4.025  0.3583  0.3445 -0.2891
 1613SOL    HW116298   4.350   0.232   4.052  1.2355 -0.7186  0.6259
 1613SOL    HW216299   4.206   0.202   4.031  0.7925  1.0827  0.9527
 1614SOL     OW16300   4.690   4.103  12.105  0.2743 -0.1515 -0.3621
 1614SOL    HW116301   0.015   4.186  12.112  2.3849 -1.3303 -1.1841
 1614SOL    HW216302   0.009   4.043  12.165  0.7131 -0.3184 -0.8392
 1615SOL     OW16303   0.365   3.156   5.995  0.1124 -0.8832  0.5711
 1615SOL    HW116304   0.270   3.153   5.979 -0.1504  2.4103  1.5309
 1615SOL    HW216305   0.364   3.132   6.088 -1.0643 -0.1211  0.7677
 1616SOL     OW16306   1.116   2.501   2.574 -0.1081 -0.9545  0.8254
 1616SOL    HW116307   1.142   2.594   2.576  0.9249 -1.2415  0.8114
 1616SOL    HW216308   1.030   2.504   2.532  1.2509 -2.0385 -2.0452
 1617SOL     OW16309   0.089   0.621   4.251  0.2065 -0.4648 -0.1500
 1617SOL    HW116310   0.184   0.620   4.248  0.2460 -0.0979  1.1128
 1617SOL    HW216311   0.088   0.715   4.232 -2.2490  0.0201  2.4560
 1618SOL     OW16312   1.367   0.504   1.673  0.3432  0.1681  0.1579
 1618SOL    HW116313   1.318   0.512   1.592  2.7604 -1.4340 -1.4650
 1618SOL    HW216314   1.292   0.510   1.732 -0.9304  0.2427 -1.4735
 1619SOL     OW16315   3.704   4.075   4.845  0.1144  0.5789  0.3798
 1619SOL    HW116316   3.732   3.987   4.872 -1.2841 -0.5713 -1.9583
 1619SOL    HW216317   3.630   4.098   4.901  1.1360  0.9524  1.5734
 1620SOL     OW16318   3.486   0.582  13.634 -0.0320 -0.1386 -0.5030
 1620SOL    HW116319   3.395   0.581  13.663  0.0119 -0.5571 -0.3674
 1620SOL    HW216320   3.505   0.675  13.625  2.2763 -0.6395 -0.7427
 1621SOL     OW16321   3.016   0.776   1.111  0.0915  0.4224 -0.0272
 1621SOL    HW116322   2.946   0.744   1.169  0.7684 -1.7433 -0.3933
 1621SOL    HW216323   3.048   0.691   1.081 -2.8428 -0.7941  0.2251
 1622SOL     OW16324   0.624   3.330   7.470 -0.1865 -0.8375  0.4418
 1622SOL    HW116325   0.544   3.358   7.514 -0.2595  2.4526 -1.7971
 1622SOL    HW216326   0.688   3.360   7.534 -0.0793 -1.7226  0.7464
 1623SOL     OW16327   1.243   1.677   4.051  0.0952  0.4377  0.6781
 1623SOL    HW116328   1.274   1.751   4.103 -1.4422  0.1902  1.9375
 1623SOL    HW216329   1.318   1.648   3.999 -1.4875  2.5871 -2.7916
 1624SOL     OW16330   2.437   1.597   1.628 -0.8716 -0.2309 -0.7116
 1624SOL    HW116331   2.343   1.579   1.632 -1.0359  0.8165  0.0704
 1624SOL    HW216332   2.429   1.637   1.541 -0.9727  1.0601 -0.1059
 1625SOL     OW16333   0.676   3.966   8.168 -0.0192  0.0213  0.2716
 1625SOL    HW116334   0.639   4.043   8.125  0.1276  0.3775  0.7772
 1625SOL    HW216335   0.623   3.893   8.136 -1.0006  0.9709 -0.2999
 1626SOL     OW16336   0.600   1.926   6.032  0.2014 -0.3982 -1.1743
 1626SOL    HW116337   0.638   1.989   6.093 -0.9182 -0.4193 -0.4605
 1626SOL    HW216338   0.603   1.847   6.086  1.3452 -0.4856 -1.3675
 1627SOL     OW16339   3.189   0.022   0.897  0.7162  0.8071  0.1363
 1627SOL    HW116340   3.152   0.084   0.960  0.6103  2.0032 -1.1009
 1627SOL    HW216341   3.195   4.673   0.959 -1.2273 -0.4878 -1.1868
 1628SOL     OW16342   1.182   0.458  16.800  0.4964  0.1344  0.3982
 1628SOL    HW116343   1.261   0.410  16.821  0.7795  0.1242 -0.6984
 1628SOL    HW216344   1.171   0.420  16.713 -1.4826 -0.3885  0.8751
 1629SOL     OW16345   4.343   1.239  17.180  0.0116 -0.3178  0.6472
 1629SOL    HW116346   4.344   1.187  17.099  0.1933 -3.6112  2.7609
 1629SOL    HW216347   4.299   1.175  17.236  2.6581 -0.7688  2.2197
 1630SOL     OW16348   4.708   3.648   7.239  0.1964 -0.4645  0.0053
 1630SOL    HW116349   4.674   3.737   7.226 -4.5995 -2.2975  0.0211
 1630SOL    HW216350   4.657   3.619   7.315 -0.1453 -2.0653 -0.8360
 1631SOL     OW16351   1.317   4.385  14.791 -0.6562  0.2862 -0.0776
 1631SOL    HW116352   1.245   4.375  14.854 -0.2140  1.4518  0.5998
 1631SOL    HW216353   1.357   4.471  14.804  0.7940 -0.1884 -1.4033
 1632SOL     OW16354   0.361   1.209   8.493  0.5386  0.0407  0.4481
 1632SOL    HW116355   0.416   1.136   8.521  0.4310  0.0592  0.7005
 1632SOL    HW216356   0.418   1.285   8.477 -1.1107  1.6131  2.0051
 1633SOL     OW16357   3.076   1.961   9.937  0.0458  0.1356 -0.4199
 1633SOL    HW116358   3.148   1.905   9.966  2.0054  0.7460 -4.1263
 1633SOL    HW216359   3.022   1.893   9.897  0.3670 -1.7809  2.3893
 1634SOL     OW16360   1.175   1.241  16.266 -0.0099  0.8804  0.4138
 1634SOL    HW116361   1.169   1.254  16.171  2.8979  0.3889  0.1774
 1634SOL    HW216362   1.082   1.246  16.289  0.4293  0.1644  2.3141
 1635SOL     OW16363   4.068   3.782   9.067  0.0599  0.7736 -0.0630
 1635SOL    HW116364   3.986   3.746   9.099 -0.0898  1.1774 -0.0033
 1635SOL    HW216365   4.053   3.849   9.000 -1.2463 -0.5810 -1.1314
 1636SOL     OW16366   1.755   0.555  13.010 -0.7840  0.1463  0.4469
 1636SOL    HW116367   1.719   0.523  12.927 -0.2821  0.4306  0.1229
 1636SOL    HW216368   1.846   0.569  12.985 -0.5316 -0.7992  0.8511
 1637SOL     OW16369   4.365   2.811   2.064 -0.2343  0.0849 -0.7720
 1637SOL    HW116370   4.325   2.790   1.980 -0.2859  0.8369 -0.9376
 1637SOL    HW216371   4.312   2.884   2.097 -0.6337 -0.3232 -0.5284
 1638SOL     OW16372   4.564   1.207   2.499  0.8870 -0.1702 -0.0740
 1638SOL    HW116373   4.470   1.193   2.515  0.9114  0.4231  0.6114
 1638SOL    HW216374   4.570   1.236   2.408 -0.3314 -0.7423 -0.3439
 1639SOL     OW16375   1.428   0.313   8.782  0.3643 -0.7886 -0.1940
 1639SOL    HW116376   1.386   0.276   8.861  0.8246  0.6950  0.7347
 1639SOL    HW216377   1.461   0.231   8.745 -0.7532 -2.1450  1.7751
 1640SOL     OW16378   3.423   2.486   1.707  0.3213 -0.0052  0.0834
 1640SOL    HW116379   3.336   2.526   1.716  0.4108  0.0724  0.6336
 1640SOL    HW216380   3.446   2.518   1.620  0.6357  0.3779  0.3046
 1641SOL     OW16381   3.699   2.597   0.182  0.2299  0.1655  0.0957
 1641SOL    HW116382   3.688   2.506   0.211 -0.2093 -0.4351 -1.9411
 1641SOL    HW216383   3.714   2.641   0.265 -0.9636 -0.0620  0.4306
 1642SOL     OW16384   3.167   1.080   3.812  0.9720  0.6394 -0.0470
 1642SOL    HW116385   3.111   1.018   3.858  0.6133  0.5511 -0.6000
 1642SOL    HW216386   3.098   1.110   3.753 -0.6501  0.8527  1.9309
 1643SOL     OW16387   0.992   3.817   5.544 -0.3500  0.6372  0.0807
 1643SOL    HW116388   0.916   3.872   5.526 -1.4798 -0.4922  1.3502
 1643SOL    HW216389   1.028   3.794   5.458 -1.5349 -1.5981  0.1549
 1644SOL     OW16390   2.180   1.537   4.262  0.2965  0.5313 -0.6314
 1644SOL    HW116391   2.130   1.546   4.181  0.2278  0.3178 -0.6110
 1644SOL    HW216392   2.269   1.550   4.229  0.3672 -0.6259 -0.9023
 1645SOL     OW16393   3.100   3.194  11.080 -0.3232  0.1373 -0.2189
 1645SOL    HW116394   3.037   3.246  11.029  0.5542  2.1651  0.7581
 1645SOL    HW216395   3.129   3.132  11.013  1.2343  0.7304 -0.0986
 1646SOL     OW16396   3.886   0.068  12.910 -0.1443  0.0470  0.5699
 1646SOL    HW116397   3.831   0.120  12.969  1.3040  0.8557  1.2084
 1646SOL    HW216398   3.901   0.133  12.841  0.1670 -0.9213 -0.2874
 1647SOL     OW16399   3.210   3.827   2.526  0.2148 -0.5519 -0.3064
 1647SOL    HW116400   3.265   3.905   2.521 -0.7278  0.2038  1.1166
 1647SOL    HW216401   3.168   3.838   2.441  1.0691  0.1458 -0.6334
 1648SOL     OW16402   1.440   2.365   4.958 -0.2587  0.0801 -0.4747
 1648SOL    HW116403   1.369   2.419   4.922 -2.5582 -3.1054 -0.6667
 1648SOL    HW216404   1.489   2.337   4.881 -0.1718 -2.0142  0.3367
 1649SOL     OW16405   4.212   3.770  10.071  0.7087  0.1768  0.0400
 1649SOL    HW116406   4.299   3.756  10.034  0.9293 -2.1227  1.3908
 1649SOL    HW216407   4.176   3.838  10.014 -0.1557  0.8192  1.3396
 1650SOL     OW16408   2.209   2.010   0.288  0.4676 -0.2451 -0.0035
 1650SOL    HW116409   2.300   2.030   0.310 -0.1230  2.7504 -0.2734
 1650SOL    HW216410   2.180   1.994   0.378 -1.0816 -0.9817 -0.6289
 1651SOL     OW16411   0.720   1.119   4.029 -0.0980 -0.0551 -0.2971
 1651SOL    HW116412   0.793   1.147   3.974 -0.2600  2.5291  0.7844
 1651SOL    HW216413   0.760   1.065   4.097  1.1526 -0.3353 -1.2519
 1652SOL     OW16414   0.116   2.147   6.379 -0.3372 -0.4162  0.0518
 1652SOL    HW116415   0.049   2.136   6.447  2.7396 -0.4424  3.0672
 1652SOL    HW216416   0.059   2.144   6.301 -2.1335  2.1326  1.2646
 1653SOL     OW16417   3.413   1.329   7.453  0.3001  0.3604  0.0155
 1653SOL    HW116418   3.407   1.246   7.406  3.6706  1.3109 -2.0872
 1653SOL    HW216419   3.465   1.288   7.522  0.0588  0.9866  0.5663
 1654SOL     OW16420   0.302   3.649   6.627 -0.0750 -0.5066 -0.6192
 1654SOL    HW116421   0.360   3.726   6.620  1.1510 -1.2334  1.6045
 1654SOL    HW216422   0.283   3.643   6.721  0.3232 -0.6615 -0.5483
 1655SOL     OW16423   0.004   0.017   5.970 -0.6804 -0.1986 -0.3649
 1655SOL    HW116424   4.663   4.703   5.911 -3.3572  4.0084 -0.0698
 1655SOL    HW216425   0.018   4.671   6.035  0.7943 -0.4970 -0.9957
 1656SOL     OW16426   1.458   3.736   2.850 -0.3457  0.0808  0.9432
 1656SOL    HW116427   1.452   3.708   2.941  2.7843  2.2130  1.8019
 1656SOL    HW216428   1.375   3.784   2.850 -0.8405 -0.7648  1.5519
 1657SOL     OW16429   4.587   4.365   6.904  0.3416 -0.3039  0.0858
 1657SOL    HW116430   4.530   4.402   6.972  1.2020  1.1507  0.0245
 1657SOL    HW216431   4.664   4.421   6.916  0.4918 -0.1925 -1.4043
 1658SOL     OW16432   1.145   1.073  17.495 -0.0189  0.9848 -0.3648
 1658SOL    HW116433   1.103   1.069  17.409 -2.1637  0.5761  0.7079
 1658SOL    HW216434   1.202   1.149  17.495 -1.0083  1.7215 -1.5383
 1659SOL     OW16435   0.898   3.245   4.438  0.2763 -0.3442 -0.1522
 1659SOL    HW116436   0.929   3.248   4.529 -1.8751 -0.5020  0.5849
 1659SOL    HW216437   0.974   3.281   4.393  0.5079  0.3445  0.7883
 1660SOL     OW16438   0.005   0.346   7.032  0.0669 -0.3949  0.4769
 1660SOL    HW116439   0.052   0.396   7.099 -0.5799  0.4723  0.2854
 1660SOL    HW216440   0.077   0.299   6.989 -0.0006  0.9143 -1.0771
 1661SOL     OW16441   4.357   4.100   6.207  0.1167 -0.4150  0.5252
 1661SOL    HW116442   4.323   4.029   6.261 -2.8988  1.5779  1.2324
 1661SOL    HW216443   4.286   4.108   6.143  2.1516  0.5142 -1.6501
 1662SOL     OW16444   0.239   0.223   6.869  0.0519 -0.1386 -0.4139
 1662SOL    HW116445   0.212   0.196   6.781 -2.3730  0.6437  0.0931
 1662SOL    HW216446   0.322   0.264   6.843  0.5935 -0.6290  0.5491
 1663SOL     OW16447   1.252   1.937  10.944  0.0517  0.2681 -0.2245
 1663SOL    HW116448   1.308   1.951  10.868 -0.4121  2.6152 -0.1190
 1663SOL    HW216449   1.270   1.844  10.958  0.4182  0.3593 -0.0906
 1664SOL     OW16450   1.663   4.349   1.951  0.2194 -0.5593 -0.3544
 1664SOL    HW116451   1.654   4.282   1.883 -0.7002  1.1018 -1.8937
 1664SOL    HW216452   1.640   4.294   2.026  1.4733  2.2104  2.0597
 1665SOL     OW16453   0.442   1.382   1.663  0.7924  0.3622 -0.2047
 1665SOL    HW116454   0.468   1.421   1.746 -2.8070  0.7893  0.7070
 1665SOL    HW216455   0.455   1.459   1.607  0.2257  0.2372 -0.5062
 1666SOL     OW16456   0.698   2.954  16.738  0.1068  0.4275  0.1292
 1666SOL    HW116457   0.755   2.974  16.664 -0.5097 -2.8110 -1.1858
 1666SOL    HW216458   0.743   2.990  16.814  0.5754  0.0007  0.0494
 1667SOL     OW16459   1.428   1.897  16.884  0.7421  0.1002  0.1337
 1667SOL    HW116460   1.435   1.853  16.800  2.2501 -0.5606  0.6056
 1667SOL    HW216461   1.417   1.820  16.941  0.8131 -0.5409 -0.7089
 1668SOL     OW16462   3.914   4.559   4.108  0.0761 -0.3453  0.4310
 1668SOL    HW116463   3.958   4.519   4.184  0.6912 -1.7597 -0.6778
 1668SOL    HW216464   3.914   4.649   4.141  0.8695 -0.4088  0.6097
 1669SOL     OW16465   1.461   0.835   2.574  0.7990  0.6216  0.1123
 1669SOL    HW116466   1.469   0.793   2.489 -0.2742 -1.0208  0.8220
 1669SOL    HW216467   1.498   0.922   2.558  2.1155 -0.0931 -0.6962
 1670SOL     OW16468   0.834   2.544   4.833  0.4585 -0.2390  0.2678
 1670SOL    HW116469   0.774   2.615   4.808  0.8805  1.0137  2.8682
 1670SOL    HW216470   0.846   2.492   4.753 -0.8808  1.4494 -1.0332
 1671SOL     OW16471   3.276   3.643   7.658 -0.3743 -0.6569 -0.1904
 1671SOL    HW116472   3.358   3.691   7.666 -1.0952  0.8312 -1.7213
 1671SOL    HW216473   3.270   3.631   7.564 -1.7219  0.2920 -0.2247
 1672SOL     OW16474   0.026   2.199  15.111 -0.1145 -0.0128  0.2170
 1672SOL    HW116475   4.669   2.245  15.087 -0.5417 -0.5778  0.5646
 1672SOL    HW216476   0.014   2.129  15.047 -0.9946  0.3830 -0.0419
 1673SOL     OW16477   3.364   1.388   4.098  0.4920  0.1570 -0.3225
 1673SOL    HW116478   3.458   1.372   4.111  0.0599 -1.9592  0.3595
 1673SOL    HW216479   3.346   1.439   4.177  2.2257  0.8080 -0.3367
 1674SOL     OW16480   4.303   1.197   2.496  0.0376  0.8585 -0.3492
 1674SOL    HW116481   4.222   1.190   2.548  0.6978  0.3824  0.6150
 1674SOL    HW216482   4.287   1.135   2.425 -0.2213  0.8237 -0.2616
 1675SOL     OW16483   1.489   3.737  10.195  0.0656  0.1499  0.0235
 1675SOL    HW116484   1.427   3.759  10.265  0.6266 -3.1395  1.5673
 1675SOL    HW216485   1.424   3.711  10.129  0.9651  2.1146 -1.6133
 1676SOL     OW16486   0.726   2.808   0.117  0.5093  0.8694  0.6045
 1676SOL    HW116487   0.674   2.830   0.194 -0.2984  4.7689 -1.0850
 1676SOL    HW216488   0.819   2.815   0.135  0.2129  2.8460  1.3621
 1677SOL     OW16489   0.729   3.809   9.378 -0.3288 -0.3999  0.4395
 1677SOL    HW116490   0.753   3.731   9.327 -0.9498 -1.0915  1.2028
 1677SOL    HW216491   0.665   3.851   9.320  0.8387  0.6290 -0.1156
 1678SOL     OW16492   1.191   3.716   5.860 -0.3912  0.1037  0.0315
 1678SOL    HW116493   1.226   3.667   5.786 -1.9499  0.6835 -1.0924
 1678SOL    HW216494   1.136   3.644   5.890 -0.0630  0.1787  0.8044
 1679SOL     OW16495   3.986   4.041  13.347 -0.3368 -0.2405 -0.4092
 1679SOL    HW116496   3.932   4.110  13.308 -1.1251 -0.5868  0.0743
 1679SOL    HW216497   4.041   4.030  13.269 -0.2425  3.5248 -0.8702
 1680SOL     OW16498   0.136   1.095   2.369  0.2275  0.2546  0.1093
 1680SOL    HW116499   0.088   1.134   2.442 -0.7295 -0.0791 -0.3473
 1680SOL    HW216500   0.200   1.050   2.425  0.1400 -0.3158 -0.2506
 1681SOL     OW16501   3.805   2.259   5.865 -0.1981  0.2078 -0.0167
 1681SOL    HW116502   3.841   2.187   5.917 -3.2187 -0.1524  1.5272
 1681SOL    HW216503   3.771   2.320   5.930 -0.5758 -1.6433  1.5207
 1682SOL     OW16504   3.084   0.509   1.052  0.4841  0.2008 -0.4105
 1682SOL    HW116505   3.115   0.454   1.124 -0.3390 -0.7606 -0.7916
 1682SOL    HW216506   3.127   0.468   0.978  1.3427  2.0408 -0.9332
 1683SOL     OW16507   1.654   2.074   8.119 -0.0073 -0.1822  0.0814
 1683SOL    HW116508   1.697   2.040   8.041 -1.2044  1.5541 -1.3209
 1683SOL    HW216509   1.731   2.097   8.171  2.0328 -1.2980 -2.4401
 1684SOL     OW16510   1.614   3.737   9.437 -0.4899  0.1060 -0.0278
 1684SOL    HW116511   1.637   3.687   9.359 -1.0610  3.6727 -2.4851
 1684SOL    HW216512   1.691   3.791   9.453  1.0126 -1.7102 -1.2253
 1685SOL     OW16513   2.524   0.806   6.372  0.3011  0.2543  0.1280
 1685SOL    HW116514   2.539   0.727   6.320 -0.1692  0.5817 -0.5034
 1685SOL    HW216515   2.490   0.863   6.303  3.2258  0.2094 -1.3626
 1686SOL     OW16516   0.631   2.177   5.806 -0.0665 -0.3664 -0.0393
 1686SOL    HW116517   0.720   2.152   5.830 -0.3735 -0.9626  0.4642
 1686SOL    HW216518   0.586   2.191   5.889  1.4448  1.7352  0.4150
 1687SOL     OW16519   3.393   1.598  11.443 -0.2274  0.3560 -0.4761
 1687SOL    HW116520   3.339   1.637  11.512  0.3188 -0.1166  0.2187
 1687SOL    HW216521   3.330   1.554  11.386 -0.6986  0.4194 -0.0054
 1688SOL     OW16522   4.481   4.057   2.499 -0.1757  0.0321 -0.3970
 1688SOL    HW116523   4.449   4.135   2.454  2.0776  0.5316 -1.1388
 1688SOL    HW216524   4.489   4.099   2.585 -2.3318 -1.6392  0.6112
 1689SOL     OW16525   4.121   0.432  11.045  0.0711  0.6792 -0.0381
 1689SOL    HW116526   4.051   0.448  11.108  0.1108 -1.2318  0.4911
 1689SOL    HW216527   4.180   0.506  11.062 -0.4007  0.6051  1.9715
 1690SOL     OW16528   3.903   2.924   2.748 -0.4497 -0.2065  0.5436
 1690SOL    HW116529   3.917   3.014   2.717  0.5377 -1.0216 -1.4313
 1690SOL    HW216530   3.853   2.934   2.828  1.4419  0.6967  1.6157
 1691SOL     OW16531   2.324   1.739  11.622  0.0398  0.2790 -0.2662
 1691SOL    HW116532   2.384   1.730  11.547 -0.0099  2.2257 -0.5461
 1691SOL    HW216533   2.275   1.658  11.614 -0.4323  0.4845  0.6518
 1692SOL     OW16534   2.541   4.256   9.240  0.3993  0.1074  0.2150
 1692SOL    HW116535   2.456   4.301   9.246  0.1366 -0.1162 -1.8621
 1692SOL    HW216536   2.576   4.297   9.161 -0.8029  1.5027  0.3900
 1693SOL     OW16537   3.444   1.074   7.363 -0.1859 -0.6398 -0.4229
 1693SOL    HW116538   3.501   1.018   7.415 -0.1533  0.3314  0.5821
 1693SOL    HW216539   3.367   1.018   7.355 -0.9389 -0.0844  3.1091
 1694SOL     OW16540   0.913   1.424  16.105  0.6911  0.1233 -0.6171
 1694SOL    HW116541   0.976   1.356  16.079  0.0880  0.1746 -2.2173
 1694SOL    HW216542   0.835   1.391  16.060 -0.5723 -1.1546  2.4713
 1695SOL     OW16543   3.520   0.164   6.473  0.5744 -0.7285 -0.1715
 1695SOL    HW116544   3.552   0.199   6.557 -2.0181  2.8322 -0.6445
 1695SOL    HW216545   3.587   0.187   6.409 -0.1332 -1.1311 -1.0608
 1696SOL     OW16546   3.975   2.636  16.613  0.1834 -0.2264  0.0077
 1696SOL    HW116547   3.996   2.702  16.548 -1.2681 -0.9313 -1.1906
 1696SOL    HW216548   3.890   2.669  16.644  0.3853 -0.8477  1.2341
 1697SOL     OW16549   0.720   4.636   9.858 -0.4943  0.1324 -0.3370
 1697SOL    HW116550   0.625   4.629   9.863 -0.2359 -1.7084  1.7757
 1697SOL    HW216551   0.750   4.579   9.787  0.8371  1.6021 -0.9557
 1698SOL     OW16552   3.630   0.070  14.364 -0.0913  0.4590 -0.0965
 1698SOL    HW116553   3.667   0.112  14.442 -1.2343  0.6085  0.3628
 1698SOL    HW216554   3.668   0.118  14.291  0.1471  1.0753  0.4331
 1699SOL     OW16555   1.048   2.629   0.460  0.1313 -0.3553 -0.0525
 1699SOL    HW116556   0.992   2.684   0.406 -1.4921 -2.0777 -0.1427
 1699SOL    HW216557   0.998   2.600   0.537  0.3429  2.4541  1.1527
 1700SOL     OW16558   0.343   0.707   5.814  0.2694  0.3969  0.1022
 1700SOL    HW116559   0.376   0.750   5.893 -0.3371 -2.6480  1.9913
 1700SOL    HW216560   0.250   0.705   5.836  0.4568  1.6362  0.9950
 1701SOL     OW16561   2.431   0.798   3.712 -0.1630 -0.0924  0.5441
 1701SOL    HW116562   2.475   0.881   3.731  0.7399 -0.3758 -0.3378
 1701SOL    HW216563   2.492   0.738   3.755 -0.5199  0.2216  1.5020
 1702SOL     OW16564   0.731   2.528   7.804  0.3330  0.2506 -0.0042
 1702SOL    HW116565   0.642   2.551   7.779  0.5154  1.7816  0.8018
 1702SOL    HW216566   0.766   2.555   7.719 -1.2997  0.2298 -0.6906
 1703SOL     OW16567   2.274   4.324   5.337  0.2559 -0.2748 -0.5599
 1703SOL    HW116568   2.185   4.317   5.302  0.7271 -0.8711 -1.6366
 1703SOL    HW216569   2.302   4.233   5.326 -0.6325 -0.5398 -0.6210
 1704SOL     OW16570   3.854   3.133   4.841 -0.2425  0.3097  0.3212
 1704SOL    HW116571   3.916   3.123   4.914 -0.2007 -2.7758 -0.1385
 1704SOL    HW216572   3.826   3.044   4.820  0.3180  0.6122 -1.6925
 1705SOL     OW16573   0.611   2.708  16.488  0.2171  0.5492 -0.3708
 1705SOL    HW116574   0.599   2.687  16.581 -1.7997  0.8991 -0.5579
 1705SOL    HW216575   0.706   2.696  16.483  0.0123 -0.4128 -1.9328
 1706SOL     OW16576   0.025   0.783   2.225 -0.5105 -0.4804  0.3795
 1706SOL    HW116577   0.049   0.692   2.207 -2.6480 -0.7562 -1.1805
 1706SOL    HW216578   0.112   0.816   2.244 -0.4639 -0.2736 -0.1741
 1707SOL     OW16579   1.762   1.924  15.248  0.3775  0.1096 -0.2333
 1707SOL    HW116580   1.670   1.904  15.229  0.4911 -0.6151  0.0065
 1707SOL    HW216581   1.784   1.855  15.309 -1.6027 -0.2609  0.0697
 1708SOL     OW16582   0.116   0.967   1.644 -0.0106 -0.1093 -0.0771
 1708SOL    HW116583   0.127   1.060   1.667 -0.6809  0.0496 -0.3857
 1708SOL    HW216584   0.150   0.926   1.723 -0.2436 -0.7316 -0.2983
 1709SOL     OW16585   4.619   3.908  10.760  0.0339 -0.2321  0.3812
 1709SOL    HW116586   4.708   3.894  10.726 -0.0434 -3.4835  1.5123
 1709SOL    HW216587   4.579   3.938  10.679 -0.7345  1.5857  1.4064
 1710SOL     OW16588   3.659   0.046   1.643  0.0917 -0.3548 -1.1038
 1710SOL    HW116589   3.610   0.117   1.685 -0.1405 -2.1421  1.5963
 1710SOL    HW216590   3.740   0.089   1.615 -1.1979  3.1487  0.4877
 1711SOL     OW16591   2.517   1.072   3.712 -0.0041 -0.6110  0.0555
 1711SOL    HW116592   2.478   1.118   3.637 -3.6975 -2.4948  0.8077
 1711SOL    HW216593   2.534   1.155   3.756 -0.1595 -0.7890  0.4504
 1712SOL     OW16594   4.588   0.785   7.097  0.5486  0.4207 -0.4050
 1712SOL    HW116595   4.586   0.741   7.182  0.0436  0.0946 -0.5927
 1712SOL    HW216596   4.502   0.827   7.100 -0.1837 -1.0110 -1.9033
 1713SOL     OW16597   2.449   4.638   6.305  0.0384 -0.2291 -0.1469
 1713SOL    HW116598   2.432   4.656   6.397  0.4573  3.5812 -0.8102
 1713SOL    HW216599   2.540   4.608   6.313 -0.1513 -1.2745 -2.0354
 1714SOL     OW16600   2.145   0.418   6.965  0.0118 -0.5163  0.1565
 1714SOL    HW116601   2.150   0.397   7.058 -0.7174  1.2827  0.5976
 1714SOL    HW216602   2.212   0.358   6.932 -0.3470  0.0663 -1.6557
 1715SOL     OW16603   1.148   0.581   2.227  0.4709 -0.0126  0.0569
 1715SOL    HW116604   1.080   0.583   2.160  1.8307 -0.6729 -1.3516
 1715SOL    HW216605   1.230   0.605   2.183 -0.1485  2.0564  0.0266
 1716SOL     OW16606   3.166   0.608   6.473 -0.4656 -0.6948 -0.0893
 1716SOL    HW116607   3.235   0.564   6.522  1.8810  1.6685 -1.2681
 1716SOL    HW216608   3.167   0.558   6.391  1.6526  1.5140 -1.4102
 1717SOL     OW16609   0.045   3.691   4.928 -0.0917  0.1453  0.5256
 1717SOL    HW116610   4.682   3.652   4.936 -1.6487  3.7262  1.1314
 1717SOL    HW216611   0.018   3.766   4.875  3.1542  1.9453  1.3979
 1718SOL     OW16612   0.616   3.228   8.111 -0.0388  0.6325  0.4601
 1718SOL    HW116613   0.671   3.277   8.172 -2.5620 -0.0520  3.2797
 1718SOL    HW216614   0.537   3.213   8.162 -0.2538 -0.8674 -0.3259
 1719SOL     OW16615   1.407   0.024   8.655  0.8001 -0.1013 -0.1846
 1719SOL    HW116616   1.372   4.658   8.650  0.6656 -0.0706  0.1807
 1719SOL    HW216617   1.480   0.007   8.714  0.3523 -2.0240 -0.1675
 1720SOL     OW16618   4.463   1.990   7.008 -0.2918 -0.0205  0.4497
 1720SOL    HW116619   4.429   2.061   6.954 -0.7559 -1.5576 -1.2768
 1720SOL    HW216620   4.510   1.935   6.945 -0.4682 -1.5764  1.6647
 1721SOL     OW16621   3.463   3.401   8.224  0.1639  0.4113 -0.8551
 1721SOL    HW116622   3.432   3.319   8.187 -1.8825  0.4719  0.7381
 1721SOL    HW216623   3.506   3.373   8.305 -1.0335  1.6013  0.1974
 1722SOL     OW16624   1.708   1.374   3.707  0.4193 -0.7503 -0.2007
 1722SOL    HW116625   1.647   1.433   3.662 -0.0017 -0.1623  1.1247
 1722SOL    HW216626   1.764   1.351   3.633  0.6867 -0.2561 -0.1546
 1723SOL     OW16627   2.751   3.834  16.054  0.2652 -0.4138 -0.6136
 1723SOL    HW116628   2.827   3.783  16.082  1.4535  1.0274 -1.1825
 1723SOL    HW216629   2.782   3.924  16.040  1.5130 -0.6930  0.3685
 1724SOL     OW16630   4.308   0.520   5.819  0.1433 -0.1532 -0.0907
 1724SOL    HW116631   4.258   0.585   5.867 -0.3160 -0.0657 -0.6937
 1724SOL    HW216632   4.350   0.470   5.889 -0.0230  1.0614  0.8725
 1725SOL     OW16633   2.747   3.434   5.477  0.0357 -0.4771  0.0805
 1725SOL    HW116634   2.745   3.345   5.443  0.3128 -0.0134 -1.1704
 1725SOL    HW216635   2.743   3.417   5.571 -2.0646  2.5550  0.5542
 1726SOL     OW16636   0.272   3.717   7.207 -0.3803  0.1101  0.4409
 1726SOL    HW116637   0.181   3.736   7.229 -0.8186 -0.8558 -0.5595
 1726SOL    HW216638   0.289   3.655   7.278  1.9096 -0.4630 -0.6117
 1727SOL     OW16639   1.956   2.931   3.507 -0.0784  0.0684  0.1289
 1727SOL    HW116640   1.947   2.905   3.415 -0.1684 -0.6255  0.3408
 1727SOL    HW216641   2.049   2.910   3.512 -0.7636 -3.1191 -0.5110
 1728SOL     OW16642   0.622   3.683  10.078  0.1424  0.2378  0.0812
 1728SOL    HW116643   0.560   3.744  10.117  0.9794 -0.1712  2.0228
 1728SOL    HW216644   0.674   3.661  10.155  2.1699  0.8697 -1.1057
 1729SOL     OW16645   3.957   4.456  15.731  0.3117  0.0810 -0.0464
 1729SOL    HW116646   3.971   4.512  15.655  1.3479 -1.1192 -0.7509
 1729SOL    HW216647   3.877   4.494  15.765 -0.1013  0.2211 -1.1820
 1730SOL     OW16648   0.058   4.292   4.306 -0.0370 -0.1774  0.0655
 1730SOL    HW116649   4.719   4.230   4.268 -0.4256  1.3252 -1.7780
 1730SOL    HW216650   0.011   4.356   4.360 -0.8281  0.1838 -1.0284
 1731SOL     OW16651   0.010   2.024   2.988  0.4790 -0.5259 -0.7391
 1731SOL    HW116652   4.680   1.950   3.016  0.1280  0.6690  1.7608
 1731SOL    HW216653   4.687   2.060   2.913  0.3774 -2.2295 -1.4877
 1732SOL     OW16654   2.681   4.325   7.330  0.0243  0.2781 -0.0789
 1732SOL    HW116655   2.729   4.402   7.360 -0.8289 -0.2481  2.6028
 1732SOL    HW216656   2.617   4.372   7.276 -0.8847  0.0399  0.7943
 1733SOL     OW16657   4.436   4.512   4.826 -0.3185 -0.4569 -0.2246
 1733SOL    HW116658   4.409   4.544   4.912  2.0145 -2.9445  1.4427
 1733SOL    HW216659   4.526   4.544   4.826 -0.8114  0.9212  0.0961
 1734SOL     OW16660   4.470   0.641   3.761 -0.4780 -0.3712  0.4372
 1734SOL    HW116661   4.406   0.620   3.692 -1.0548  0.0149  0.8539
 1734SOL    HW216662   4.531   0.696   3.713 -0.8790  1.0092  1.5131
 1735SOL     OW16663   0.870   2.308   5.140  0.0610  0.5340  0.0524
 1735SOL    HW116664   0.947   2.361   5.161 -0.9030  0.5923  3.4115
 1735SOL    HW216665   0.834   2.277   5.223 -1.4243  0.1294 -0.7504
 1736SOL     OW16666   3.210   3.601   6.590  0.6670  0.1075  0.0188
 1736SOL    HW116667   3.132   3.646   6.559  0.9267 -1.1380 -2.3831
 1736SOL    HW216668   3.238   3.663   6.658 -1.1722 -0.8292  1.6363
 1737SOL     OW16669   1.205   2.617  15.104  0.1802  0.7073 -0.1574
 1737SOL    HW116670   1.125   2.573  15.073  1.3407 -2.0056  0.6443
 1737SOL    HW216671   1.183   2.663  15.185 -2.5763 -0.6947 -0.1184
 1738SOL     OW16672   3.012   4.456   3.556 -0.5546  0.4123  0.5713
 1738SOL    HW116673   3.037   4.530   3.501 -1.1425  1.2578  1.4516
 1738SOL    HW216674   3.099   4.417   3.563 -1.2419 -1.0084  1.0741
 1739SOL     OW16675   1.239   0.233   6.396 -0.2055  0.0319  0.0472
 1739SOL    HW116676   1.308   0.183   6.353 -0.3607  1.5270 -1.9078
 1739SOL    HW216677   1.165   0.245   6.336 -1.8366 -2.4625  1.5397
 1740SOL     OW16678   1.944   1.168  15.837  0.5210  0.6372  0.1532
 1740SOL    HW116679   2.036   1.170  15.863  1.0864 -0.4178 -1.7750
 1740SOL    HW216680   1.919   1.091  15.888 -0.0830  1.0190  0.4333
 1741SOL     OW16681   0.668   2.756  17.309  0.0694  0.4118 -0.0171
 1741SOL    HW116682   0.645   2.779  17.219 -1.7016 -0.6457  0.1642
 1741SOL    HW216683   0.593   2.700  17.328 -0.1527  0.6720 -0.1380
 1742SOL     OW16684   0.986   3.939   2.724  0.0221 -0.2219  0.0253
 1742SOL    HW116685   1.035   4.021   2.716  0.1748 -0.1925  1.2740
 1742SOL    HW216686   0.952   3.934   2.813 -0.6385 -0.1785 -0.2284
 1743SOL     OW16687   1.274   4.589   6.299 -0.3089 -0.0312  0.2491
 1743SOL    HW116688   1.225   4.550   6.227 -0.2926  0.2444  0.0899
 1743SOL    HW216689   1.202   4.629   6.348 -0.7748 -3.1782  2.1224
 1744SOL     OW16690   3.527   3.987   5.395  0.2064 -0.0022 -0.6849
 1744SOL    HW116691   3.586   3.992   5.320  0.9478 -1.1834 -0.1873
 1744SOL    HW216692   3.452   4.035   5.360 -0.1245  0.0349  0.0666
 1745SOL     OW16693   1.877   2.277  15.380 -0.3789 -0.2661  0.3238
 1745SOL    HW116694   1.915   2.364  15.388 -0.1922 -0.3471  0.3221
 1745SOL    HW216695   1.937   2.224  15.432 -0.2161 -1.0881 -0.7061
 1746SOL     OW16696   3.869   2.758  10.831 -0.3063  0.0032 -0.3103
 1746SOL    HW116697   3.786   2.777  10.787  0.0920 -1.0123 -1.5054
 1746SOL    HW216698   3.839   2.760  10.922  2.2481  0.1048  0.5294
 1747SOL     OW16699   2.711   0.412   0.329 -0.1393  0.0369  0.1616
 1747SOL    HW116700   2.705   0.361   0.248 -1.0472 -0.3678  0.4734
 1747SOL    HW216701   2.758   0.492   0.308  0.3801 -0.1727  0.5247
 1748SOL     OW16702   3.577   2.106   3.637  0.9180  0.3736  1.0183
 1748SOL    HW116703   3.595   2.021   3.677  0.2980  0.8694  2.3704
 1748SOL    HW216704   3.582   2.168   3.711 -0.4733  1.5887  0.1000
 1749SOL     OW16705   2.318   1.633   7.792 -0.3444 -0.4421 -0.0729
 1749SOL    HW116706   2.342   1.716   7.751 -0.7021 -0.1878  0.2431
 1749SOL    HW216707   2.306   1.591   7.706 -0.8085 -0.5689  0.0571
 1750SOL     OW16708   4.207   2.077  11.318  0.2504  0.3498 -0.6375
 1750SOL    HW116709   4.265   2.029  11.260  0.8496  1.0562 -0.6306
 1750SOL    HW216710   4.256   2.158  11.330 -0.2721  0.4824  0.6303
 1751SOL     OW16711   0.615   0.466  11.183  0.3271 -0.2068  0.1446
 1751SOL    HW116712   0.602   0.530  11.253  2.0715  0.5161 -0.1901
 1751SOL    HW216713   0.527   0.428  11.179  0.2429  0.1656 -1.4948
 1752SOL     OW16714   0.198   4.587   9.491 -0.6402  0.3272  0.3666
 1752SOL    HW116715   0.286   4.561   9.519  0.1151  0.0988 -2.2271
 1752SOL    HW216716   0.205   4.649   9.418 -1.2518 -1.7662 -1.4409
 1753SOL     OW16717   3.062   3.978  10.842  0.9857 -0.3165  0.0663
 1753SOL    HW116718   3.038   3.909  10.904  0.5182 -1.1364 -1.0203
 1753SOL    HW216719   3.131   3.930  10.796  0.9578 -0.5791  0.2978
 1754SOL     OW16720   1.532   0.391   1.341  1.3155  0.4880  0.0610
 1754SOL    HW116721   1.546   0.469   1.395 -2.7070 -0.1471  1.9942
 1754SOL    HW216722   1.451   0.355   1.376  2.5405 -1.8372  0.5530
 1755SOL     OW16723   4.106   1.365   9.438  0.6643  0.5610  0.2735
 1755SOL    HW116724   4.187   1.415   9.433 -0.7742  2.9172  0.4348
 1755SOL    HW216725   4.119   1.323   9.524  2.2211  0.1526 -0.1771
 1756SOL     OW16726   4.307   3.517  15.549  0.3144  0.0466  0.1234
 1756SOL    HW116727   4.359   3.453  15.597 -1.1692 -0.9035  0.4739
 1756SOL    HW216728   4.323   3.486  15.460 -0.9366  0.8050 -0.3690
 1757SOL     OW16729   0.306   1.797  14.192 -0.3234 -0.1341  0.2238
 1757SOL    HW116730   0.327   1.822  14.102  0.8095  1.0765  0.8231
 1757SOL    HW216731   0.267   1.883  14.209 -0.3783 -0.2413  0.6248
 1758SOL     OW16732   2.845   3.844   2.028 -0.0027  0.1451  0.1289
 1758SOL    HW116733   2.828   3.927   1.983  3.1281  0.5762 -0.2941
 1758SOL    HW216734   2.940   3.847   2.042 -0.0111  2.5073 -0.4043
 1759SOL     OW16735   3.054   0.378  11.991 -0.3417 -0.4330  0.2946
 1759SOL    HW116736   2.959   0.388  11.989 -0.1464  1.1476 -0.8740
 1759SOL    HW216737   3.070   0.331  12.073  1.8182 -1.1357 -0.5314
 1760SOL     OW16738   0.066   2.671  11.631 -0.1532  0.4905  0.0243
 1760SOL    HW116739   0.043   2.587  11.671 -0.1922  1.1935  1.4754
 1760SOL    HW216740   0.146   2.642  11.586 -1.0015 -0.6845 -0.7210
 1761SOL     OW16741   1.423   4.506  15.881  0.1086 -0.4409 -0.0969
 1761SOL    HW116742   1.373   4.511  15.799 -3.0622 -0.1851  1.8416
 1761SOL    HW216743   1.367   4.490  15.957 -1.1636  1.1213 -0.7145
 1762SOL     OW16744   3.744   3.969   7.746  0.3496 -0.2682  0.2014
 1762SOL    HW116745   3.732   4.031   7.817 -0.9213 -0.0009 -0.2310
 1762SOL    HW216746   3.736   4.021   7.666  0.7950 -0.5470 -0.0233
 1763SOL     OW16747   4.523   2.708   5.344 -0.3635 -0.0990  0.1163
 1763SOL    HW116748   4.532   2.677   5.434  0.6551  0.6942  0.2913
 1763SOL    HW216749   4.611   2.684   5.318 -0.2852 -0.4140  0.6722
 1764SOL     OW16750   2.230   1.849  15.844  0.6350  0.0656 -0.2210
 1764SOL    HW116751   2.320   1.850  15.814  0.9415 -1.9244  0.5977
 1764SOL    HW216752   2.179   1.912  15.792  0.9832 -1.0183 -1.8815
 1765SOL     OW16753   2.966   0.070   1.554  0.1750  0.3494 -0.2236
 1765SOL    HW116754   2.924   0.021   1.624 -2.8068  2.3668 -0.6423
 1765SOL    HW216755   2.893   0.131   1.555  2.5057  3.1497 -0.3764
 1766SOL     OW16756   1.859   1.652   6.625 -0.5400  0.5260 -0.5958
 1766SOL    HW116757   1.827   1.584   6.566  0.4352 -0.8093  0.4108
 1766SOL    HW216758   1.847   1.610   6.710 -0.3269  0.1089 -0.7739
 1767SOL     OW16759   3.716   2.755  13.770  0.1936 -0.0356 -0.1269
 1767SOL    HW116760   3.810   2.749  13.789 -0.3283  0.8299  2.5863
 1767SOL    HW216761   3.726   2.773  13.676 -0.6978 -2.1581 -0.6139
 1768SOL     OW16762   4.445   4.614   5.363 -0.4214 -0.3986  0.2361
 1768SOL    HW116763   4.419   4.706   5.350 -0.1036 -0.3446 -0.0235
 1768SOL    HW216764   4.426   4.603   5.456 -2.0308  0.1890 -0.0198
 1769SOL     OW16765   3.667   2.152   9.666  0.2397  0.5434  0.6967
 1769SOL    HW116766   3.580   2.171   9.631 -0.2917 -0.3984  1.5046
 1769SOL    HW216767   3.667   2.058   9.649  2.4064  0.8104 -0.8470
 1770SOL     OW16768   1.585   0.652   5.219  0.1217  0.4708  0.3660
 1770SOL    HW116769   1.506   0.684   5.262 -0.3327  1.2016 -1.0384
 1770SOL    HW216770   1.635   0.731   5.199 -0.4577  0.6595 -0.3403
 1771SOL     OW16771   0.023   3.037  13.100  0.0519 -0.2764 -0.5660
 1771SOL    HW116772   4.661   3.035  13.057 -0.8064  0.5567  1.0822
 1771SOL    HW216773   0.068   3.001  13.024  1.2863  0.7941 -0.3500
 1772SOL     OW16774   1.232   2.574  14.243  0.4938 -0.1966  0.0730
 1772SOL    HW116775   1.273   2.631  14.308 -1.1076 -0.1000  1.0008
 1772SOL    HW216776   1.224   2.625  14.161  0.5191 -0.5671 -0.1575
 1773SOL     OW16777   2.420   1.717   5.763  0.2870  0.2340  0.0956
 1773SOL    HW116778   2.349   1.655   5.781  1.0953 -0.0867  2.1395
 1773SOL    HW216779   2.402   1.805   5.798 -1.2189  0.8953 -2.3035
 1774SOL     OW16780   0.937   0.318   3.276 -0.3372 -0.3850 -0.1367
 1774SOL    HW116781   0.934   0.300   3.182  2.3969  0.1503 -0.3083
 1774SOL    HW216782   1.030   0.305   3.290 -0.2158  1.5743  0.8182
 1775SOL     OW16783   3.767   2.877   6.979 -0.5825  0.6577  0.1527
 1775SOL    HW116784   3.785   2.920   7.062  1.6931 -2.0687  1.0733
 1775SOL    HW216785   3.745   2.792   7.017 -0.5612  2.2479  3.7179
 1776SOL     OW16786   3.311   0.332   2.532 -0.1514  0.1376 -0.2311
 1776SOL    HW116787   3.329   0.400   2.597 -0.0456 -0.4270  0.3317
 1776SOL    HW216788   3.381   0.351   2.470  0.7381  0.5544  0.9036
 1777SOL     OW16789   4.565   2.991   5.368 -0.2575 -0.7236 -0.3758
 1777SOL    HW116790   4.536   2.902   5.388 -0.4524 -0.0796  2.2277
 1777SOL    HW216791   4.588   3.020   5.456 -1.2525 -0.0659 -0.3407
 1778SOL     OW16792   1.410   3.078   3.276 -0.2134 -0.1788  0.2365
 1778SOL    HW116793   1.415   3.054   3.184 -0.5919  0.3163  0.0846
 1778SOL    HW216794   1.325   3.056   3.314  0.1279 -3.9781 -1.2622
 1779SOL     OW16795   2.505   1.959   8.109 -0.5651  0.2880  0.1083
 1779SOL    HW116796   2.483   2.032   8.052  0.4114 -0.3022 -1.0411
 1779SOL    HW216797   2.503   1.998   8.197  0.0971 -1.6558  0.9945
 1780SOL     OW16798   3.952   4.363   5.516 -0.0430  0.1014 -0.2283
 1780SOL    HW116799   3.934   4.277   5.478  1.6278 -0.7071  0.8277
 1780SOL    HW216800   3.965   4.413   5.436  1.1320  1.1156  0.5962
 1781SOL     OW16801   3.420   2.815   7.119 -0.1930 -0.0114  0.0621
 1781SOL    HW116802   3.441   2.863   7.040 -1.2521 -3.0390 -2.0656
 1781SOL    HW216803   3.504   2.774   7.139 -0.5247 -0.9711 -0.5219
 1782SOL     OW16804   0.122   2.718   6.413  0.2023 -0.4990 -0.5752
 1782SOL    HW116805   0.123   2.802   6.367 -0.1413  0.7093  1.6480
 1782SOL    HW216806   0.161   2.732   6.500  0.1109  2.1175 -0.9649
 1783SOL     OW16807   3.768   1.461   9.137  0.3366 -0.3018 -0.1365
 1783SOL    HW116808   3.685   1.414   9.132 -1.3873  2.3528  3.5808
 1783SOL    HW216809   3.828   1.387   9.137  0.0210 -0.5534  0.1134
 1784SOL     OW16810   1.000   4.332  17.234  0.0888 -0.0148 -0.4907
 1784SOL    HW116811   1.059   4.404  17.259 -0.3225 -0.0313  0.5240
 1784SOL    HW216812   1.044   4.253  17.265  0.1288  0.7895  1.5150
 1785SOL     OW16813   4.177   3.608   0.766  0.1324 -0.2525  0.4180
 1785SOL    HW116814   4.167   3.583   0.674 -0.2039  1.4456 -0.0153
 1785SOL    HW216815   4.253   3.563   0.802 -0.7643 -1.6050  0.6117
 1786SOL     OW16816   1.448   3.950  17.029  0.3872 -0.3537  0.1403
 1786SOL    HW116817   1.535   3.989  17.040  0.4800 -0.3828 -0.5179
 1786SOL    HW216818   1.465   3.855  17.029 -1.8553 -0.7414 -0.1267
 1787SOL     OW16819   4.321   1.975   8.387  0.3101  0.2534 -0.1213
 1787SOL    HW116820   4.324   2.071   8.383  0.5338  0.2543  0.0614
 1787SOL    HW216821   4.332   1.954   8.480  1.4677 -0.2479 -0.3784
 1788SOL     OW16822   2.607   2.049   5.437  0.6417  0.2230 -0.1688
 1788SOL    HW116823   2.651   2.096   5.507 -1.1298 -0.2281  1.2635
 1788SOL    HW216824   2.518   2.057   5.472  1.0350  0.0937  0.8446
 1789SOL     OW16825   0.197   1.295   0.538  0.3375  0.4738 -0.6897
 1789SOL    HW116826   0.153   1.364   0.489  0.3744  0.7850 -0.2795
 1789SOL    HW216827   0.209   1.219   0.481 -1.5284  0.8305 -1.5553
 1790SOL     OW16828   4.632   1.395  12.807 -0.0266  0.0205 -0.5040
 1790SOL    HW116829   4.586   1.375  12.725  0.4180  1.2552 -1.0511
 1790SOL    HW216830   4.715   1.414  12.763  1.3878 -0.3262  2.0220
 1791SOL     OW16831   4.323   1.762   6.804  0.3652 -0.0560  0.2108
 1791SOL    HW116832   4.296   1.709   6.879 -2.6584  0.3021 -0.6628
 1791SOL    HW216833   4.273   1.843   6.810  0.0498 -0.2590  0.2998
 1792SOL     OW16834   4.181   1.710  11.497  0.4831  0.0071 -0.1672
 1792SOL    HW116835   4.112   1.732  11.434 -0.5677 -2.6196  0.0542
 1792SOL    HW216836   4.216   1.625  11.469  0.0523 -0.3082  0.2563
 1793SOL     OW16837   3.815   4.110   2.711  0.3483 -0.5484 -0.0535
 1793SOL    HW116838   3.812   4.151   2.798 -0.6255  0.3919 -0.5253
 1793SOL    HW216839   3.773   4.026   2.729 -2.1513  0.8784  0.8201
 1794SOL     OW16840   1.182   2.444   0.271  0.1809  0.1693 -0.4669
 1794SOL    HW116841   1.276   2.459   0.282  0.3111 -0.9757  0.0363
 1794SOL    HW216842   1.144   2.474   0.354 -1.5851 -2.5087 -0.2977
 1795SOL     OW16843   4.119   3.267   0.758  0.3737 -0.1795 -0.6420
 1795SOL    HW116844   4.101   3.253   0.851 -0.3824  0.6470 -0.6687
 1795SOL    HW216845   4.214   3.259   0.754  0.5131  0.8792  0.5784
 1796SOL     OW16846   3.815   4.545   8.099  0.4911  0.5891 -0.1702
 1796SOL    HW116847   3.864   4.627   8.106  0.7049  0.2999  1.6507
 1796SOL    HW216848   3.743   4.582   8.048  1.6640  0.8951 -1.6232
 1797SOL     OW16849   0.006   4.678   6.724 -0.5026 -0.6022 -0.5989
 1797SOL    HW116850   0.044   0.035   6.688  0.8688 -0.5911  0.8695
 1797SOL    HW216851   4.641   4.675   6.686  0.2650 -0.8349 -2.3550
 1798SOL     OW16852   3.491   3.040   0.011 -0.4499 -0.0605  0.0025
 1798SOL    HW116853   3.497   3.008   0.101  1.6018 -0.7686 -0.4017
 1798SOL    HW216854   3.529   2.966  17.660  0.5679 -1.0886  2.4962
 1799SOL     OW16855   2.066   2.661  11.682 -0.6253  0.0803 -0.1196
 1799SOL    HW116856   2.052   2.749  11.715  0.9976  0.8438 -1.4692
 1799SOL    HW216857   2.117   2.618  11.751 -1.2073  1.7469  1.3486
 1800SOL     OW16858   3.650   4.271   5.395  0.2463 -0.5322  0.3595
 1800SOL    HW116859   3.610   4.185   5.410 -2.4493  0.6953  0.2524
 1800SOL    HW216860   3.737   4.240   5.370  0.1092 -0.0210 -0.7503
 1801SOL     OW16861   3.935   1.205  15.160  0.2133  0.2876 -0.0832
 1801SOL    HW116862   3.861   1.146  15.149 -1.4444  2.3304  0.1181
 1801SOL    HW216863   3.997   1.142  15.123  0.7029  2.0463 -2.2347
 1802SOL     OW16864   2.424   2.087   3.545 -0.4416 -0.1405  0.2278
 1802SOL    HW116865   2.332   2.098   3.571 -0.7200 -0.2599 -0.6736
 1802SOL    HW216866   2.436   2.178   3.516 -0.3608 -0.7235 -1.6171
 1803SOL     OW16867   3.154   3.493  11.049 -0.4147 -0.4873  0.2672
 1803SOL    HW116868   3.074   3.468  11.003  0.4618 -1.2871 -0.8588
 1803SOL    HW216869   3.176   3.415  11.100 -1.6168 -1.3861 -0.5705
 1804SOL     OW16870   2.181   3.801   0.251  0.1241 -0.3185  0.1696
 1804SOL    HW116871   2.259   3.749   0.229  1.1194  1.5799 -0.8111
 1804SOL    HW216872   2.154   3.766   0.336  0.2852  0.9639  0.7360
 1805SOL     OW16873   1.246   3.004   5.721  0.1503  0.1113  0.5219
 1805SOL    HW116874   1.205   3.054   5.650 -0.4627 -1.9747 -0.6254
 1805SOL    HW216875   1.219   3.050   5.800 -1.4387 -1.5539  0.9431
 1806SOL     OW16876   0.201   1.578  14.106  0.0604 -0.0079 -0.1670
 1806SOL    HW116877   0.114   1.569  14.145  0.8922 -0.4257  1.5670
 1806SOL    HW216878   0.243   1.648  14.155 -0.2375 -0.3178  0.5245
 1807SOL     OW16879   3.240   1.395   3.840  0.7514  0.6358 -0.2253
 1807SOL    HW116880   3.311   1.409   3.903  1.8636 -1.6900 -0.9707
 1807SOL    HW216881   3.172   1.358   3.896  1.9351  0.9358  1.3871
 1808SOL     OW16882   0.102   3.435   7.113  0.0351  0.5235 -0.2346
 1808SOL    HW116883   0.060   3.504   7.165 -0.2100  0.3020 -0.1403
 1808SOL    HW216884   0.087   3.478   7.028 -2.4875  0.9168  0.4118
 1809SOL     OW16885   2.197   4.302  10.663 -0.1127 -0.2708  0.2272
 1809SOL    HW116886   2.184   4.332  10.753  0.0211 -1.7386  0.7447
 1809SOL    HW216887   2.121   4.337  10.617  2.1354  1.3827 -2.1413
 1810SOL     OW16888   0.596   3.229   5.390 -0.5671  0.0267  0.4903
 1810SOL    HW116889   0.563   3.139   5.400 -3.0226  0.7971 -0.7452
 1810SOL    HW216890   0.512   3.273   5.375 -2.0029 -2.0431  2.3844
 1811SOL     OW16891   3.678   1.547   4.048 -0.2972  0.1918  0.6534
 1811SOL    HW116892   3.649   1.550   3.957 -0.3738 -2.6903  0.5836
 1811SOL    HW216893   3.649   1.459   4.070 -0.6291 -0.4714 -2.3812
 1812SOL     OW16894   0.917   3.405  10.326  0.1409  0.2493 -0.4712
 1812SOL    HW116895   0.939   3.313  10.337 -0.4078 -0.0533 -1.8358
 1812SOL    HW216896   0.970   3.448  10.393  0.2175  0.4580 -0.6654
 1813SOL     OW16897   0.328   0.652   7.027  0.2024  0.2269  0.1262
 1813SOL    HW116898   0.400   0.705   7.062  0.6922 -0.5547  0.3158
 1813SOL    HW216899   0.334   0.677   6.935 -0.5582 -0.3291 -0.0679
 1814SOL     OW16900   1.704   2.319  17.371 -0.4880 -0.0293  0.0321
 1814SOL    HW116901   1.732   2.237  17.411  0.2592  0.1583 -0.1058
 1814SOL    HW216902   1.784   2.370  17.379 -0.5033  0.4135 -2.5324
 1815SOL     OW16903   1.537   0.327   8.281  0.1207  0.6509  0.2628
 1815SOL    HW116904   1.530   0.422   8.267  2.0014  0.8120  0.4226
 1815SOL    HW216905   1.450   0.309   8.246  1.5260 -0.7891 -2.4963
 1816SOL     OW16906   0.469   1.135   9.199 -0.1562 -0.2119  0.5194
 1816SOL    HW116907   0.447   1.162   9.109 -1.6698 -0.5255  0.7859
 1816SOL    HW216908   0.412   1.186   9.257  0.9750 -0.0543  1.4724
 1817SOL     OW16909   4.050   4.588  13.007  0.3354  0.3376 -0.0638
 1817SOL    HW116910   4.139   4.613  12.981  0.4942 -0.1807 -0.0329
 1817SOL    HW216911   4.001   4.665  12.979 -0.5731 -1.0202 -2.2423
 1818SOL     OW16912   4.029   1.863   8.682 -0.4909  0.1314 -0.5017
 1818SOL    HW116913   4.122   1.878   8.661 -0.1681 -2.0126 -0.5115
 1818SOL    HW216914   3.982   1.911   8.613 -1.9682  2.0942  1.8885
 1819SOL     OW16915   2.892   1.803   7.296 -0.2935 -0.4075  0.3754
 1819SOL    HW116916   2.943   1.872   7.338  2.2476 -1.5531 -0.8263
 1819SOL    HW216917   2.801   1.821   7.322 -0.3761 -0.4023  0.0820
 1820SOL     OW16918   3.994   1.255  13.004 -0.2558  0.1550  0.0423
 1820SOL    HW116919   4.017   1.327  12.945  1.3118  0.2370  0.7560
 1820SOL    HW216920   4.071   1.238  13.058 -0.3448 -0.2793  0.0326
 1821SOL     OW16921   3.740   2.149  16.655 -0.1216  0.1834 -0.2606
 1821SOL    HW116922   3.736   2.110  16.743 -0.3051  0.9275  0.0557
 1821SOL    HW216923   3.647   2.162  16.637  0.2178  1.6428 -0.8772
 1822SOL     OW16924   2.679   4.695   7.667  0.5878  0.3224 -0.5000
 1822SOL    HW116925   2.691   0.049   7.722  0.8246 -0.3198  0.3453
 1822SOL    HW216926   2.583   4.689   7.670  0.5054  1.3214 -0.9736
 1823SOL     OW16927   2.239   1.076  11.512 -0.7356  0.4046  0.2795
 1823SOL    HW116928   2.308   1.136  11.484 -1.1998  0.5057 -0.6784
 1823SOL    HW216929   2.275   0.995  11.475 -1.5392 -0.3526  1.1731
 1824SOL     OW16930   4.152   1.330  13.592  0.5136  0.3112 -0.2546
 1824SOL    HW116931   4.145   1.277  13.671 -0.0196  0.4580 -0.2010
 1824SOL    HW216932   4.209   1.404  13.614 -1.1648  2.1488 -2.0443
 1825SOL     OW16933   0.873   2.926  10.466  0.1847 -0.4775 -0.6668
 1825SOL    HW116934   0.790   2.915  10.513  1.1632 -0.4125  1.0777
 1825SOL    HW216935   0.876   2.847  10.413  3.2607 -0.2342 -0.8274
 1826SOL     OW16936   1.996   0.721  14.676  0.4313  0.0664 -0.7373
 1826SOL    HW116937   2.059   0.676  14.620  1.4478  1.8848 -1.0536
 1826SOL    HW216938   1.947   0.654  14.723  0.9521  1.4671  1.7921
 1827SOL     OW16939   2.216   0.748  11.614 -0.2022 -0.2046 -0.7900
 1827SOL    HW116940   2.277   0.735  11.687  0.3132 -1.0472 -1.3724
 1827SOL    HW216941   2.265   0.821  11.577 -0.5327  0.4515  0.0655
 1828SOL     OW16942   2.278   3.526   1.869 -0.2103  0.0906  0.8795
 1828SOL    HW116943   2.234   3.584   1.932  2.3447 -0.9446  3.5933
 1828SOL    HW216944   2.208   3.530   1.805  1.0863  1.3946 -0.4592
 1829SOL     OW16945   1.375   0.706   1.097  0.1228  0.1898 -0.4245
 1829SOL    HW116946   1.396   0.765   1.169  1.2813  0.2445 -0.8125
 1829SOL    HW216947   1.326   0.641   1.148  1.2934 -0.6582 -0.3710
 1830SOL     OW16948   1.219   3.079   4.706  0.3493  0.1674 -0.1497
 1830SOL    HW116949   1.172   3.009   4.660 -0.2854  1.1210 -0.9280
 1830SOL    HW216950   1.149   3.144   4.699 -0.5195 -1.1746 -3.8293
 1831SOL     OW16951   4.607   1.455   9.477 -0.3432 -0.0791 -0.0103
 1831SOL    HW116952   4.679   1.492   9.527  0.3151  1.0737 -1.7866
 1831SOL    HW216953   4.580   1.539   9.438  0.6096  0.6237  0.8385
 1832SOL     OW16954   3.693   3.963   0.931  0.4403  0.0918  0.0910
 1832SOL    HW116955   3.746   3.907   0.875 -1.3374 -1.2769 -0.2021
 1832SOL    HW216956   3.741   4.046   0.924 -1.8920  1.2912 -1.5883
 1833SOL     OW16957   1.628   2.752  13.420 -0.3071 -0.0188  0.7706
 1833SOL    HW116958   1.658   2.794  13.340  0.1044 -1.8652 -0.0568
 1833SOL    HW216959   1.668   2.800  13.493  0.0683  0.0585  0.5122
 1834SOL     OW16960   2.655   3.697   2.192 -0.5430  0.0160 -0.1854
 1834SOL    HW116961   2.718   3.740   2.133 -0.9999  2.5385  1.1745
 1834SOL    HW216962   2.598   3.768   2.222  2.2699  1.7908  1.0470
 1835SOL     OW16963   3.990   1.016   7.498  0.3299  0.4288 -0.3544
 1835SOL    HW116964   4.017   1.021   7.590 -2.7571 -1.7351  0.6330
 1835SOL    HW216965   3.928   1.088   7.487 -0.3281 -0.2832 -1.2013
 1836SOL     OW16966   4.111   4.007  10.714  0.8725  0.3692 -0.1877
 1836SOL    HW116967   4.023   4.014  10.676  1.1187 -0.3097 -0.8774
 1836SOL    HW216968   4.140   4.098  10.713  1.3402  0.2178  0.0211
 1837SOL     OW16969   4.016   1.561  11.740 -0.1783 -1.0253  0.2768
 1837SOL    HW116970   3.974   1.638  11.701 -1.8223 -2.8764 -1.6155
 1837SOL    HW216971   4.016   1.497  11.668 -2.0046  2.4685 -2.8079
 1838SOL     OW16972   1.906   1.421   8.070  0.3134  0.0213  0.2007
 1838SOL    HW116973   1.842   1.396   8.003 -1.8777  3.5215  1.0080
 1838SOL    HW216974   1.975   1.455   8.014 -1.9470  1.5203 -1.6871
 1839SOL     OW16975   3.263   2.261   3.070  0.1268  0.2243  0.6306
 1839SOL    HW116976   3.272   2.284   2.977  2.1039 -0.6740  0.5977
 1839SOL    HW216977   3.186   2.204   3.069  1.3493 -1.4304 -0.9999
 1840SOL     OW16978   2.034   0.147  14.254 -0.0311 -0.3157  0.2589
 1840SOL    HW116979   2.118   0.114  14.223  0.5886  1.2718  0.2231
 1840SOL    HW216980   2.001   0.071  14.301 -0.8744 -0.0756  0.0683
 1841SOL     OW16981   3.916   3.541   7.966 -0.0732 -0.2068 -0.2046
 1841SOL    HW116982   3.834   3.552   8.015  1.0806 -0.6489  1.8186
 1841SOL    HW216983   3.898   3.561   7.874 -2.8089 -0.3427  0.3030
 1842SOL     OW16984   0.281   2.102   6.585  0.1805  0.1161  0.3694
 1842SOL    HW116985   0.356   2.160   6.572 -0.2210  0.5319 -0.0990
 1842SOL    HW216986   0.233   2.113   6.502  0.9913 -0.4810 -0.1849
 1843SOL     OW16987   0.693   0.798   3.049  0.3416 -0.0422  0.5023
 1843SOL    HW116988   0.657   0.882   3.075  0.4901  0.9781 -2.5583
 1843SOL    HW216989   0.783   0.822   3.026  0.5890 -1.4330  0.0048
 1844SOL     OW16990   1.514   3.352   7.715  0.3155 -0.3723 -0.0388
 1844SOL    HW116991   1.473   3.406   7.647 -0.7264  1.8410  2.3874
 1844SOL    HW216992   1.582   3.412   7.745  1.8628 -2.8261  1.3871
 1845SOL     OW16993   3.041   2.038   7.796 -0.2029  0.4782  0.3493
 1845SOL    HW116994   3.063   2.091   7.719 -0.3765  0.1151  0.0477
 1845SOL    HW216995   3.062   1.949   7.765 -2.0860  1.1532 -2.9169
 1846SOL     OW16996   0.021   1.478  13.079 -0.6300 -0.5377 -0.3139
 1846SOL    HW116997   0.105   1.433  13.077 -1.5071 -2.2870  1.8254
 1846SOL    HW216998   0.034   1.513  13.167 -1.0353 -1.6136  0.1821
 1847SOL     OW16999   1.287   4.318   0.763  0.1720  0.1309  0.8289
 1847SOL    HW117000   1.256   4.367   0.839 -1.7374  1.5050 -0.8164
 1847SOL    HW217001   1.255   4.228   0.769  0.3608  0.1126  1.5411
 1848SOL     OW17002   1.634   0.707  12.645  0.1612  0.7540 -0.4746
 1848SOL    HW117003   1.680   0.763  12.706  1.3535 -0.8701  0.1307
 1848SOL    HW217004   1.706   0.683  12.586 -0.7623  2.0182 -2.1277
 1849SOL     OW17005   3.206   4.163  16.512  0.0362  0.0329 -0.4033
 1849SOL    HW117006   3.158   4.218  16.574  0.8352 -1.4897  1.5917
 1849SOL    HW217007   3.189   4.083  16.563  0.8051 -0.1079 -0.3661
 1850SOL     OW17008   2.166   0.741   4.771 -0.0326 -0.3497  0.7226
 1850SOL    HW117009   2.191   0.746   4.864 -0.1592 -1.4153  0.8097
 1850SOL    HW217010   2.078   0.779   4.777  0.8683  1.9437 -0.2869
 1851SOL     OW17011   2.107   0.587   3.190  0.2100  1.2075 -0.1636
 1851SOL    HW117012   2.090   0.496   3.169 -0.9550  1.1156  1.1886
 1851SOL    HW217013   2.020   0.613   3.219 -0.4359 -1.5263  0.3339
 1852SOL     OW17014   1.918   2.612   5.942  0.3103 -0.2482  0.2918
 1852SOL    HW117015   1.897   2.595   5.850 -0.2765 -1.7825  0.7025
 1852SOL    HW217016   1.832   2.606   5.982 -0.0017  1.1082 -0.1647
 1853SOL     OW17017   2.448   2.021  13.309  0.0297 -0.3207  0.5959
 1853SOL    HW117018   2.528   2.025  13.258 -0.5855 -0.4638 -0.3859
 1853SOL    HW217019   2.396   2.080  13.255 -0.0160  0.2041  1.2097
 1854SOL     OW17020   1.981   0.306  16.715  0.0383  0.3076 -0.2386
 1854SOL    HW117021   2.030   0.302  16.798  1.5158 -0.7565 -1.1644
 1854SOL    HW217022   1.955   0.214  16.711  1.2413  0.0359 -1.8029
 1855SOL     OW17023   3.298   4.388   9.720  0.0458  0.1562  0.2089
 1855SOL    HW117024   3.243   4.446   9.773 -0.5704  0.4598 -0.7741
 1855SOL    HW217025   3.382   4.433   9.733 -0.0917  0.3057  0.5841
 1856SOL     OW17026   3.635   1.168   2.049 -0.2792  0.4500 -0.3193
 1856SOL    HW117027   3.635   1.073   2.058 -0.0691  0.6213  1.6447
 1856SOL    HW217028   3.587   1.182   2.131  0.1401 -0.9957  0.1685
 1857SOL     OW17029   0.354   1.294  16.499  0.1108 -0.1693 -0.4278
 1857SOL    HW117030   0.272   1.303  16.451 -0.6353  2.4329  1.3384
 1857SOL    HW217031   0.330   1.235  16.572 -3.6564  0.0084 -1.5190
 1858SOL     OW17032   4.298   0.796   5.500  0.1736 -0.0575 -0.4503
 1858SOL    HW117033   4.359   0.798   5.573  0.0551 -3.0055 -0.2974
 1858SOL    HW217034   4.265   0.885   5.486  0.5852  0.0106 -0.9729
 1859SOL     OW17035   1.006   0.637   3.988  0.4373  0.4732  0.2605
 1859SOL    HW117036   1.099   0.634   4.009  0.3175  1.3738  0.9073
 1859SOL    HW217037   0.995   0.731   3.974 -0.4710  0.7346  2.7181
 1860SOL     OW17038   1.909   4.533   3.098 -0.0194  0.2175  0.1236
 1860SOL    HW117039   1.981   4.567   3.044  0.3650 -2.8588 -1.3019
 1860SOL    HW217040   1.919   4.438   3.091  0.2020  0.2963 -0.6698
 1861SOL     OW17041   3.231   1.047   4.410  0.0936 -0.2293  0.4964
 1861SOL    HW117042   3.189   1.130   4.385  0.9553  0.4218  1.2255
 1861SOL    HW217043   3.204   1.026   4.499  0.6797  1.9281  1.1888
 1862SOL     OW17044   0.373   2.968   8.560  0.5988  0.7815  0.3965
 1862SOL    HW117045   0.378   3.058   8.528 -2.6034  0.9724  0.5217
 1862SOL    HW217046   0.426   2.971   8.641 -0.9131 -0.6483  1.4321
 1863SOL     OW17047   3.318   1.451   4.764 -0.0997  0.2949 -0.0705
 1863SOL    HW117048   3.335   1.406   4.847  1.0141  0.2840 -0.3019
 1863SOL    HW217049   3.284   1.537   4.787 -2.8796 -0.6677 -0.6297
 1864SOL     OW17050   4.447   4.438   0.979  0.1660  0.1012 -0.3083
 1864SOL    HW117051   4.359   4.473   0.988  0.4483  0.3942  1.3034
 1864SOL    HW217052   4.430   4.344   0.979  1.6253 -0.1702 -1.0514
 1865SOL     OW17053   3.020   2.264  15.432  0.1455  0.2247  0.1411
 1865SOL    HW117054   3.006   2.188  15.488 -0.5604 -0.8915 -1.5325
 1865SOL    HW217055   2.973   2.232  15.355 -0.5446 -0.5585  0.8879
 1866SOL     OW17056   2.855   0.472   6.219 -0.0024  0.2430 -0.3150
 1866SOL    HW117057   2.919   0.542   6.219 -0.1686  0.3927 -0.0048
 1866SOL    HW217058   2.904   0.399   6.181  0.1641  1.2936 -2.1515
 1867SOL     OW17059   2.584   1.031   2.914 -0.1059 -0.4658  0.3534
 1867SOL    HW117060   2.590   0.957   2.974  1.7037  0.9801  1.9404
 1867SOL    HW217061   2.663   1.079   2.941 -1.5452  2.7902 -1.2276
 1868SOL     OW17062   3.245   3.884  15.630 -1.1668 -0.1864  0.2008
 1868SOL    HW117063   3.221   3.913  15.542 -0.9534  1.6747  0.7589
 1868SOL    HW217064   3.208   3.952  15.687  0.1481 -0.4330  1.3518
 1869SOL     OW17065   2.596   2.911  17.540 -0.0008  0.3070 -0.2063
 1869SOL    HW117066   2.650   2.862  17.601 -0.5381 -0.4047 -0.3067
 1869SOL    HW217067   2.583   2.991  17.592 -1.2008 -1.9812  3.0002
 1870SOL     OW17068   3.825   2.759  10.277  0.3702  0.3021  0.1516
 1870SOL    HW117069   3.788   2.683  10.321  0.3902 -0.0077 -0.3694
 1870SOL    HW217070   3.772   2.825  10.321  1.9579  2.2741 -0.8644
 1871SOL     OW17071   0.671   2.596  10.743 -0.7867  0.4784 -0.3332
 1871SOL    HW117072   0.655   2.510  10.781 -2.0740  0.5737 -0.6498
 1871SOL    HW217073   0.757   2.572  10.709 -1.1869  0.2833 -1.2220
 1872SOL     OW17074   1.407   3.111   7.705 -0.2503 -0.1545 -0.4373
 1872SOL    HW117075   1.455   3.189   7.679  0.8789 -0.2795  1.2299
 1872SOL    HW217076   1.328   3.159   7.728 -0.7206 -1.6938  1.1990
 1873SOL     OW17077   0.802   0.099   3.404 -0.2816  0.2001 -0.3696
 1873SOL    HW117078   0.884   0.076   3.448 -0.4002 -0.3551 -0.4348
 1873SOL    HW217079   0.832   0.168   3.345  0.3977  1.5530  1.5736
 1874SOL     OW17080   4.064   0.302   3.120 -0.1760  0.2027 -0.0810
 1874SOL    HW117081   4.084   0.327   3.030  0.5278 -1.6265 -0.4313
 1874SOL    HW217082   3.969   0.313   3.127  0.0294  1.2174  1.0916
 1875SOL     OW17083   3.219   3.225  10.032  0.5548  0.8309 -0.5818
 1875SOL    HW117084   3.251   3.289  10.095  0.9646 -0.1479  0.2052
 1875SOL    HW217085   3.128   3.221  10.063 -0.0602  1.4113 -2.2965
 1876SOL     OW17086   3.830   0.461  17.086  0.0275 -0.1587 -0.0736
 1876SOL    HW117087   3.771   0.478  17.159 -0.1651 -3.5187  0.5834
 1876SOL    HW217088   3.894   0.398  17.120 -0.2206  0.8721  2.3212
 1877SOL     OW17089   3.721   0.918   3.561 -0.1459  0.0319  0.4005
 1877SOL    HW117090   3.785   0.989   3.569  1.2055 -1.2485  0.8156
 1877SOL    HW217091   3.737   0.877   3.646 -0.2076 -0.0358  0.3789
 1878SOL     OW17092   2.500   0.118   8.422  0.3942  0.2973 -0.1179
 1878SOL    HW117093   2.479   0.038   8.470  0.1811  0.4525  0.0455
 1878SOL    HW217094   2.413   0.156   8.413  0.1949  0.0279  0.7127
 1879SOL     OW17095   0.633   4.272   6.533 -0.3122  0.3624 -0.3587
 1879SOL    HW117096   0.636   4.289   6.439 -1.4970  1.7572 -0.1499
 1879SOL    HW217097   0.582   4.347   6.564 -1.0522 -0.6221  0.7923
 1880SOL     OW17098   4.582   4.158  11.835 -0.4632 -0.1646 -0.6473
 1880SOL    HW117099   4.646   4.151  11.764 -2.5271  0.3029 -2.5402
 1880SOL    HW217100   4.637   4.142  11.912 -0.1279 -1.1009 -1.0806
 1881SOL     OW17101   2.910   0.071   4.342  0.1904  0.0412 -0.0223
 1881SOL    HW117102   2.901   0.021   4.261  1.3084 -0.2613  0.0390
 1881SOL    HW217103   2.995   0.033   4.365  0.2628 -1.8087 -3.4610
 1882SOL     OW17104   1.458   3.807   1.327  0.0677 -0.6174  0.0589
 1882SOL    HW117105   1.409   3.888   1.339 -2.0938 -1.7624 -1.0983
 1882SOL    HW217106   1.550   3.836   1.325 -0.2135  0.2371 -1.0539
 1883SOL     OW17107   0.578   2.315  10.442  0.0823 -0.0919 -0.1299
 1883SOL    HW117108   0.485   2.328  10.460  0.5570  1.1872  1.4098
 1883SOL    HW217109   0.602   2.247  10.504  2.8777 -0.0447 -1.1860
 1884SOL     OW17110   3.956   3.419   5.218 -0.2841  0.1984  0.2815
 1884SOL    HW117111   3.961   3.487   5.151 -2.6614  0.7033  0.6217
 1884SOL    HW217112   3.902   3.355   5.173  0.5887  0.8386 -1.6679
 1885SOL     OW17113   4.631   4.392   8.256 -0.1490 -0.1070 -0.4756
 1885SOL    HW117114   4.655   4.351   8.339 -0.3038  0.5247 -0.1229
 1885SOL    HW217115   4.570   4.332   8.213 -1.4456  0.8733  0.0101
 1886SOL     OW17116   3.669   1.543   2.610 -0.1438 -0.3981  0.2235
 1886SOL    HW117117   3.668   1.488   2.688  0.4893  0.5657  0.9023
 1886SOL    HW217118   3.674   1.629   2.651  0.6026 -0.5588  0.4703
 1887SOL     OW17119   4.454   4.186   1.087  0.5330  0.2933 -0.3272
 1887SOL    HW117120   4.433   4.105   1.040 -0.2152 -0.8352  1.9166
 1887SOL    HW217121   4.529   4.153   1.137 -0.0548  2.2480  1.8585
 1888SOL     OW17122   2.199   3.490   8.795  0.2633 -0.5988 -0.6778
 1888SOL    HW117123   2.281   3.444   8.776  0.4122 -1.4450  1.9341
 1888SOL    HW217124   2.173   3.523   8.709 -0.2243  0.1543 -0.2420
 1889SOL     OW17125   3.051   3.535  11.633 -0.0749 -0.4587  0.0587
 1889SOL    HW117126   3.117   3.503  11.694 -0.4807 -0.0682  0.7035
 1889SOL    HW217127   3.019   3.610  11.684 -1.6770  0.1503 -1.8473
 1890SOL     OW17128   2.615   3.272   9.499  0.1205  0.4320 -0.4385
 1890SOL    HW117129   2.593   3.237   9.585  0.9798  0.1020 -0.3569
 1890SOL    HW217130   2.526   3.264   9.465 -0.3092 -2.5873  1.4236
 1891SOL     OW17131   0.003   4.367   2.383  0.0521 -0.5723  0.3572
 1891SOL    HW117132   0.034   4.382   2.472 -0.5589 -0.5340  0.5609
 1891SOL    HW217133   0.046   4.429   2.323 -0.1683  1.3651  2.2236
 1892SOL     OW17134   0.535   4.225  16.199 -0.1381 -0.7341 -0.0186
 1892SOL    HW117135   0.565   4.300  16.251 -0.8840 -1.2485  1.1645
 1892SOL    HW217136   0.490   4.180  16.271 -2.2655 -0.4833 -1.1594
 1893SOL     OW17137   1.699   1.979  14.554 -1.1391 -0.1151 -0.8468
 1893SOL    HW117138   1.742   2.018  14.630  0.1667  1.9401 -2.6219
 1893SOL    HW217139   1.706   2.053  14.494  0.3618 -0.0529 -0.6115
 1894SOL     OW17140   3.770   2.317   3.318 -0.2006 -0.0890 -0.7095
 1894SOL    HW117141   3.850   2.340   3.272  0.5613  0.0964  0.7040
 1894SOL    HW217142   3.787   2.231   3.355  3.4436 -0.0369 -2.2269
 1895SOL     OW17143   0.675   3.870   1.393  0.4454  0.2696 -0.2945
 1895SOL    HW117144   0.633   3.955   1.378 -2.4627 -1.4690 -1.9363
 1895SOL    HW217145   0.724   3.857   1.311 -0.5377  0.6782 -0.9491
 1896SOL     OW17146   0.767   0.741  15.725  0.0499 -0.1187 -0.3696
 1896SOL    HW117147   0.701   0.805  15.752  0.0696 -1.6876  3.3924
 1896SOL    HW217148   0.805   0.784  15.649 -0.8795  2.4676  0.6235
 1897SOL     OW17149   3.755   0.941   5.944  0.5826 -0.1114  0.4156
 1897SOL    HW117150   3.713   1.017   5.902  0.1721 -0.2425  0.5881
 1897SOL    HW217151   3.781   0.973   6.031 -1.6696 -1.4622  1.5878
 1898SOL     OW17152   4.654   1.253   7.891 -0.3264 -0.2468  0.4319
 1898SOL    HW117153   4.618   1.234   7.804 -0.4373  1.3630  0.1224
 1898SOL    HW217154   4.592   1.202   7.942  0.7559 -0.8972  1.0952
 1899SOL     OW17155   3.370   2.449   4.973  0.1321  0.3445  0.2686
 1899SOL    HW117156   3.374   2.523   5.035  0.9688 -0.5031  1.2234
 1899SOL    HW217157   3.278   2.427   4.962  0.2209  0.4470 -0.6382
 1900SOL     OW17158   0.886   2.607  17.367 -0.3547 -0.5009 -0.4769
 1900SOL    HW117159   0.830   2.669  17.319  0.0975  0.7276  0.5813
 1900SOL    HW217160   0.861   2.528  17.319 -1.5606 -0.6125  0.3207
 1901SOL     OW17161   0.237   0.340   7.441  0.2286 -0.0421  0.1546
 1901SOL    HW117162   0.288   0.279   7.388  0.4867  0.5893 -0.3231
 1901SOL    HW217163   0.232   0.419   7.387 -2.5016  0.2722  0.8762
 1902SOL     OW17164   1.637   3.799   8.441 -0.3458  0.7475 -0.1895
 1902SOL    HW117165   1.589   3.748   8.376  1.7692 -2.0358  0.4342
 1902SOL    HW217166   1.665   3.725   8.495 -0.1388 -0.1448 -1.5174
 1903SOL     OW17167   3.641   0.210  12.735 -0.2151  0.2480  0.0613
 1903SOL    HW117168   3.678   0.226  12.822  1.0198 -1.0405 -0.2336
 1903SOL    HW217169   3.725   0.194  12.691 -0.8981 -1.1269 -0.7318
 1904SOL     OW17170   4.232   1.264  13.134 -0.3177 -0.2254  0.4302
 1904SOL    HW117171   4.255   1.346  13.090 -0.9391 -0.8222 -1.0031
 1904SOL    HW217172   4.321   1.229  13.145 -0.4804 -0.8672 -0.3174
 1905SOL     OW17173   3.220   1.892   0.553  0.1852  0.2996 -0.2375
 1905SOL    HW117174   3.160   1.828   0.590 -1.2035  1.0838 -1.1133
 1905SOL    HW217175   3.276   1.899   0.630 -1.4918  1.1129  0.8988
 1906SOL     OW17176   0.552   4.610   5.709 -0.4271  0.9643 -0.3865
 1906SOL    HW117177   0.512   4.696   5.694  1.8092  2.1809  0.5814
 1906SOL    HW217178   0.562   4.615   5.804 -0.7565  1.2029 -0.3657
 1907SOL     OW17179   0.336   0.638  15.783 -0.8320  0.0730  0.3295
 1907SOL    HW117180   0.328   0.549  15.818  0.6011 -0.6654 -1.2418
 1907SOL    HW217181   0.348   0.688  15.864 -0.4952  0.4512  0.0470
 1908SOL     OW17182   1.915   0.321   4.280  0.2161 -0.2281  0.2703
 1908SOL    HW117183   1.943   0.314   4.371  0.4031  0.4604  0.2671
 1908SOL    HW217184   1.820   0.314   4.281  0.2670 -0.8186  1.8119
 1909SOL     OW17185   3.185   4.382  14.579  0.3111  0.5539 -0.1186
 1909SOL    HW117186   3.255   4.414  14.523  1.0544  1.6697  1.4510
 1909SOL    HW217187   3.159   4.464  14.619 -1.7507 -0.5371  0.7737
 1910SOL     OW17188   4.051   3.483  10.926 -0.4853  0.0030  0.0618
 1910SOL    HW117189   4.024   3.537  10.852 -0.9360 -1.2451 -0.6750
 1910SOL    HW217190   3.982   3.511  10.986 -0.5175 -0.8926  0.4438
 1911SOL     OW17191   2.333   0.390   1.336  0.0374 -0.2823  0.4226
 1911SOL    HW117192   2.260   0.451   1.346 -0.2534 -0.6203  0.3485
 1911SOL    HW217193   2.308   0.350   1.252 -2.4244  1.4675  0.2956
 1912SOL     OW17194   1.459   1.222   6.658  0.2680  0.4798 -0.2598
 1912SOL    HW117195   1.384   1.198   6.711 -0.6408 -0.3095 -1.8974
 1912SOL    HW217196   1.496   1.134   6.653 -0.8296 -0.0927  1.7094
 1913SOL     OW17197   1.866   0.742  14.951  0.9540 -0.4525 -0.0099
 1913SOL    HW117198   1.942   0.799  14.968  1.5022 -1.2907  0.3481
 1913SOL    HW217199   1.902   0.659  14.981  2.6399  0.4476  0.4629
 1914SOL     OW17200   1.209   2.004   8.799 -0.0758 -0.5382  1.0077
 1914SOL    HW117201   1.246   1.917   8.782 -2.9967 -1.9896  2.1233
 1914SOL    HW217202   1.259   2.049   8.866  1.4390 -2.2120  1.0162
 1915SOL     OW17203   2.463   0.059   3.911 -0.3735 -0.2728  0.3017
 1915SOL    HW117204   2.481   0.065   3.818  0.4908  1.3018  0.5647
 1915SOL    HW217205   2.540   0.016   3.950  0.2978  0.1743 -0.5344
 1916SOL     OW17206   3.276   0.092   3.506  0.3151  0.0928  0.1102
 1916SOL    HW117207   3.361   0.073   3.546 -0.0636 -2.6788 -0.4054
 1916SOL    HW217208   3.297   0.157   3.440 -0.1614  0.9898  0.8537
 1917SOL     OW17209   1.047   0.734   6.062  0.2529 -0.0482  0.2103
 1917SOL    HW117210   1.024   0.799   6.128  3.3283  0.1626  1.0864
 1917SOL    HW217211   1.120   0.683   6.097  0.0620  1.1158  2.2644
 1918SOL     OW17212   1.856   3.377   5.070 -0.6432  0.6961  0.4886
 1918SOL    HW117213   1.950   3.393   5.068 -0.6639  0.9239  1.5146
 1918SOL    HW217214   1.831   3.441   5.003 -1.3666  2.3443  2.3616
 1919SOL     OW17215   0.362   4.100   1.636  0.0572 -0.1214 -0.1504
 1919SOL    HW117216   0.312   4.181   1.629  0.7418  0.0055 -3.4199
 1919SOL    HW217217   0.331   4.056   1.715  0.9031  1.6186  1.1326
 1920SOL     OW17218   0.480   2.778   0.260  0.1305  0.1186  0.2326
 1920SOL    HW117219   0.423   2.839   0.307  0.5791  0.4319  0.3709
 1920SOL    HW217220   0.439   2.694   0.282 -0.8086  0.7757  0.9712
 1921SOL     OW17221   3.730   0.333   9.257 -0.1719  0.4407  0.1815
 1921SOL    HW117222   3.666   0.401   9.237 -0.6782 -0.1619 -0.2584
 1921SOL    HW217223   3.677   0.253   9.247  0.5292  0.0113 -0.0971
 1922SOL     OW17224   4.006   3.972  15.063  0.1667 -0.3399  0.1848
 1922SOL    HW117225   4.066   3.986  15.136 -1.3095  1.6669  1.0281
 1922SOL    HW217226   3.999   3.876  15.070 -1.0769 -0.2737 -0.1202
 1923SOL     OW17227   1.494   0.146   7.633  0.0251 -0.1019  0.1758
 1923SOL    HW117228   1.422   0.207   7.652  0.8871  0.8562  0.3371
 1923SOL    HW217229   1.565   0.210   7.640 -0.7889  0.7172  0.9508
 1924SOL     OW17230   3.668   0.091   5.625  0.2303 -0.2114  0.2379
 1924SOL    HW117231   3.681   0.060   5.535  0.4247 -2.0324  0.9093
 1924SOL    HW217232   3.733   0.044   5.677 -0.4707 -1.7575 -0.2861
 1925SOL     OW17233   0.877   4.413   6.382 -0.1571 -0.0950  0.0131
 1925SOL    HW117234   0.908   4.347   6.320 -0.4126  1.1835 -1.4841
 1925SOL    HW217235   0.817   4.462   6.326 -0.6663 -1.9886 -1.0970
 1926SOL     OW17236   2.100   4.531  16.091  0.0203  0.1034  0.2938
 1926SOL    HW117237   2.103   4.511  15.997  0.4532  1.2249  0.0767
 1926SOL    HW217238   2.019   4.488  16.117 -1.3277  1.3608 -1.8055
 1927SOL     OW17239   3.079   0.088   6.837 -0.4035 -0.7491 -0.0871
 1927SOL    HW117240   2.984   0.095   6.853  0.2990  4.2000  1.8976
 1927SOL    HW217241   3.080   0.128   6.750  1.1763 -1.9586 -0.6154
 1928SOL     OW17242   0.093   0.517   2.167 -0.2446  0.4181  0.6502
 1928SOL    HW117243   0.183   0.514   2.198  0.2099 -0.9081 -0.7969
 1928SOL    HW217244   0.059   0.463   2.239 -2.0707  0.1327 -0.4244
 1929SOL     OW17245   3.127   4.122   2.771 -1.1101  0.4463  0.2097
 1929SOL    HW117246   3.185   4.188   2.809 -1.0597  1.5576 -1.7988
 1929SOL    HW217247   3.154   4.044   2.819  2.5607 -0.0921 -2.8171
 1930SOL     OW17248   4.448   0.774   4.026  0.1439 -0.8604 -0.3818
 1930SOL    HW117249   4.471   0.744   3.939 -1.1504  0.1432 -1.0785
 1930SOL    HW217250   4.534   0.797   4.061 -0.6904 -0.6820  1.5689
 1931SOL     OW17251   2.654   0.428   8.102 -0.5329 -0.6440 -0.0152
 1931SOL    HW117252   2.602   0.460   8.176  0.4844  0.5310  0.1988
 1931SOL    HW217253   2.598   0.358   8.070  0.1921 -1.0813 -0.3176
 1932SOL     OW17254   2.180   3.967   3.595 -0.1905 -0.0835  0.2538
 1932SOL    HW117255   2.209   3.885   3.555  0.9656 -0.4327  1.7732
 1932SOL    HW217256   2.246   3.988   3.662 -2.0100 -2.8980  2.9403
 1933SOL     OW17257   4.400   3.330   5.274 -0.0706 -0.8469  0.4081
 1933SOL    HW117258   4.428   3.358   5.362 -0.2801 -0.8931  0.4909
 1933SOL    HW217259   4.315   3.290   5.292 -0.8202  1.0189  1.0584
 1934SOL     OW17260   2.786   2.984   6.414 -0.0761  0.0457  0.2729
 1934SOL    HW117261   2.807   2.981   6.321  2.0975 -1.5471  0.8099
 1934SOL    HW217262   2.739   3.067   6.414 -1.3197 -0.6807 -3.1602
 1935SOL     OW17263   3.770   3.998   3.669  0.3413 -0.0967 -0.2753
 1935SOL    HW117264   3.736   4.055   3.738 -1.4045  0.3358 -1.4899
 1935SOL    HW217265   3.801   4.072   3.616 -2.3285  0.4691 -1.0365
 1936SOL     OW17266   2.387   0.997   5.208  0.1422  0.3450 -0.1237
 1936SOL    HW117267   2.363   1.080   5.249 -1.4799  0.0740 -0.5464
 1936SOL    HW217268   2.480   1.014   5.193  0.3462 -1.2825 -0.6601
 1937SOL     OW17269   3.851   2.335   2.408  0.5201 -0.2732 -0.6726
 1937SOL    HW117270   3.781   2.397   2.429 -1.1427 -2.3000 -0.2753
 1937SOL    HW217271   3.926   2.395   2.406  0.1809  0.2291  1.0727
 1938SOL     OW17272   4.700   0.270  17.426  0.1532  0.3865 -0.0680
 1938SOL    HW117273   4.662   0.229  17.504  1.2982  3.7641  2.2920
 1938SOL    HW217274   0.068   0.272  17.454 -0.1239  0.6091  0.8213
 1939SOL     OW17275   1.188   1.404   3.623 -0.2507 -0.0371  0.2135
 1939SOL    HW117276   1.108   1.456   3.611  0.4817  1.0517  0.0936
 1939SOL    HW217277   1.232   1.418   3.539 -3.5120  0.6501 -1.3739
 1940SOL     OW17278   0.802   3.930   6.388 -0.2507  0.4853 -0.2151
 1940SOL    HW117279   0.806   3.873   6.311 -1.1960 -0.0195  0.1075
 1940SOL    HW217280   0.832   4.016   6.359  1.3659  0.1170  0.3491
 1941SOL     OW17281   3.432   3.509   1.057 -0.1540 -0.8330 -0.6533
 1941SOL    HW117282   3.357   3.566   1.040 -1.2044 -2.6237 -2.1491
 1941SOL    HW217283   3.502   3.568   1.031 -1.8300 -0.5772 -4.6942
 1942SOL     OW17284   0.346   0.942   4.354 -0.3288 -0.0207  0.6666
 1942SOL    HW117285   0.344   0.846   4.359 -0.4000 -0.0615 -0.1170
 1942SOL    HW217286   0.436   0.968   4.335 -0.4974 -0.5785 -0.8523
 1943SOL     OW17287   0.074   1.965   0.215  0.2735  0.4622  0.0119
 1943SOL    HW117288   0.102   1.935   0.302 -1.4843 -2.1876 -0.3106
 1943SOL    HW217289   0.101   2.056   0.209  0.4899  0.2588 -1.9760
 1944SOL     OW17290   3.805   3.026   7.208  0.1674  0.1542  0.0856
 1944SOL    HW117291   3.855   3.082   7.267  0.3554  1.0146 -0.9105
 1944SOL    HW217292   3.722   3.038   7.254 -0.0809 -1.3207  0.0439
 1945SOL     OW17293   4.121   3.534   2.085  0.1732  0.1715  0.2408
 1945SOL    HW117294   4.055   3.579   2.032 -0.3210 -1.0769 -0.2002
 1945SOL    HW217295   4.133   3.457   2.030 -1.3658  2.2005 -2.9862
 1946SOL     OW17296   0.225   1.822   2.118  0.2593  0.0010 -0.3261
 1946SOL    HW117297   0.217   1.885   2.189 -0.2216 -0.4480  0.0146
 1946SOL    HW217298   0.194   1.875   2.045  0.5007 -1.0228 -1.1646
 1947SOL     OW17299   0.548   2.865   6.446 -0.6463 -0.3028  0.1073
 1947SOL    HW117300   0.556   2.959   6.462  0.0543 -0.5868  1.3790
 1947SOL    HW217301   0.575   2.867   6.354  1.1359 -0.5237  0.6410
 1948SOL     OW17302   3.771   3.148  10.466  0.6639 -0.2630  0.7117
 1948SOL    HW117303   3.761   3.054  10.453 -0.8875 -0.2906  2.1429
 1948SOL    HW217304   3.804   3.133  10.554  1.3848  1.0345  0.6691
 1949SOL     OW17305   4.265   1.426   0.414 -0.0176  0.3379  0.4484
 1949SOL    HW117306   4.346   1.456   0.455  1.3702 -1.4675 -0.9979
 1949SOL    HW217307   4.234   1.358   0.475  0.4449  0.3387  0.6791
 1950SOL     OW17308   0.170   1.296   6.945 -0.3003 -0.0538 -0.4940
 1950SOL    HW117309   0.147   1.233   6.877 -0.6670 -1.1880  0.6802
 1950SOL    HW217310   0.256   1.262   6.968 -0.8779  0.1776  2.0102
 1951SOL     OW17311   1.855   0.295   7.377  0.4136  0.0648 -0.3145
 1951SOL    HW117312   1.916   0.368   7.378  0.3821  0.0793  0.7115
 1951SOL    HW217313   1.882   0.241   7.451 -1.1604 -0.1829  0.0854
 1952SOL     OW17314   0.403   4.699   0.928 -0.4417  0.5022  0.0228
 1952SOL    HW117315   0.389   0.063   0.892 -1.6698 -0.2179 -1.2557
 1952SOL    HW217316   0.470   4.656   0.874 -0.5322 -1.7259  1.6610
 1953SOL     OW17317   1.815   4.553   0.309 -0.4267 -0.8008 -0.2142
 1953SOL    HW117318   1.858   4.475   0.276  1.5186  0.4725 -0.6729
 1953SOL    HW217319   1.817   4.527   0.400 -2.2627 -1.3005 -0.3171
 1954SOL     OW17320   3.590   0.554  16.678  0.2364  0.0895 -0.3631
 1954SOL    HW117321   3.560   0.635  16.718  2.4913  0.0244  1.4742
 1954SOL    HW217322   3.547   0.553  16.592 -1.5774  1.5400  0.5233
 1955SOL     OW17323   3.549   4.142  17.499  0.9961  0.0101  0.0383
 1955SOL    HW117324   3.644   4.127  17.506  1.2532  1.1268 -1.1189
 1955SOL    HW217325   3.517   4.052  17.511  0.6992 -0.0131 -0.9624
 1956SOL     OW17326   3.481   2.055   2.948 -0.2123  0.8104  0.4819
 1956SOL    HW117327   3.561   2.014   2.915 -0.7561 -1.0483  1.4272
 1956SOL    HW217328   3.513   2.116   3.013 -1.3312  0.8459  0.9941
 1957SOL     OW17329   1.923   3.136   5.329  0.4935  0.2076  0.5823
 1957SOL    HW117330   1.948   3.214   5.377  0.7270  0.3757  0.1883
 1957SOL    HW217331   1.971   3.145   5.246 -1.8425 -0.7380 -0.8739
 1958SOL     OW17332   3.249   4.145   9.860 -0.1844 -0.2217 -0.5079
 1958SOL    HW117333   3.195   4.087   9.806  1.8726 -1.6950 -0.9907
 1958SOL    HW217334   3.264   4.217   9.798  1.5910 -0.4035 -0.2865
 1959SOL     OW17335   4.459   4.624  10.808 -0.4718 -0.1413 -0.0116
 1959SOL    HW117336   4.537   4.570  10.810 -0.7511 -0.5020  0.8599
 1959SOL    HW217337   4.488   4.704  10.852  1.5653 -1.4800  1.0114
 1960SOL     OW17338   1.108   3.310   3.536 -0.5710 -0.3290  0.9223
 1960SOL    HW117339   1.175   3.333   3.600 -1.5806  0.1042  1.8300
 1960SOL    HW217340   1.025   3.308   3.584 -1.8028 -1.5129 -1.2713
 1961SOL     OW17341   0.598   0.503   5.059  0.4703 -0.4515  0.0198
 1961SOL    HW117342   0.652   0.532   4.985 -0.9043 -0.0951 -0.8282
 1961SOL    HW217343   0.634   0.563   5.125  0.6064 -1.3044  0.7124
 1962SOL     OW17344   2.843   4.320   5.993  0.0019 -0.1213 -0.0350
 1962SOL    HW117345   2.796   4.397   6.025 -0.5488 -0.1190 -0.8433
 1962SOL    HW217346   2.852   4.350   5.903  4.0643 -0.2955  0.3393
 1963SOL     OW17347   3.255   0.694   3.219 -0.1692 -0.0882 -0.6604
 1963SOL    HW117348   3.280   0.661   3.305  0.9572  2.2954 -0.0741
 1963SOL    HW217349   3.160   0.683   3.220 -0.5324  2.8942 -1.6734
 1964SOL     OW17350   1.781   3.475   7.973  0.2750 -0.1450  0.4664
 1964SOL    HW117351   1.805   3.391   7.933 -0.2552  0.5589 -1.3515
 1964SOL    HW217352   1.740   3.521   7.899  0.7230 -1.1454 -0.4091
 1965SOL     OW17353   3.353   1.718   6.851  0.4563 -0.3012 -0.1759
 1965SOL    HW117354   3.386   1.731   6.939  1.0828  1.1486 -0.6261
 1965SOL    HW217355   3.412   1.776   6.801  0.6279  0.1962  0.6074
 1966SOL     OW17356   4.497   2.639   4.251  0.0626 -0.7946  0.2975
 1966SOL    HW117357   4.508   2.670   4.161  0.3366 -0.5390  0.4170
 1966SOL    HW217358   4.585   2.650   4.286 -0.2343  0.0661  0.7867
 1967SOL     OW17359   4.202   0.493  14.899 -0.5591  0.0874  0.0370
 1967SOL    HW117360   4.110   0.519  14.906  0.0128  2.5744 -1.4678
 1967SOL    HW217361   4.206   0.479  14.804  4.5580  1.3184  0.0689
 1968SOL     OW17362   1.457   2.162  14.522  0.2705  0.2753 -0.3838
 1968SOL    HW117363   1.442   2.170  14.616  0.1347 -1.0612 -0.2935
 1968SOL    HW217364   1.421   2.242  14.484 -1.9081  0.7828  2.7647
 1969SOL     OW17365   2.787   3.212   2.792 -0.2484  0.2203 -0.1279
 1969SOL    HW117366   2.746   3.158   2.860  3.7975 -1.3734  1.0210
 1969SOL    HW217367   2.847   3.148   2.754  0.8891  0.6931  0.8994
 1970SOL     OW17368   1.738   4.231   3.676 -0.3311 -0.0865  0.1806
 1970SOL    HW117369   1.762   4.212   3.766 -0.2624  0.7097  0.3345
 1970SOL    HW217370   1.821   4.219   3.631 -0.3859 -1.7193  0.5371
 1971SOL     OW17371   1.538   0.194  17.011  0.4631 -0.2533  0.0892
 1971SOL    HW117372   1.523   0.100  17.020 -1.1373  0.0778  0.9584
 1971SOL    HW217373   1.628   0.198  16.982 -0.0516  1.3775 -1.2849
 1972SOL     OW17374   4.710   3.128  11.003  1.0367  0.6407  0.2658
 1972SOL    HW117375   4.718   3.223  10.997 -1.3606  0.9853  2.3897
 1972SOL    HW217376   4.647   3.120  11.075  0.8023 -1.1859 -0.1530
 1973SOL     OW17377   1.372   3.350   5.762 -0.2097 -0.0192 -0.8451
 1973SOL    HW117378   1.290   3.391   5.735  1.1537  2.5181 -1.0457
 1973SOL    HW217379   1.403   3.421   5.818 -0.0579 -0.4650 -0.3576
 1974SOL     OW17380   2.835   3.930  12.256 -0.3085 -0.5105  0.2717
 1974SOL    HW117381   2.917   3.967  12.289  0.3262 -0.3280 -1.5094
 1974SOL    HW217382   2.770   3.999  12.272  0.2949  0.8923 -3.1846
 1975SOL     OW17383   4.232   0.991   5.230 -0.0441 -0.0625 -0.5163
 1975SOL    HW117384   4.266   1.058   5.171  0.0413  0.5142  0.1877
 1975SOL    HW217385   4.226   1.038   5.313 -0.4883 -2.1994  0.6531
 1976SOL     OW17386   3.914   1.147   6.364 -0.1830 -0.4942 -0.4297
 1976SOL    HW117387   3.957   1.208   6.424 -1.7824 -1.1394  1.3774
 1976SOL    HW217388   3.985   1.087   6.341 -0.2051 -0.9661  0.7287
 1977SOL     OW17389   4.596   1.123   6.769 -0.0424 -0.4746  0.0490
 1977SOL    HW117390   4.576   1.216   6.759  1.6221 -0.2104 -0.9131
 1977SOL    HW217391   4.691   1.119   6.785  0.1148  1.4336 -0.4676
 1978SOL     OW17392   3.477   1.941   1.859  0.0776  0.1032 -0.7755
 1978SOL    HW117393   3.545   2.008   1.869 -2.9313  3.1209 -0.2683
 1978SOL    HW217394   3.518   1.877   1.917 -0.9115 -0.8553 -1.1299
 1979SOL     OW17395   2.744   2.608   1.946 -0.6219  0.5260 -0.6922
 1979SOL    HW117396   2.700   2.660   1.879 -4.0411 -1.7813 -0.2448
 1979SOL    HW217397   2.667   2.566   1.984 -0.0918 -1.2131 -1.5624
 1980SOL     OW17398   2.795   2.060   9.119  0.1915  0.1179 -0.5453
 1980SOL    HW117399   2.864   2.028   9.061  1.8790  1.4626  0.7189
 1980SOL    HW217400   2.836   2.126   9.175  0.2630 -0.8563  0.5361
 1981SOL     OW17401   4.574   2.452   2.609  0.7889  0.3628 -0.6942
 1981SOL    HW117402   4.586   2.367   2.566 -0.9128 -0.2985  0.1269
 1981SOL    HW217403   4.482   2.454   2.635  1.4080 -0.1996  1.5414
 1982SOL     OW17404   2.271   1.925   5.191 -0.4811  0.3326 -0.3192
 1982SOL    HW117405   2.326   2.002   5.174 -0.6944  0.2366 -1.4681
 1982SOL    HW217406   2.229   1.923   5.105  0.4193 -2.1672 -0.6998
 1983SOL     OW17407   0.112   1.522   8.335 -0.4955 -0.6151  0.2486
 1983SOL    HW117408   0.147   1.514   8.246 -0.5000 -0.6875  0.2537
 1983SOL    HW217409   0.177   1.581   8.373 -0.5696 -1.2421  1.3374
 1984SOL     OW17410   2.858   2.877  15.709 -0.2356  0.3035  0.3134
 1984SOL    HW117411   2.837   2.943  15.774  0.4995  0.4166  0.4434
 1984SOL    HW217412   2.954   2.878  15.703 -0.1841  0.6950  1.1659
 1985SOL     OW17413   0.508   0.750   7.328  0.7552 -0.0819  0.2446
 1985SOL    HW117414   0.541   0.796   7.252 -2.7059  2.6836  0.3932
 1985SOL    HW217415   0.435   0.810   7.345  1.1541 -0.0694  1.9547
 1986SOL     OW17416   2.906   2.305   7.468 -0.4944  0.1527  0.1654
 1986SOL    HW117417   2.981   2.355   7.437 -0.4438 -0.0854 -0.1014
 1986SOL    HW217418   2.833   2.330   7.412 -0.4655 -0.3670 -0.1096
 1987SOL     OW17419   1.319   2.437   7.610  0.4924  0.8958 -0.1083
 1987SOL    HW117420   1.313   2.424   7.515 -1.0721 -1.2237  0.2805
 1987SOL    HW217421   1.239   2.488   7.622 -0.0712  0.0963 -0.4954
 1988SOL     OW17422   3.506   4.490   2.069  0.2400 -0.0108 -0.0645
 1988SOL    HW117423   3.503   4.506   1.974 -0.9045  0.8929  0.1230
 1988SOL    HW217424   3.578   4.549   2.092  1.9421 -1.7405 -0.9310
 1989SOL     OW17425   2.152   2.271   0.998  0.1972  0.6855  0.8634
 1989SOL    HW117426   2.092   2.333   0.957 -0.9985 -0.8092  0.3418
 1989SOL    HW217427   2.208   2.334   1.042 -0.4126  2.5971 -1.1042
 1990SOL     OW17428   2.855   4.024  11.746  0.7012  0.4354 -0.1643
 1990SOL    HW117429   2.820   4.021  11.657  1.4714 -0.3988 -0.4418
 1990SOL    HW217430   2.917   3.957  11.716 -1.6646 -1.1630 -1.4557
 1991SOL     OW17431   0.050   0.284   2.812  0.4209  0.4004  0.0844
 1991SOL    HW117432   4.695   0.340   2.806 -1.9616 -2.6389  2.6032
 1991SOL    HW217433   0.058   0.281   2.908  1.1566 -3.2095 -0.1014
 1992SOL     OW17434   2.902   0.380   9.314  0.1445  0.3828 -0.1615
 1992SOL    HW117435   2.872   0.399   9.403  0.8333 -2.6754  0.7360
 1992SOL    HW217436   2.858   0.448   9.265  2.0778  1.7638  0.0235
 1993SOL     OW17437   1.816   4.064  12.432 -0.5294  0.3908 -0.3643
 1993SOL    HW117438   1.735   4.017  12.416  1.2570 -2.1806 -1.9001
 1993SOL    HW217439   1.867   4.031  12.358 -1.3098  1.4487 -1.3702
 1994SOL     OW17440   2.199   3.251   2.247 -0.3510  0.5878  0.1997
 1994SOL    HW117441   2.281   3.213   2.217 -0.2211  1.5892 -0.7015
 1994SOL    HW217442   2.232   3.341   2.250  1.3953 -0.0674  0.5201
 1995SOL     OW17443   1.101   1.652   5.601 -0.4350 -0.0663  0.2259
 1995SOL    HW117444   1.108   1.560   5.627  2.1066  0.1268  0.1572
 1995SOL    HW217445   1.170   1.694   5.651  0.6965 -1.6864  0.0316
 1996SOL     OW17446   1.180   2.557   3.424 -0.6173 -0.2094 -0.6005
 1996SOL    HW117447   1.156   2.649   3.420 -0.3709 -0.1888 -1.6222
 1996SOL    HW217448   1.099   2.530   3.382  0.2403  0.0423 -2.4445
 1997SOL     OW17449   3.780   3.876   2.422 -0.1518  0.5616  1.0865
 1997SOL    HW117450   3.769   3.858   2.515 -0.4921  2.4724  1.4262
 1997SOL    HW217451   3.709   3.937   2.399 -0.8600 -0.1171  1.4528
 1998SOL     OW17452   3.095   3.106  12.959  0.2239 -0.5103 -0.2032
 1998SOL    HW117453   3.113   3.012  12.952  0.4544 -0.4810  0.0216
 1998SOL    HW217454   3.022   3.105  12.896  0.1281  0.2799 -0.1026
 1999SOL     OW17455   1.801   2.072   4.482 -0.4306  0.6759  0.7303
 1999SOL    HW117456   1.709   2.082   4.459 -0.0610 -0.0919 -1.0711
 1999SOL    HW217457   1.817   1.978   4.479  2.2398  1.1944 -1.1073
 2000SOL     OW17458   3.983   0.680  10.716  0.2527  0.8521  0.5254
 2000SOL    HW117459   4.064   0.720  10.747  0.4153 -1.7896  3.5713
 2000SOL    HW217460   3.988   0.588  10.742  0.4206  0.9343  0.7808
 2001SOL     OW17461   2.435   0.473   3.330 -0.1945 -0.2294  0.4470
 2001SOL    HW117462   2.455   0.380   3.317 -1.7522 -0.2957 -1.4282
 2001SOL    HW217463   2.349   0.456   3.371 -1.3727  0.3958 -1.7660
 2002SOL     OW17464   3.372   2.640   5.147  0.3631 -0.4422  0.2981
 2002SOL    HW117465   3.346   2.729   5.123 -2.3180 -0.6029  2.5284
 2002SOL    HW217466   3.325   2.632   5.231  3.5835 -1.0358  2.0334
 2003SOL     OW17467   1.955   1.959   9.642  0.1343 -0.0510 -0.1626
 2003SOL    HW117468   2.045   1.983   9.664 -0.6152  1.3978  1.3903
 2003SOL    HW217469   1.976   1.908   9.565 -3.0832  0.5451 -1.4141
 2004SOL     OW17470   0.424   1.228  14.427  0.3302  0.8561  0.3133
 2004SOL    HW117471   0.432   1.133  14.438  1.4521  1.1238  1.8671
 2004SOL    HW217472   0.333   1.238  14.399  1.0554 -1.1267 -2.6710
 2005SOL     OW17473   1.506   2.704   0.258  0.6343  0.2643  0.1004
 2005SOL    HW117474   1.434   2.736   0.204 -0.2327 -0.7777  0.6290
 2005SOL    HW217475   1.569   2.774   0.245 -0.1810  0.7922 -0.9991
 2006SOL     OW17476   0.130   1.505   9.571  0.0638  0.1779  0.0480
 2006SOL    HW117477   0.171   1.591   9.580  0.5900 -0.1035  0.3434
 2006SOL    HW217478   0.122   1.472   9.661  0.3926 -2.7889 -1.0118
 2007SOL     OW17479   2.257   1.202   5.028 -0.2981 -0.0690 -0.3466
 2007SOL    HW117480   2.244   1.277   4.970 -0.3299 -0.0483 -0.3127
 2007SOL    HW217481   2.318   1.253   5.082 -0.0786 -0.5027 -0.1867
 2008SOL     OW17482   1.212   3.915   5.224  0.3736  0.0727  0.5014
 2008SOL    HW117483   1.189   3.947   5.137 -0.6311 -1.1485  0.3229
 2008SOL    HW217484   1.162   3.978   5.276  3.6522  1.8500  1.4511
 2009SOL     OW17485   3.644   0.812  17.345 -0.2034  0.6418  0.5416
 2009SOL    HW117486   3.562   0.860  17.333  1.6402  3.3812 -1.0552
 2009SOL    HW217487   3.699   0.868  17.289  1.0090 -0.8847  0.2009
 2010SOL     OW17488   4.182   3.180   3.565  0.0241 -0.2115 -0.0779
 2010SOL    HW117489   4.216   3.180   3.654  3.0051  0.6704 -1.2106
 2010SOL    HW217490   4.257   3.142   3.519  1.0172  1.4953  0.1456
 2011SOL     OW17491   0.057   1.766   3.356 -0.8181  0.0987  0.3804
 2011SOL    HW117492   4.718   1.712   3.404 -0.6128 -0.9493 -0.5121
 2011SOL    HW217493   0.027   1.852   3.385  0.6084  0.4504  0.8316
 2012SOL     OW17494   1.473   2.444   0.349 -0.7380 -0.2958 -0.4734
 2012SOL    HW117495   1.563   2.412   0.338  0.2832  2.3500  0.1359
 2012SOL    HW217496   1.480   2.527   0.304 -3.5004 -0.0020 -0.3357
 2013SOL     OW17497   0.431   0.493  10.631  0.0695 -0.5522  0.3965
 2013SOL    HW117498   0.455   0.404  10.604 -0.1008 -0.1822 -0.9894
 2013SOL    HW217499   0.336   0.479  10.625  0.1086 -0.4320 -0.4944
 2014SOL     OW17500   3.037   2.488  15.898  0.0671  0.0845  0.0815
 2014SOL    HW117501   2.965   2.513  15.841 -1.3624 -0.9326  1.4433
 2014SOL    HW217502   3.032   2.393  15.903  0.8306  0.0946  1.1437
 2015SOL     OW17503   3.324   2.885   5.046 -0.8513  0.0644  0.0349
 2015SOL    HW117504   3.281   2.943   4.984  1.9583  1.6024 -0.4513
 2015SOL    HW217505   3.414   2.914   5.030 -0.5766 -0.4066  0.7284
 2016SOL     OW17506   0.491   1.315   4.718  0.5579  0.3873 -0.1900
 2016SOL    HW117507   0.456   1.370   4.789  2.2142  0.1803  0.7726
 2016SOL    HW217508   0.540   1.256   4.774 -0.9709 -0.1075  0.6414
 2017SOL     OW17509   1.912   0.519  13.374  0.0294 -0.6481  0.1768
 2017SOL    HW117510   1.990   0.476  13.341  0.9833  1.1755  0.0922
 2017SOL    HW217511   1.872   0.449  13.426 -1.2308  0.2317  0.4011
 2018SOL     OW17512   3.665   3.993   6.919 -0.4180  0.4757 -0.5039
 2018SOL    HW117513   3.710   4.020   6.999  0.1387 -0.0950 -0.6193
 2018SOL    HW217514   3.578   4.025   6.943  0.4755  2.1499  0.5505
 2019SOL     OW17515   2.844   3.083   7.031  0.1374  0.6240  0.2933
 2019SOL    HW117516   2.932   3.119   7.018 -0.7760  1.6603 -3.0106
 2019SOL    HW217517   2.803   3.169   7.045 -0.4274  0.4508 -0.2815
 2020SOL     OW17518   1.638   2.484   4.765  0.2604 -1.0516  0.0662
 2020SOL    HW117519   1.593   2.547   4.822 -0.6358 -1.0695 -0.6389
 2020SOL    HW217520   1.713   2.464   4.822 -0.0532  0.7673  1.1436
 2021SOL     OW17521   0.155   0.967  16.439  0.1208  0.0985  0.1855
 2021SOL    HW117522   0.182   0.933  16.524  0.4042  1.9742  0.8379
 2021SOL    HW217523   0.095   1.038  16.462  0.0881  0.1495 -0.0608
 2022SOL     OW17524   0.549   2.667   8.184 -0.2749 -0.0409  0.3093
 2022SOL    HW117525   0.556   2.753   8.227  2.7750  0.3353 -0.9221
 2022SOL    HW217526   0.637   2.646   8.152 -0.5962 -0.3608 -0.3800
 2023SOL     OW17527   3.970   1.059  13.743  0.0872 -0.0249  0.2010
 2023SOL    HW117528   3.989   1.018  13.658  1.4217  0.3538  0.3127
 2023SOL    HW217529   4.055   1.079  13.782  1.6906 -3.7379 -1.2925
 2024SOL     OW17530   1.839   0.108   2.419  0.3283  0.5842 -0.0511
 2024SOL    HW117531   1.845   0.141   2.508  0.5276  0.2757  0.0502
 2024SOL    HW217532   1.885   0.024   2.423  2.7575  1.7488 -3.4290
 2025SOL     OW17533   2.429   0.268   3.702 -0.0428  0.3599  0.3985
 2025SOL    HW117534   2.390   0.337   3.648 -0.1343  0.6484  0.8297
 2025SOL    HW217535   2.382   0.190   3.672 -0.6448  1.1958 -0.8299
 2026SOL     OW17536   1.522   2.276   8.377 -0.2469 -0.3325 -0.5228
 2026SOL    HW117537   1.547   2.366   8.356 -0.2472 -0.5691 -1.5307
 2026SOL    HW217538   1.600   2.237   8.417 -0.6364 -0.8056 -0.2203
 2027SOL     OW17539   2.220   4.524  10.943  0.1676 -0.1182  0.2804
 2027SOL    HW117540   2.183   4.493  11.026  0.0166 -0.0877  0.2256
 2027SOL    HW217541   2.180   4.610  10.931  0.2061 -0.0380  0.7262
 2028SOL     OW17542   2.984   3.388   4.457  0.2211 -0.2125  0.0279
 2028SOL    HW117543   2.938   3.348   4.531  0.3592 -0.2508  0.0935
 2028SOL    HW217544   3.027   3.309   4.423 -0.9006 -0.2282 -1.3441
 2029SOL     OW17545   2.600   0.664   6.777  0.5321 -0.0351 -0.3312
 2029SOL    HW117546   2.531   0.730   6.788  1.9063  0.9203  2.4781
 2029SOL    HW217547   2.639   0.705   6.700  2.8084 -0.7311  0.4716
 2030SOL     OW17548   0.692   0.154   9.986  0.1024  0.3115 -0.5896
 2030SOL    HW117549   0.747   0.090   9.941  1.5147  0.3501  1.1033
 2030SOL    HW217550   0.740   0.171  10.067  1.0590  0.8918 -1.2777
 2031SOL     OW17551   3.598   3.792   8.372  0.2438 -0.4780  1.1222
 2031SOL    HW117552   3.562   3.808   8.284  1.2401 -1.6382  0.5060
 2031SOL    HW217553   3.585   3.873   8.421  0.5770  0.9084 -1.0938
 2032SOL     OW17554   0.968   1.882  12.092  0.6097 -0.1040 -0.0735
 2032SOL    HW117555   0.931   1.810  12.041 -1.9533  0.4978  0.9444
 2032SOL    HW217556   0.891   1.938  12.080  0.1965 -0.1642  2.2712
 2033SOL     OW17557   2.068   3.291   7.083  0.3270  0.2424 -0.2433
 2033SOL    HW117558   2.140   3.294   7.146  0.0112  0.9005  0.0876
 2033SOL    HW217559   2.110   3.224   7.029  0.4235  0.8442 -0.9142
 2034SOL     OW17560   0.850   4.468   6.664 -0.2355  0.1306 -0.4866
 2034SOL    HW117561   0.832   4.414   6.587 -0.5118 -0.3265 -0.0967
 2034SOL    HW217562   0.793   4.544   6.649  0.2060  0.2064 -1.7831
 2035SOL     OW17563   1.804   2.527   6.853 -0.1661  0.6426  0.2373
 2035SOL    HW117564   1.844   2.455   6.901  1.4855  2.1115  1.0607
 2035SOL    HW217565   1.741   2.487   6.794  1.1012 -0.5419 -0.3301
 2036SOL     OW17566   1.684   2.992   5.829 -0.1814  0.5604 -0.7142
 2036SOL    HW117567   1.729   2.941   5.762 -0.2716 -0.5078  0.0392
 2036SOL    HW217568   1.607   3.019   5.779 -0.1867  1.0562 -0.4366
 2037SOL     OW17569   0.991   1.095   6.463  0.3905  0.0608  0.1582
 2037SOL    HW117570   0.909   1.048   6.478  0.6045 -0.0364  1.0077
 2037SOL    HW217571   0.962   1.186   6.463 -0.6657 -0.2677 -2.4997
 2038SOL     OW17572   0.900   0.819   0.670 -0.7717  0.8570  0.1562
 2038SOL    HW117573   0.938   0.734   0.650 -0.1469  1.1592  0.0862
 2038SOL    HW217574   0.829   0.794   0.730  0.2232  0.4964  1.1898
 2039SOL     OW17575   2.789   4.319  13.548 -0.6562 -0.5039 -0.2392
 2039SOL    HW117576   2.711   4.284  13.506  1.1876 -1.2550 -3.0031
 2039SOL    HW217577   2.770   4.412  13.559 -0.1329 -0.5039  0.7187
 2040SOL     OW17578   0.149   1.616   1.488  0.6424 -0.1763  0.1252
 2040SOL    HW117579   0.118   1.661   1.409  1.1223  0.3069  0.2111
 2040SOL    HW217580   0.142   1.525   1.459  0.6922  0.9034 -3.3075
 2041SOL     OW17581   3.053   0.779   4.599 -0.4168 -0.4140  0.7405
 2041SOL    HW117582   3.132   0.802   4.647 -0.3096 -2.4373  1.5631
 2041SOL    HW217583   2.988   0.807   4.664 -0.2899  1.3080  0.1032
 2042SOL     OW17584   0.015   3.641   6.029 -0.6000  0.1539  0.0166
 2042SOL    HW117585   0.057   3.706   6.086 -0.6572  0.9074 -0.7882
 2042SOL    HW217586   0.066   3.561   6.031 -0.3053  0.3217 -1.3618
 2043SOL     OW17587   2.961   1.163   7.919 -0.1305 -0.1038 -0.4383
 2043SOL    HW117588   3.023   1.091   7.931  0.0525  0.2387  0.6872
 2043SOL    HW217589   2.909   1.128   7.847 -1.0400  0.4402 -0.0542
 2044SOL     OW17590   3.573   1.327  13.158  0.2646  0.1283 -0.4562
 2044SOL    HW117591   3.524   1.245  13.151 -1.7763  1.3528 -0.6138
 2044SOL    HW217592   3.508   1.387  13.196 -1.3022 -0.7575 -1.7354
 2045SOL     OW17593   0.981   0.087  16.833  0.7980 -0.3500  0.1088
 2045SOL    HW117594   1.041   0.027  16.791  2.7617  1.0550  0.8846
 2045SOL    HW217595   1.026   0.124  16.909  1.6577  1.8787 -1.4895
 2046SOL     OW17596   3.301   2.988   4.707  0.3067 -0.1105 -0.0734
 2046SOL    HW117597   3.326   2.965   4.617 -1.0575 -0.8568 -0.2659
 2046SOL    HW217598   3.301   2.902   4.747  1.0241 -0.3970 -0.6939
 2047SOL     OW17599   4.244   3.844   8.183  0.1217  0.1451 -0.1889
 2047SOL    HW117600   4.289   3.906   8.241 -1.8066  0.7493  0.6720
 2047SOL    HW217601   4.283   3.873   8.101 -1.0369  0.9981 -0.4427
 2048SOL     OW17602   1.499   0.339   7.943 -0.2383  0.4001 -0.1920
 2048SOL    HW117603   1.572   0.290   7.906  0.1457  3.3559 -3.2654
 2048SOL    HW217604   1.444   0.355   7.867  1.5607  0.4462 -1.4746
 2049SOL     OW17605   3.583   3.893   1.174 -0.0968 -0.0742  0.0115
 2049SOL    HW117606   3.652   3.944   1.217  0.5803  2.2434 -3.8090
 2049SOL    HW217607   3.615   3.908   1.086 -0.1666  0.0857  0.0136
 2050SOL     OW17608   2.772   0.996   9.050 -0.7592 -0.4089  0.2518
 2050SOL    HW117609   2.754   1.026   8.961  1.1574  0.2339  0.0806
 2050SOL    HW217610   2.725   0.913   9.044  2.0369 -2.1131  1.7994
 2051SOL     OW17611   2.000   0.014  16.704 -0.1191 -0.3573 -0.2326
 2051SOL    HW117612   1.960   4.691  16.631  1.0926 -0.4877 -0.8246
 2051SOL    HW217613   2.069   4.672  16.710  0.4234  0.2396  0.1126
 2052SOL     OW17614   0.330   2.249   2.677  0.3023  0.2483  0.1022
 2052SOL    HW117615   0.349   2.287   2.591 -1.0783 -1.2927 -0.8867
 2052SOL    HW217616   0.301   2.160   2.659  0.4269  0.3499 -0.5972
 2053SOL     OW17617   3.250   0.040   9.556 -0.2172  0.2644  0.0948
 2053SOL    HW117618   3.236   0.097   9.632 -0.6205 -0.2257  0.3868
 2053SOL    HW217619   3.163   0.033   9.519 -0.7222 -1.7982  1.7103
 2054SOL     OW17620   1.579   0.508  15.048 -0.3679  0.0853 -0.4520
 2054SOL    HW117621   1.627   0.521  14.966  1.8278 -2.3518  0.4293
 2054SOL    HW217622   1.635   0.444  15.091 -0.7712 -0.9580 -1.4752
 2055SOL     OW17623   4.153   4.010   4.695  0.1678 -0.7466 -0.0189
 2055SOL    HW117624   4.168   3.916   4.691  2.5567 -0.4019  0.5925
 2055SOL    HW217625   4.138   4.011   4.789 -1.4515 -2.2286 -0.2651
 2056SOL     OW17626   1.054   4.496   7.302 -0.3728  0.2610  0.1485
 2056SOL    HW117627   0.999   4.467   7.375 -0.8276  0.9916  0.0995
 2056SOL    HW217628   0.986   4.513   7.237 -0.1004 -1.4916 -0.6009
 2057SOL     OW17629   2.146   3.734   9.450  0.1044 -0.0746  0.8476
 2057SOL    HW117630   2.112   3.746   9.538 -1.2831 -1.1706  0.4639
 2057SOL    HW217631   2.227   3.784   9.458 -0.6720  1.3599 -0.3788
 2058SOL     OW17632   2.812   0.215   6.965 -0.1978  0.2318 -0.0685
 2058SOL    HW117633   2.779   0.279   6.902 -1.3957 -2.4361 -2.1815
 2058SOL    HW217634   2.891   0.259   6.997  0.5449  0.8189 -2.6626
 2059SOL     OW17635   1.676   1.733   7.272 -0.0942  0.1508 -0.8212
 2059SOL    HW117636   1.746   1.798   7.277 -0.2872  0.2632  0.4111
 2059SOL    HW217637   1.645   1.739   7.362 -1.3609  1.1929 -1.3188
 2060SOL     OW17638   3.184   3.053   6.704 -0.3264  0.2713 -0.7036
 2060SOL    HW117639   3.210   2.987   6.640 -0.6055 -2.1031  1.6176
 2060SOL    HW217640   3.090   3.044   6.685 -0.2139 -0.8327 -0.7656
 2061SOL     OW17641   4.608   2.496   6.512 -0.6088  0.2607 -0.4689
 2061SOL    HW117642   4.549   2.533   6.446 -0.1161 -1.3323 -1.8057
 2061SOL    HW217643   4.556   2.417   6.523  0.6676 -0.2585  1.8574
 2062SOL     OW17644   4.664   1.212  14.024  0.3162 -0.0983 -0.1333
 2062SOL    HW117645   0.031   1.243  14.017 -0.0059  0.4712 -1.8425
 2062SOL    HW217646   4.672   1.134  14.079  0.5842  0.2780  0.3520
 2063SOL     OW17647   4.065   3.720  15.364  0.3216  1.0310 -0.7769
 2063SOL    HW117648   4.096   3.810  15.357  0.3712  1.0182 -0.7185
 2063SOL    HW217649   4.058   3.692  15.272  1.9588 -1.6551 -0.0733
 2064SOL     OW17650   3.702   3.972  12.940 -0.0571  0.3441  0.3363
 2064SOL    HW117651   3.779   3.919  12.957  0.6185 -0.1736 -4.2183
 2064SOL    HW217652   3.733   4.010  12.858  1.5780  0.5195  1.0426
 2065SOL     OW17653   3.013   3.395   9.369 -0.1628 -0.3814  0.2720
 2065SOL    HW117654   2.988   3.304   9.387  0.7045 -0.5564  0.5974
 2065SOL    HW217655   2.932   3.440   9.393  0.5698  1.1983 -0.2359
 2066SOL     OW17656   0.145   1.404   6.275  0.3152  0.7812  0.0573
 2066SOL    HW117657   0.079   1.472   6.292 -2.5259 -2.2221  1.0742
 2066SOL    HW217658   0.165   1.418   6.182  1.3206 -1.3486 -0.0310
 2067SOL     OW17659   0.290   3.547   1.111  0.2574  0.7113  0.1201
 2067SOL    HW117660   0.330   3.460   1.104 -0.0512  0.6937 -1.5686
 2067SOL    HW217661   0.353   3.586   1.171  0.4868 -2.6017  2.0509
 2068SOL     OW17662   1.920   1.839   3.023  0.1630  0.1192 -0.1958
 2068SOL    HW117663   1.827   1.841   3.042  0.4102  2.1096  0.7584
 2068SOL    HW217664   1.960   1.851   3.109 -0.9570  0.6055  0.2510
 2069SOL     OW17665   3.692   1.538   6.835  0.1076  0.3622  0.0011
 2069SOL    HW117666   3.599   1.521   6.853 -0.1399  3.3588  1.4962
 2069SOL    HW217667   3.716   1.464   6.779 -0.5207  0.6185 -0.6068
 2070SOL     OW17668   2.255   2.889  12.397  0.1077  1.5126  0.1912
 2070SOL    HW117669   2.280   2.868  12.487  1.5170 -0.4019 -0.6536
 2070SOL    HW217670   2.167   2.926  12.404 -0.2673  0.8200 -0.8352
 2071SOL     OW17671   3.911   3.828   3.924  0.9472  0.0652 -0.3756
 2071SOL    HW117672   3.877   3.880   3.852 -2.2894 -0.9774  0.3884
 2071SOL    HW217673   3.897   3.738   3.893 -0.2914 -1.1170  3.5612
 2072SOL     OW17674   2.108   1.278   6.547 -0.1631 -0.2003  0.3725
 2072SOL    HW117675   2.017   1.261   6.572  0.8555 -3.0059  2.1487
 2072SOL    HW217676   2.158   1.240   6.619  0.0330 -2.5092 -0.9563
 2073SOL     OW17677   1.005   2.501   7.520  0.1022 -0.7188  0.0804
 2073SOL    HW117678   1.064   2.576   7.519 -0.9172  0.0982  1.4441
 2073SOL    HW217679   0.929   2.553   7.548  0.5952  0.9584 -1.6879
 2074SOL     OW17680   0.690   0.089   8.273 -0.2191 -0.1569  0.7976
 2074SOL    HW117681   0.775   0.047   8.281  0.1646  0.3730 -0.5129
 2074SOL    HW217682   0.659   0.058   8.359  0.6543  0.0269  1.1818
 2075SOL     OW17683   0.791   1.423  14.918 -0.2889 -0.2386  1.0344
 2075SOL    HW117684   0.779   1.441  15.011 -2.6719 -2.5198  1.1664
 2075SOL    HW217685   0.886   1.433  14.906 -0.1364 -2.5857  0.0907
 2076SOL     OW17686   3.668   0.549  17.290  0.0173 -0.0649  0.6019
 2076SOL    HW117687   3.694   0.626  17.340  0.2995  1.0586 -1.3023
 2076SOL    HW217688   3.573   0.546  17.300  0.1019  1.9283  2.0640
 2077SOL     OW17689   0.863   1.167   3.172 -0.2800 -0.0489 -0.0643
 2077SOL    HW117690   0.947   1.199   3.140 -0.2071 -0.0912  0.0828
 2077SOL    HW217691   0.841   1.245   3.223  0.4855 -0.3959  0.7953
 2078SOL     OW17692   0.112   4.156  10.791 -0.4749  0.1078 -0.1784
 2078SOL    HW117693   0.120   4.071  10.747  1.6099  0.5226 -0.5754
 2078SOL    HW217694   0.075   4.120  10.872  0.9800  1.0500  0.8986
 2079SOL     OW17695   4.301   4.592   7.916 -0.0639 -0.1270  0.2883
 2079SOL    HW117696   4.208   4.580   7.932  0.2275 -0.2544  1.9254
 2079SOL    HW217697   4.309   4.666   7.976  0.0076  0.2346 -0.1721
 2080SOL     OW17698   1.937   0.932   2.699  0.0123 -0.2352 -0.9745
 2080SOL    HW117699   1.910   0.842   2.716  1.0681  0.2691  3.3680
 2080SOL    HW217700   2.020   0.936   2.746 -0.6424  0.5019  0.1166
 2081SOL     OW17701   3.470   0.691  14.831 -0.4863  0.2370  0.1853
 2081SOL    HW117702   3.450   0.771  14.879  1.5834  1.3412 -0.7660
 2081SOL    HW217703   3.559   0.679  14.866 -0.1965 -0.3988 -0.7704
 2082SOL     OW17704   2.577   3.583   4.345  0.1804  0.6859 -0.0019
 2082SOL    HW117705   2.505   3.567   4.285  1.2843  0.8504 -1.3602
 2082SOL    HW217706   2.653   3.578   4.287  0.2698 -2.7133  0.4137
 2083SOL     OW17707   1.363   2.591   9.682 -0.2944  0.4437 -0.6504
 2083SOL    HW117708   1.347   2.635   9.765 -1.5610  1.2473 -1.3189
 2083SOL    HW217709   1.285   2.536   9.673 -0.2283  0.7424 -3.1036
 2084SOL     OW17710   0.548   2.530   1.190 -0.1422 -0.2514 -0.2520
 2084SOL    HW117711   0.635   2.524   1.150 -0.0880 -0.6233 -0.0846
 2084SOL    HW217712   0.553   2.625   1.197  1.8891 -0.3138 -0.8417
 2085SOL     OW17713   2.777   4.486   4.550  0.0222  0.2957 -0.6935
 2085SOL    HW117714   2.715   4.526   4.489 -1.1666  2.4547  1.9426
 2085SOL    HW217715   2.762   4.392   4.534 -0.8891  0.5830 -1.5622
 2086SOL     OW17716   3.060   1.026   3.272  0.6380  0.3546 -0.0044
 2086SOL    HW117717   3.045   0.951   3.330  1.7539  1.6385  1.9177
 2086SOL    HW217718   3.057   0.976   3.190  0.4111 -2.1134  1.4915
 2087SOL     OW17719   0.127   1.748   3.766  0.7699 -0.4964  0.1036
 2087SOL    HW117720   0.155   1.669   3.721 -0.2988  1.2878 -3.7216
 2087SOL    HW217721   0.192   1.748   3.836 -0.6827 -1.7185  1.4455
 2088SOL     OW17722   0.880   1.016   7.616 -0.9462 -0.6311 -0.5645
 2088SOL    HW117723   0.894   0.941   7.558 -0.4171 -0.4794 -0.6296
 2088SOL    HW217724   0.856   1.076   7.546  0.4763  0.3835 -0.1848
 2089SOL     OW17725   2.485   3.602   6.440  0.1747  0.0131 -0.1183
 2089SOL    HW117726   2.477   3.616   6.345 -0.2824  1.3007  0.1083
 2089SOL    HW217727   2.408   3.547   6.451  0.3589 -0.2787 -0.2929
 2090SOL     OW17728   1.347   2.787  13.387  0.1321 -0.2297  0.2579
 2090SOL    HW117729   1.314   2.806  13.475  0.4782  0.0494  0.3274
 2090SOL    HW217730   1.440   2.781  13.407 -0.0199 -1.1633  0.6794
 2091SOL     OW17731   2.107   0.109  17.617  0.2337 -0.1251  0.1795
 2091SOL    HW117732   2.022   0.145  17.592  0.1801 -0.2351  0.2026
 2091SOL    HW217733   2.155   0.192  17.623  1.3071 -0.5503 -2.5245
 2092SOL     OW17734   1.645   2.879   8.639 -0.5484  0.3821  0.4856
 2092SOL    HW117735   1.708   2.845   8.703 -0.8432  0.7379  0.9669
 2092SOL    HW217736   1.562   2.847   8.676 -1.8806 -0.6497 -3.4529
 2093SOL     OW17737   1.767   1.080  10.694 -0.3398  0.5790  0.1246
 2093SOL    HW117738   1.799   1.006  10.642 -2.9298 -0.2859 -0.2371
 2093SOL    HW217739   1.683   1.038  10.711  0.4300  0.2558  3.0851
 2094SOL     OW17740   1.863   2.167   3.905 -0.2084  0.1136  0.0816
 2094SOL    HW117741   1.810   2.195   3.980 -0.2383 -3.2734  1.3093
 2094SOL    HW217742   1.860   2.072   3.919  3.4787 -0.0629 -0.3700
 2095SOL     OW17743   0.053   1.268   9.326  0.1091  0.2869 -0.3807
 2095SOL    HW117744   0.015   1.352   9.351 -0.0757  0.9556 -2.8648
 2095SOL    HW217745   0.147   1.283   9.334  0.0680  0.5477 -0.3782
 2096SOL     OW17746   4.543   1.968  12.679 -0.0453 -0.0836 -0.8525
 2096SOL    HW117747   4.637   1.963  12.696 -0.0689  1.5736 -0.3210
 2096SOL    HW217748   4.534   2.057  12.710 -1.2286 -0.1702 -0.9560
 2097SOL     OW17749   3.515   2.953   6.889 -0.2592  0.2329 -0.3903
 2097SOL    HW117750   3.606   2.924   6.894 -0.8135 -1.4033  0.2560
 2097SOL    HW217751   3.508   2.965   6.794 -1.5734  3.5596  0.1266
 2098SOL     OW17752   0.990   0.101   9.159 -0.3980  0.0996 -0.0501
 2098SOL    HW117753   1.078   0.076   9.132 -0.4713 -0.3393  0.1103
 2098SOL    HW217754   0.963   0.010   9.175 -1.1762  0.6106  1.5262
 2099SOL     OW17755   3.810   3.758   5.716 -0.3689 -0.2956 -0.1786
 2099SOL    HW117756   3.728   3.732   5.758  0.1283 -0.7385  0.5290
 2099SOL    HW217757   3.871   3.691   5.747  0.1942 -0.3912 -1.5084
 2100SOL     OW17758   1.755   0.325  13.456  0.3484 -0.0623  0.4000
 2100SOL    HW117759   1.741   0.340  13.362 -1.6373  0.8077  0.8434
 2100SOL    HW217760   1.662   0.337  13.475  0.3902  1.6706 -0.4542
 2101SOL     OW17761   1.640   4.039  10.840  0.0448 -0.3583 -0.4949
 2101SOL    HW117762   1.574   4.108  10.852 -1.2287 -1.4670 -1.1527
 2101SOL    HW217763   1.643   4.014  10.932 -1.6822  0.6223 -0.1749
 2102SOL     OW17764   3.305   2.930  17.243  0.3761 -0.0443  0.4299
 2102SOL    HW117765   3.306   3.022  17.269 -1.1272  0.3935 -1.0313
 2102SOL    HW217766   3.355   2.924  17.162  1.9216  0.9000  1.3184
 2103SOL     OW17767   2.568   4.074   9.568  0.6252 -0.1342  0.1215
 2103SOL    HW117768   2.609   4.157   9.546  0.7318 -0.5952 -1.4320
 2103SOL    HW217769   2.519   4.105   9.645 -0.3403  1.4443 -1.1358
 2104SOL     OW17770   1.094   1.335   2.897 -0.1598 -0.2759 -0.1157
 2104SOL    HW117771   1.101   1.296   2.984  0.2984 -0.0927 -0.0698
 2104SOL    HW217772   1.140   1.418   2.910  0.0972 -0.1314 -1.8980
 2105SOL     OW17773   1.376   4.116   5.805 -0.4813  0.0401  0.4406
 2105SOL    HW117774   1.433   4.074   5.870  2.1356  1.6710 -0.8175
 2105SOL    HW217775   1.317   4.044   5.782  3.6517 -2.8678 -1.1203
 2106SOL     OW17776   2.073   1.876   8.909  0.1594 -0.2491 -0.6899
 2106SOL    HW117777   2.063   1.964   8.945  0.9037 -0.0006 -1.0861
 2106SOL    HW217778   2.095   1.903   8.820  1.8179  3.6567  0.8943
 2107SOL     OW17779   4.048   2.746   0.767  0.3925  0.2810 -0.3439
 2107SOL    HW117780   4.098   2.715   0.691 -0.6304 -0.7380 -0.6061
 2107SOL    HW217781   4.011   2.826   0.730 -1.9325 -0.7641 -0.3016
 2108SOL     OW17782   2.703   3.078   2.126 -0.0681  0.4870  0.5742
 2108SOL    HW117783   2.678   3.141   2.058  0.7310 -0.3733 -0.5264
 2108SOL    HW217784   2.623   3.028   2.114 -0.5421  0.5933  3.4802
 2109SOL     OW17785   1.328   0.203   4.591  0.1228 -0.8178 -0.0037
 2109SOL    HW117786   1.245   0.238   4.624  0.0088 -3.2642  2.3704
 2109SOL    HW217787   1.288   0.126   4.551  2.1061 -1.3461 -0.9624
 2110SOL     OW17788   0.198   0.806   1.892 -0.2966  0.6971 -0.2227
 2110SOL    HW117789   0.246   0.827   1.972  0.0288  0.7360 -0.4293
 2110SOL    HW217790   0.136   0.879   1.893 -0.1044  0.8578 -0.1124
 2111SOL     OW17791   3.140   4.694  10.313  0.4939  0.0153  0.4980
 2111SOL    HW117792   3.147   4.662  10.403 -1.6091  2.0994  1.3896
 2111SOL    HW217793   3.071   4.635  10.284 -0.5881  0.5405  1.9580
 2112SOL     OW17794   2.490   0.175   8.015 -0.2936 -0.4264  0.5997
 2112SOL    HW117795   2.501   0.101   8.075  1.3369 -1.2386 -0.6899
 2112SOL    HW217796   2.451   0.133   7.939 -1.3262  3.2896 -0.8872
 2113SOL     OW17797   2.282   2.678  10.832  0.8279 -0.3983  0.3350
 2113SOL    HW117798   2.269   2.585  10.845 -0.4773 -0.3738 -0.8180
 2113SOL    HW217799   2.378   2.679  10.836  0.9187 -0.6945 -1.8756
 2114SOL     OW17800   0.197   2.717   6.669  0.6475 -0.1331  0.6798
 2114SOL    HW117801   0.186   2.622   6.669 -1.4646  0.1250  0.9466
 2114SOL    HW217802   0.255   2.726   6.745  1.2352  0.0574  0.2101
 2115SOL     OW17803   4.643   4.303   2.116 -0.0939  0.2741  0.1520
 2115SOL    HW117804   4.698   4.348   2.179  1.6900 -1.0035 -0.5057
 2115SOL    HW217805   4.589   4.376   2.086 -1.2965 -0.6390  0.0976
 2116SOL     OW17806   3.799   0.705   2.337  0.8718 -0.5207  0.1100
 2116SOL    HW117807   3.812   0.683   2.429  0.9451  1.4496  0.5675
 2116SOL    HW217808   3.712   0.743   2.326  1.6116  1.7219  2.2241
 2117SOL     OW17809   1.320   0.176   2.413 -0.7877 -0.5668 -0.1148
 2117SOL    HW117810   1.253   0.226   2.366 -1.4080 -0.6708  0.6748
 2117SOL    HW217811   1.281   0.175   2.500 -0.7569  1.1844 -0.0857
 2118SOL     OW17812   2.593   3.109  15.686 -0.0166  0.0911  0.0100
 2118SOL    HW117813   2.626   3.042  15.627 -0.1239 -2.5179  2.8924
 2118SOL    HW217814   2.661   3.122  15.753  0.1596 -2.2923  0.3000
 2119SOL     OW17815   1.248   1.044  10.675 -0.7422 -0.1959 -0.9581
 2119SOL    HW117816   1.184   1.107  10.641 -0.5565  0.2943 -0.3835
 2119SOL    HW217817   1.251   1.070  10.767  0.0028  0.3983 -1.1504
 2120SOL     OW17818   3.131   4.607   9.811 -0.1488 -0.2051  0.3306
 2120SOL    HW117819   3.184   4.577   9.884  0.0546  0.8565  0.6281
 2120SOL    HW217820   3.097   4.692   9.838  0.9135  0.6521 -1.0002
 2121SOL     OW17821   1.930   2.417   5.563 -1.0708  0.6658  0.1321
 2121SOL    HW117822   1.926   2.353   5.492 -0.9056 -1.3405  1.9483
 2121SOL    HW217823   1.944   2.367   5.643 -0.6222 -0.5814 -0.7275
 2122SOL     OW17824   0.915   3.371   1.683 -0.5002  0.1626  0.2568
 2122SOL    HW117825   0.942   3.462   1.674 -0.4343  0.0821 -0.4077
 2122SOL    HW217826   0.854   3.362   1.610 -0.6026  1.3775  0.2000
 2123SOL     OW17827   2.373   1.947  10.887  0.0873  0.0637 -0.4668
 2123SOL    HW117828   2.304   1.964  10.951  1.1424 -1.7816  1.1772
 2123SOL    HW217829   2.357   1.987  10.802 -0.4135  0.0808 -0.3650
 2124SOL     OW17830   2.612   1.005   4.004  0.2973 -0.0002 -0.1214
 2124SOL    HW117831   2.670   0.984   4.077 -0.3137 -1.6921 -0.1215
 2124SOL    HW217832   2.646   0.961   3.927 -2.9710 -1.8086 -0.5153
 2125SOL     OW17833   0.394   4.571   6.116 -0.1155 -0.1731  0.0059
 2125SOL    HW117834   0.333   4.531   6.178 -1.3691 -1.2862 -1.9095
 2125SOL    HW217835   0.378   4.518   6.037  2.2910  0.6037 -0.9954
 2126SOL     OW17836   1.047   3.320  12.437  0.0689 -0.6553 -0.1431
 2126SOL    HW117837   1.080   3.307  12.348  1.5781 -0.7717  0.4358
 2126SOL    HW217838   1.057   3.229  12.464  0.6272 -0.8759 -1.0725
 2127SOL     OW17839   3.924   3.686  13.421  0.3376 -0.1715  0.0184
 2127SOL    HW117840   3.864   3.760  13.411 -1.3823 -1.4711  0.7330
 2127SOL    HW217841   3.900   3.624  13.353 -0.5827  0.4328 -0.2173
 2128SOL     OW17842   2.305   3.500   2.298  0.2952  0.0572 -0.2613
 2128SOL    HW117843   2.391   3.500   2.256  0.0661  2.6589 -0.6915
 2128SOL    HW217844   2.320   3.531   2.387 -1.1990  0.8920 -0.3131
 2129SOL     OW17845   1.901   3.836   1.053  0.4707 -0.1898  0.0437
 2129SOL    HW117846   1.949   3.853   1.135 -0.4083  0.5965  0.3997
 2129SOL    HW217847   1.971   3.826   0.990  1.8034  3.1546  0.9834
 2130SOL     OW17848   3.612   3.603   4.695  0.0336 -0.0686 -0.3187
 2130SOL    HW117849   3.669   3.530   4.716 -1.3958 -1.6910 -2.0397
 2130SOL    HW217850   3.535   3.585   4.749 -1.6308 -0.8636 -2.9133
 2131SOL     OW17851   3.121   4.378  10.271 -0.1890  0.9030 -0.4315
 2131SOL    HW117852   3.035   4.418  10.256 -0.9791 -0.5297  0.2752
 2131SOL    HW217853   3.112   4.288  10.303 -0.9894  0.0522 -3.0228
 2132SOL     OW17854   3.267   2.028   8.652 -0.4865 -0.0629 -0.6602
 2132SOL    HW117855   3.178   2.036   8.618  0.3486 -3.4338 -3.6598
 2132SOL    HW217856   3.289   1.934   8.655 -1.2313 -0.2902 -2.4606
 2133SOL     OW17857   4.668   0.372   5.128 -0.1792  0.2688  0.1576
 2133SOL    HW117858   4.628   0.457   5.146  1.1464  1.1666 -1.0792
 2133SOL    HW217859   0.025   0.377   5.179  0.0917 -1.1945 -0.1181
 2134SOL     OW17860   0.445   0.489   2.210 -0.0695  0.4613 -0.0158
 2134SOL    HW117861   0.500   0.561   2.240  0.5823 -0.6850  1.5201
 2134SOL    HW217862   0.452   0.515   2.118 -0.8101  0.2748 -0.1237
 2135SOL     OW17863   2.635   3.127   7.751 -0.0092 -0.0338  0.1489
 2135SOL    HW117864   2.614   3.043   7.793  0.1477 -0.5259 -0.7575
 2135SOL    HW217865   2.544   3.151   7.735  0.0014 -0.9888 -1.3446
 2136SOL     OW17866   3.255   3.021  15.913 -0.0750 -0.4157 -0.2380
 2136SOL    HW117867   3.219   2.981  15.993 -0.9706  0.0713 -0.4002
 2136SOL    HW217868   3.202   2.981  15.844  1.2868  0.2064 -1.6392
 2137SOL     OW17869   3.699   4.508   7.201  0.0405 -0.2055 -0.0438
 2137SOL    HW117870   3.780   4.511   7.252 -0.1731  2.6291  0.1402
 2137SOL    HW217871   3.645   4.470   7.271  1.2365  1.1237  1.5974
 2138SOL     OW17872   3.640   0.548   7.023 -0.0447  0.5121 -0.2785
 2138SOL    HW117873   3.636   0.643   7.029  0.7373  0.5413 -0.1339
 2138SOL    HW217874   3.625   0.537   6.929  1.2032  0.9656 -0.5301
 2139SOL     OW17875   4.279   4.670  11.657  0.1319 -0.0563  0.2226
 2139SOL    HW117876   4.359   4.719  11.637  0.0572  0.3263  0.8647
 2139SOL    HW217877   4.283   4.617  11.577 -0.2329  1.4918 -0.8108
 2140SOL     OW17878   1.108   3.089   6.556  0.0445  0.5510  0.0936
 2140SOL    HW117879   1.168   3.163   6.552 -0.5900  0.9328 -2.7789
 2140SOL    HW217880   1.117   3.063   6.647 -0.5915 -0.2588 -0.0804
 2141SOL     OW17881   3.471   1.242   6.994  0.3327  0.2987  0.9880
 2141SOL    HW117882   3.382   1.240   7.030  0.1406 -2.4810  0.3777
 2141SOL    HW217883   3.471   1.323   6.943 -1.0227 -1.3089 -1.5459
 2142SOL     OW17884   1.486   1.687   1.210 -0.8361  0.1735 -0.4129
 2142SOL    HW117885   1.538   1.655   1.136  2.1286 -0.5924  2.0233
 2142SOL    HW217886   1.414   1.624   1.210 -1.2044  0.6079  1.1361
 2143SOL     OW17887   4.004   2.380   3.199  0.1582 -0.0987 -0.7573
 2143SOL    HW117888   4.042   2.450   3.253 -1.8053  0.0947  0.3884
 2143SOL    HW217889   4.065   2.308   3.212  1.1884  0.8789 -0.1463
 2144SOL     OW17890   1.828   0.558  16.745  0.5132 -0.0192  0.9186
 2144SOL    HW117891   1.766   0.573  16.674  1.8645  0.1089 -0.2251
 2144SOL    HW217892   1.890   0.496  16.707 -1.6317 -1.3151 -0.4787
 2145SOL     OW17893   3.798   3.259   7.937  0.0637 -0.6501 -0.2343
 2145SOL    HW117894   3.831   3.349   7.936 -0.2048 -0.5392  0.5758
 2145SOL    HW217895   3.870   3.206   7.905  0.9226 -0.8918  2.0600
 2146SOL     OW17896   4.662   2.213  16.224 -0.2906 -0.0175  0.2144
 2146SOL    HW117897   4.713   2.156  16.166 -1.6528 -1.3686  0.3228
 2146SOL    HW217898   4.630   2.151  16.290 -1.3996 -0.1650 -0.4612
 2147SOL     OW17899   2.758   1.762   4.193  0.7518 -0.3695  0.3800
 2147SOL    HW117900   2.741   1.823   4.121  0.0411 -0.2386  0.6590
 2147SOL    HW217901   2.668   1.735   4.214 -0.1146  2.9018  0.7934
 2148SOL     OW17902   2.672   1.850  11.508  0.0101 -0.2866  0.0551
 2148SOL    HW117903   2.614   1.861  11.432  2.9144  2.0322 -1.8452
 2148SOL    HW217904   2.676   1.940  11.538 -0.5983 -0.2378 -0.0128
 2149SOL     OW17905   1.153   3.276  10.547 -0.1879  0.2498  0.4155
 2149SOL    HW117906   1.208   3.324  10.485  1.1250 -4.6097 -2.1483
 2149SOL    HW217907   1.219   3.265  10.616  0.2964  0.7535  0.0369
 2150SOL     OW17908   2.191   2.147   7.314 -0.0399 -0.2263 -0.0453
 2150SOL    HW117909   2.221   2.061   7.344  0.7483 -0.9380 -2.9164
 2150SOL    HW217910   2.139   2.172   7.390 -1.3039 -0.7765 -0.7443
 2151SOL     OW17911   3.205   3.204   3.458 -0.7681 -0.0828  0.1808
 2151SOL    HW117912   3.200   3.132   3.522  0.2227  0.0879  0.4418
 2151SOL    HW217913   3.187   3.158   3.376  3.1847  0.5284 -1.0090
 2152SOL     OW17914   1.579   4.201   7.058  0.1669  0.4434 -0.0786
 2152SOL    HW117915   1.640   4.167   6.994 -0.3166 -0.2784 -0.1559
 2152SOL    HW217916   1.634   4.188   7.136 -0.8905 -0.2604  0.5472
 2153SOL     OW17917   0.709   2.410  12.178  0.3552  0.1633 -0.5731
 2153SOL    HW117918   0.771   2.363  12.234 -1.2150 -0.6281  0.5133
 2153SOL    HW217919   0.702   2.353  12.101 -1.9408 -1.1090  0.5477
 2154SOL     OW17920   2.191   3.456   8.212 -0.2128 -0.4883  0.2819
 2154SOL    HW117921   2.099   3.469   8.234 -0.3386  0.0255 -0.5472
 2154SOL    HW217922   2.180   3.472   8.118  2.6398  0.7444  0.1520
 2155SOL     OW17923   2.713   1.232   6.386  0.0475  0.1946 -0.0583
 2155SOL    HW117924   2.697   1.176   6.461 -1.0897 -0.2072 -0.5948
 2155SOL    HW217925   2.773   1.182   6.331  1.4247  1.4577  0.2858
 2156SOL     OW17926   0.722   2.475   2.725 -0.0596 -1.0467  0.0505
 2156SOL    HW117927   0.768   2.484   2.809 -0.8082  0.6886  0.2778
 2156SOL    HW217928   0.790   2.448   2.664  3.2185  0.1119  3.2037
 2157SOL     OW17929   0.802   3.952  15.728 -0.3707  0.1966  0.0381
 2157SOL    HW117930   0.877   3.896  15.743  0.5950  0.8931 -2.1632
 2157SOL    HW217931   0.814   4.013  15.800 -1.3371 -0.6390  0.9120
 2158SOL     OW17932   3.111   4.011   3.126  0.4394  0.3072  0.4269
 2158SOL    HW117933   3.155   3.966   3.054  0.3006  2.9924 -1.3344
 2158SOL    HW217934   3.047   3.943   3.149 -0.4572  0.5766 -1.2973
 2159SOL     OW17935   1.480   0.423   3.839  1.0825 -0.4333 -0.2671
 2159SOL    HW117936   1.528   0.416   3.756 -1.3327  0.1270 -1.7183
 2159SOL    HW217937   1.548   0.415   3.905  0.2866 -0.4139  0.5586
 2160SOL     OW17938   0.549   0.843   8.865  0.3362 -0.1924  0.3817
 2160SOL    HW117939   0.501   0.847   8.947  2.1705 -0.7427  1.4685
 2160SOL    HW217940   0.597   0.926   8.866  0.6015 -0.3689  1.4035
 2161SOL     OW17941   3.051   4.367  17.362  0.3666  0.4350  0.4063
 2161SOL    HW117942   3.058   4.462  17.376 -1.2387  0.3794  1.5625
 2161SOL    HW217943   3.138   4.343  17.328  0.0896 -3.0966  2.3020
 2162SOL     OW17944   4.363   4.235  17.231 -0.2987  0.3907 -0.6032
 2162SOL    HW117945   4.328   4.238  17.142 -2.2071 -0.8912  0.1000
 2162SOL    HW217946   4.427   4.306  17.235 -0.0412  0.0440  1.5471
 2163SOL     OW17947   2.490   1.417   2.924  0.0593  0.2455  0.1713
 2163SOL    HW117948   2.501   1.494   2.869  0.4827 -0.9843 -1.4610
 2163SOL    HW217949   2.567   1.427   2.980 -1.5410 -0.1739  2.4942
 2164SOL     OW17950   3.594   0.365   5.699  0.5503 -0.0340  0.1964
 2164SOL    HW117951   3.648   0.418   5.640  0.2708  0.9253  0.8165
 2164SOL    HW217952   3.633   0.277   5.705 -0.4384 -0.4645  0.2947
 2165SOL     OW17953   4.433   1.125  15.997  0.0775 -0.2608  0.2167
 2165SOL    HW117954   4.417   1.183  15.922 -1.4599 -1.0375 -0.0602
 2165SOL    HW217955   4.528   1.122  16.001  0.1105  0.4971  0.0495
 2166SOL     OW17956   1.319   1.404  12.159 -0.7417  0.1978  0.2746
 2166SOL    HW117957   1.258   1.477  12.162 -0.6676  0.2251  1.3593
 2166SOL    HW217958   1.336   1.392  12.066 -1.2772  1.5879 -0.0003
 2167SOL     OW17959   2.572   0.991   1.779  0.0601 -0.3945 -0.6207
 2167SOL    HW117960   2.648   0.976   1.722 -1.6166  0.5415 -3.1414
 2167SOL    HW217961   2.596   1.080   1.807 -1.3170 -0.8480  1.8936
 2168SOL     OW17962   0.921   2.705  15.614  0.3170 -0.1361  0.1990
 2168SOL    HW117963   0.832   2.724  15.644 -0.3492 -3.1089  0.1385
 2168SOL    HW217964   0.918   2.620  15.570 -2.0765  0.0767 -0.0301
 2169SOL     OW17965   0.645   1.826   4.717 -0.0364  0.3276 -0.3775
 2169SOL    HW117966   0.585   1.753   4.699 -1.4325  1.4026 -0.0849
 2169SOL    HW217967   0.588   1.895   4.751 -0.3758 -1.0096  1.7645
 2170SOL     OW17968   1.597   4.352   7.449 -0.1611  0.2354  0.6998
 2170SOL    HW117969   1.625   4.435   7.488 -0.8816 -0.4247  2.6559
 2170SOL    HW217970   1.554   4.381   7.368  1.3374 -2.0304 -0.8756
 2171SOL     OW17971   3.599   4.650   9.112 -0.0082  0.2100 -0.3137
 2171SOL    HW117972   3.589   0.021   9.112 -1.3079  0.0722  2.1933
 2171SOL    HW217973   3.544   4.636   9.189  0.6257  1.8799  0.4379
 2172SOL     OW17974   4.476   2.885   1.625  0.0099  0.2531  0.0546
 2172SOL    HW117975   4.472   2.934   1.543  1.4463  1.0070  0.4254
 2172SOL    HW217976   4.382   2.871   1.636  0.2227 -0.4722  0.9012
 2173SOL     OW17977   1.530   3.212   3.730 -0.1717  0.5480  0.0271
 2173SOL    HW117978   1.524   3.120   3.705 -1.8921  0.6536  0.0772
 2173SOL    HW217979   1.450   3.250   3.693 -1.3963  0.5582  2.6972
 2174SOL     OW17980   2.507   4.204   5.723  0.3146  0.0325  0.8105
 2174SOL    HW117981   2.495   4.129   5.664 -1.1925  1.4755 -0.6993
 2174SOL    HW217982   2.597   4.226   5.700 -0.3794  0.7892 -1.1878
 2175SOL     OW17983   1.522   0.915  10.678 -0.5572 -0.0656  0.2651
 2175SOL    HW117984   1.486   0.863  10.749  1.3429 -2.8137 -0.7932
 2175SOL    HW217985   1.449   0.917  10.617 -0.2483 -0.8681 -0.1189
 2176SOL     OW17986   1.382   2.396   2.750  0.4977  0.1982 -0.5907
 2176SOL    HW117987   1.328   2.318   2.742 -1.0154  1.1209  0.6813
 2176SOL    HW217988   1.387   2.430   2.661 -0.0582  0.1280 -0.6452
 2177SOL     OW17989   3.993   2.441   2.137 -0.5518 -0.2581 -0.0173
 2177SOL    HW117990   3.934   2.484   2.075 -1.9197 -1.4293  0.4733
 2177SOL    HW217991   3.994   2.352   2.101 -1.4242 -1.2668  2.4792
 2178SOL     OW17992   0.918   0.666   7.134 -0.3510  0.1631 -0.3731
 2178SOL    HW117993   0.962   0.586   7.164 -0.7283  0.5330  1.1728
 2178SOL    HW217994   0.846   0.625   7.086 -0.0721 -2.0658  1.1129
 2179SOL     OW17995   1.465   4.301   5.283  0.1530  0.2783  0.7927
 2179SOL    HW117996   1.393   4.346   5.239  0.0575  0.1507  0.8174
 2179SOL    HW217997   1.522   4.297   5.207  1.3458  2.0230  1.6068
 2180SOL     OW17998   4.310   3.213   2.284 -0.3811 -0.2223 -0.2040
 2180SOL    HW117999   4.390   3.238   2.330 -0.6514  1.2026 -0.5118
 2180SOL    HW218000   4.328   3.245   2.196 -2.8483  0.3072 -0.5065
 2181SOL     OW18001   0.745   0.314   8.073  0.1096 -0.5074 -0.1065
 2181SOL    HW118002   0.722   0.260   8.148 -0.5104 -1.1658 -0.7693
 2181SOL    HW218003   0.767   0.397   8.115 -0.0302 -0.9750  0.8867
 2182SOL     OW18004   2.127   1.578   7.982  0.1744 -0.1747 -0.1814
 2182SOL    HW118005   2.203   1.572   7.924  0.7854  0.1105  0.6051
 2182SOL    HW218006   2.092   1.663   7.956 -0.6611  0.1170  1.9010
 2183SOL     OW18007   0.989   1.830  11.400  0.3688 -0.2161  0.0634
 2183SOL    HW118008   0.902   1.849  11.435 -0.5466 -2.1676 -1.1493
 2183SOL    HW218009   0.958   1.822  11.309 -1.7922  1.8449  0.6274
 2184SOL     OW18010   1.224   2.478   0.755 -0.3740 -0.0933  0.1565
 2184SOL    HW118011   1.203   2.385   0.758  0.5561 -0.3391 -0.5513
 2184SOL    HW218012   1.140   2.515   0.728  0.9020  0.6026 -2.9474
 2185SOL     OW18013   3.114   4.308  13.376 -0.0607 -0.0810  0.2758
 2185SOL    HW118014   3.196   4.303  13.326  0.8591  0.9858  1.6636
 2185SOL    HW218015   3.070   4.383  13.336  0.0315 -1.1907 -1.8728
 2186SOL     OW18016   3.718   1.107  12.665 -0.2024 -0.5714  0.0434
 2186SOL    HW118017   3.658   1.166  12.620  0.8478  0.9691  0.6548
 2186SOL    HW218018   3.732   1.146  12.752  0.2974  0.2280 -0.3902
 2187SOL     OW18019   1.831   0.725   5.566  0.6387 -0.1766  0.1850
 2187SOL    HW118020   1.836   0.631   5.552  0.8490 -0.0992 -0.2566
 2187SOL    HW218021   1.748   0.748   5.606  0.9848 -1.5369  1.6495
 2188SOL     OW18022   1.300   3.178   1.120 -0.1168 -0.3823 -0.4753
 2188SOL    HW118023   1.258   3.219   1.195  0.2562 -0.5480 -0.1753
 2188SOL    HW218024   1.246   3.100   1.107 -1.5375  0.6507 -0.7650
 2189SOL     OW18025   3.688   3.965   5.161  0.4146  0.2078 -0.2149
 2189SOL    HW118026   3.711   3.962   5.068  0.4181 -1.1416 -0.1710
 2189SOL    HW218027   3.698   3.877   5.197  1.8949 -0.4348 -2.1772
 2190SOL     OW18028   1.124   3.946   6.095 -0.2586  0.4675 -0.0908
 2190SOL    HW118029   1.122   4.042   6.096 -1.6766  0.4785 -2.5552
 2190SOL    HW218030   1.188   3.926   6.027  1.5712  1.0217  1.4744
 2191SOL     OW18031   2.086   0.661   8.452 -0.2344  0.1519 -0.2070
 2191SOL    HW118032   2.032   0.582   8.453 -1.1576  0.8246  2.1818
 2191SOL    HW218033   2.085   0.682   8.545 -1.7786 -0.7975 -0.0081
 2192SOL     OW18034   2.497   1.610  12.871 -0.1272  1.4494 -0.6641
 2192SOL    HW118035   2.420   1.603  12.927  2.1344 -0.8560  2.1317
 2192SOL    HW218036   2.546   1.528  12.879  0.6619  1.7616 -2.1287
 2193SOL     OW18037   3.816   0.570   3.463 -0.8253  0.1956  0.5159
 2193SOL    HW118038   3.797   0.622   3.385 -1.4183  2.3463  2.0612
 2193SOL    HW218039   3.890   0.518   3.434 -1.8485 -0.5575 -0.7194
 2194SOL     OW18040   0.214   3.471   2.250 -0.7759  0.3407  0.5810
 2194SOL    HW118041   0.206   3.561   2.283  3.4202  1.0830 -0.3894
 2194SOL    HW218042   0.212   3.423   2.333  2.2972 -0.7797 -0.0173
 2195SOL     OW18043   4.559   0.320   4.094 -0.1062  0.2492  0.3819
 2195SOL    HW118044   4.540   0.343   4.003 -0.7362 -1.9402 -0.0401
 2195SOL    HW218045   4.639   0.267   4.093  0.9032  1.7383  1.3701
 2196SOL     OW18046   3.757   2.389  13.243  0.4190  0.2996 -0.2982
 2196SOL    HW118047   3.716   2.421  13.323 -2.2159  1.9119 -2.2863
 2196SOL    HW218048   3.841   2.425  13.271  0.8266 -2.5923  2.2397
 2197SOL     OW18049   4.364   1.943  13.538 -0.4869  0.6313  0.0096
 2197SOL    HW118050   4.449   1.982  13.559 -1.5851  1.8116  2.2719
 2197SOL    HW218051   4.310   2.011  13.578  0.2249  1.9189 -1.2197
 2198SOL     OW18052   0.704   1.464   6.195 -0.1709  0.1840  0.0042
 2198SOL    HW118053   0.775   1.403   6.174 -1.0640 -1.0365  0.5148
 2198SOL    HW218054   0.630   1.403   6.199 -0.3446  0.4669  1.1840
 2199SOL     OW18055   3.213   2.083  16.461  0.2863  0.6623  0.5833
 2199SOL    HW118056   3.269   2.015  16.497  0.3275  0.3199 -0.1416
 2199SOL    HW218057   3.178   2.127  16.539  2.2319  0.3612  1.6305
 2200SOL     OW18058   4.182   4.677   7.578 -0.5563 -0.3783  0.4813
 2200SOL    HW118059   4.256   0.010   7.599 -0.2289 -0.2367 -1.0944
 2200SOL    HW218060   4.114   0.020   7.568 -0.1301 -0.0284 -0.0790
 2201SOL     OW18061   4.652   1.377   6.613 -0.0698 -0.2253  0.0384
 2201SOL    HW118062   0.017   1.409   6.595  0.0173 -1.5662 -1.9218
 2201SOL    HW218063   4.610   1.446   6.664  0.4018 -0.1825  0.3663
 2202SOL     OW18064   0.413   4.007   5.397  0.0569 -0.0109 -0.4607
 2202SOL    HW118065   0.350   4.013   5.469 -0.8176  2.7625 -1.4717
 2202SOL    HW218066   0.463   4.087   5.418  0.1370  0.0981 -1.0777
 2203SOL     OW18067   4.043   1.465   8.901 -0.1571 -0.0763 -0.8170
 2203SOL    HW118068   4.047   1.370   8.913  1.3143 -0.0578 -1.2267
 2203SOL    HW218069   4.098   1.499   8.971 -1.2617  1.9528 -0.9059
 2204SOL     OW18070   2.198   1.480   0.235 -0.1368  0.6036  0.0792
 2204SOL    HW118071   2.235   1.546   0.293 -0.0313  0.9482 -0.3779
 2204SOL    HW218072   2.215   1.516   0.148  0.0253  1.4272  0.4477
 2205SOL     OW18073   1.785   2.180  12.441 -0.0860 -0.4863 -0.6663
 2205SOL    HW118074   1.821   2.159  12.355  0.7811  0.0401 -0.4334
 2205SOL    HW218075   1.849   2.240  12.479 -1.7705 -0.2368  1.7642
 2206SOL     OW18076   3.332   1.303  10.756  0.4152 -0.3167 -0.3592
 2206SOL    HW118077   3.364   1.343  10.675 -1.4337  1.3632 -0.2598
 2206SOL    HW218078   3.361   1.212  10.747  0.4360 -0.4740  1.3390
 2207SOL     OW18079   0.244   1.380   6.007  0.7554 -0.1347  0.0578
 2207SOL    HW118080   0.270   1.465   5.972 -0.6712 -1.0904 -3.3035
 2207SOL    HW218081   0.325   1.330   5.995 -0.1861 -1.6963  0.1480
 2208SOL     OW18082   4.048   4.220  15.207 -0.3454  0.3107  0.4420
 2208SOL    HW118083   3.964   4.187  15.176 -0.8401  0.1008  2.0463
 2208SOL    HW218084   4.025   4.237  15.298 -3.5396  0.1015 -0.3528
 2209SOL     OW18085   2.513   1.810   4.815  0.1095 -0.4079  0.8428
 2209SOL    HW118086   2.451   1.776   4.751  0.8504  1.5990 -0.9862
 2209SOL    HW218087   2.516   1.732   4.870  0.5051  0.2468  1.7606
 2210SOL     OW18088   0.474   2.330   2.893 -0.2230  0.1390  0.1621
 2210SOL    HW118089   0.419   2.302   2.820 -0.1202  1.3373 -0.3707
 2210SOL    HW218090   0.452   2.422   2.905 -1.1422 -0.0752  0.1550
 2211SOL     OW18091   3.148   2.351  15.669  0.3041  0.4830  0.2541
 2211SOL    HW118092   3.198   2.429  15.646  1.0326  0.1254  0.6309
 2211SOL    HW218093   3.110   2.339  15.581 -0.9413 -2.4575  1.1630
 2212SOL     OW18094   0.243   1.551   2.966 -0.0519 -0.4834 -0.0459
 2212SOL    HW118095   0.275   1.510   3.046 -0.5990 -0.4252  0.1975
 2212SOL    HW218096   0.224   1.637   3.002 -1.1093 -0.8332  0.2354
 2213SOL     OW18097   4.425   2.594   6.819  0.0981  0.4285  0.0302
 2213SOL    HW118098   4.520   2.604   6.818 -0.0380  1.6708 -0.8960
 2213SOL    HW218099   4.407   2.539   6.895 -1.2870 -0.0145 -0.6234
 2214SOL     OW18100   4.398   4.143   7.513  0.3426 -0.3710 -1.2425
 2214SOL    HW118101   4.355   4.152   7.598 -0.2977 -1.7198 -1.4146
 2214SOL    HW218102   4.492   4.146   7.532  0.2659  0.5435 -1.0117
 2215SOL     OW18103   0.852   3.156   5.252  0.1437 -0.7671  0.3015
 2215SOL    HW118104   0.869   3.200   5.336  0.1168  2.3855 -1.3538
 2215SOL    HW218105   0.757   3.166   5.246  0.2282 -1.2664 -1.7561
 2216SOL     OW18106   3.048   2.220   6.917 -0.7112  0.1247  0.2716
 2216SOL    HW118107   3.043   2.263   6.832  2.1645 -3.0857 -1.5027
 2216SOL    HW218108   3.047   2.294   6.979 -1.8568  0.0075  0.3823
 2217SOL     OW18109   1.327   2.688   4.302 -0.3460  0.4624  0.3459
 2217SOL    HW118110   1.265   2.620   4.329 -0.6574  1.2875  1.6920
 2217SOL    HW218111   1.310   2.702   4.209  1.0152  4.3755  0.6671
 2218SOL     OW18112   1.538   4.309   6.402 -0.1302  0.7149  0.1995
 2218SOL    HW118113   1.590   4.232   6.378 -1.2999 -0.1981  0.5890
 2218SOL    HW218114   1.446   4.282   6.406  0.5837 -1.6940  0.4404
 2219SOL     OW18115   1.742   1.251  16.073 -0.0383  0.1638  0.1239
 2219SOL    HW118116   1.784   1.179  16.026  1.7809  1.4794 -0.2654
 2219SOL    HW218117   1.804   1.317  16.042 -0.5539  1.0814  1.0254
 2220SOL     OW18118   3.535   1.311   0.872 -0.3848  0.2830 -0.0825
 2220SOL    HW118119   3.582   1.329   0.953 -0.4477 -0.3839  0.0986
 2220SOL    HW218120   3.538   1.216   0.865  1.1560  0.3503 -0.4809
 2221SOL     OW18121   3.190   0.956   1.263 -0.2446  0.9246  0.2878
 2221SOL    HW118122   3.135   0.887   1.226 -0.8924  2.8653 -2.3497
 2221SOL    HW218123   3.144   1.039   1.253 -1.0868  0.3215 -0.8381
 2222SOL     OW18124   0.488   2.776  10.866 -0.7157  0.0559 -0.5277
 2222SOL    HW118125   0.556   2.727  10.820 -0.7046 -0.9034  0.5115
 2222SOL    HW218126   0.433   2.700  10.884  0.8240 -0.3810  2.2783
 2223SOL     OW18127   0.019   1.140  15.111  0.2079 -0.5042 -0.3229
 2223SOL    HW118128   0.053   1.227  15.089 -1.3026 -0.2436 -1.5823
 2223SOL    HW218129   0.074   1.125  15.188 -1.9125 -0.3530  1.2297
 2224SOL     OW18130   0.717   0.046   7.935  0.3757  0.3798 -0.1384
 2224SOL    HW118131   0.804   0.029   7.899 -0.1015 -2.3174 -0.0477
 2224SOL    HW218132   0.731   0.115   8.000  2.9929 -0.3524  0.0549
 2225SOL     OW18133   0.107   1.343   4.698 -0.4521 -0.0037  0.4113
 2225SOL    HW118134   0.097   1.364   4.605 -0.8886 -0.3838  0.3714
 2225SOL    HW218135   0.132   1.430   4.727  0.6662 -0.7449  1.6672
 2226SOL     OW18136   0.439   1.166   6.963 -0.7649  0.0898  0.2840
 2226SOL    HW118137   0.494   1.218   7.021 -0.2988  1.7552 -1.6466
 2226SOL    HW218138   0.413   1.090   7.014  2.8797 -1.7959 -0.6840
 2227SOL     OW18139   3.969   3.912  12.991  0.2852  0.3277  0.3489
 2227SOL    HW118140   4.028   3.907  13.066 -0.7451 -1.5515  1.0247
 2227SOL    HW218141   3.998   3.993  12.948  0.8418 -1.0799 -1.9608
 2228SOL     OW18142   3.243   3.422   7.182 -0.3281 -0.2636  0.2906
 2228SOL    HW118143   3.264   3.481   7.255 -2.8096  1.1785 -0.1480
 2228SOL    HW218144   3.238   3.340   7.230  0.5955 -1.7888 -2.2461
 2229SOL     OW18145   3.057   0.896  12.686  0.0284 -0.5557  0.2354
 2229SOL    HW118146   3.083   0.822  12.741 -1.6497 -2.5647 -1.7172
 2229SOL    HW218147   3.073   0.866  12.597  0.9735  0.5997  0.0127
 2230SOL     OW18148   1.543   4.319   4.777 -0.5796  0.0906 -0.2238
 2230SOL    HW118149   1.484   4.337   4.704  0.2280  1.8743 -0.4467
 2230SOL    HW218150   1.593   4.243   4.745  1.0065  0.4445  1.4023
 2231SOL     OW18151   2.666   0.390   3.648 -0.0243 -0.2408 -0.4027
 2231SOL    HW118152   2.731   0.418   3.712  0.4302 -1.6345 -0.2453
 2231SOL    HW218153   2.586   0.367   3.694  0.4995 -0.9413  0.1692
 2232SOL     OW18154   4.196   3.544  14.806 -0.2043 -0.3963  0.3056
 2232SOL    HW118155   4.281   3.587  14.797 -0.4154 -0.0031  0.2069
 2232SOL    HW218156   4.141   3.619  14.786 -0.3904 -0.9065 -1.1126
 2233SOL     OW18157   1.636   1.576   0.996  0.3732  0.3166  0.2099
 2233SOL    HW118158   1.627   1.540   0.908 -0.5491  1.0964 -0.0038
 2233SOL    HW218159   1.705   1.521   1.035 -0.5268  0.7364  2.4007
 2234SOL     OW18160   4.034   2.680   7.564 -0.1935  0.6813 -0.3888
 2234SOL    HW118161   4.070   2.715   7.645 -2.8866 -0.5316  1.3141
 2234SOL    HW218162   3.953   2.731   7.567 -0.3348  0.3659  1.1977
 2235SOL     OW18163   1.727   0.826  10.301 -0.1069  0.2703  0.2327
 2235SOL    HW118164   1.634   0.821  10.277  0.0326  0.3428 -0.3217
 2235SOL    HW218165   1.749   0.735  10.280 -3.1441 -0.0445 -1.4541
 2236SOL     OW18166   2.735   1.474   3.084  0.0603  0.0481 -0.6445
 2236SOL    HW118167   2.753   1.530   3.008  2.5770 -0.4361 -0.3986
 2236SOL    HW218168   2.811   1.490   3.140 -1.3451 -0.8873  1.5156
 2237SOL     OW18169   2.729   4.157   7.985 -0.8647 -0.0813 -0.4959
 2237SOL    HW118170   2.819   4.128   8.001 -0.9607 -1.9575 -3.3953
 2237SOL    HW218171   2.699   4.089   7.925  0.7491 -1.6842  0.5115
 2238SOL     OW18172   3.817   2.019  13.975  0.5780  0.0533 -0.2735
 2238SOL    HW118173   3.848   1.968  14.050 -0.3506 -1.0514 -0.6449
 2238SOL    HW218174   3.725   1.992  13.969  0.2421  1.5498 -1.9356
 2239SOL     OW18175   2.811   2.108   2.860  0.1002  0.0991 -0.2633
 2239SOL    HW118176   2.898   2.132   2.891 -0.7573  0.6195  1.7029
 2239SOL    HW218177   2.770   2.194   2.856  0.6813  0.3897  0.1066
 2240SOL     OW18178   2.776   0.306   6.475 -0.0784  0.3451 -0.2675
 2240SOL    HW118179   2.742   0.226   6.435 -1.0803  1.3663 -1.4234
 2240SOL    HW218180   2.804   0.354   6.397  0.1460 -0.9337 -0.9772
 2241SOL     OW18181   0.028   2.484   6.271 -0.2942  0.0905  0.2443
 2241SOL    HW118182   4.700   2.481   6.352  0.6995 -0.5751  0.8483
 2241SOL    HW218183   0.089   2.555   6.288  4.2783 -3.6275 -0.7295
 2242SOL     OW18184   0.548   3.732   8.102  0.1645 -0.3182 -0.2857
 2242SOL    HW118185   0.473   3.723   8.043 -0.0988  2.3620 -0.3481
 2242SOL    HW218186   0.529   3.660   8.162  0.6001  0.1086  0.3640
 2243SOL     OW18187   1.862   2.503   7.506  0.3838 -0.2528 -0.2190
 2243SOL    HW118188   1.792   2.456   7.551  2.0404 -1.7178  0.8213
 2243SOL    HW218189   1.865   2.472   7.415 -0.0250  0.1594 -0.3724
 2244SOL     OW18190   3.138   4.313   6.550 -0.1205  0.4809 -0.0508
 2244SOL    HW118191   3.141   4.401   6.588 -0.2023  1.4947 -2.4274
 2244SOL    HW218192   3.095   4.333   6.467 -1.0983  2.6249  0.9387
 2245SOL     OW18193   1.648   0.054   8.767 -0.2721 -0.1537  0.3661
 2245SOL    HW118194   1.702   0.132   8.749 -1.5334  0.4049 -1.0230
 2245SOL    HW218195   1.707   0.001   8.820 -0.2880  0.1471  0.6874
 2246SOL     OW18196   2.521   1.786   1.139 -0.5095 -0.1010 -0.0815
 2246SOL    HW118197   2.569   1.708   1.113  4.4684  2.6040  0.9188
 2246SOL    HW218198   2.533   1.841   1.061  1.9479  1.2928  1.2462
 2247SOL     OW18199   4.083   3.492   9.047  0.2072 -0.0894 -0.6387
 2247SOL    HW118200   4.087   3.585   9.024  1.9786 -0.2599 -1.0284
 2247SOL    HW218201   4.175   3.488   9.075  0.0592  0.0586 -0.1388
 2248SOL     OW18202   1.888   4.681   3.332 -0.0729 -0.0034 -0.0331
 2248SOL    HW118203   1.921   4.614   3.272 -0.7031 -0.9120  0.6482
 2248SOL    HW218204   1.938   4.658   3.410  0.0455  0.8223  0.1323
 2249SOL     OW18205   3.193   1.269   5.471  0.1841 -0.5476  0.1451
 2249SOL    HW118206   3.182   1.295   5.380 -0.4008 -1.0509  0.0721
 2249SOL    HW218207   3.267   1.212   5.450  0.0832 -0.4114 -0.5992
 2250SOL     OW18208   3.711   0.787   6.215 -0.1000  0.3462 -0.3978
 2250SOL    HW118209   3.658   0.850   6.166 -0.6076  1.2021  1.2478
 2250SOL    HW218210   3.646   0.748   6.273  0.4065 -0.1752 -0.1818
 2251SOL     OW18211   1.725   0.669   3.823 -0.2566 -0.0958  0.2083
 2251SOL    HW118212   1.801   0.657   3.767 -0.2295 -1.7442  0.5883
 2251SOL    HW218213   1.728   0.587   3.872  0.1256  0.1867  0.6588
 2252SOL     OW18214   1.821   3.011   4.319  0.0336 -0.0941 -0.0526
 2252SOL    HW118215   1.878   3.019   4.242  0.4300  0.8800  0.3426
 2252SOL    HW218216   1.880   2.991   4.391 -0.2550  0.9674  0.4745
 2253SOL     OW18217   2.828   0.233  14.886  0.0166  0.2034 -0.8629
 2253SOL    HW118218   2.831   0.140  14.908  3.6672  0.6204  0.2851
 2253SOL    HW218219   2.753   0.244  14.827 -0.3105 -0.1988 -0.5248
 2254SOL     OW18220   2.571   3.399   7.491 -0.0509  0.3988  0.2201
 2254SOL    HW118221   2.573   3.459   7.417 -0.6287 -1.8065 -1.6120
 2254SOL    HW218222   2.621   3.328   7.450 -1.1952 -0.5984  0.5310
 2255SOL     OW18223   0.004   0.841   8.705 -0.1225 -0.0247 -0.0773
 2255SOL    HW118224   4.719   0.929   8.667  0.9342  0.9617  1.9559
 2255SOL    HW218225   0.098   0.841   8.720  0.2319  2.3942 -2.3867
 2256SOL     OW18226   0.384   0.099   1.449  0.1081 -0.0683 -0.1638
 2256SOL    HW118227   0.415   0.141   1.369 -1.4529  1.0868 -0.1557
 2256SOL    HW218228   0.302   0.142   1.475  0.2027  0.0349 -0.0317
 2257SOL     OW18229   3.269   3.523   5.547 -0.0921 -0.0507  0.0999
 2257SOL    HW118230   3.176   3.506   5.534 -0.0617 -0.1597  0.0212
 2257SOL    HW218231   3.304   3.445   5.503  2.1265  1.3370 -0.6070
 2258SOL     OW18232   1.027   2.311   2.762  0.1353 -0.3623 -0.2972
 2258SOL    HW118233   0.973   2.332   2.838  0.6973  0.3336 -0.0827
 2258SOL    HW218234   1.030   2.395   2.716 -1.4221  1.1904  2.4342
 2259SOL     OW18235   1.900   3.074  11.080  0.0077  0.0879 -0.2225
 2259SOL    HW118236   1.869   2.984  11.088 -1.6015  0.6985  0.6500
 2259SOL    HW218237   1.829   3.098  11.020 -0.1855 -0.8813 -0.3746
 2260SOL     OW18238   4.029   0.548   8.035  0.2770 -0.2686 -0.1436
 2260SOL    HW118239   3.940   0.514   8.048  0.4409 -0.0171  1.5091
 2260SOL    HW218240   4.084   0.523   8.109  0.0695  1.5196  0.6181
 2261SOL     OW18241   0.720   3.526   7.187 -0.0084 -0.2680  0.7986
 2261SOL    HW118242   0.707   3.534   7.093 -0.8036  0.2151  0.9540
 2261SOL    HW218243   0.710   3.431   7.197  0.6542 -0.4081  0.0975
 2262SOL     OW18244   3.931   0.676   9.067  0.5127  0.1842 -0.6196
 2262SOL    HW118245   3.854   0.714   9.024 -1.4480 -3.3808 -0.2520
 2262SOL    HW218246   3.989   0.752   9.063 -1.1136  1.2732 -4.3102
 2263SOL     OW18247   0.108   0.146   1.539 -0.3454  0.1501  0.1871
 2263SOL    HW118248   0.068   0.135   1.626 -0.4676  2.2268  0.4129
 2263SOL    HW218249   0.052   0.214   1.502 -0.7698  0.8842  2.1264
 2264SOL     OW18250   3.338   1.616  13.426 -0.3205  0.3336  0.0184
 2264SOL    HW118251   3.294   1.551  13.371  1.3684  0.0347 -0.9775
 2264SOL    HW218252   3.381   1.671  13.361 -0.0618  0.1260  0.0107
 2265SOL     OW18253   3.180   1.254  11.195  0.1116 -0.2709 -0.7093
 2265SOL    HW118254   3.262   1.215  11.227  0.2814 -0.5597 -1.4947
 2265SOL    HW218255   3.114   1.223  11.257  0.7721  0.0875  0.1675
 2266SOL     OW18256   0.976   2.003  11.788  0.0916 -0.0536 -0.2298
 2266SOL    HW118257   0.927   2.047  11.719  1.2220  2.8289  0.8316
 2266SOL    HW218258   0.936   2.045  11.864  0.8340  1.2707 -0.5791
 2267SOL     OW18259   0.277   2.630  16.501 -0.0728 -0.0045  0.3754
 2267SOL    HW118260   0.211   2.585  16.554 -1.8114 -0.2419 -2.0038
 2267SOL    HW218261   0.348   2.568  16.492 -0.7059 -1.0865  2.8733
 2268SOL     OW18262   1.020   1.793   3.978  0.0298 -0.1675 -1.0202
 2268SOL    HW118263   1.027   1.787   3.883 -2.8215  1.2241 -1.3240
 2268SOL    HW218264   1.093   1.733   3.990 -0.2590 -0.4382 -0.6006
 2269SOL     OW18265   1.654   3.133  12.946  0.2099  0.4777 -0.0756
 2269SOL    HW118266   1.599   3.105  13.020  2.5460 -1.5237  0.8826
 2269SOL    HW218267   1.597   3.206  12.920 -0.4022  0.2980  0.7308
 2270SOL     OW18268   4.284   1.566   9.423  0.2939 -0.2212 -0.7339
 2270SOL    HW118269   4.224   1.640   9.421  1.0405  0.3878 -0.6243
 2270SOL    HW218270   4.366   1.615   9.422 -0.9670  1.9537  0.8235
 2271SOL     OW18271   2.331   0.748   7.159 -0.2544  0.1558 -0.4765
 2271SOL    HW118272   2.376   0.813   7.106  1.4036 -0.0135  0.7390
 2271SOL    HW218273   2.352   0.770   7.249 -2.8434  0.6900 -0.0052
 2272SOL     OW18274   0.115   1.094   5.982  0.2843  0.2589  0.8984
 2272SOL    HW118275   0.093   1.093   6.075  2.0550  1.7579  1.3419
 2272SOL    HW218276   0.157   1.180   5.976 -0.1150  0.3632 -0.4811
 2273SOL     OW18277   1.076   0.031   0.666  0.3589 -0.3077  0.2781
 2273SOL    HW118278   1.129   4.676   0.656 -1.7167 -1.8983  1.7266
 2273SOL    HW218279   1.121   0.082   0.598 -1.2837  1.8594  0.8015
 2274SOL     OW18280   0.575   3.605   3.879 -0.0813 -1.0022 -0.2182
 2274SOL    HW118281   0.552   3.698   3.885 -1.2436 -1.3257  0.2853
 2274SOL    HW218282   0.578   3.598   3.783 -0.5108  0.3434 -0.3243
 2275SOL     OW18283   3.237   3.490  10.167  0.0360 -0.0462  0.8400
 2275SOL    HW118284   3.183   3.555  10.123  0.8379  0.9584  1.3596
 2275SOL    HW218285   3.281   3.538  10.237  3.6318 -0.1398 -1.3521
 2276SOL     OW18286   3.339   4.635   5.003 -0.0991 -0.4548 -0.3816
 2276SOL    HW118287   3.290   4.555   4.984 -0.5472 -0.1218 -0.6177
 2276SOL    HW218288   3.432   4.618   4.988 -0.0025 -0.0893 -0.1956
 2277SOL     OW18289   1.968   2.603   6.626 -0.9204 -0.1833 -0.2797
 2277SOL    HW118290   1.924   2.530   6.582 -0.1254 -0.1702 -1.0793
 2277SOL    HW218291   1.893   2.648   6.665 -1.4630 -0.8359 -0.5540
 2278SOL     OW18292   2.823   1.195  12.921 -0.7141  0.2163  0.3611
 2278SOL    HW118293   2.737   1.153  12.928 -0.3580 -0.4659  0.6531
 2278SOL    HW218294   2.803   1.288  12.917  0.8219  0.5076 -0.2186
 2279SOL     OW18295   4.306   4.053   1.417  0.1769 -0.0372  0.2330
 2279SOL    HW118296   4.247   4.005   1.474 -0.3985  1.9399  1.3132
 2279SOL    HW218297   4.342   3.984   1.361 -2.2495 -1.0759 -0.0325
 2280SOL     OW18298   2.721   0.322   7.229  0.4766 -0.3186  0.3588
 2280SOL    HW118299   2.682   0.402   7.194 -1.4006 -1.4047 -0.0528
 2280SOL    HW218300   2.660   0.258   7.192  1.8919 -2.1320  1.1590
 2281SOL     OW18301   1.946   3.893  12.810 -0.1629 -0.2028 -0.2031
 2281SOL    HW118302   2.014   3.883  12.876 -0.6555  0.7041  0.4379
 2281SOL    HW218303   1.955   3.988  12.815 -0.6193 -0.1344 -0.7130
 2282SOL     OW18304   4.607   2.431   0.613 -0.7236 -0.0881 -0.2535
 2282SOL    HW118305   4.524   2.471   0.638 -0.9474 -0.9046  0.3177
 2282SOL    HW218306   4.662   2.506   0.591  1.0555 -0.5688  2.4756
 2283SOL     OW18307   4.396   1.866  11.551  0.1397  0.3322  0.3451
 2283SOL    HW118308   4.329   1.799  11.540  1.5993 -1.4019  2.1785
 2283SOL    HW218309   4.474   1.819  11.580 -1.5990 -1.4940  1.9879
 2284SOL     OW18310   1.484   3.738   6.706  0.5317 -0.1879  0.0458
 2284SOL    HW118311   1.397   3.704   6.728  1.0283 -0.8966  0.9286
 2284SOL    HW218312   1.491   3.798   6.781 -0.8853 -1.2815  1.0623
 2285SOL     OW18313   4.586   1.527   0.003 -0.3858  0.3109  0.2904
 2285SOL    HW118314   4.545   1.499  17.617 -1.1543  2.3842 -0.0491
 2285SOL    HW218315   4.554   1.618   0.004  0.6404  0.7414 -3.7542
 2286SOL     OW18316   3.180   2.899   8.828 -0.0524  0.7114  0.6880
 2286SOL    HW118317   3.193   2.976   8.772  0.9399 -0.2093 -0.3296
 2286SOL    HW218318   3.246   2.844   8.787 -1.6869 -0.9842  0.3332
 2287SOL     OW18319   1.598   2.795   5.486 -0.0599  0.0114 -0.5897
 2287SOL    HW118320   1.655   2.843   5.426  0.6020 -1.6835 -1.3350
 2287SOL    HW218321   1.642   2.710   5.498  0.7789  0.5068 -0.1139
 2288SOL     OW18322   2.706   1.637   2.055 -0.0828 -0.5499  0.3320
 2288SOL    HW118323   2.703   1.731   2.068 -1.6823 -0.7781  1.6901
 2288SOL    HW218324   2.789   1.615   2.097  0.7685  0.3004 -0.9461
 2289SOL     OW18325   2.732   2.809  16.591 -0.0762 -0.3848  0.0904
 2289SOL    HW118326   2.691   2.822  16.506 -0.9002 -0.7162  0.4353
 2289SOL    HW218327   2.813   2.858  16.577  0.0402 -0.7062 -0.3638
 2290SOL     OW18328   4.461   4.532   3.123  0.2061  0.2940  0.2026
 2290SOL    HW118329   4.552   4.503   3.132  1.2248  3.0896 -0.9926
 2290SOL    HW218330   4.428   4.475   3.054  1.8703  0.1008 -0.4215
 2291SOL     OW18331   4.539   0.844   8.171  0.7640 -0.9000 -0.7760
 2291SOL    HW118332   4.567   0.755   8.193  1.1445 -0.3907  0.7636
 2291SOL    HW218333   4.544   0.845   8.075  0.4596 -0.2759 -0.7840
 2292SOL     OW18334   1.204   4.525  16.799 -0.3235  0.2467 -0.2770
 2292SOL    HW118335   1.289   4.514  16.843 -0.8043  1.3265  0.9464
 2292SOL    HW218336   1.150   4.466  16.851  1.2614 -0.5308  0.4891
 2293SOL     OW18337   4.056   1.890  10.140 -0.2305 -0.6083 -0.4537
 2293SOL    HW118338   4.008   1.907  10.059  0.5121 -0.5795 -0.8834
 2293SOL    HW218339   3.998   1.926  10.207 -0.2302  0.4178 -0.9915
 2294SOL     OW18340   3.881   3.676   6.016  1.2607  0.1279 -0.1458
 2294SOL    HW118341   3.869   3.587   6.050 -1.0231  0.6765  0.4584
 2294SOL    HW218342   3.788   3.700   6.016  1.5011  1.0920  0.1104
 2295SOL     OW18343   2.035   4.274  14.995 -0.0303  0.3908  0.9182
 2295SOL    HW118344   2.071   4.191  15.026  0.1545  1.5727  3.8894
 2295SOL    HW218345   1.991   4.237  14.918  0.2947  0.7079  0.5863
 2296SOL     OW18346   0.425   1.706   1.980  0.0384  0.3078  0.3299
 2296SOL    HW118347   0.373   1.771   2.028 -0.3182  1.4030 -1.5055
 2296SOL    HW218348   0.350   1.663   1.938  0.3396 -0.7713  0.9045
 2297SOL     OW18349   0.749   1.168  10.429  0.3399  0.1845 -0.2223
 2297SOL    HW118350   0.845   1.164  10.435  0.4469 -1.4859 -3.0783
 2297SOL    HW218351   0.737   1.196  10.339 -0.6587 -2.3553 -0.8717
 2298SOL     OW18352   2.403   2.377   7.341  0.9305  0.6899  0.4630
 2298SOL    HW118353   2.382   2.469   7.357  0.2017  0.4882  0.6367
 2298SOL    HW218354   2.403   2.344   7.431  0.5525  2.6405  1.1779
 2299SOL     OW18355   2.900   1.301   9.454 -0.1309  0.8707  0.6782
 2299SOL    HW118356   2.880   1.227   9.397  1.1414 -0.0701  1.4462
 2299SOL    HW218357   2.831   1.360   9.425 -1.5416 -1.0495  0.1182
 2300SOL     OW18358   1.553   4.015   8.623  0.3495  0.7084  0.0899
 2300SOL    HW118359   1.536   3.956   8.550  3.4904  0.8275 -0.7299
 2300SOL    HW218360   1.646   3.999   8.639  0.7996  2.5865 -0.7501
 2301SOL     OW18361   3.265   4.360   3.600  0.0363 -0.2758  0.2819
 2301SOL    HW118362   3.283   4.294   3.533 -2.9517 -0.1873 -0.6181
 2301SOL    HW218363   3.336   4.344   3.661  0.4521 -3.0017 -0.9374
 2302SOL     OW18364   1.337   1.893   1.032 -0.0897 -0.3929  0.3035
 2302SOL    HW118365   1.390   1.829   1.080 -0.6050 -1.5285 -0.6427
 2302SOL    HW218366   1.311   1.834   0.961  1.4714  0.1769 -0.7556
 2303SOL     OW18367   2.149   2.425   3.074 -0.1203  0.3173 -0.2332
 2303SOL    HW118368   2.108   2.467   2.998 -0.1131  2.1764  0.7856
 2303SOL    HW218369   2.122   2.335   3.056 -0.6256  0.3831  0.2135
 2304SOL     OW18370   2.881   4.520   5.202 -0.0109 -0.0660 -0.2889
 2304SOL    HW118371   2.967   4.514   5.162  0.6283 -0.1357  1.0879
 2304SOL    HW218372   2.826   4.482   5.134 -1.8787 -0.3499  1.3556
 2305SOL     OW18373   1.860   3.352   8.803 -0.2959 -0.2427  0.4458
 2305SOL    HW118374   1.766   3.338   8.797 -0.3246 -0.4941  1.5573
 2305SOL    HW218375   1.862   3.413   8.729  1.2830 -0.5112  0.2665
 2306SOL     OW18376   2.688   0.188   7.818 -0.4261  0.0979 -0.2019
 2306SOL    HW118377   2.647   0.251   7.758 -1.8620 -0.0744  0.5865
 2306SOL    HW218378   2.612   0.188   7.877  0.6542 -2.0760  1.1853
 2307SOL     OW18379   1.575   1.047  14.156 -0.0590 -0.1547 -0.0249
 2307SOL    HW118380   1.592   1.112  14.088 -0.9674  1.5533  1.3602
 2307SOL    HW218381   1.661   1.031  14.193  0.1087  0.7343 -0.0333
 2308SOL     OW18382   1.593   2.076   5.395 -0.4235  0.4526 -0.1004
 2308SOL    HW118383   1.614   2.026   5.316  0.7181 -0.6948  0.9279
 2308SOL    HW218384   1.500   2.055   5.408 -0.3657  1.0813  1.3594
 2309SOL     OW18385   3.302   4.020   7.054  0.0595 -0.7051  0.5714
 2309SOL    HW118386   3.351   3.975   7.122 -0.4260 -1.3305  0.5050
 2309SOL    HW218387   3.220   3.971   7.049 -1.0555  1.1937  0.0276
 2310SOL     OW18388   1.952   3.087  13.008  0.3003 -0.3460 -0.2961
 2310SOL    HW118389   2.047   3.092  12.992  0.5965 -0.6466  1.3764
 2310SOL    HW218390   1.959   3.059  13.099  0.9577  0.2528 -0.1565
 2311SOL     OW18391   3.402   2.372  14.224 -0.0516 -0.4624  0.0823
 2311SOL    HW118392   3.317   2.328  14.227  0.4056 -1.6055 -3.7260
 2311SOL    HW218393   3.415   2.406  14.136  0.4370  0.7617  0.6211
 2312SOL     OW18394   3.572   4.623   2.787 -0.1621  0.0362 -0.3723
 2312SOL    HW118395   3.526   4.684   2.729  0.3161  1.4263  0.7024
 2312SOL    HW218396   3.545   4.537   2.756  0.2825 -0.5332  0.8467
 2313SOL     OW18397   0.646   1.052   0.418  0.2689 -0.0303 -0.3471
 2313SOL    HW118398   0.729   1.036   0.464  0.6828  0.3843 -0.9544
 2313SOL    HW218399   0.586   0.993   0.463 -0.5562  2.1554  1.4564
 2314SOL     OW18400   3.917   2.951   3.920 -1.4323  0.5722  0.1007
 2314SOL    HW118401   3.915   3.038   3.881 -1.2854 -0.5279 -2.4058
 2314SOL    HW218402   3.884   2.898   3.847  2.1152  0.5674 -1.4762
 2315SOL     OW18403   2.811   2.211  13.781  0.1485  0.2511  0.1469
 2315SOL    HW118404   2.887   2.269  13.785  1.0064 -0.9671  1.2616
 2315SOL    HW218405   2.855   2.127  13.785 -0.7962 -0.3510 -1.9934
 2316SOL     OW18406   1.618   4.182   4.314  0.8692 -0.0439 -0.5470
 2316SOL    HW118407   1.616   4.136   4.230  0.5104 -0.5536 -0.2552
 2316SOL    HW218408   1.572   4.266   4.308  0.5444 -0.3828 -2.7243
 2317SOL     OW18409   2.752   3.447  14.979 -0.2144 -0.0353 -0.4566
 2317SOL    HW118410   2.695   3.377  15.009  0.1028  0.2599  0.8220
 2317SOL    HW218411   2.688   3.513  14.950 -1.4292  0.2560  2.8898
 2318SOL     OW18412   0.155   4.325  12.986 -0.2777  1.0085 -0.1391
 2318SOL    HW118413   0.107   4.243  12.971  0.3778  1.2578 -3.6485
 2318SOL    HW218414   0.206   4.304  13.064 -0.8824 -0.8805 -0.2379
 2319SOL     OW18415   2.716   3.717   8.059  0.5380 -0.2609 -0.1041
 2319SOL    HW118416   2.780   3.648   8.078 -0.2078 -0.1339  2.9455
 2319SOL    HW218417   2.749   3.775   8.128  1.4450  0.2038 -0.9421
 2320SOL     OW18418   4.695   3.697  16.369  0.3780 -0.0773 -0.5914
 2320SOL    HW118419   4.704   3.660  16.457 -1.3012  0.1539 -0.3066
 2320SOL    HW218420   0.059   3.732  16.358 -0.0047  1.0254 -0.1359
 2321SOL     OW18421   1.348   3.852   8.704  0.2817 -0.3419 -0.6688
 2321SOL    HW118422   1.423   3.911   8.690  0.6279 -0.4531  0.7595
 2321SOL    HW218423   1.375   3.779   8.760  0.2784 -0.3960 -0.7376
 2322SOL     OW18424   0.500   1.806   7.687  0.0254 -0.5511 -0.8513
 2322SOL    HW118425   0.426   1.745   7.690 -0.6856  0.4121  1.3993
 2322SOL    HW218426   0.457   1.888   7.667  0.2905 -0.1049  0.3884
 2323SOL     OW18427   2.192   4.679   9.420  0.2238 -0.6934  0.3372
 2323SOL    HW118428   2.190   0.051   9.434  0.9652 -0.3425 -1.9240
 2323SOL    HW218429   2.120   4.665   9.359 -0.2955  1.2152  0.5019
 2324SOL     OW18430   3.285   2.738   7.604 -0.1799 -0.5005  0.3558
 2324SOL    HW118431   3.246   2.667   7.654 -2.2036 -0.1592 -0.7105
 2324SOL    HW218432   3.293   2.809   7.668  1.6345 -0.8440  0.5088
 2325SOL     OW18433   1.193   0.384   8.601 -0.6456 -0.7012  0.7594
 2325SOL    HW118434   1.225   0.394   8.512 -1.2335 -3.1173  0.2834
 2325SOL    HW218435   1.250   0.315   8.633 -0.1295 -0.2904  0.7316
 2326SOL     OW18436   1.616   2.683   0.534 -0.2330  0.4451 -0.1451
 2326SOL    HW118437   1.609   2.649   0.444  0.4811  0.2416 -0.1172
 2326SOL    HW218438   1.550   2.752   0.534  0.6550  1.2915 -0.9775
 2327SOL     OW18439   1.757   2.206   6.934  0.4646 -0.5103 -0.5485
 2327SOL    HW118440   1.840   2.188   6.978 -0.9192 -2.2048  1.3898
 2327SOL    HW218441   1.696   2.148   6.979  0.4583 -1.0312 -1.2350
 2328SOL     OW18442   1.302   3.779   8.144  0.1716  0.4866  0.0474
 2328SOL    HW118443   1.221   3.771   8.194  0.0170  1.3527 -0.0706
 2328SOL    HW218444   1.257   3.771   8.060  1.5172  0.1082 -0.6440
 2329SOL     OW18445   3.431   4.701  14.534  0.4551  0.5076 -0.1928
 2329SOL    HW118446   3.520   4.719  14.504 -0.7629  0.4649 -3.7824
 2329SOL    HW218447   3.412   4.611  14.511  1.2453  0.4558 -0.6337
 2330SOL     OW18448   2.367   1.186   5.964 -0.0989  0.1733  0.4781
 2330SOL    HW118449   2.420   1.109   5.985  0.8416  0.2992 -1.3502
 2330SOL    HW218450   2.433   1.252   5.942  1.3195 -0.3742  3.2173
 2331SOL     OW18451   1.865   0.828   1.383  0.1281 -0.1808  0.0610
 2331SOL    HW118452   1.813   0.852   1.460 -0.2090 -1.2586  0.1657
 2331SOL    HW218453   1.929   0.772   1.428  1.0116 -1.4349 -2.7753
 2332SOL     OW18454   0.228   2.420   0.496 -0.2927  0.1157  0.6841
 2332SOL    HW118455   0.255   2.421   0.587  1.1210 -3.4017  0.3273
 2332SOL    HW218456   0.303   2.461   0.453 -1.0890  0.1919 -0.6491
 2333SOL     OW18457   0.489   2.462   8.830 -0.0304 -0.0380  0.2865
 2333SOL    HW118458   0.548   2.402   8.785 -0.4038 -0.6534  0.6105
 2333SOL    HW218459   0.460   2.523   8.762 -0.9718 -1.4932 -0.6198
 2334SOL     OW18460   1.465   1.116  11.817 -0.5270  0.0984 -0.1200
 2334SOL    HW118461   1.528   1.102  11.746 -0.5759  0.3771 -0.2187
 2334SOL    HW218462   1.413   1.036  11.809  0.4753 -0.4960 -0.7018
 2335SOL     OW18463   1.161   1.224   9.669  0.1435  0.0699 -0.5613
 2335SOL    HW118464   1.241   1.191   9.628  0.9775  0.1454  1.0167
 2335SOL    HW218465   1.159   1.182   9.755  1.0599  3.3819  1.1014
 2336SOL     OW18466   3.763   1.660   5.919 -0.4896 -0.0681  0.1806
 2336SOL    HW118467   3.835   1.706   5.875 -1.3587 -0.4719 -1.6727
 2336SOL    HW218468   3.811   1.639   5.999  1.3072 -0.8377 -1.0763
 2337SOL     OW18469   4.213   0.019   8.153  0.0523  0.0320  0.2421
 2337SOL    HW118470   4.264   4.693   8.217  1.8682 -0.9385 -1.9266
 2337SOL    HW218471   4.142   0.042   8.213  1.0204  2.0788  0.5668
 2338SOL     OW18472   1.618   0.148  17.441  0.4020 -0.1462 -0.0205
 2338SOL    HW118473   1.565   0.210  17.391  1.3855 -0.7546 -1.8160
 2338SOL    HW218474   1.558   0.083  17.478 -0.8113  2.4278  2.5655
 2339SOL     OW18475   4.581   2.796   3.301  0.5365 -0.2340 -0.1039
 2339SOL    HW118476   4.516   2.736   3.265  0.5399  0.0562 -0.5925
 2339SOL    HW218477   4.606   2.848   3.225  1.3217  2.8931  2.2828
 2340SOL     OW18478   1.573   1.775   2.310  0.5311  0.4762 -0.3274
 2340SOL    HW118479   1.584   1.819   2.226 -0.4308 -1.1164 -1.2835
 2340SOL    HW218480   1.665   1.748   2.315  0.5578  0.4817 -0.8119
 2341SOL     OW18481   0.700   2.074   4.493 -0.3585 -0.5132  0.5325
 2341SOL    HW118482   0.704   2.130   4.415 -0.9559 -1.1810  0.0200
 2341SOL    HW218483   0.693   1.989   4.450  0.7650 -1.7927  2.8805
 2342SOL     OW18484   2.232   2.595  12.145 -0.3874  0.4489 -0.1006
 2342SOL    HW118485   2.284   2.676  12.150  1.7764 -0.8810 -1.0678
 2342SOL    HW218486   2.177   2.591  12.223  0.7274  0.5861  0.6900
 2343SOL     OW18487   1.020   3.634   9.180 -0.0555 -0.2456 -0.3761
 2343SOL    HW118488   0.938   3.618   9.226 -1.3551 -1.0494 -2.9622
 2343SOL    HW218489   0.989   3.619   9.090  1.0013 -1.6195 -0.5202
 2344SOL     OW18490   1.874   1.785   0.693  0.7962  0.0326 -0.3599
 2344SOL    HW118491   1.802   1.806   0.634  1.0874 -0.1248 -0.7704
 2344SOL    HW218492   1.833   1.760   0.776 -0.5832 -0.8925 -1.3272
 2345SOL     OW18493   2.221   0.571  12.326 -0.7199  0.1130 -0.5588
 2345SOL    HW118494   2.185   0.653  12.360  2.1914  0.7487  1.0004
 2345SOL    HW218495   2.267   0.541  12.404  2.2336  0.9101 -1.9924
 2346SOL     OW18496   4.130   4.241   7.057 -0.8095  0.0248  0.1766
 2346SOL    HW118497   4.112   4.147   7.064  1.8901 -0.5003  0.0698
 2346SOL    HW218498   4.174   4.266   7.138 -0.1622  1.6202 -0.6767
 2347SOL     OW18499   0.427   3.580   4.233 -0.2968  0.3633 -0.3350
 2347SOL    HW118500   0.429   3.490   4.265  1.9079 -0.0806 -1.7388
 2347SOL    HW218501   0.332   3.591   4.239 -0.6703 -3.1664 -0.1274
 2348SOL     OW18502   2.507   2.001   1.497  0.0628 -0.1183 -0.0506
 2348SOL    HW118503   2.520   1.984   1.590  0.4935  2.1125  0.2886
 2348SOL    HW218504   2.440   2.069   1.504 -0.9621 -1.3057  1.6540
 2349SOL     OW18505   4.037   1.530  14.387 -0.4320 -0.3146  0.3793
 2349SOL    HW118506   3.943   1.534  14.407 -0.5406 -2.3280  0.3142
 2349SOL    HW218507   4.034   1.601  14.324  1.1256 -0.6069 -0.0242
 2350SOL     OW18508   2.471   3.152   0.653  0.0800 -0.1338  0.3214
 2350SOL    HW118509   2.403   3.144   0.721 -0.6523  1.1333 -0.2809
 2350SOL    HW218510   2.470   3.066   0.611  0.8186  0.3777 -0.7298
 2351SOL     OW18511   2.226   3.676   3.708  0.6856 -0.4139  0.3942
 2351SOL    HW118512   2.233   3.603   3.770  3.6567 -0.3689  0.1312
 2351SOL    HW218513   2.294   3.657   3.643  1.2708 -0.3801  0.9927
 2352SOL     OW18514   4.510   2.182  14.494 -0.4637  0.0955 -0.1619
 2352SOL    HW118515   4.485   2.110  14.551  1.7236 -1.3021 -0.9759
 2352SOL    HW218516   4.503   2.265  14.542  0.9042  0.0244  0.1526
 2353SOL     OW18517   3.100   3.262   6.525  0.3535 -0.3076  0.8360
 2353SOL    HW118518   3.078   3.355   6.520 -0.2779 -0.5639 -1.3510
 2353SOL    HW218519   3.149   3.266   6.607  1.3894  1.5153  0.1186
 2354SOL     OW18520   0.150   3.638   4.323  0.1775  0.9441 -0.4046
 2354SOL    HW118521   0.151   3.720   4.373 -0.8269  0.6150  0.1677
 2354SOL    HW218522   0.118   3.577   4.389  1.6033  0.4331 -0.1965
 2355SOL     OW18523   0.501   0.893   5.987 -0.4585 -0.2636  0.1418
 2355SOL    HW118524   0.441   0.849   6.046  0.5924 -0.4341  1.0919
 2355SOL    HW218525   0.554   0.826   5.944  2.2381  1.4957  0.7112
 2356SOL     OW18526   2.337   0.359  13.856  0.6295  0.2357 -0.8736
 2356SOL    HW118527   2.290   0.313  13.926  0.7156  0.4277 -0.6873
 2356SOL    HW218528   2.264   0.374  13.796  0.5360  3.7100  0.0860
 2357SOL     OW18529   0.316   1.645  12.032 -0.1687  0.2647 -0.5515
 2357SOL    HW118530   0.220   1.653  12.030 -0.0317  1.8501 -0.3745
 2357SOL    HW218531   0.338   1.664  12.123  1.7860  0.9636 -1.1737
 2358SOL     OW18532   1.734   2.156  10.448 -0.2122 -0.0969 -0.0282
 2358SOL    HW118533   1.820   2.116  10.457 -0.4047 -0.2358  1.2288
 2358SOL    HW218534   1.693   2.097  10.512 -1.2177  1.7103  1.0012
 2359SOL     OW18535   0.281   2.726   5.632  0.1258  0.0398 -0.2793
 2359SOL    HW118536   0.262   2.662   5.564 -1.9200  0.0974  0.2656
 2359SOL    HW218537   0.269   2.678   5.714  5.8037 -3.0473 -1.2093
 2360SOL     OW18538   4.380   2.436  11.899 -0.1388 -0.2678  0.5289
 2360SOL    HW118539   4.353   2.391  11.979 -0.7543 -2.6046 -1.0249
 2360SOL    HW218540   4.335   2.376  11.840 -2.2049  2.0215 -0.2266
 2361SOL     OW18541   3.766   0.658   2.607 -0.1408 -0.2229 -0.0741
 2361SOL    HW118542   3.804   0.620   2.686 -2.3827 -0.6495  0.7981
 2361SOL    HW218543   3.700   0.595   2.579 -2.2365  1.5065  0.8959
 2362SOL     OW18544   0.191   1.095  16.199 -0.6004  0.3876  0.2704
 2362SOL    HW118545   0.163   1.037  16.128 -0.0039 -1.9346  1.9644
 2362SOL    HW218546   0.183   1.042  16.277 -1.3458 -0.5258 -0.4302
 2363SOL     OW18547   2.898   3.010   2.651  1.0394  0.3899 -0.0543
 2363SOL    HW118548   2.974   2.962   2.617  3.1515  1.5729  2.9450
 2363SOL    HW218549   2.866   3.033   2.564  1.4925  0.2632 -0.2564
 2364SOL     OW18550   4.413   1.281   9.376 -0.1347  0.0377 -0.2577
 2364SOL    HW118551   4.332   1.299   9.424 -1.0508  0.0147 -1.7893
 2364SOL    HW218552   4.482   1.312   9.434 -1.0171  3.9536 -1.2909
 2365SOL     OW18553   0.697   0.218   2.167 -0.6052 -0.1870  0.5388
 2365SOL    HW118554   0.655   0.290   2.121  3.0619  1.2943 -0.4671
 2365SOL    HW218555   0.670   0.136   2.124  1.5586 -0.6162  0.0422
 2366SOL     OW18556   2.605   3.672   2.533 -0.3076  0.9008 -0.2254
 2366SOL    HW118557   2.631   3.607   2.468  0.0359  1.1837 -0.3712
 2366SOL    HW218558   2.639   3.640   2.616  0.0655  0.4433 -0.5569
 2367SOL     OW18559   3.564   0.738  11.472 -0.7383  0.0651 -0.5200
 2367SOL    HW118560   3.608   0.810  11.519 -0.5410  0.4582 -1.3054
 2367SOL    HW218561   3.528   0.790  11.400 -0.4351  1.1691  0.1128
 2368SOL     OW18562   0.610   4.218   3.752  0.1997 -0.1528 -0.0731
 2368SOL    HW118563   0.634   4.310   3.746  1.0425 -0.5705 -3.3203
 2368SOL    HW218564   0.528   4.220   3.801 -0.7060 -1.4153 -1.5348
 2369SOL     OW18565   4.141   2.771   4.361  0.1866  0.2669  0.1589
 2369SOL    HW118566   4.132   2.821   4.279  1.3815  0.8444  0.3725
 2369SOL    HW218567   4.053   2.734   4.367  1.4166 -2.9642 -1.8689
 2370SOL     OW18568   3.169   1.068   9.739 -0.2377 -0.3519 -0.2144
 2370SOL    HW118569   3.216   0.985   9.730  0.1235 -0.1830  0.1114
 2370SOL    HW218570   3.089   1.044   9.787  0.0162 -0.4451  0.1661
 2371SOL     OW18571   2.328   2.728   6.262  0.0783  0.1851  0.0424
 2371SOL    HW118572   2.261   2.672   6.221 -1.5809  1.6380  0.7573
 2371SOL    HW218573   2.316   2.812   6.218 -2.8590  0.0766  0.6170
 2372SOL     OW18574   4.246   2.242   9.352 -0.4439  1.1858 -0.1872
 2372SOL    HW118575   4.216   2.201   9.271 -1.1645 -1.4923  1.4453
 2372SOL    HW218576   4.181   2.311   9.362  0.5365  2.3399 -1.8411
 2373SOL     OW18577   1.179   1.393   9.402 -0.1023 -0.1240 -0.0730
 2373SOL    HW118578   1.138   1.396   9.488  1.8419  1.6531  0.8141
 2373SOL    HW218579   1.119   1.336   9.355 -2.5885 -1.1178  4.3151
 2374SOL     OW18580   2.661   0.916   5.183 -0.0303 -0.2612 -0.6084
 2374SOL    HW118581   2.620   0.941   5.266 -1.4471 -0.1132 -1.3497
 2374SOL    HW218582   2.724   0.854   5.219 -0.3017 -2.0755 -3.2391
 2375SOL     OW18583   2.789   2.475   2.265  0.3493  0.6138  0.0109
 2375SOL    HW118584   2.706   2.452   2.307 -0.0101  0.7345 -0.6285
 2375SOL    HW218585   2.773   2.569   2.263 -1.1811  0.3414 -0.3113
 2376SOL     OW18586   1.708   4.512  12.137 -0.3071  0.7201  0.5096
 2376SOL    HW118587   1.675   4.458  12.065  1.2463 -1.2436  1.2825
 2376SOL    HW218588   1.801   4.493  12.140 -0.0096  2.0258 -0.4329
 2377SOL     OW18589   2.001   3.359   4.148  0.1854  0.2188 -0.1337
 2377SOL    HW118590   1.992   3.269   4.117 -0.0319 -0.7215  2.6420
 2377SOL    HW218591   1.924   3.367   4.205 -0.9935 -1.9022 -1.4662
 2378SOL     OW18592   4.664   3.658   7.575  0.4939  0.2157 -0.3517
 2378SOL    HW118593   0.022   3.660   7.625  0.1346  1.4989  0.1883
 2378SOL    HW218594   4.600   3.666   7.645  0.2809 -1.8132 -0.3136
 2379SOL     OW18595   1.716   0.990   1.560 -0.4583  0.1913  0.5402
 2379SOL    HW118596   1.622   0.978   1.573 -0.0773 -0.2323  2.8375
 2379SOL    HW218597   1.712   1.081   1.530 -0.6900  0.0507  0.1479
 2380SOL     OW18598   3.013   0.205   7.534 -0.3860 -0.0800  0.3721
 2380SOL    HW118599   2.990   0.284   7.485  0.5842  0.9322  1.5442
 2380SOL    HW218600   2.948   0.147   7.494  0.8492 -1.2009  0.0195
 2381SOL     OW18601   0.696   2.256   3.185 -0.1630 -0.7105  0.3039
 2381SOL    HW118602   0.640   2.279   3.259  1.4920  0.7701  1.0919
 2381SOL    HW218603   0.760   2.203   3.233  0.0948 -0.0739  0.6671
 2382SOL     OW18604   2.130   3.210   2.690  0.2643 -0.7243 -0.7236
 2382SOL    HW118605   2.190   3.149   2.731 -1.4422 -0.7992  1.6508
 2382SOL    HW218606   2.131   3.175   2.601  0.5234  0.2678 -1.1154
 2383SOL     OW18607   3.445   3.886   3.187  0.4308 -0.3641  0.5886
 2383SOL    HW118608   3.361   3.930   3.191  0.6577 -0.0264  1.5890
 2383SOL    HW218609   3.499   3.926   3.255  0.8895 -0.0316  0.0365
 2384SOL     OW18610   0.090   4.645   5.224 -0.4616  0.0494  0.3364
 2384SOL    HW118611   0.132   4.688   5.298 -1.4711  3.1361 -0.8977
 2384SOL    HW218612   0.003   4.685   5.226 -0.1500  0.7089  0.5336
 2385SOL     OW18613   1.099   3.269   0.448 -0.1755  0.0860 -0.1267
 2385SOL    HW118614   1.136   3.338   0.392 -0.8058 -0.6600 -1.4339
 2385SOL    HW218615   1.131   3.303   0.532  1.1430 -2.3720  0.3555
 2386SOL     OW18616   3.644   3.192  11.620 -0.5695 -0.0413 -0.4270
 2386SOL    HW118617   3.593   3.235  11.688 -0.4263  1.3498 -1.2044
 2386SOL    HW218618   3.696   3.129  11.671  0.9029  1.1839 -0.4260
 2387SOL     OW18619   0.231   2.816   7.195 -1.0478  0.4043  0.5800
 2387SOL    HW118620   0.169   2.753   7.232  0.3374  0.1186  2.4226
 2387SOL    HW218621   0.201   2.897   7.236  0.5851  1.3970 -0.1632
 2388SOL     OW18622   0.071   2.872  12.619 -0.0975 -0.0093  0.0781
 2388SOL    HW118623   0.075   2.908  12.708 -0.4455 -2.7980  1.2223
 2388SOL    HW218624   0.012   2.800  12.639  1.2957 -0.9595  0.8086
 2389SOL     OW18625   3.065   3.565   2.040  0.1965 -1.2012  0.2399
 2389SOL    HW118626   3.077   3.653   2.075 -1.6542 -1.2880  1.1122
 2389SOL    HW218627   2.987   3.568   1.984  1.6048  3.8170 -1.4444
 2390SOL     OW18628   2.623   1.069   8.824 -0.0215  0.2038  0.4142
 2390SOL    HW118629   2.571   1.143   8.856 -0.9662 -0.6829  0.9219
 2390SOL    HW218630   2.551   1.007   8.810 -2.8640  3.8032 -0.8990
 2391SOL     OW18631   2.764   3.906   6.566  0.4189  0.0459 -0.4844
 2391SOL    HW118632   2.775   3.972   6.497 -1.0658 -0.3383 -1.0870
 2391SOL    HW218633   2.680   3.875   6.533 -0.1719  1.5335 -0.4039
 2392SOL     OW18634   1.605   1.093  16.839 -0.0141  0.5059 -0.0860
 2392SOL    HW118635   1.617   1.056  16.751 -0.3834 -0.6871  0.3649
 2392SOL    HW218636   1.533   1.155  16.823  0.0362  0.5029 -0.3221
 2393SOL     OW18637   1.585   3.331   7.113 -0.5859  0.1557 -0.2070
 2393SOL    HW118638   1.651   3.262   7.109 -1.2063 -0.4649  0.1917
 2393SOL    HW218639   1.621   3.407   7.067 -1.4243  0.1186 -0.9289
 2394SOL     OW18640   0.797   2.407   6.010 -0.0843 -0.0004 -0.6661
 2394SOL    HW118641   0.888   2.426   5.987 -0.3221  2.8708  0.7158
 2394SOL    HW218642   0.811   2.358   6.090  3.5595  0.6139 -0.9299
 2395SOL     OW18643   0.333   2.667  11.077 -0.4600  0.2689 -0.1474
 2395SOL    HW118644   0.359   2.622  11.157 -2.1812 -1.5058 -0.5623
 2395SOL    HW218645   0.317   2.593  11.017 -1.3605  1.8066 -1.8222
 2396SOL     OW18646   2.438   3.668  15.285 -0.4321 -0.1843  0.5588
 2396SOL    HW118647   2.513   3.720  15.313 -2.2058  2.5946  0.1234
 2396SOL    HW218648   2.468   3.637  15.199  0.1576  2.0272 -0.0157
 2397SOL     OW18649   4.578   3.619   8.321 -0.7382  0.5993  0.4649
 2397SOL    HW118650   4.659   3.649   8.363 -1.3179  1.3148  1.0557
 2397SOL    HW218651   4.558   3.538   8.368  1.1879 -0.1326  0.0618
 2398SOL     OW18652   3.384   0.461   6.630 -0.1015 -0.1041 -0.0729
 2398SOL    HW118653   3.413   0.382   6.675  1.3843 -0.3544 -1.4589
 2398SOL    HW218654   3.463   0.479   6.579 -0.5613  0.3755 -0.6290
 2399SOL     OW18655   0.252   0.106   9.310  0.5153  0.2704  0.1133
 2399SOL    HW118656   0.179   0.135   9.365  0.7525 -0.5679  0.8772
 2399SOL    HW218657   0.325   0.147   9.357  1.5297 -0.1620 -1.1037
 2400SOL     OW18658   2.342   0.889  11.377  0.3643 -0.1806 -0.0793
 2400SOL    HW118659   2.306   0.802  11.357  0.2456 -0.1845  0.1569
 2400SOL    HW218660   2.401   0.890  11.301  0.6008 -0.2387  0.1034
 2401SOL     OW18661   3.202   4.643  13.479  0.1309  0.2996 -0.1108
 2401SOL    HW118662   3.128   4.667  13.535  0.1871 -0.3604  0.2484
 2401SOL    HW218663   3.144   4.611  13.409 -2.2410 -0.6606  2.2816
 2402SOL     OW18664   1.379   4.250   8.479 -0.0259 -0.2369 -0.2033
 2402SOL    HW118665   1.443   4.180   8.493  0.8389  0.6735  0.4374
 2402SOL    HW218666   1.304   4.191   8.473  0.0804 -0.1272 -2.5536
 2403SOL     OW18667   0.536   4.289  15.917  0.7353 -0.1515 -0.5477
 2403SOL    HW118668   0.540   4.269  16.010 -0.3124 -0.7358 -0.6259
 2403SOL    HW218669   0.457   4.238  15.896 -1.1077  1.9451  1.4116
 2404SOL     OW18670   1.134   0.775  11.983  0.1896 -0.4821  0.0837
 2404SOL    HW118671   1.148   0.827  11.904  0.2238  0.7719  0.9311
 2404SOL    HW218672   1.076   0.707  11.948 -0.7020 -0.3141  1.2602
 2405SOL     OW18673   3.242   2.359   1.455 -0.2635  0.2391  0.0767
 2405SOL    HW118674   3.332   2.386   1.475 -1.0921  3.1849 -0.2149
 2405SOL    HW218675   3.211   2.363   1.545 -0.6406 -0.1883 -0.0343
 2406SOL     OW18676   1.773   3.295  15.692  0.1516  0.6760  0.5856
 2406SOL    HW118677   1.762   3.328  15.603  1.5575 -1.2257 -0.3065
 2406SOL    HW218678   1.848   3.343  15.727  1.3211 -0.9513  0.3456
 2407SOL     OW18679   3.447   0.246   8.044  0.0609 -0.7934  0.2876
 2407SOL    HW118680   3.357   0.224   8.023  0.0444  0.3720 -0.8321
 2407SOL    HW218681   3.465   0.173   8.104 -0.4349 -1.2435 -0.1109
 2408SOL     OW18682   3.312   4.148   4.770 -0.1380  0.2468  0.3618
 2408SOL    HW118683   3.255   4.080   4.805  2.3044 -1.8126  0.3853
 2408SOL    HW218684   3.380   4.088   4.740 -1.1065 -0.7673  0.2073
 2409SOL     OW18685   0.939   3.443   6.874 -0.1105  0.0386 -0.1674
 2409SOL    HW118686   0.989   3.461   6.794 -0.8938  0.2899 -0.6073
 2409SOL    HW218687   0.897   3.528   6.886 -0.5998 -0.1617 -0.4221
 2410SOL     OW18688   1.434   2.508   2.485  0.5246 -0.3043 -0.2030
 2410SOL    HW118689   1.362   2.536   2.430 -1.5893  0.3912  2.9038
 2410SOL    HW218690   1.450   2.423   2.444  2.1837 -1.2985  2.4529
 2411SOL     OW18691   3.736   1.941   5.101  0.1571 -0.3522 -0.2149
 2411SOL    HW118692   3.692   1.883   5.039  0.6280  0.5912 -1.4412
 2411SOL    HW218693   3.827   1.937   5.072 -0.6800  0.8946 -3.0133
 2412SOL     OW18694   0.931   0.414   5.023 -0.3755  0.1332 -0.0861
 2412SOL    HW118695   0.911   0.486   5.082  0.3092  1.5696 -1.6009
 2412SOL    HW218696   1.023   0.397   5.042 -0.1954  2.3905  1.0102
 2413SOL     OW18697   4.218   0.506   9.418  0.1938  0.1799 -0.2409
 2413SOL    HW118698   4.310   0.524   9.434 -0.2532  1.5471  0.7598
 2413SOL    HW218699   4.173   0.557   9.486 -0.4070  2.0028 -2.0199
 2414SOL     OW18700   2.560   3.091  14.859  0.0638  0.4025  0.4775
 2414SOL    HW118701   2.506   3.019  14.893  0.3369 -0.2919 -0.5541
 2414SOL    HW218702   2.508   3.166  14.886 -1.1128 -0.3099  0.1990
 2415SOL     OW18703   0.088   2.755   6.098  0.0446 -0.3127  0.0707
 2415SOL    HW118704   0.102   2.844   6.130 -0.7944  0.2121 -1.0166
 2415SOL    HW218705   4.719   2.730   6.107 -0.5014  1.9701  0.7730
 2416SOL     OW18706   1.632   2.609   7.149  0.5050  0.1934 -0.2601
 2416SOL    HW118707   1.576   2.548   7.101 -1.1562  1.5839 -0.1091
 2416SOL    HW218708   1.581   2.630   7.227  0.9922  0.7072 -0.0781
 2417SOL     OW18709   3.656   3.548   5.831  0.0642 -0.5663 -0.0226
 2417SOL    HW118710   3.575   3.582   5.793 -0.2512  0.2746  1.4001
 2417SOL    HW218711   3.686   3.477   5.774  0.8818 -0.3903  0.1957
 2418SOL     OW18712   0.496   2.757   7.270  0.0062 -0.1353  0.1875
 2418SOL    HW118713   0.487   2.759   7.365 -0.5234 -0.5558  0.1523
 2418SOL    HW218714   0.410   2.788   7.240 -0.2842 -0.1039  1.0349
 2419SOL     OW18715   1.544   1.779   7.027 -0.0060  0.0789  0.3288
 2419SOL    HW118716   1.599   1.738   7.094 -2.8264 -0.6568  2.1946
 2419SOL    HW218717   1.556   1.870   7.056 -0.8494  0.1313  0.5019
 2420SOL     OW18718   0.325   2.037   6.066 -0.4751  0.1654  0.8367
 2420SOL    HW118719   0.415   2.070   6.068 -0.5136  0.4182 -1.6617
 2420SOL    HW218720   0.303   2.059   5.976 -0.3172 -0.6782  0.5931
 2421SOL     OW18721   3.980   2.134  17.290 -0.9462 -0.1281 -0.4102
 2421SOL    HW118722   4.067   2.165  17.317 -0.6359 -0.0892 -1.4455
 2421SOL    HW218723   3.915   2.161  17.354  0.3943  0.0180  0.8795
 2422SOL     OW18724   3.132   4.527   1.944  0.2309 -0.1122  0.4814
 2422SOL    HW118725   3.082   4.517   1.863 -0.4690  0.3098  0.8579
 2422SOL    HW218726   3.076   4.471   1.998  1.4856 -0.1643  1.7164
 2423SOL     OW18727   2.070   2.178  16.803 -0.2666  0.0898 -0.4820
 2423SOL    HW118728   1.975   2.185  16.794  0.0238  1.1759 -2.6755
 2423SOL    HW218729   2.100   2.268  16.791 -0.6862  0.3682  0.5041
 2424SOL     OW18730   4.223   3.377   9.875 -0.1752  0.0212 -0.1956
 2424SOL    HW118731   4.180   3.295   9.850 -0.8600  1.3561 -3.3679
 2424SOL    HW218732   4.176   3.435   9.816 -3.3918 -1.3615  0.9667
 2425SOL     OW18733   0.581   4.601   7.277  0.7221 -0.4120  0.5169
 2425SOL    HW118734   0.622   4.625   7.360  1.5667 -0.8567  0.2263
 2425SOL    HW218735   0.535   4.529   7.321 -1.6193 -0.3657 -1.8320
 2426SOL     OW18736   2.056   1.915   8.599 -0.2504 -0.1286 -0.0227
 2426SOL    HW118737   1.970   1.957   8.590  0.6739  1.2202 -2.3574
 2426SOL    HW218738   2.035   1.822   8.584 -0.7800 -0.1541  0.8711
 2427SOL     OW18739   0.015   2.570   9.423 -0.3486  0.1441  0.1319
 2427SOL    HW118740   4.650   2.554   9.454 -0.3596 -1.4296 -0.7097
 2427SOL    HW218741   0.005   2.664   9.411  0.1646  0.3730  1.5034
 2428SOL     OW18742   0.859   2.846   5.480  0.5373  0.3180 -0.6158
 2428SOL    HW118743   0.943   2.802   5.467  0.7937  0.5008  0.3614
 2428SOL    HW218744   0.811   2.824   5.400  0.9307 -1.2414 -0.4282
 2429SOL     OW18745   1.576   1.223   2.169  0.0678 -0.4350  0.1719
 2429SOL    HW118746   1.631   1.243   2.093  0.2452  0.1404  0.4520
 2429SOL    HW218747   1.510   1.167   2.128 -1.0208  1.0899 -0.1492
 2430SOL     OW18748   2.946   3.382  10.922  0.2067 -0.0965 -0.0470
 2430SOL    HW118749   2.934   3.405  10.830 -1.8821 -2.1899 -0.2977
 2430SOL    HW218750   2.880   3.313  10.935 -1.6077  1.2958 -1.9316
 2431SOL     OW18751   2.984   1.884   3.458  0.3153  0.8267 -0.2572
 2431SOL    HW118752   3.037   1.820   3.409  0.5682 -1.9190  3.5835
 2431SOL    HW218753   2.952   1.826   3.527  2.1376  1.1384  0.8718
 2432SOL     OW18754   1.357   1.682   4.788 -0.0542  0.0878 -0.0194
 2432SOL    HW118755   1.446   1.673   4.753 -1.0996 -1.7407 -2.1552
 2432SOL    HW218756   1.356   1.775   4.810 -3.0925  0.0620 -0.1056
 2433SOL     OW18757   2.986   1.271  13.170 -0.6451 -0.4722 -0.3419
 2433SOL    HW118758   2.939   1.264  13.253 -1.1833 -0.1131 -0.6098
 2433SOL    HW218759   2.927   1.234  13.105  0.5061  0.7183 -2.0575
 2434SOL     OW18760   1.640   1.663  17.550 -0.0532 -0.7797  0.2388
 2434SOL    HW118761   1.729   1.691  17.568 -0.6363  1.4855 -0.4604
 2434SOL    HW218762   1.666   1.572  17.567 -1.0532 -1.2388 -0.6813
 2435SOL     OW18763   4.315   4.161   4.543 -0.0111  0.1680  0.2352
 2435SOL    HW118764   4.268   4.236   4.578 -1.0391 -0.5801  0.4554
 2435SOL    HW218765   4.252   4.097   4.575 -0.0128  0.5412  0.9664
 2436SOL     OW18766   2.175   3.791  12.321 -0.7528 -0.3846 -0.6678
 2436SOL    HW118767   2.140   3.880  12.332 -1.7360 -1.2204  2.7808
 2436SOL    HW218768   2.139   3.753  12.241 -0.6258  0.3360 -1.0680
 2437SOL     OW18769   2.585   1.078  13.926 -0.1681  0.3521  0.3259
 2437SOL    HW118770   2.594   0.996  13.878 -0.0488  0.8449 -0.4772
 2437SOL    HW218771   2.664   1.067  13.979  1.1481 -1.1696 -1.9469
 2438SOL     OW18772   2.285   1.626  10.416 -0.4184  0.3950 -0.3141
 2438SOL    HW118773   2.224   1.582  10.357  0.5894  1.7617 -2.3728
 2438SOL    HW218774   2.224   1.687  10.459 -0.6228 -1.3156  1.7922
 2439SOL     OW18775   3.411   1.359  15.753  0.0671 -0.2283  0.0068
 2439SOL    HW118776   3.350   1.414  15.801  0.4811  1.5141 -1.4456
 2439SOL    HW218777   3.355   1.311  15.692 -1.2514  0.8764  0.3486
 2440SOL     OW18778   2.914   4.200  10.077  0.0503  0.4470  0.0200
 2440SOL    HW118779   3.003   4.222  10.104 -0.4423  1.2997  0.9382
 2440SOL    HW218780   2.896   4.122  10.130  0.2505  0.7031  0.4645
 2441SOL     OW18781   2.952   1.690   4.622 -0.5603  0.0381  0.5731
 2441SOL    HW118782   2.921   1.777   4.647 -3.6442 -0.4366 -1.5444
 2441SOL    HW218783   2.961   1.696   4.527  2.1619  1.2201  0.9019
 2442SOL     OW18784   0.884   0.109  10.566 -0.0470 -0.3373  0.2701
 2442SOL    HW118785   0.838   0.058  10.632 -1.9222  0.1187 -0.7001
 2442SOL    HW218786   0.871   0.195  10.606  0.9952  0.0984 -0.3223
 2443SOL     OW18787   4.419   0.235   2.487  0.4000 -0.3918  0.1404
 2443SOL    HW118788   4.339   0.219   2.536  1.1562 -0.7900  1.2490
 2443SOL    HW218789   4.408   0.170   2.417  0.4196  0.6529 -0.8385
 2444SOL     OW18790   1.270   3.984   7.048 -0.0606  0.0867  0.0815
 2444SOL    HW118791   1.271   3.945   7.135  0.0985 -1.5955 -0.6752
 2444SOL    HW218792   1.176   3.995   7.031 -0.3830  0.2438  1.9918
 2445SOL     OW18793   0.801   0.983   6.751 -0.1990 -0.0364  0.3284
 2445SOL    HW118794   0.849   1.014   6.674 -1.2889  1.0353  0.0754
 2445SOL    HW218795   0.829   1.053   6.811  2.1271 -0.3416 -0.3941
 2446SOL     OW18796   1.622   2.447   6.688 -0.4166 -0.2339  0.3829
 2446SOL    HW118797   1.530   2.422   6.692  0.1668 -2.3060  0.6226
 2446SOL    HW218798   1.613   2.474   6.597 -1.5758  1.7404  1.0776
 2447SOL     OW18799   2.160   3.567  10.489 -0.2891 -0.4421  0.5115
 2447SOL    HW118800   2.084   3.583  10.433 -0.1736 -0.8916  0.2279
 2447SOL    HW218801   2.128   3.604  10.571  2.5849  1.4979  0.7430
 2448SOL     OW18802   0.412   4.048  13.922 -0.1199 -0.3162  0.3665
 2448SOL    HW118803   0.350   3.990  13.967  0.4655 -0.8991  0.4261
 2448SOL    HW218804   0.411   4.010  13.834 -0.5393  0.4752  0.0367
 2449SOL     OW18805   2.591   3.477   0.162 -0.0852  0.0314  0.0974
 2449SOL    HW118806   2.681   3.454   0.143  0.7322  2.0536  1.5619
 2449SOL    HW218807   2.554   3.390   0.144 -0.2414 -0.2541  1.8032
 2450SOL     OW18808   0.120   2.845   8.032 -0.2106 -0.6577 -0.4005
 2450SOL    HW118809   0.154   2.929   8.000 -0.5185 -0.2065  0.4702
 2450SOL    HW218810   0.028   2.866   8.046 -0.0129  1.2557 -1.8829
 2451SOL     OW18811   4.165   2.428   1.140 -0.1337  0.0516  0.1180
 2451SOL    HW118812   4.086   2.473   1.171 -1.0329  0.0054 -2.1179
 2451SOL    HW218813   4.156   2.441   1.046  2.9613 -0.6623 -0.2842
 2452SOL     OW18814   0.081   1.627  12.167 -0.3518  0.3558 -0.1641
 2452SOL    HW118815   0.153   1.650  12.226  0.6309 -0.5476 -1.0239
 2452SOL    HW218816   0.097   1.533  12.157  1.1401  0.8251 -2.1657
 2453SOL     OW18817   4.299   1.361   3.862  0.6640  0.0149 -0.3496
 2453SOL    HW118818   4.204   1.367   3.853  0.4073 -1.4444  1.3644
 2453SOL    HW218819   4.310   1.297   3.932 -0.1497 -4.1926 -4.0278
 2454SOL     OW18820   0.370   0.424  13.587  0.0230  0.2086  0.5602
 2454SOL    HW118821   0.323   0.447  13.507  1.5868 -1.4130 -0.8267
 2454SOL    HW218822   0.354   0.330  13.574 -0.4998  0.2079  1.2326
 2455SOL     OW18823   3.126   2.136   4.351 -0.0421 -0.5878 -0.5345
 2455SOL    HW118824   3.186   2.210   4.365  1.2566 -1.8252  0.4638
 2455SOL    HW218825   3.183   2.082   4.297 -0.4033 -0.1061 -1.3858
 2456SOL     OW18826   2.804   4.501   7.492 -0.3663 -0.5970 -0.4353
 2456SOL    HW118827   2.783   4.575   7.549 -0.4961 -1.1188  0.2020
 2456SOL    HW218828   2.825   4.422   7.542 -0.6379  1.3734  2.7897
 2457SOL     OW18829   2.848   0.088  13.319 -0.4195  0.3774  0.3450
 2457SOL    HW118830   2.826   0.154  13.253 -1.0215  1.1240  1.2903
 2457SOL    HW218831   2.852   0.145  13.395 -0.2751 -0.4654  0.9690
 2458SOL     OW18832   1.878   4.207   9.602  0.1503 -0.7737 -0.1891
 2458SOL    HW118833   1.836   4.276   9.550 -0.4426 -1.6314 -0.8462
 2458SOL    HW218834   1.918   4.262   9.669 -2.6408  1.7197 -0.5790
 2459SOL     OW18835   2.295   1.452   6.247 -0.1156  0.3810  0.2762
 2459SOL    HW118836   2.290   1.357   6.239  0.2467  0.4614 -0.9279
 2459SOL    HW218837   2.388   1.475   6.251 -0.6069  2.7495 -1.8717
 2460SOL     OW18838   2.072   0.811   1.141  0.2126 -0.3070  0.1358
 2460SOL    HW118839   2.036   0.765   1.065 -1.0642  0.9587 -0.0268
 2460SOL    HW218840   2.005   0.772   1.196 -0.3453  1.9478  1.0638
 2461SOL     OW18841   1.654   0.363   2.886  0.0635 -0.2812 -0.0944
 2461SOL    HW118842   1.696   0.279   2.869  0.0246 -0.7321  2.1637
 2461SOL    HW218843   1.628   0.394   2.799  0.7643  1.8584  0.4706
 2462SOL     OW18844   0.357   2.401   4.500 -0.1101  0.2312 -0.3087
 2462SOL    HW118845   0.288   2.343   4.531  1.8482 -1.9298  0.0031
 2462SOL    HW218846   0.347   2.479   4.556 -2.7776 -0.0871 -0.3451
 2463SOL     OW18847   0.219   2.463   4.285 -0.0299  0.4744 -0.5235
 2463SOL    HW118848   0.296   2.461   4.343 -0.7352 -1.4565  0.3578
 2463SOL    HW218849   0.199   2.370   4.291  2.3797 -0.0812 -1.0619
 2464SOL     OW18850   1.838   2.597   5.375  0.7117  0.0689  0.3070
 2464SOL    HW118851   1.882   2.555   5.449 -2.4643  1.0583  2.7553
 2464SOL    HW218852   1.759   2.544   5.371  0.6090  0.1331  1.5644
 2465SOL     OW18853   4.395   0.625  14.576  0.4164 -0.4546  0.2921
 2465SOL    HW118854   4.320   0.683  14.587  1.2188  0.7167 -0.3729
 2465SOL    HW218855   4.391   0.608  14.481 -0.2675 -0.8719  0.3962
 2466SOL     OW18856   1.721   3.425   7.462 -0.6025 -0.1387 -0.6977
 2466SOL    HW118857   1.656   3.467   7.407 -0.3671  0.5774 -0.4384
 2466SOL    HW218858   1.695   3.336   7.438  0.7076 -1.1907  1.7781
 2467SOL     OW18859   4.601   2.659   1.140 -0.2438  0.1545 -0.2361
 2467SOL    HW118860   4.542   2.735   1.136  0.4780  0.8499  2.5580
 2467SOL    HW218861   4.564   2.621   1.219  1.4510  0.5742  0.7626
 2468SOL     OW18862   2.109   1.271  10.986 -0.1297 -0.4767  0.1912
 2468SOL    HW118863   2.055   1.334  10.938 -0.2151  0.9284  2.1334
 2468SOL    HW218864   2.051   1.196  10.989 -2.2543  1.2248  1.8589
 2469SOL     OW18865   0.655   0.480   0.094  0.2245 -0.3431  0.5737
 2469SOL    HW118866   0.648   0.529   0.176  1.8214  1.0793 -0.1364
 2469SOL    HW218867   0.604   0.535   0.036 -0.1641  0.3668  1.5860
 2470SOL     OW18868   2.300   2.018   8.496 -0.0952  0.0002 -0.2563
 2470SOL    HW118869   2.283   1.999   8.404 -0.8125 -2.4013  0.3758
 2470SOL    HW218870   2.218   1.989   8.534  0.7941 -1.0734  0.8524
 2471SOL     OW18871   0.560   0.074  15.250  0.2385 -0.0892 -0.1867
 2471SOL    HW118872   0.543   4.713  15.290 -3.1164  0.5164 -0.4068
 2471SOL    HW218873   0.482   0.122  15.279  0.4585 -1.1250  2.1193
 2472SOL     OW18874   2.417   0.790   4.144 -0.3131 -0.2680  0.3354
 2472SOL    HW118875   2.501   0.776   4.188 -0.9719  0.1594  1.7284
 2472SOL    HW218876   2.444   0.781   4.052 -0.6901  2.4589 -0.0354
 2473SOL     OW18877   2.804   1.196   5.756  0.2662  0.5189  0.3996
 2473SOL    HW118878   2.724   1.149   5.734  0.6656  0.2585 -0.4695
 2473SOL    HW218879   2.782   1.275   5.706 -0.1085 -0.8533 -1.6013
 2474SOL     OW18880   3.614   1.912   5.636 -0.8770 -0.4487 -0.3189
 2474SOL    HW118881   3.626   1.885   5.545  0.6572  2.7280 -1.0752
 2474SOL    HW218882   3.648   2.002   5.636  1.3436 -1.2937 -1.3423
 2475SOL     OW18883   3.511   2.599   7.520  0.0633 -0.4340 -0.2301
 2475SOL    HW118884   3.427   2.643   7.530  0.2475 -0.3290  0.9120
 2475SOL    HW218885   3.490   2.547   7.443  0.7125  0.5349 -1.0672
 2476SOL     OW18886   0.769   0.702   5.205  0.3734  0.5414  0.1687
 2476SOL    HW118887   0.715   0.689   5.283 -0.0008  0.3078 -0.1305
 2476SOL    HW218888   0.856   0.709   5.247  0.8517  1.8670 -1.0629
 2477SOL     OW18889   3.347   0.908   8.110  0.2111 -0.6128  0.2979
 2477SOL    HW118890   3.326   0.839   8.173 -1.0145 -1.4434 -0.9973
 2477SOL    HW218891   3.436   0.884   8.084  1.1616  1.6943  1.4454
 2478SOL     OW18892   1.509   2.421   9.963  0.3376  0.6579  0.0070
 2478SOL    HW118893   1.575   2.368   9.918 -0.9003  0.1596 -1.2379
 2478SOL    HW218894   1.473   2.356  10.022  0.7653  0.0009 -0.4570
 2479SOL     OW18895   1.563   3.291  16.928  0.4018 -0.0280 -0.2716
 2479SOL    HW118896   1.531   3.277  17.017  0.7242  0.3211 -0.1008
 2479SOL    HW218897   1.624   3.217  16.922  0.2034 -0.1836 -0.3739
 2480SOL     OW18898   2.488   3.818   3.725 -0.0734 -0.2795 -0.0347
 2480SOL    HW118899   2.437   3.753   3.677  0.6225 -0.9688  0.1473
 2480SOL    HW218900   2.571   3.819   3.676 -0.0363  1.6417  0.0765
 2481SOL     OW18901   1.591   1.042  13.605 -0.3111  0.3091 -0.7016
 2481SOL    HW118902   1.684   1.034  13.626 -0.3666 -0.0025 -0.5734
 2481SOL    HW218903   1.561   0.991  13.680 -0.8635  1.0864 -0.3871
 2482SOL     OW18904   0.529   3.551   3.598 -0.0932  0.5268  0.1375
 2482SOL    HW118905   0.463   3.491   3.565  0.1397  0.1683  0.3277
 2482SOL    HW218906   0.533   3.615   3.527  2.4281 -0.4454 -0.6028
 2483SOL     OW18907   1.123   1.620   2.885  0.1005  1.0925 -0.3490
 2483SOL    HW118908   1.163   1.687   2.830 -2.2306  0.1557 -3.1473
 2483SOL    HW218909   1.033   1.653   2.885 -0.7798 -1.2158  1.1201
 2484SOL     OW18910   0.482   1.490  11.648  0.2534  0.4019  0.0427
 2484SOL    HW118911   0.393   1.457  11.638  0.3651 -0.2415  1.1769
 2484SOL    HW218912   0.476   1.542  11.729  0.8153 -1.6188  1.3704
 2485SOL     OW18913   4.323   1.330  16.116  0.2107  0.6976 -0.1612
 2485SOL    HW118914   4.362   1.244  16.097  0.7082  1.0155 -0.5677
 2485SOL    HW218915   4.230   1.322  16.100 -0.0909  2.6202  0.6580
 2486SOL     OW18916   3.637   0.273  16.255 -0.1962 -0.7201 -0.1945
 2486SOL    HW118917   3.583   0.298  16.181 -0.6212 -0.5384  0.1755
 2486SOL    HW218918   3.574   0.226  16.310 -0.3729  0.4266  0.5943
 2487SOL     OW18919   3.616   4.552   9.413 -0.1681 -0.4643  0.2674
 2487SOL    HW118920   3.610   4.637   9.457  0.8434  0.9953 -2.4158
 2487SOL    HW218921   3.523   4.530   9.400  0.3306 -1.1164 -2.2204
 2488SOL     OW18922   1.956   2.484   4.144  0.6247 -0.5437  0.5718
 2488SOL    HW118923   1.909   2.402   4.132  0.1902 -0.5782  2.5228
 2488SOL    HW218924   2.033   2.455   4.192  2.1420  1.3305 -0.7201
 2489SOL     OW18925   2.129   3.268   7.953 -0.0183  0.0613  0.5505
 2489SOL    HW118926   2.179   3.202   8.001  1.2366  1.1866  0.8027
 2489SOL    HW218927   2.198   3.322   7.915 -1.1683  1.0724 -0.0909
 2490SOL     OW18928   3.599   1.014  13.363 -0.0916  0.2185  0.2075
 2490SOL    HW118929   3.526   1.062  13.323  0.8066  1.3275 -0.0890
 2490SOL    HW218930   3.669   1.079  13.357  0.2612 -0.2222 -0.4328
 2491SOL     OW18931   0.265   4.131   6.333 -0.4685 -0.0319 -0.1740
 2491SOL    HW118932   0.349   4.093   6.360 -0.7719  0.0563  0.8856
 2491SOL    HW218933   0.249   4.196   6.401  0.1473  2.8856 -2.7971
 2492SOL     OW18934   3.387   3.037   8.416  0.2120  0.7692 -0.1280
 2492SOL    HW118935   3.377   3.055   8.323 -0.1432 -1.0666 -0.4519
 2492SOL    HW218936   3.476   3.072   8.418  0.3798  0.2495  1.9249
 2493SOL     OW18937   1.689   4.592   2.723  0.5303  0.1501  0.2244
 2493SOL    HW118938   1.657   4.562   2.637  0.7879 -0.9780  0.5161
 2493SOL    HW218939   1.684   4.516   2.781  1.5260 -0.1159 -0.0439
 2494SOL     OW18940   1.346   1.590   7.771  0.3937 -0.3555  0.2984
 2494SOL    HW118941   1.276   1.653   7.788 -1.9165 -2.3848 -1.6453
 2494SOL    HW218942   1.404   1.659   7.738 -1.9196  1.1331 -0.6393
 2495SOL     OW18943   0.772   2.040  11.284  0.4770 -0.2918  0.2560
 2495SOL    HW118944   0.773   2.110  11.349  0.1752  0.1055 -0.1606
 2495SOL    HW218945   0.786   2.101  11.212 -0.9651 -1.1487 -0.7577
 2496SOL     OW18946   1.874   1.189   6.649  0.2390  0.0733 -0.0286
 2496SOL    HW118947   1.883   1.095   6.632 -1.6922  0.2164 -1.7816
 2496SOL    HW218948   1.783   1.210   6.629  0.5357  1.3713 -0.0119
 2497SOL     OW18949   1.295   1.057  16.467 -0.3586  0.6102 -0.0566
 2497SOL    HW118950   1.317   1.116  16.539  0.8688  2.4237 -1.9493
 2497SOL    HW218951   1.254   1.120  16.409 -1.8984  0.1535  0.5010
 2498SOL     OW18952   1.856   2.760   7.078 -0.3905 -0.8497  0.1006
 2498SOL    HW118953   1.778   2.710   7.104 -0.3913 -2.0209 -2.0577
 2498SOL    HW218954   1.847   2.837   7.133 -1.1490  1.2935 -3.0164
 2499SOL     OW18955   2.273   3.151   4.036  0.5531  0.1871  0.1415
 2499SOL    HW118956   2.256   3.240   4.005 -0.6938 -0.3222 -0.5839
 2499SOL    HW218957   2.341   3.169   4.101  0.6206 -0.4251  0.2351
 2500SOL     OW18958   1.424   3.440  14.158  0.5955  0.5699  0.1051
 2500SOL    HW118959   1.412   3.355  14.201  1.9533  0.4586  0.2705
 2500SOL    HW218960   1.400   3.425  14.066  0.1489 -0.9491  0.4678
 2501SOL     OW18961   2.041   3.667   4.783  0.1196  1.1510  0.2033
 2501SOL    HW118962   2.017   3.660   4.691  1.6031 -0.7081 -0.0383
 2501SOL    HW218963   1.990   3.743   4.810 -0.3031  1.7112 -2.1708
 2502SOL     OW18964   2.748   1.832   5.580 -1.3116 -0.6267 -0.0016
 2502SOL    HW118965   2.676   1.771   5.562 -1.8307  0.0259 -0.1578
 2502SOL    HW218966   2.704   1.916   5.563  0.9206  0.5474  0.0251
 2503SOL     OW18967   3.030   4.319  13.669 -0.2164 -0.0667 -0.2046
 2503SOL    HW118968   2.935   4.308  13.673 -0.3752  1.9298  1.4176
 2503SOL    HW218969   3.044   4.327  13.574 -0.0342 -1.8782 -0.3334
 2504SOL     OW18970   1.822   1.440   3.453 -0.4524  0.5589 -0.0067
 2504SOL    HW118971   1.886   1.369   3.449  0.5195  1.4932 -1.0819
 2504SOL    HW218972   1.813   1.447   3.358  0.6662  2.5115  0.0410
 2505SOL     OW18973   1.437   0.185   1.965  0.1817  0.0599  0.0649
 2505SOL    HW118974   1.457   0.091   1.965  1.6370  0.3669 -0.0141
 2505SOL    HW218975   1.414   0.203   1.874 -2.1726 -1.2201  0.3862
 2506SOL     OW18976   2.857   3.900  16.394 -1.2171  0.2688  0.2309
 2506SOL    HW118977   2.934   3.870  16.345 -1.0670 -0.9685  1.2147
 2506SOL    HW218978   2.842   3.981  16.346 -0.3425  0.5486  0.4190
 2507SOL     OW18979   3.001   3.375   7.727 -0.4149 -0.4337  0.2212
 2507SOL    HW118980   2.920   3.424   7.715  1.1227  1.6114 -1.9366
 2507SOL    HW218981   3.055   3.438   7.774 -0.4348 -1.0065  1.0230
 2508SOL     OW18982   3.553   2.422   5.758  0.1463 -0.7997  0.2594
 2508SOL    HW118983   3.601   2.391   5.835 -2.7664 -0.4109  2.2030
 2508SOL    HW218984   3.614   2.486   5.721  2.1105 -1.4818  2.3268
 2509SOL     OW18985   0.088   2.346   7.540  0.2146  0.1039  0.1629
 2509SOL    HW118986   0.106   2.256   7.566  2.6981  0.2315 -1.0772
 2509SOL    HW218987   4.716   2.344   7.529  0.1468  0.1794  0.7366
 2510SOL     OW18988   4.089   4.394   2.759  0.1217  0.1704  0.4567
 2510SOL    HW118989   4.099   4.415   2.666 -2.1635 -0.1134  0.1398
 2510SOL    HW218990   4.174   4.421   2.794  0.6344  0.1178 -0.7499
 2511SOL     OW18991   0.361   2.453  10.896 -0.5742 -0.1947 -0.2038
 2511SOL    HW118992   0.448   2.413  10.887 -0.6952 -0.8698  1.5639
 2511SOL    HW218993   0.315   2.399  10.832 -0.0099 -0.5200 -0.3373
 2512SOL     OW18994   1.673   1.314   4.515 -0.4685 -0.2377 -0.5909
 2512SOL    HW118995   1.631   1.268   4.443 -1.7544  0.6051 -0.3733
 2512SOL    HW218996   1.642   1.272   4.595 -2.6804  0.3467 -1.1546
 2513SOL     OW18997   1.268   0.332   1.398  0.2602  0.3544  0.1342
 2513SOL    HW118998   1.216   0.362   1.324  0.8525  0.8560 -0.0759
 2513SOL    HW218999   1.238   0.383   1.473 -0.4922  0.7397 -0.4263
 2514SOL     OW19000   1.919   3.416   8.541  0.4681  0.4016 -0.5001
 2514SOL    HW119001   1.899   3.322   8.540 -0.5762  0.6418 -1.4177
 2514SOL    HW219002   1.974   3.431   8.464  0.4956  2.0345 -0.1618
 2515SOL     OW19003   4.487   2.061   7.965  0.1790  0.2466  0.1329
 2515SOL    HW119004   4.508   2.125   7.897 -2.1647 -0.4985 -1.2990
 2515SOL    HW219005   4.433   2.118   8.020  0.3491  2.5326 -2.1241
 2516SOL     OW19006   1.035   1.464  10.356  0.0987 -0.0582  0.3012
 2516SOL    HW119007   0.973   1.415  10.304  0.7305 -1.8820  1.2787
 2516SOL    HW219008   0.965   1.507  10.406  0.3035 -0.8888  1.3047
 2517SOL     OW19009   0.152   3.796   6.210 -0.6287 -0.5705 -0.3263
 2517SOL    HW119010   0.233   3.845   6.193  0.0856 -0.8246  2.2567
 2517SOL    HW219011   0.152   3.812   6.305  2.8295 -1.1912 -0.2275
 2518SOL     OW19012   1.502   4.647   6.015  0.1108 -0.0771 -0.1004
 2518SOL    HW119013   1.551   4.586   6.070 -1.0321 -0.1777  0.7928
 2518SOL    HW219014   1.469   4.583   5.951 -0.9435  1.6613 -1.3144
 2519SOL     OW19015   1.137   4.463   6.107 -0.4684  0.4899  0.3064
 2519SOL    HW119016   1.044   4.441   6.103 -0.2056 -0.5039 -0.4372
 2519SOL    HW219017   1.168   4.373   6.099  1.9681  1.2451  1.4014
 2520SOL     OW19018   3.188   4.152   5.733 -0.1820  0.1416 -0.2699
 2520SOL    HW119019   3.164   4.213   5.803  0.8085 -0.7593  0.8551
 2520SOL    HW219020   3.142   4.075   5.767 -0.1482 -0.2528 -1.1339
 2521SOL     OW19021   4.168   2.303  16.914  0.5736  0.1497  0.3782
 2521SOL    HW119022   4.140   2.296  16.823  0.9981  0.4232  0.2261
 2521SOL    HW219023   4.238   2.237  16.912  0.7411  0.3543 -0.8691
 2522SOL     OW19024   3.499   1.440   4.558 -0.6476  0.4498  0.5770
 2522SOL    HW119025   3.546   1.359   4.573  0.3443  0.7273 -1.0056
 2522SOL    HW219026   3.419   1.427   4.610 -1.5355  0.7610 -0.7106
 2523SOL     OW19027   2.285   0.490   2.639 -0.0286 -0.1640  0.1631
 2523SOL    HW119028   2.369   0.527   2.666  0.2617 -0.4275 -0.3712
 2523SOL    HW219029   2.303   0.396   2.642 -0.9038 -0.3560 -0.3809
 2524SOL     OW19030   0.375   2.734   5.030  0.1058 -0.2293 -0.8877
 2524SOL    HW119031   0.320   2.737   4.951 -0.4115 -0.0474 -0.5235
 2524SOL    HW219032   0.305   2.726   5.095  0.9631  0.8964  0.1661
 2525SOL     OW19033   1.674   0.794   6.011  0.2437  0.4608  0.3298
 2525SOL    HW119034   1.661   0.784   5.917 -0.7893 -1.5664  0.6868
 2525SOL    HW219035   1.671   0.699   6.028 -1.1213  0.5815  0.7856
 2526SOL     OW19036   3.247   0.873   6.859 -0.0904  0.3097 -0.1183
 2526SOL    HW119037   3.218   0.961   6.884 -0.1209 -0.1733  1.5535
 2526SOL    HW219038   3.341   0.886   6.848 -0.3369  2.3538  0.2799
 2527SOL     OW19039   3.240   4.033   2.344  0.4607 -0.2824  0.2759
 2527SOL    HW119040   3.253   4.121   2.308 -1.1858  0.3711  1.3295
 2527SOL    HW219041   3.263   3.982   2.266  1.4638  1.3944 -0.5401
 2528SOL     OW19042   3.729   3.779   6.570 -0.1126  0.8233 -0.1013
 2528SOL    HW119043   3.637   3.792   6.593 -0.4008  2.1708 -2.0258
 2528SOL    HW219044   3.719   3.708   6.506 -1.0801  0.4429  0.4608
 2529SOL     OW19045   1.784   0.341  16.938 -0.0105 -0.1515 -0.6450
 2529SOL    HW119046   1.866   0.291  16.932 -0.4326 -0.9758  0.4104
 2529SOL    HW219047   1.804   0.409  16.874 -0.9926  1.5268  0.8543
 2530SOL     OW19048   4.541   2.833   8.702 -0.4973 -0.2643  0.1498
 2530SOL    HW119049   4.468   2.864   8.649  0.1127  0.1065 -0.4736
 2530SOL    HW219050   4.563   2.916   8.745 -0.2917 -0.4802  0.4656
 2531SOL     OW19051   2.946   0.023   7.945  0.2988 -0.9359  0.1220
 2531SOL    HW119052   2.863   0.062   7.918  1.2699  0.2478 -1.1105
 2531SOL    HW219053   2.978   0.079   8.016  3.2164 -1.4006 -0.8427
 2532SOL     OW19054   0.851   0.791   7.477  0.1104  0.0180  0.0989
 2532SOL    HW119055   0.788   0.763   7.544  1.1333  1.3396  1.6245
 2532SOL    HW219056   0.900   0.708   7.477  1.2913  0.7130  0.2214
 2533SOL     OW19057   3.670   0.263  11.687  0.3361  0.7383 -0.1081
 2533SOL    HW119058   3.717   0.344  11.706  0.4759  0.5861  0.1975
 2533SOL    HW219059   3.593   0.294  11.639  0.5770  0.9783 -0.3437
 2534SOL     OW19060   3.204   2.951   3.555  0.4720  0.1781  0.1334
 2534SOL    HW119061   3.287   2.908   3.535 -0.0562  0.1157 -1.9520
 2534SOL    HW219062   3.206   2.962   3.650  0.3400 -2.7582  0.4912
 2535SOL     OW19063   3.294   1.226   6.294 -0.1167  0.3461 -0.0518
 2535SOL    HW119064   3.226   1.206   6.229 -0.0271 -1.3852  0.3649
 2535SOL    HW219065   3.250   1.287   6.352 -0.1668 -0.4916  0.7966
 2536SOL     OW19066   3.616   2.128   6.334  0.5045  0.3181 -0.1038
 2536SOL    HW119067   3.573   2.151   6.416 -0.4083  2.6989 -1.2459
 2536SOL    HW219068   3.557   2.150   6.262  0.9332  0.0640 -0.5325
 2537SOL     OW19069   1.257   2.268   6.092  0.5696  0.1787  0.0999
 2537SOL    HW119070   1.285   2.265   6.184  0.5916 -2.1107  0.0238
 2537SOL    HW219071   1.176   2.218   6.105  0.1146  0.7084 -0.7354
 2538SOL     OW19072   4.499   2.416   8.604 -0.1014  0.3817 -0.1292
 2538SOL    HW119073   4.584   2.423   8.559  0.3905  2.0272  1.0377
 2538SOL    HW219074   4.482   2.492   8.659  0.1546  1.0290 -0.9449
 2539SOL     OW19075   2.273   1.559   8.221 -0.4457  0.3233  0.3196
 2539SOL    HW119076   2.234   1.580   8.136 -1.6458  1.1970  1.0898
 2539SOL    HW219077   2.365   1.576   8.203 -0.0388 -3.4026 -1.1622
 2540SOL     OW19078   1.383   0.096  14.157 -0.2015 -0.1626  0.0413
 2540SOL    HW119079   1.312   0.117  14.097 -0.9955  2.6276  1.9370
 2540SOL    HW219080   1.335   0.074  14.237 -0.5027 -1.0323 -0.3787
 2541SOL     OW19081   4.658   0.709   6.512  0.0985  0.2044  0.4277
 2541SOL    HW119082   4.600   0.641   6.547  1.0114 -0.6944  0.1997
 2541SOL    HW219083   4.598   0.784   6.504  1.5123  1.1268 -1.6789
 2542SOL     OW19084   1.123   3.300   0.733 -0.2380  0.4277 -0.4266
 2542SOL    HW119085   1.217   3.316   0.723 -0.4070  2.5644  1.3639
 2542SOL    HW219086   1.102   3.347   0.814 -1.0941 -1.2916  0.3564
 2543SOL     OW19087   4.598   1.510   7.127  0.3389  0.6314 -0.1592
 2543SOL    HW119088   4.555   1.457   7.060  0.7860 -0.0084  0.0647
 2543SOL    HW219089   4.669   1.448   7.142  0.4227  0.2971 -1.9256
 2544SOL     OW19090   0.252   0.515   4.523 -0.8570 -0.3203  0.2650
 2544SOL    HW119091   0.170   0.489   4.565 -0.8887  1.4510  1.2821
 2544SOL    HW219092   0.296   0.431   4.506 -1.5256 -1.1446  2.6107
 2545SOL     OW19093   2.516   4.572   4.927  0.4067  0.2123  0.4535
 2545SOL    HW119094   2.604   4.570   4.889  0.8751  0.2546  1.5166
 2545SOL    HW219095   2.474   4.516   4.862  0.2050  0.2207  0.5762
 2546SOL     OW19096   1.075   3.715  16.089 -0.0018 -0.0830  0.8259
 2546SOL    HW119097   1.098   3.623  16.096 -1.1572 -0.4280 -0.0071
 2546SOL    HW219098   1.061   3.750  16.177  1.9542  0.9357  0.7338
 2547SOL     OW19099   1.120   2.677  17.528 -0.2820  0.2415 -0.3308
 2547SOL    HW119100   1.053   2.639  17.472 -1.4550 -0.4470  1.5501
 2547SOL    HW219101   1.069   2.747  17.569 -2.6388 -1.2696 -0.6769
 2548SOL     OW19102   2.052   3.335   3.332 -0.2447  0.2464  0.4948
 2548SOL    HW119103   2.118   3.403   3.339 -0.3874  0.2423  1.8727
 2548SOL    HW219104   2.034   3.322   3.239 -1.3534  2.2865  0.4266
 2549SOL     OW19105   4.074   3.618   4.473  0.1304 -0.1511  0.3973
 2549SOL    HW119106   4.024   3.550   4.518 -0.0697  0.3330  0.8908
 2549SOL    HW219107   4.007   3.642   4.410 -0.6026 -1.3177  0.7318
 2550SOL     OW19108   4.292   3.764   1.964  0.5493  0.1051  0.0161
 2550SOL    HW119109   4.318   3.739   1.875  1.6791 -1.2226  0.7199
 2550SOL    HW219110   4.273   3.682   2.008  0.8880  0.3918  0.6889
 2551SOL     OW19111   2.582   0.490   6.529  0.0810  0.2801 -0.2140
 2551SOL    HW119112   2.633   0.541   6.467 -1.1903 -0.1525 -1.6080
 2551SOL    HW219113   2.641   0.437   6.583  0.2492  0.0851 -0.5978
 2552SOL     OW19114   2.372   3.268   4.501 -0.1576  0.0220  0.2153
 2552SOL    HW119115   2.358   3.362   4.504 -0.3796  0.0644 -1.9803
 2552SOL    HW219116   2.311   3.247   4.572  0.0872 -0.6139  0.2428
 2553SOL     OW19117   2.459   0.534   8.319 -0.2325 -0.4601 -0.3054
 2553SOL    HW119118   2.487   0.580   8.398 -1.0752  0.7605 -0.7252
 2553SOL    HW219119   2.373   0.500   8.345  0.0558 -1.2315 -0.3449
 2554SOL     OW19120   4.046   0.985   2.979  0.5731  0.5489 -0.0859
 2554SOL    HW119121   4.065   0.911   2.921  0.6336  0.1117  0.4951
 2554SOL    HW219122   4.136   1.011   3.000  1.9673 -2.4395 -2.2624
 2555SOL     OW19123   1.976   4.530  10.358  0.1636  0.0180 -0.1827
 2555SOL    HW119124   1.961   4.479  10.437  3.4711  0.4335  0.7349
 2555SOL    HW219125   2.034   4.473  10.307  0.8020  1.9394 -1.6069
 2556SOL     OW19126   3.162   2.771   6.404  0.1827 -0.2101  0.1830
 2556SOL    HW119127   3.244   2.754   6.452  0.0258  1.4391  1.0559
 2556SOL    HW219128   3.099   2.767   6.476  2.3054  2.3009  2.2345
 2557SOL     OW19129   3.893   4.387   8.686  0.6388 -0.0877  0.1637
 2557SOL    HW119130   3.894   4.475   8.723 -0.6149  0.1451 -0.3390
 2557SOL    HW219131   3.905   4.330   8.762 -0.9070 -0.3703  0.1944
 2558SOL     OW19132   1.291   3.274   1.612 -0.0027  0.4640 -0.0345
 2558SOL    HW119133   1.380   3.239   1.621  0.6356  2.1688  0.2492
 2558SOL    HW219134   1.303   3.366   1.592  0.4741 -0.0834 -2.3207
 2559SOL     OW19135   0.075   4.655   8.666 -0.4828 -0.1694 -0.1169
 2559SOL    HW119136   0.029   4.642   8.583  0.4743 -0.5727 -0.5837
 2559SOL    HW219137   0.158   4.695   8.641 -1.8258  2.6701 -0.0699
 2560SOL     OW19138   4.051   3.797   6.827  0.3597  0.6352 -0.0033
 2560SOL    HW119139   3.958   3.787   6.843  0.3165  1.5181  0.2879
 2560SOL    HW219140   4.070   3.704   6.825 -0.4407  0.4694  0.2216
 2561SOL     OW19141   3.654   1.058   5.266  0.2432 -0.1805 -0.1125
 2561SOL    HW119142   3.695   0.996   5.206  1.0979  0.4713 -0.2046
 2561SOL    HW219143   3.684   1.135   5.218 -0.1634 -0.0334 -0.1338
 2562SOL     OW19144   0.439   3.097   3.497  0.0292 -0.4160  0.3056
 2562SOL    HW119145   0.478   3.126   3.415  2.5705  0.0266  1.6564
 2562SOL    HW219146   0.410   3.181   3.530  1.5346  0.0683  0.3918
 2563SOL     OW19147   4.245   1.374   2.996 -0.4764 -0.2390 -0.1731
 2563SOL    HW119148   4.325   1.398   2.949  0.7967 -1.3049  1.4411
 2563SOL    HW219149   4.195   1.453   2.975 -0.2176  0.1678  0.7232
 2564SOL     OW19150   4.675   4.188   1.855 -0.1177  0.0937 -0.1092
 2564SOL    HW119151   0.004   4.205   1.933  0.9351  0.8903 -0.9761
 2564SOL    HW219152   4.633   4.105   1.875  0.4535 -0.4730 -1.2002
 2565SOL     OW19153   3.920   0.345  10.453 -0.1082  0.6099  0.0990
 2565SOL    HW119154   3.911   0.258  10.415 -2.3649  1.0610 -0.3944
 2565SOL    HW219155   3.989   0.393  10.407 -0.5595  1.1067 -0.0563
 2566SOL     OW19156   1.039   4.148  10.096  0.0942 -0.4403  0.1209
 2566SOL    HW119157   1.019   4.101  10.177  0.9706 -0.9152  0.0604
 2566SOL    HW219158   1.018   4.240  10.111  1.0473 -0.2662  0.3796
 2567SOL     OW19159   3.349   3.947   9.531  0.4405 -0.2799  0.0910
 2567SOL    HW119160   3.281   3.922   9.467 -0.1053  1.9525 -0.1760
 2567SOL    HW219161   3.349   4.042   9.526 -1.8146 -0.3415 -1.2120
 2568SOL     OW19162   2.700   0.313   2.764  0.5471  0.1147  0.0210
 2568SOL    HW119163   2.667   0.249   2.702 -4.5127  0.4249  2.4191
 2568SOL    HW219164   2.682   0.396   2.720 -1.5891 -0.0680  0.5239
 2569SOL     OW19165   1.749   0.867   4.054  0.2778  0.0222 -0.0349
 2569SOL    HW119166   1.715   0.795   4.001  1.8219 -1.7026  1.3065
 2569SOL    HW219167   1.829   0.896   4.008  0.9525 -2.7596 -0.6031
 2570SOL     OW19168   1.385   3.276  14.617  0.3067  0.4866  0.0880
 2570SOL    HW119169   1.329   3.321  14.681  1.7148  0.1564  1.5476
 2570SOL    HW219170   1.439   3.349  14.588 -0.1556 -0.6476 -3.5553
 2571SOL     OW19171   0.194   3.747   5.311 -0.8477  0.1702  0.5651
 2571SOL    HW119172   0.211   3.835   5.275  1.2993  0.2769  1.8416
 2571SOL    HW219173   0.212   3.681   5.244  0.4130 -0.0517  1.1239
 2572SOL     OW19174   4.068   3.372  15.363 -0.0745  0.1227  0.3733
 2572SOL    HW119175   4.151   3.342  15.325 -0.6863 -0.0181 -0.8686
 2572SOL    HW219176   4.005   3.302  15.346  0.8132 -0.3232 -1.0941
 2573SOL     OW19177   3.126   3.405   4.964  0.1915 -0.0289 -0.4108
 2573SOL    HW119178   3.127   3.481   4.907 -0.8771 -0.7596 -1.4136
 2573SOL    HW219179   3.075   3.438   5.038 -1.1952  0.6806 -1.6813
 2574SOL     OW19180   4.239   2.295   7.000 -0.7102 -0.2382  0.4046
 2574SOL    HW119181   4.197   2.264   7.080  0.6482  0.1044  1.2418
 2574SOL    HW219182   4.324   2.327   7.029 -0.7135  0.7416 -0.6600
 2575SOL     OW19183   0.805   1.772  16.580 -0.4523 -0.1422  0.0649
 2575SOL    HW119184   0.810   1.853  16.629 -1.0722 -0.3390  0.4500
 2575SOL    HW219185   0.857   1.796  16.503 -0.7487 -0.3314 -0.1943
 2576SOL     OW19186   1.837   1.190  10.956  0.1684 -0.8103  0.4483
 2576SOL    HW119187   1.811   1.103  10.984  0.5300  0.4721  4.7799
 2576SOL    HW219188   1.826   1.178  10.861  0.4371  0.6326  0.2224
 2577SOL     OW19189   1.687   4.331   8.733 -0.3098  0.5547  0.4745
 2577SOL    HW119190   1.654   4.411   8.692 -1.1711  0.9638  1.9571
 2577SOL    HW219191   1.622   4.262   8.730 -0.2687  0.4831  1.2347
 2578SOL     OW19192   4.081   0.703  15.138 -0.1450 -0.1850 -0.1741
 2578SOL    HW119193   4.136   0.640  15.185 -1.0401  1.3785  2.9282
 2578SOL    HW219194   4.050   0.649  15.064 -1.1348 -0.6037  0.5544
 2579SOL     OW19195   0.950   1.113   2.112  0.1647 -0.5005  0.1860
 2579SOL    HW119196   0.971   1.084   2.023  2.0030 -0.1252  0.4898
 2579SOL    HW219197   0.950   1.209   2.108  1.6322 -0.5431 -0.8972
 2580SOL     OW19198   1.536   0.467  11.503 -0.9411  0.5473 -0.0657
 2580SOL    HW119199   1.619   0.496  11.466 -1.2363  0.4186 -0.8421
 2580SOL    HW219200   1.479   0.520  11.447 -1.9444  1.0199  1.3950
 2581SOL     OW19201   2.224   0.214   9.499 -0.3443  0.0437  0.3124
 2581SOL    HW119202   2.285   0.287   9.511  0.5772 -0.4851 -1.2163
 2581SOL    HW219203   2.137   0.254   9.496 -1.1233 -1.6111  0.8299
 2582SOL     OW19204   2.623   3.100   3.028  0.3371 -0.1656 -0.1512
 2582SOL    HW119205   2.678   3.084   3.104 -0.5071 -2.7299 -0.0428
 2582SOL    HW219206   2.602   3.011   2.999  1.9334 -0.7213  0.3831
 2583SOL     OW19207   0.879   0.102   6.446  0.3170 -0.5658  0.5102
 2583SOL    HW119208   0.958   0.054   6.472  0.6562  0.2981  1.0920
 2583SOL    HW219209   0.886   0.095   6.351  2.1134  0.5906  0.5550
 2584SOL     OW19210   4.320   2.879  15.522 -0.4966  0.3676  0.6234
 2584SOL    HW119211   4.302   2.904  15.613 -1.5295 -0.9360  0.7693
 2584SOL    HW219212   4.411   2.854  15.538 -0.5657 -0.3087 -0.0596
 2585SOL     OW19213   4.053   4.240   3.001  0.0973 -0.5467  0.4675
 2585SOL    HW119214   4.097   4.301   2.941 -3.4699  1.1845 -0.3673
 2585SOL    HW219215   4.091   4.270   3.083 -0.2022  2.7534 -0.5940
 2586SOL     OW19216   3.053   2.939   8.218 -0.5762  0.2366  0.1624
 2586SOL    HW119217   3.033   2.974   8.305  1.1960  0.1294  0.6269
 2586SOL    HW219218   2.969   2.963   8.179 -0.4115 -0.5803 -0.6788
 2587SOL     OW19219   2.462   3.423   3.286  0.0851 -0.4033  0.3753
 2587SOL    HW119220   2.374   3.446   3.255  1.4850  2.7646 -1.2831
 2587SOL    HW219221   2.519   3.445   3.212  0.2084 -0.8968  0.3268
 2588SOL     OW19222   2.948   2.311  17.215 -0.6307 -0.6246  0.1694
 2588SOL    HW119223   2.905   2.323  17.131 -0.0252 -4.6539 -0.6752
 2588SOL    HW219224   2.959   2.216  17.213 -0.1877 -0.5986  1.3025
 2589SOL     OW19225   3.468   1.340  11.038 -0.2407 -0.5487 -0.3122
 2589SOL    HW119226   3.563   1.336  11.035 -0.2902 -0.7695 -1.6848
 2589SOL    HW219227   3.448   1.433  11.042  2.5773  0.0544 -0.2331
 2590SOL     OW19228   3.205   2.126  15.287  0.3703  0.1778  0.2029
 2590SOL    HW119229   3.215   2.056  15.351  3.3894  1.7752  1.4989
 2590SOL    HW219230   3.201   2.196  15.352 -2.2151 -0.1720  0.4397
 2591SOL     OW19231   3.850   3.415   6.126  0.5834  0.2021 -0.0987
 2591SOL    HW119232   3.846   3.367   6.043 -1.1646  0.2535 -0.0502
 2591SOL    HW219233   3.878   3.342   6.182  3.2462  1.2256 -0.1225
 2592SOL     OW19234   1.034   0.365   0.377  0.3281  0.6938  0.0070
 2592SOL    HW119235   0.976   0.340   0.305  1.8439 -3.1066  0.0842
 2592SOL    HW219236   1.098   0.418   0.331  0.4567  0.7935  0.2976
 2593SOL     OW19237   3.338   0.688  13.092  0.1516  0.1456 -0.0289
 2593SOL    HW119238   3.412   0.634  13.065  0.4299  2.1942 -3.4316
 2593SOL    HW219239   3.300   0.629  13.156  1.5039 -0.6469  0.0510
 2594SOL     OW19240   2.518   0.609   5.128  0.7136  0.5786  0.0257
 2594SOL    HW119241   2.531   0.639   5.038  3.8449  1.3007  0.7080
 2594SOL    HW219242   2.423   0.610   5.138  0.5158 -1.8607 -1.5970
 2595SOL     OW19243   0.182   1.791   2.801  0.0648  0.2265 -0.0208
 2595SOL    HW119244   0.153   1.703   2.777 -1.2568  1.0475 -1.4402
 2595SOL    HW219245   0.148   1.801   2.890  0.0651  3.1864 -0.3651
 2596SOL     OW19246   0.484   3.354   1.374 -0.8286  0.0823  0.1864
 2596SOL    HW119247   0.446   3.280   1.420 -1.2521  0.9187  1.1798
 2596SOL    HW219248   0.475   3.327   1.283 -3.0639 -0.9186  0.7148
 2597SOL     OW19249   2.655   4.360   3.363  0.6724  0.3366  0.1784
 2597SOL    HW119250   2.729   4.332   3.309 -1.5095 -0.3884 -2.4395
 2597SOL    HW219251   2.696   4.366   3.449  0.0511  1.9799  0.3437
 2598SOL     OW19252   0.110   3.047   5.916  0.2206 -0.2332  0.2073
 2598SOL    HW119253   0.066   2.967   5.885  2.6856 -1.5282  0.1017
 2598SOL    HW219254   0.184   3.037   5.856  1.0633  1.8467  0.8989
 2599SOL     OW19255   1.673   1.236   1.427 -0.1705  0.4469  0.0132
 2599SOL    HW119256   1.602   1.249   1.365  0.8311 -0.0487 -1.2436
 2599SOL    HW219257   1.741   1.204   1.368 -0.5445 -0.5982  0.1555
 2600SOL     OW19258   0.190   1.222   8.286  0.4817  0.7880  0.9514
 2600SOL    HW119259   0.232   1.223   8.372  2.2582 -0.6750  0.1007
 2600SOL    HW219260   0.118   1.162   8.305  0.7871  0.4580  1.0687
 2601SOL     OW19261   2.537   3.479   9.191  0.0644  0.1190  0.4609
 2601SOL    HW119262   2.470   3.547   9.193 -0.4167 -0.3557  0.8017
 2601SOL    HW219263   2.516   3.441   9.106 -0.1621  0.5010  0.3472
 2602SOL     OW19264   2.333   4.413   9.035 -0.0814  0.2757 -0.3441
 2602SOL    HW119265   2.296   4.412   9.123  0.3582 -2.7501 -0.2132
 2602SOL    HW219266   2.386   4.493   9.029 -1.1333  1.1409  2.0103
 2603SOL     OW19267   4.231   3.040  13.801 -0.4803 -0.1149  0.1250
 2603SOL    HW119268   4.274   3.125  13.802 -1.0138  0.1192  3.5261
 2603SOL    HW219269   4.267   3.000  13.880  2.1346  1.6531 -0.1555
 2604SOL     OW19270   3.570   1.811  16.151  0.4300 -0.0076  0.2628
 2604SOL    HW119271   3.547   1.901  16.129  0.4089  0.3316  1.7004
 2604SOL    HW219272   3.657   1.812  16.111  1.1208 -0.0715  1.7624
 2605SOL     OW19273   3.564   0.325   7.534 -0.1103  0.1066  0.4397
 2605SOL    HW119274   3.474   0.316   7.565  0.0938 -0.6418  0.8194
 2605SOL    HW219275   3.553   0.311   7.440  0.5632  1.0403  0.2304
 2606SOL     OW19276   2.747   1.713   9.680 -0.2895 -0.1191  0.0314
 2606SOL    HW119277   2.812   1.777   9.649  1.2185 -1.0367  1.3081
 2606SOL    HW219278   2.764   1.707   9.774  1.4270 -0.2276 -0.2774
 2607SOL     OW19279   1.027   4.130   7.047  0.8135 -0.2560  0.5112
 2607SOL    HW119280   0.947   4.133   7.099 -0.2590 -0.0393 -1.1424
 2607SOL    HW219281   1.081   4.145   7.124  1.0345 -0.1230  0.3299
 2608SOL     OW19282   3.818   3.543  15.523  0.2555 -0.5566 -0.0402
 2608SOL    HW119283   3.763   3.498  15.460 -0.1700 -1.3230  0.8798
 2608SOL    HW219284   3.759   3.532  15.597  0.4797 -3.6330 -0.3335
 2609SOL     OW19285   4.192   1.093   5.513 -0.4571  0.2175  0.5413
 2609SOL    HW119286   4.131   1.128   5.578  0.1486 -1.0837  1.8310
 2609SOL    HW219287   4.276   1.109   5.556 -0.9924 -1.4891  2.2443
 2610SOL     OW19288   3.667   0.718   5.764 -0.2261 -0.5698 -0.8139
 2610SOL    HW119289   3.695   0.799   5.805  3.0990 -0.5529 -3.0857
 2610SOL    HW219290   3.752   0.675   5.766 -0.2986 -0.5374  2.3389
 2611SOL     OW19291   0.456   4.361   8.886  0.0051  0.1521 -0.0665
 2611SOL    HW119292   0.529   4.380   8.945 -1.6751  1.9941  1.4574
 2611SOL    HW219293   0.388   4.416   8.926 -2.4731 -4.1853  1.6823
 2612SOL     OW19294   1.656   1.617  12.769  0.3603 -0.2164 -0.1823
 2612SOL    HW119295   1.628   1.535  12.729 -0.3317  0.0247 -0.1911
 2612SOL    HW219296   1.670   1.681  12.699  0.3545  1.2773  1.1782
 2613SOL     OW19297   4.299   1.851  12.601 -1.0372  0.6137  0.0874
 2613SOL    HW119298   4.392   1.875  12.597 -0.9178  0.3822  1.4322
 2613SOL    HW219299   4.256   1.923  12.649 -1.6203  1.4130 -1.6401
 2614SOL     OW19300   1.004   0.395   3.860 -0.2385  0.0154 -0.7079
 2614SOL    HW119301   1.014   0.462   3.927 -0.4019  0.2615 -0.9293
 2614SOL    HW219302   1.097   0.372   3.861 -0.3488 -0.4597 -1.9145
 2615SOL     OW19303   0.562   2.700   1.791 -0.2117  0.2520  0.1126
 2615SOL    HW119304   0.577   2.606   1.780 -1.6258  0.1726 -1.1644
 2615SOL    HW219305   0.566   2.737   1.703  0.9219 -1.2130 -0.4586
 2616SOL     OW19306   4.589   3.934  15.597  0.5155  0.3636 -0.1390
 2616SOL    HW119307   4.497   3.920  15.616  0.2553 -0.4186 -1.9511
 2616SOL    HW219308   4.622   3.859  15.646 -0.2681 -1.3382 -2.1952
 2617SOL     OW19309   1.319   1.257   0.423  0.1127 -0.0586 -0.0067
 2617SOL    HW119310   1.303   1.212   0.340 -0.6586 -1.9353  1.1553
 2617SOL    HW219311   1.373   1.330   0.392 -0.7704  1.2664  1.6025
 2618SOL     OW19312   1.414   0.168  12.157 -0.1383 -0.2967  0.0610
 2618SOL    HW119313   1.324   0.199  12.167 -0.1420 -0.6200  0.9911
 2618SOL    HW219314   1.417   0.172  12.061  0.0427  1.4678  0.1286
 2619SOL     OW19315   3.519   3.666   1.326 -0.3523  0.2186 -0.2273
 2619SOL    HW119316   3.572   3.726   1.274 -0.2546 -0.2350 -0.6515
 2619SOL    HW219317   3.526   3.585   1.275 -0.3666  0.0915 -0.0265
 2620SOL     OW19318   0.629   1.835   1.441  0.3544 -0.0689 -0.1314
 2620SOL    HW119319   0.707   1.880   1.408  0.6552 -0.0175  0.6544
 2620SOL    HW219320   0.561   1.850   1.375  0.0396  0.3989  0.2966
 2621SOL     OW19321   0.877   2.144  10.833 -0.1625 -0.3875 -0.4364
 2621SOL    HW119322   0.922   2.196  10.767 -1.2599  1.8822  0.6073
 2621SOL    HW219323   0.812   2.101  10.777  0.0050  0.5550 -1.3484
 2622SOL     OW19324   0.668   0.705   4.210 -1.0768  0.5328 -0.2853
 2622SOL    HW119325   0.634   0.791   4.236  3.4822  2.1712  0.3349
 2622SOL    HW219326   0.676   0.721   4.116  0.3202 -4.1104 -0.9685
 2623SOL     OW19327   0.253   2.787   0.547  0.0514 -0.6693 -0.0315
 2623SOL    HW119328   0.346   2.766   0.541 -0.5610 -2.9211 -1.4856
 2623SOL    HW219329   0.247   2.869   0.595 -1.4478 -1.3901  1.0144
 2624SOL     OW19330   2.084   0.837   8.254 -0.1495  0.3008  0.5159
 2624SOL    HW119331   2.098   0.778   8.329 -0.0712 -0.8564 -0.4141
 2624SOL    HW219332   2.084   0.926   8.289 -1.5118  0.1827  0.8236
 2625SOL     OW19333   1.139   3.853   0.397 -0.2574 -0.5019  0.2326
 2625SOL    HW119334   1.105   3.911   0.329  0.5995 -1.0795 -0.6865
 2625SOL    HW219335   1.234   3.855   0.385 -0.4790  0.0878 -1.3983
 2626SOL     OW19336   1.782   1.128   8.490 -0.6158 -0.1275 -0.4111
 2626SOL    HW119337   1.702   1.089   8.454 -0.4422 -1.9532  1.1734
 2626SOL    HW219338   1.803   1.202   8.433 -2.4088  0.5821 -0.1611
 2627SOL     OW19339   3.037   3.514   8.831  0.3082  0.0708  0.2548
 2627SOL    HW119340   3.039   3.423   8.800 -0.8224  0.2708 -0.4099
 2627SOL    HW219341   3.032   3.492   8.924  0.6750  1.0040  0.4965
 2628SOL     OW19342   2.128   3.278   3.727  0.3728  0.6920 -0.0968
 2628SOL    HW119343   2.137   3.189   3.762 -0.8946 -0.5808 -2.9979
 2628SOL    HW219344   2.152   3.262   3.636  0.5606  1.3170 -0.1518
 2629SOL     OW19345   3.551   1.330   9.056  0.5792 -0.0131  0.6148
 2629SOL    HW119346   3.504   1.412   9.044 -0.4812 -0.5228  1.3625
 2629SOL    HW219347   3.487   1.260   9.042  1.9102 -0.5852 -2.6794
 2630SOL     OW19348   2.313   0.227   7.460  0.0765  0.1846 -0.3860
 2630SOL    HW119349   2.401   0.198   7.484  0.2175  0.5146 -0.5067
 2630SOL    HW219350   2.274   0.235   7.547  1.3204 -0.0029  0.1841
 2631SOL     OW19351   0.833   2.520  13.752 -0.2983 -0.1346 -0.1324
 2631SOL    HW119352   0.874   2.546  13.669 -1.2814 -0.5714 -0.7503
 2631SOL    HW219353   0.904   2.531  13.816 -1.4287 -2.0677  1.4836
 2632SOL     OW19354   4.331   2.703   7.138  0.3692 -0.0065  0.6038
 2632SOL    HW119355   4.271   2.651   7.191 -0.6085 -0.9655 -1.4317
 2632SOL    HW219356   4.320   2.791   7.173  0.3480  0.4312 -0.4940
 2633SOL     OW19357   0.137   0.053   7.721 -0.0078 -0.0017 -0.1546
 2633SOL    HW119358   0.193   0.117   7.765 -1.1210  0.1233  1.1004
 2633SOL    HW219359   0.104   0.100   7.645 -1.8802  0.3676  0.8958
 2634SOL     OW19360   1.908   4.458   3.873  0.0781  0.4614  0.3599
 2634SOL    HW119361   1.866   4.383   3.915  3.6818 -1.6583  0.2309
 2634SOL    HW219362   1.898   4.523   3.942 -2.9094 -0.8172  1.1433
 2635SOL     OW19363   2.224   3.128   5.111  0.3120 -0.1760 -0.0637
 2635SOL    HW119364   2.319   3.142   5.112  0.0485  1.7732 -1.0958
 2635SOL    HW219365   2.212   3.033   5.116  0.8934 -0.3873 -2.4245
 2636SOL     OW19366   0.202   1.241   9.073 -0.4172 -0.1100 -0.1386
 2636SOL    HW119367   0.256   1.313   9.107 -1.6782  0.6712  0.2372
 2636SOL    HW219368   0.137   1.228   9.142  0.1345 -2.3856 -0.0600
 2637SOL     OW19369   0.172   0.645  12.812 -0.2286 -0.4261  0.1005
 2637SOL    HW119370   0.172   0.562  12.859  0.0873 -0.0936  0.6914
 2637SOL    HW219371   0.077   0.658  12.812 -0.2404 -0.5163  0.2579
 2638SOL     OW19372   0.861   0.792  12.166 -0.0805 -0.5797 -0.5004
 2638SOL    HW119373   0.802   0.815  12.238  2.6509 -0.5852  1.7894
 2638SOL    HW219374   0.947   0.816  12.202 -1.4264 -0.0799  2.3509
 2639SOL     OW19375   0.981   1.177   8.428  0.3067 -0.3548  0.3467
 2639SOL    HW119376   1.077   1.176   8.420  0.4593 -0.5300  2.2839
 2639SOL    HW219377   0.963   1.084   8.443  1.4037 -0.8266 -1.2185
 2640SOL     OW19378   1.321   4.363   7.864 -0.9099 -0.9498 -0.7116
 2640SOL    HW119379   1.349   4.321   7.782  0.0573  2.2503 -2.0238
 2640SOL    HW219380   1.229   4.378   7.844 -0.7137  2.3093  0.9505
 2641SOL     OW19381   3.237   3.692   3.785 -0.1991 -0.1160  0.3230
 2641SOL    HW119382   3.180   3.768   3.794 -1.8127 -1.2835  0.0690
 2641SOL    HW219383   3.309   3.745   3.752 -0.8094  0.5299  0.0375
 2642SOL     OW19384   4.071   1.129   3.406 -0.2997 -0.4931  0.5170
 2642SOL    HW119385   4.085   1.171   3.321  2.6632  2.9407  2.6645
 2642SOL    HW219386   4.150   1.074   3.413  0.7006  0.9256  0.3928
 2643SOL     OW19387   1.252   0.459   8.332  0.4762  0.1906 -0.3981
 2643SOL    HW119388   1.317   0.525   8.308  1.4077 -1.0608 -1.3291
 2643SOL    HW219389   1.220   0.441   8.243  2.0364  2.3642 -1.4148
 2644SOL     OW19390   2.697   1.873   8.470  0.0225  0.1218 -0.5208
 2644SOL    HW119391   2.759   1.946   8.469  0.4828 -0.2747 -0.7666
 2644SOL    HW219392   2.711   1.825   8.552 -1.5070 -0.9027 -0.8727
 2645SOL     OW19393   4.417   2.491   8.008 -0.1712 -0.4779 -0.0489
 2645SOL    HW119394   4.476   2.510   8.081  0.3627  0.9758 -0.8672
 2645SOL    HW219395   4.386   2.403   8.031 -3.0946  0.3896 -0.6433
 2646SOL     OW19396   4.098   1.420   4.245  0.0394 -0.2875  0.0140
 2646SOL    HW119397   4.179   1.432   4.197 -0.2443  0.9341 -0.1485
 2646SOL    HW219398   4.133   1.366   4.316  0.7641 -1.2943 -1.0988
 2647SOL     OW19399   0.643   0.156   1.181  0.0022  0.2396 -0.1341
 2647SOL    HW119400   0.677   0.103   1.253 -1.5087 -1.2122 -0.4812
 2647SOL    HW219401   0.555   0.180   1.208 -0.1335 -2.4686  1.8119
 2648SOL     OW19402   3.091   3.007   5.534  0.3698 -0.2488 -0.4362
 2648SOL    HW119403   3.074   3.096   5.564 -3.9873 -1.4631  0.7353
 2648SOL    HW219404   3.020   2.959   5.576  2.2633 -2.2328  0.5039
 2649SOL     OW19405   1.702   0.034  11.963 -0.8146 -0.1105  0.1896
 2649SOL    HW119406   1.614   0.065  11.945 -0.2688  0.6078 -1.2227
 2649SOL    HW219407   1.700   4.710  12.047 -1.6691  0.0090  0.2368
 2650SOL     OW19408   2.430   0.476   0.347 -0.3671  0.1978  0.0604
 2650SOL    HW119409   2.521   0.446   0.354  0.5729  3.2137  0.8193
 2650SOL    HW219410   2.430   0.511   0.258 -2.5833  0.7507  0.2871
 2651SOL     OW19411   3.030   3.020   4.053  0.5742 -0.2516  0.2286
 2651SOL    HW119412   3.124   3.038   4.054  0.3688  0.8466  0.3359
 2651SOL    HW219413   3.006   3.106   4.018  0.3948  0.1375  1.3088
 2652SOL     OW19414   0.809   2.067  12.484 -0.2145  0.4580  0.1955
 2652SOL    HW119415   0.721   2.043  12.511 -0.4951 -0.2619 -1.3833
 2652SOL    HW219416   0.848   1.983  12.460 -0.9951  0.1299  0.1058
 2653SOL     OW19417   1.918   2.452   3.263  0.2228  0.7398 -0.0926
 2653SOL    HW119418   1.891   2.535   3.302 -0.2891  0.9934 -0.9960
 2653SOL    HW219419   2.013   2.465   3.271  0.5720 -0.1039 -2.9247
 2654SOL     OW19420   4.440   4.236   9.745  0.4291  0.0755 -0.4314
 2654SOL    HW119421   4.359   4.270   9.709  0.3135 -2.0015 -2.1512
 2654SOL    HW219422   4.475   4.311   9.793  0.1784  0.4610 -0.8493
 2655SOL     OW19423   2.824   4.080   2.891 -0.2357 -0.4932 -0.0067
 2655SOL    HW119424   2.893   4.112   2.949 -0.7254  2.9624 -1.3235
 2655SOL    HW219425   2.784   4.164   2.868 -0.5441 -1.2638 -2.2948
 2656SOL     OW19426   3.730   2.542   8.601  0.3884 -0.6172 -0.0207
 2656SOL    HW119427   3.680   2.490   8.665 -0.5028 -1.1950 -1.1849
 2656SOL    HW219428   3.757   2.612   8.660 -0.9592  0.3842 -0.6011
 2657SOL     OW19429   0.180   1.467   6.650  0.7435  0.0170  0.2480
 2657SOL    HW119430   0.182   1.535   6.718 -1.3420 -0.2919  0.6162
 2657SOL    HW219431   0.267   1.428   6.662  1.2063  0.5063 -1.5880
 2658SOL     OW19432   1.692   4.066   6.380 -0.1911 -0.2713  0.2288
 2658SOL    HW119433   1.749   4.023   6.316  1.4838  1.9496  0.2491
 2658SOL    HW219434   1.700   4.008   6.456  0.9282 -2.2098 -1.3782
 2659SOL     OW19435   2.256   1.142   6.743 -0.1222 -0.2959  0.1607
 2659SOL    HW119436   2.182   1.109   6.794 -0.3287 -2.1152 -1.3091
 2659SOL    HW219437   2.281   1.069   6.687 -0.7754  1.4671 -2.4372
 2660SOL     OW19438   4.716   2.523   5.805 -0.0429  0.1731 -0.0024
 2660SOL    HW119439   0.076   2.540   5.849  0.2925 -0.1790 -0.5061
 2660SOL    HW219440   4.675   2.488   5.884  0.7004 -0.1884  0.2179
 2661SOL     OW19441   1.383   4.461  15.389 -0.6480 -0.0043  0.0961
 2661SOL    HW119442   1.345   4.415  15.314 -0.0129  0.5095 -0.5349
 2661SOL    HW219443   1.319   4.452  15.459 -0.9884 -0.4316 -0.2693
 2662SOL     OW19444   2.564   1.671   6.512  0.0638 -0.3097  0.3559
 2662SOL    HW119445   2.578   1.596   6.454  1.7834  0.4845 -0.2426
 2662SOL    HW219446   2.484   1.698   6.466 -0.5008 -2.1334  0.2590
 2663SOL     OW19447   1.262   2.233   5.143  0.3634 -0.5535  0.0807
 2663SOL    HW119448   1.198   2.304   5.140  1.4384  0.4732  1.4042
 2663SOL    HW219449   1.342   2.279   5.117 -0.7841  1.0158 -0.6329
 2664SOL     OW19450   3.929   0.660  10.404 -0.0196  0.2531 -0.3965
 2664SOL    HW119451   3.847   0.619  10.376  0.5446  0.6758 -2.6344
 2664SOL    HW219452   3.946   0.628  10.493 -0.0976  3.4049  0.7380
 2665SOL     OW19453   0.659   4.332   5.970  0.0132 -0.2388  0.5762
 2665SOL    HW119454   0.629   4.361   6.056  0.1488  0.5012  0.3718
 2665SOL    HW219455   0.586   4.360   5.915 -0.0255 -1.3546  0.0392
 2666SOL     OW19456   3.450   2.621  14.288  0.2824  0.0582 -0.6227
 2666SOL    HW119457   3.421   2.530  14.277 -3.2978  1.0731  0.5562
 2666SOL    HW219458   3.445   2.657  14.199 -1.9760 -0.5891 -0.7511
 2667SOL     OW19459   1.402   2.188   1.282 -0.2176 -0.0228  0.1451
 2667SOL    HW119460   1.453   2.107   1.277 -1.1261 -0.5116 -1.0718
 2667SOL    HW219461   1.343   2.185   1.207 -0.4242 -0.3982  0.3223
 2668SOL     OW19462   3.028   1.151   6.586 -0.0817  0.5763 -0.2123
 2668SOL    HW119463   3.036   1.059   6.610  0.2662  0.4130 -0.9432
 2668SOL    HW219464   2.984   1.196   6.658 -1.4279 -1.6376  0.3263
 2669SOL     OW19465   0.381   1.587   6.320 -0.2139  0.5948 -0.4618
 2669SOL    HW119466   0.337   1.511   6.358 -2.1683  1.2624 -1.4138
 2669SOL    HW219467   0.322   1.608   6.248 -1.1819 -0.6138 -0.0199
 2670SOL     OW19468   0.662   4.325  14.328  0.2148  0.3491  0.2687
 2670SOL    HW119469   0.703   4.261  14.269 -0.2320  0.7487 -0.4768
 2670SOL    HW219470   0.571   4.315  14.300  0.5088  0.2578 -0.6604
 2671SOL     OW19471   4.187   1.861   0.859  0.6184  0.1239  0.2433
 2671SOL    HW119472   4.116   1.796   0.859  0.2316  0.5536  1.7502
 2671SOL    HW219473   4.158   1.926   0.923 -1.5104 -1.1985  0.6386
 2672SOL     OW19474   3.743   1.861   2.572  0.2134  0.4584  0.4872
 2672SOL    HW119475   3.680   1.874   2.502 -0.9666 -0.4709  1.3792
 2672SOL    HW219476   3.811   1.823   2.516 -0.2066 -1.7482  1.4805
 2673SOL     OW19477   3.321   3.751   8.397  0.0969  0.0377 -0.6514
 2673SOL    HW119478   3.405   3.725   8.435  1.1803  1.6231 -1.9992
 2673SOL    HW219479   3.344   3.774   8.307  0.8832  2.0333  0.0774
 2674SOL     OW19480   1.651   0.876   8.588 -0.1112 -0.0318 -0.4980
 2674SOL    HW119481   1.579   0.911   8.641  1.0627  0.8086  0.5274
 2674SOL    HW219482   1.654   0.786   8.620 -2.6116  0.3693  0.9261
 2675SOL     OW19483   2.224   2.427  12.482 -0.1060 -0.0511  0.1669
 2675SOL    HW119484   2.291   2.485  12.447 -0.7724  0.5741 -0.0702
 2675SOL    HW219485   2.271   2.344  12.480  0.1870  0.1192  0.0139
 2676SOL     OW19486   1.000   0.520   9.099  0.3359 -0.5318 -0.3827
 2676SOL    HW119487   1.076   0.477   9.138  1.1137  0.5358 -0.6909
 2676SOL    HW219488   0.933   0.457   9.125 -0.0098 -0.8057 -1.9454
 2677SOL     OW19489   1.233   1.451  11.610  0.0727  0.1218 -0.5563
 2677SOL    HW119490   1.287   1.474  11.535  0.6246  3.0801  0.7450
 2677SOL    HW219491   1.162   1.406  11.566  1.9386 -1.6021 -1.7922
 2678SOL     OW19492   4.461   3.039   4.745  0.2718 -0.2870  0.1390
 2678SOL    HW119493   4.372   3.071   4.757  0.4814 -0.0142  0.9995
 2678SOL    HW219494   4.446   2.944   4.742 -0.8592 -0.1439  1.1494
 2679SOL     OW19495   3.728   4.311   8.191  0.1990  0.1716  0.2622
 2679SOL    HW119496   3.723   4.407   8.197 -1.5909  0.0533  0.8541
 2679SOL    HW219497   3.649   4.280   8.236 -1.6991  3.1147 -0.9988
 2680SOL     OW19498   1.723   1.454   4.203 -0.2100  0.1062 -0.1063
 2680SOL    HW119499   1.758   1.366   4.185 -1.9409 -0.4456 -0.8066
 2680SOL    HW219500   1.737   1.494   4.117  2.2811  0.0105  0.2375
 2681SOL     OW19501   3.092   2.469   4.937  0.1744 -0.5003 -0.2447
 2681SOL    HW119502   3.029   2.397   4.926  0.5639 -1.1215  1.6107
 2681SOL    HW219503   3.034   2.520   4.994  0.4595 -3.0267  2.3458
 2682SOL     OW19504   2.965   1.411  16.151  0.4869 -0.4028  0.6265
 2682SOL    HW119505   2.985   1.499  16.185  0.2761  0.1005 -0.5272
 2682SOL    HW219506   2.960   1.436  16.058  1.3209  1.3264  1.0247
 2683SOL     OW19507   4.086   1.459  12.843  0.0871  0.3483 -0.0571
 2683SOL    HW119508   4.109   1.482  12.752 -0.5694 -0.2130 -0.3631
 2683SOL    HW219509   4.159   1.499  12.891 -0.3898 -0.9209  1.7073
 2684SOL     OW19510   0.639   1.409  14.322 -0.2563 -0.4081 -0.0822
 2684SOL    HW119511   0.725   1.369  14.335  0.1103  0.4307  0.1447
 2684SOL    HW219512   0.584   1.336  14.350 -0.4806 -0.3333 -0.3266
 2685SOL     OW19513   2.693   3.425   2.405  0.1446  0.3004  0.0332
 2685SOL    HW119514   2.633   3.426   2.331  1.4498  1.6909 -1.0059
 2685SOL    HW219515   2.728   3.336   2.414 -0.4858  0.0878  0.3947
 2686SOL     OW19516   2.212   4.089   7.227 -0.0841  0.0868 -0.8082
 2686SOL    HW119517   2.273   4.061   7.158 -1.0443 -1.8015 -0.9092
 2686SOL    HW219518   2.263   4.059   7.303 -0.5048  1.9276  0.2009
 2687SOL     OW19519   2.592   1.254   9.210 -0.8852  0.3626 -0.2329
 2687SOL    HW119520   2.547   1.223   9.131 -2.0146  2.8966 -0.5848
 2687SOL    HW219521   2.630   1.341   9.200  0.2152 -0.2101 -1.1211
 2688SOL     OW19522   4.013   2.109  16.668  0.2642 -0.1214 -0.1466
 2688SOL    HW119523   4.049   2.196  16.652  0.7001 -0.4946 -1.1983
 2688SOL    HW219524   3.920   2.123  16.650  0.5053  1.0776 -0.4316
 2689SOL     OW19525   0.383   1.218   2.546 -0.4937 -0.0409  0.9203
 2689SOL    HW119526   0.293   1.221   2.577 -0.1883 -0.3989  1.8225
 2689SOL    HW219527   0.428   1.270   2.613 -1.4147 -0.0479  1.5416
 2690SOL     OW19528   4.326   3.869   7.782  0.2335 -0.6289  0.4285
 2690SOL    HW119529   4.242   3.877   7.736 -0.2094 -2.4557  0.9065
 2690SOL    HW219530   4.303   3.917   7.861  0.4029 -1.1674  0.8012
 2691SOL     OW19531   4.090   3.081   9.855  0.4008  0.9548  0.8358
 2691SOL    HW119532   4.057   3.039   9.934  2.2012  1.5465  1.8912
 2691SOL    HW219533   4.117   3.007   9.800  2.6397  2.8686 -0.6620
 2692SOL     OW19534   3.589   3.249   3.309 -0.0503 -0.3823  0.6561
 2692SOL    HW119535   3.652   3.180   3.288 -0.6056 -0.1667 -1.6350
 2692SOL    HW219536   3.550   3.204   3.385 -1.9318  0.2741  0.0836
 2693SOL     OW19537   0.294   1.521   2.661 -0.5244  0.4065  0.3258
 2693SOL    HW119538   0.292   1.510   2.756  0.3144 -1.3834  0.1315
 2693SOL    HW219539   0.374   1.473   2.640 -0.4269  0.0551  1.5218
 2694SOL     OW19540   1.658   2.607   3.592  0.1874  0.3353 -0.0846
 2694SOL    HW119541   1.579   2.591   3.540  0.6538 -2.1326 -0.0321
 2694SOL    HW219542   1.637   2.568   3.677 -1.0981 -1.4583 -1.2289
 2695SOL     OW19543   4.398   4.501   6.718  0.3905  0.0482  0.3819
 2695SOL    HW119544   4.404   4.548   6.802  0.2892  0.5448  0.1125
 2695SOL    HW219545   4.357   4.420   6.749 -0.1000 -0.3393 -1.3027
 2696SOL     OW19546   3.703   1.586   4.372  0.4587 -0.0666  0.0964
 2696SOL    HW119547   3.793   1.554   4.385 -0.6367 -2.8025  1.0127
 2696SOL    HW219548   3.661   1.517   4.424  2.8471  0.2114  2.3943
 2697SOL     OW19549   1.076   2.497  15.480  0.0849 -0.0132  0.3088
 2697SOL    HW119550   1.100   2.423  15.536  0.8236 -0.6453 -0.8484
 2697SOL    HW219551   1.150   2.495  15.420  0.1108 -1.1658  0.3762
 2698SOL     OW19552   1.001   4.596  17.105  0.1899 -0.4754 -0.3898
 2698SOL    HW119553   1.027   4.684  17.080  3.1129 -1.0788  0.4893
 2698SOL    HW219554   0.978   4.557  17.021 -1.4157  1.3748 -0.8054
 2699SOL     OW19555   3.920   0.807   7.792  0.5545  0.0719 -0.2388
 2699SOL    HW119556   3.923   0.809   7.887 -1.9903 -1.5571 -0.1139
 2699SOL    HW219557   3.930   0.900   7.776  1.5169 -0.2425 -1.4470
 2700SOL     OW19558   2.474   4.454   4.677 -0.4738  0.1393 -0.3288
 2700SOL    HW119559   2.385   4.437   4.645 -0.9336  0.4098  0.8009
 2700SOL    HW219560   2.511   4.491   4.597  0.9616 -0.2926  0.1428
 2701SOL     OW19561   0.737   2.661  12.146  0.2823 -0.0615  0.2684
 2701SOL    HW119562   0.719   2.568  12.160 -4.1841  0.4525 -2.1502
 2701SOL    HW219563   0.782   2.681  12.229 -0.8354 -0.5457  0.9806
 2702SOL     OW19564   4.526   3.484   7.366  0.0120  0.5569  0.2391
 2702SOL    HW119565   4.532   3.390   7.346 -0.3487  0.3931  0.8894
 2702SOL    HW219566   4.479   3.522   7.292  1.7909 -1.0202 -1.6967
 2703SOL     OW19567   4.095   4.439   9.346 -0.2663  0.0245  0.2005
 2703SOL    HW119568   4.003   4.413   9.340 -0.1198 -0.3417 -0.4621
 2703SOL    HW219569   4.109   4.422   9.439  2.0692  1.4696  0.1428
 2704SOL     OW19570   0.476   2.535  11.285 -0.2737 -1.2131 -0.3297
 2704SOL    HW119571   0.498   2.443  11.268  1.1455 -0.9854  0.2898
 2704SOL    HW219572   0.560   2.577  11.266 -0.7101 -0.9750 -1.7203
 2705SOL     OW19573   1.494   3.881   5.077 -0.1877 -0.7503 -0.3760
 2705SOL    HW119574   1.402   3.907   5.070 -0.0038  0.0496  0.1358
 2705SOL    HW219575   1.491   3.786   5.090 -1.1127 -0.9711 -2.1338
 2706SOL     OW19576   3.090   0.830   8.991 -0.1403 -0.5404 -0.2593
 2706SOL    HW119577   3.063   0.916   9.024  0.2475 -1.9328  3.6827
 2706SOL    HW219578   3.176   0.836   9.033  0.1734  0.9914 -1.0987
 2707SOL     OW19579   1.784   3.951   9.483  0.6475 -0.6665 -0.3053
 2707SOL    HW119580   1.816   3.976   9.570  1.5300 -0.0394 -0.8153
 2707SOL    HW219581   1.726   4.017   9.447 -0.0153 -1.1931 -0.2029
 2708SOL     OW19582   2.860   0.934   8.283  0.0848  0.5346 -0.3765
 2708SOL    HW119583   2.930   0.993   8.311 -0.9184  0.9759  1.2105
 2708SOL    HW219584   2.860   0.935   8.187  1.3809  1.5927 -0.3628
 2709SOL     OW19585   0.627   3.052   1.827  0.3561 -0.2546  0.4864
 2709SOL    HW119586   0.590   3.036   1.914  0.5544 -2.1547  0.2205
 2709SOL    HW219587   0.546   3.047   1.776 -0.1534  1.4988  1.1104
 2710SOL     OW19588   1.260   4.607   2.810  0.4349 -0.0364 -0.4891
 2710SOL    HW119589   1.272   4.623   2.716  0.7566 -0.8123 -0.5834
 2710SOL    HW219590   1.186   4.665   2.828 -1.6805 -3.5378  2.0934
 2711SOL     OW19591   4.272   0.922  10.077 -0.3356 -0.4530 -0.5531
 2711SOL    HW119592   4.192   0.934  10.129  0.3297  1.1338  0.0885
 2711SOL    HW219593   4.303   0.842  10.120 -0.4020  0.0129  0.3674
 2712SOL     OW19594   3.958   1.727  11.314  0.3745 -0.2309  0.0267
 2712SOL    HW119595   3.942   1.779  11.236 -3.0538  1.1749  1.6387
 2712SOL    HW219596   3.929   1.641  11.284 -1.0720 -0.1777  1.2409
 2713SOL     OW19597   0.322   0.111   5.293 -0.4166 -0.7501 -0.0900
 2713SOL    HW119598   0.367   0.043   5.343 -0.9979 -1.4163 -0.4867
 2713SOL    HW219599   0.396   0.156   5.252  0.3658 -2.9050 -1.0402
 2714SOL     OW19600   3.596   3.503   6.748 -0.3041 -0.3976  0.8338
 2714SOL    HW119601   3.509   3.514   6.786 -0.3602  0.8972  0.3140
 2714SOL    HW219602   3.629   3.430   6.801  2.1115  0.1349  0.0277
 2715SOL     OW19603   1.427   4.203   2.419 -0.1574  0.0279 -0.1383
 2715SOL    HW119604   1.432   4.193   2.324  0.5993 -1.6410  0.0788
 2715SOL    HW219605   1.331   4.196   2.421  0.0438 -2.3980  0.5596
 2716SOL     OW19606   2.726   3.582   8.815  1.1175 -0.2772 -0.3357
 2716SOL    HW119607   2.672   3.530   8.755 -0.8299  1.7952 -0.3885
 2716SOL    HW219608   2.808   3.533   8.806  0.5092 -1.4764  0.6334
 2717SOL     OW19609   3.550   0.261   6.769 -0.0897 -0.0108  0.1317
 2717SOL    HW119610   3.475   0.235   6.822 -0.9233 -1.0001 -1.5156
 2717SOL    HW219611   3.628   0.221   6.809  1.1923  2.6894  0.3367
 2718SOL     OW19612   1.305   2.256   3.852  0.6663 -0.0754  0.6714
 2718SOL    HW119613   1.350   2.294   3.927 -0.4507  0.3758  1.1170
 2718SOL    HW219614   1.216   2.291   3.855  1.0044  0.9271 -0.8345
 2719SOL     OW19615   1.890   4.445  15.383 -0.2759 -0.5609 -0.0664
 2719SOL    HW119616   1.865   4.515  15.323  0.6829 -0.3923 -0.2589
 2719SOL    HW219617   1.967   4.413  15.337 -0.8253  0.4044 -1.6777
 2720SOL     OW19618   0.749   4.704   4.605  0.3847 -0.1857 -0.0300
 2720SOL    HW119619   0.672   0.038   4.607  0.2053 -0.4359  0.2933
 2720SOL    HW219620   0.782   0.017   4.687  0.6855  3.0029 -1.5443
 2721SOL     OW19621   4.298   2.164   7.337 -0.0707  0.6628  0.2480
 2721SOL    HW119622   4.249   2.243   7.313  1.0782  0.7847 -1.7230
 2721SOL    HW219623   4.250   2.127   7.412  0.9262  1.1569  1.1198
 2722SOL     OW19624   4.551   2.841   0.766  0.2757  0.5227 -0.1965
 2722SOL    HW119625   4.515   2.842   0.677  1.1074  1.3666 -0.5226
 2722SOL    HW219626   4.527   2.923   0.810 -0.9707 -0.2523  0.5781
 2723SOL     OW19627   2.805   1.930  15.013 -0.3695 -0.4388 -0.0988
 2723SOL    HW119628   2.794   1.976  14.930 -1.5405 -0.4017  0.0851
 2723SOL    HW219629   2.725   1.954  15.058 -2.1917 -2.4132 -2.3047
 2724SOL     OW19630   4.379   3.818   3.536  0.0414 -0.2030  0.5850
 2724SOL    HW119631   4.467   3.828   3.572 -0.8322  3.6535  1.6324
 2724SOL    HW219632   4.386   3.751   3.468 -1.2178 -0.0084  0.2683
 2725SOL     OW19633   1.184   3.519   7.441 -0.4077 -0.2761  0.2573
 2725SOL    HW119634   1.122   3.573   7.392 -0.4260  0.3560  0.9639
 2725SOL    HW219635   1.148   3.433   7.422 -0.3197 -0.4771  0.9818
 2726SOL     OW19636   1.077   3.072  12.513  0.1043  0.2325 -0.4133
 2726SOL    HW119637   1.013   3.052  12.445  0.2602 -2.0739  0.0977
 2726SOL    HW219638   1.087   2.990  12.562  2.6253  1.0740  0.4834
 2727SOL     OW19639   4.159   0.687  12.612 -0.6264 -0.2197 -0.5423
 2727SOL    HW119640   4.249   0.718  12.601 -0.3759  0.4164  3.5151
 2727SOL    HW219641   4.118   0.701  12.526  1.1304  0.6017 -1.2379
 2728SOL     OW19642   1.191   0.590   4.849 -0.6272 -0.1121  0.6017
 2728SOL    HW119643   1.171   0.644   4.925 -1.0624  1.4564 -0.6289
 2728SOL    HW219644   1.117   0.613   4.792  0.6883  0.3600 -0.9227
 2729SOL     OW19645   1.254   3.019  15.574 -0.6099 -0.3817 -0.1755
 2729SOL    HW119646   1.216   2.945  15.622 -0.7409  0.0513  0.3832
 2729SOL    HW219647   1.195   3.030  15.500  1.2237  1.0989 -1.4033
 2730SOL     OW19648   2.720   4.587   6.348 -0.3289  0.3924 -0.2181
 2730SOL    HW119649   2.758   4.580   6.436 -1.0380 -1.2317 -0.0264
 2730SOL    HW219650   2.784   4.557   6.284 -0.6744  0.4851 -0.6043
 2731SOL     OW19651   0.952   1.249  12.265  0.0749 -0.3719  0.9668
 2731SOL    HW119652   1.003   1.241  12.185 -0.3422 -0.5124  0.7102
 2731SOL    HW219653   0.862   1.264  12.234  0.3358  0.9518  0.8691
 2732SOL     OW19654   1.499   3.025  14.709  0.2328  0.1483  0.0390
 2732SOL    HW119655   1.565   2.959  14.685  1.7569  1.1265  1.5019
 2732SOL    HW219656   1.507   3.082  14.632  0.3475  2.4595  1.7580
 2733SOL     OW19657   4.319   3.868   7.439  0.6934  0.1560 -0.2149
 2733SOL    HW119658   4.328   3.953   7.483 -2.4000  0.9583 -1.1437
 2733SOL    HW219659   4.226   3.878   7.420  0.1491 -2.6009  1.0641
 2734SOL     OW19660   3.068   0.364  14.938  0.0910 -0.1494  0.0281
 2734SOL    HW119661   3.126   0.291  14.917  1.5067  0.9057  0.2073
 2734SOL    HW219662   2.980   0.330  14.921 -0.0636  0.3226 -0.1346
 2735SOL     OW19663   0.613   3.011   3.029 -0.1070 -0.2108 -0.7272
 2735SOL    HW119664   0.560   3.043   2.956 -0.6032  0.6125 -0.0023
 2735SOL    HW219665   0.630   3.097   3.068 -0.7965 -0.0595 -0.7479
 2736SOL     OW19666   0.373   0.556   9.187 -0.3688  0.2757  0.2771
 2736SOL    HW119667   0.460   0.530   9.218  0.2872 -0.0575 -1.8392
 2736SOL    HW219668   0.392   0.639   9.143  1.1082  0.1486  0.6948
 2737SOL     OW19669   4.688   0.389   3.373  0.2217  0.5755 -0.0752
 2737SOL    HW119670   4.720   0.477   3.394 -0.0885  1.2363 -2.3125
 2737SOL    HW219671   0.034   0.330   3.402 -0.3791 -0.9329 -1.6686
 2738SOL     OW19672   3.321   2.846   4.097  0.2199  0.1572 -0.2437
 2738SOL    HW119673   3.399   2.798   4.069  2.3022  1.8174  2.7426
 2738SOL    HW219674   3.272   2.777   4.141  0.0825  0.8701  0.7377
 2739SOL     OW19675   2.037   3.025  14.911  0.2314 -0.0299 -0.1044
 2739SOL    HW119676   1.951   3.051  14.943 -0.3092 -1.3632 -0.5053
 2739SOL    HW219677   2.020   2.934  14.885 -1.2612  0.1171  0.3790
 2740SOL     OW19678   1.694   2.099  14.919  0.0417 -0.2819  0.0860
 2740SOL    HW119679   1.632   2.028  14.935  1.1872 -1.6074 -1.2904
 2740SOL    HW219680   1.768   2.064  14.969 -0.2844 -0.1194  0.6829
 2741SOL     OW19681   1.263   2.872   3.550  0.4393  0.2825  0.0460
 2741SOL    HW119682   1.352   2.907   3.562  1.0611 -1.9167  2.0127
 2741SOL    HW219683   1.221   2.938   3.605 -3.1981 -2.6227  0.7070
 2742SOL     OW19684   4.584   1.688   7.782  0.0734 -0.4471  0.5001
 2742SOL    HW119685   4.622   1.701   7.869  0.6166 -1.2043  0.3803
 2742SOL    HW219686   4.664   1.690   7.729  0.5733  0.9635  1.3082
 2743SOL     OW19687   3.337   3.815  10.022  0.1409  0.2698 -0.0997
 2743SOL    HW119688   3.338   3.823   9.926 -0.5086 -0.3368 -0.1644
 2743SOL    HW219689   3.347   3.905  10.052 -0.6587 -0.7001  3.0770
 2744SOL     OW19690   3.317   3.288   6.259 -0.2068  0.3137  0.1644
 2744SOL    HW119691   3.280   3.376   6.259  1.6066  1.0779 -3.1486
 2744SOL    HW219692   3.274   3.242   6.186 -1.1908  0.4955  0.6225
 2745SOL     OW19693   1.770   1.578   5.623  0.4051 -0.6691  0.5511
 2745SOL    HW119694   1.865   1.589   5.623  0.2623  0.3212 -3.6854
 2745SOL    HW219695   1.748   1.494   5.582 -0.0396 -0.1908 -0.1852
 2746SOL     OW19696   2.753   3.937   9.738 -0.0463  0.1432 -0.1215
 2746SOL    HW119697   2.706   3.919   9.819 -1.8000 -0.7433 -1.3448
 2746SOL    HW219698   2.680   3.940   9.676 -1.3571  0.4636  1.4612
 2747SOL     OW19699   3.102   4.131  10.342 -0.3587 -0.0867 -0.2620
 2747SOL    HW119700   3.013   4.099  10.359  0.1535 -0.8392  1.0196
 2747SOL    HW219701   3.146   4.046  10.340  2.2723  1.2567  0.3320
 2748SOL     OW19702   0.562   1.221   4.975  0.1005 -1.0229  0.2844
 2748SOL    HW119703   0.643   1.204   4.926  0.7322 -0.8503  1.2810
 2748SOL    HW219704   0.547   1.130   5.000 -1.1251 -0.8765  0.0739
 2749SOL     OW19705   0.727   1.402   3.277 -0.0118  0.0683  0.3842
 2749SOL    HW119706   0.660   1.466   3.299 -0.7708 -0.6335  0.0945
 2749SOL    HW219707   0.748   1.385   3.369  0.2941 -1.3541  0.0571
 2750SOL     OW19708   1.416   3.670   8.885 -0.2548  0.2055  0.3492
 2750SOL    HW119709   1.350   3.614   8.926 -0.3478  0.7063  0.8918
 2750SOL    HW219710   1.479   3.671   8.957  0.0587 -2.1491  0.0914
 2751SOL     OW19711   2.716   1.791   0.368 -0.0913  0.2273 -0.3580
 2751SOL    HW119712   2.752   1.704   0.386 -1.2210 -0.0135  0.8092
 2751SOL    HW219713   2.630   1.791   0.412  0.5611 -1.3419  0.9426
 2752SOL     OW19714   0.822   1.821   8.729 -0.5222  0.1506 -0.2984
 2752SOL    HW119715   0.747   1.812   8.787 -0.1225 -1.5400 -0.0326
 2752SOL    HW219716   0.869   1.739   8.745 -0.4018  0.1271 -0.7492
 2753SOL     OW19717   1.560   1.575  12.401  0.4007 -0.3430 -0.2101
 2753SOL    HW119718   1.622   1.563  12.473  1.1354  1.1784 -0.5880
 2753SOL    HW219719   1.558   1.485  12.370  1.4716 -0.0507 -1.1395
 2754SOL     OW19720   4.212   2.181   5.513  0.4857  0.0766  0.2292
 2754SOL    HW119721   4.268   2.183   5.436 -1.7894  1.5373 -1.3769
 2754SOL    HW219722   4.128   2.173   5.468 -0.3949  1.7936  1.5850
 2755SOL     OW19723   3.444   0.664   5.929 -0.1390  0.0899  0.2579
 2755SOL    HW119724   3.525   0.682   5.882 -0.1282 -1.5149 -0.3058
 2755SOL    HW219725   3.461   0.683   6.022 -0.8006 -0.1707  0.4289
 2756SOL     OW19726   3.460   2.767  15.815 -0.4602 -0.3777  0.1101
 2756SOL    HW119727   3.480   2.841  15.872 -1.0992 -0.5746  0.5858
 2756SOL    HW219728   3.366   2.758  15.830 -0.1283 -2.5599  0.8195
 2757SOL     OW19729   2.192   0.860   2.180 -0.2352  0.3149  0.0910
 2757SOL    HW119730   2.183   0.778   2.131 -1.4821 -0.4817  1.6917
 2757SOL    HW219731   2.111   0.907   2.160 -1.8781 -3.3404 -1.6976
 2758SOL     OW19732   4.095   0.197   5.526 -0.0942 -0.1163 -0.8387
 2758SOL    HW119733   4.160   0.209   5.596 -1.6272 -0.0327  0.5813
 2758SOL    HW219734   4.017   0.223   5.576  0.4464  0.3814 -0.2441
 2759SOL     OW19735   0.924   0.913   8.543 -0.2855 -0.0648 -0.8697
 2759SOL    HW119736   0.922   0.826   8.582  0.0131 -0.1561 -1.0576
 2759SOL    HW219737   0.879   0.913   8.458 -2.8500 -0.2318  0.4828
 2760SOL     OW19738   1.014   1.728  11.729 -0.5007 -0.2235  0.2525
 2760SOL    HW119739   0.959   1.802  11.757 -0.9601 -0.2309 -0.6560
 2760SOL    HW219740   0.968   1.715  11.647  1.4917 -0.7573 -0.7713
 2761SOL     OW19741   2.433   3.218   4.246 -0.7435 -0.5046  0.0110
 2761SOL    HW119742   2.513   3.255   4.282 -1.2598  1.7254 -1.1332
 2761SOL    HW219743   2.386   3.193   4.325  1.0202  1.6845  1.7467
 2762SOL     OW19744   0.685   3.943   2.456 -0.1692 -0.0896  0.5319
 2762SOL    HW119745   0.637   4.022   2.432  1.4248  1.4795  2.4772
 2762SOL    HW219746   0.633   3.876   2.412  0.8214  1.5032 -3.0915
 2763SOL     OW19747   1.177   2.062   2.285  0.1189  0.3070 -0.2419
 2763SOL    HW119748   1.162   2.126   2.355  0.7979  0.9326 -0.6694
 2763SOL    HW219749   1.108   2.002   2.314 -1.2914  1.2688 -1.6526
 2764SOL     OW19750   3.684   2.187   5.647 -0.3818  0.3942 -0.3997
 2764SOL    HW119751   3.741   2.242   5.593 -0.4783  0.9436  0.0619
 2764SOL    HW219752   3.719   2.217   5.730  0.7378 -0.6506 -0.4938
 2765SOL     OW19753   2.721   3.735   7.478 -0.0580  0.3010  0.0322
 2765SOL    HW119754   2.641   3.783   7.459 -0.0966  1.0039  2.0028
 2765SOL    HW219755   2.781   3.807   7.498  2.1367 -1.0977 -1.4576
 2766SOL     OW19756   4.616   1.183   5.544  0.1006 -0.4090 -0.1491
 2766SOL    HW119757   4.563   1.116   5.585 -2.9867  0.8501 -2.0940
 2766SOL    HW219758   4.581   1.255   5.596 -0.8126 -1.1049  0.1869
 2767SOL     OW19759   3.058   1.443   0.367  0.3126 -0.0046  0.0517
 2767SOL    HW119760   2.978   1.479   0.406  1.0382 -0.8100  2.2671
 2767SOL    HW219761   3.116   1.455   0.442 -1.7626  0.6340  1.5728
 2768SOL     OW19762   2.539   0.096   9.357  0.0253 -0.1828 -0.4371
 2768SOL    HW119763   2.506   0.100   9.446  3.1595  0.1559  0.7132
 2768SOL    HW219764   2.583   0.011   9.357  0.2108 -0.0714  1.8502
 2769SOL     OW19765   2.526   4.042   5.464  1.1408 -0.1842  0.1210
 2769SOL    HW119766   2.563   4.104   5.401 -3.2538 -0.6369 -2.8931
 2769SOL    HW219767   2.451   4.012   5.413  0.9489 -0.2056  0.4150
 2770SOL     OW19768   4.476   3.431  11.091 -0.0501 -0.5619  0.3527
 2770SOL    HW119769   4.386   3.399  11.079 -0.9025  0.6560  3.4120
 2770SOL    HW219770   4.516   3.406  11.008  3.1382  2.6505  0.9182
 2771SOL     OW19771   1.439   4.234  12.234 -0.6765  0.4547  0.1977
 2771SOL    HW119772   1.368   4.279  12.281 -0.1437  0.7365  0.7303
 2771SOL    HW219773   1.411   4.146  12.258 -0.0612  0.4534  0.9133
 2772SOL     OW19774   1.084   4.083   7.479 -0.0521 -0.4181  0.2115
 2772SOL    HW119775   1.074   4.141   7.554 -0.5315 -2.2270  1.5498
 2772SOL    HW219776   0.990   4.066   7.473  0.2478 -1.9539 -0.2323
 2773SOL     OW19777   2.536   2.145   6.394  0.2511 -0.1984 -0.0482
 2773SOL    HW119778   2.505   2.132   6.484  0.9755  3.8612  0.7744
 2773SOL    HW219779   2.501   2.073   6.340  0.1458  0.3391 -0.6968
 2774SOL     OW19780   2.664   2.029   4.725 -0.2450 -0.1348  0.1197
 2774SOL    HW119781   2.732   2.037   4.791 -0.1456 -1.3363  0.1465
 2774SOL    HW219782   2.613   1.955   4.758 -0.5681 -1.3087 -3.0150
 2775SOL     OW19783   3.689   0.842   3.815 -0.3689 -0.6088 -0.2469
 2775SOL    HW119784   3.669   0.933   3.837  0.4639 -0.6460  0.6695
 2775SOL    HW219785   3.653   0.793   3.890  0.4384 -1.7990 -0.6371
 2776SOL     OW19786   4.226   3.900   6.340  0.0662 -0.1098  0.2887
 2776SOL    HW119787   4.204   3.846   6.265  0.5659 -0.9845  0.7749
 2776SOL    HW219788   4.196   3.844   6.412  1.4787 -0.1514  0.8505
 2777SOL     OW19789   0.950   0.421  12.016  0.3032 -0.8372  0.3638
 2777SOL    HW119790   0.902   0.448  12.094 -0.4425  2.0967 -1.1168
 2777SOL    HW219791   0.940   0.493  11.954  0.8678 -0.4044  0.7854
 2778SOL     OW19792   2.046   3.694  13.581  0.6337  0.2185  0.5348
 2778SOL    HW119793   2.056   3.677  13.675  1.0285  0.1329  0.4774
 2778SOL    HW219794   2.056   3.611  13.535  0.7830  0.7336 -0.3603
 2779SOL     OW19795   3.504   2.292  17.412 -0.1080 -0.1977  0.2208
 2779SOL    HW119796   3.510   2.387  17.403  1.8957 -0.3036  0.3724
 2779SOL    HW219797   3.415   2.275  17.439  0.0162  1.4524  1.6465
 2780SOL     OW19798   3.903   1.595   8.678  0.0464 -0.6798  0.6809
 2780SOL    HW119799   3.942   1.681   8.663 -1.1733  0.1011  1.9440
 2780SOL    HW219800   3.933   1.588   8.769 -0.9196 -1.4523  0.9459
 2781SOL     OW19801   0.741   2.196   1.041  0.1246  0.4598 -0.0838
 2781SOL    HW119802   0.696   2.144   0.975 -0.4456  1.1242 -0.2215
 2781SOL    HW219803   0.724   2.137   1.115 -1.9753  1.0158 -0.1435
 2782SOL     OW19804   4.341   1.604   2.415  0.5874 -0.7408 -0.4604
 2782SOL    HW119805   4.274   1.639   2.474  1.7033 -1.1974  1.0531
 2782SOL    HW219806   4.318   1.511   2.414 -1.9141 -0.1406  1.1427
 2783SOL     OW19807   1.014   3.624   1.715  0.3887 -0.1933 -0.3261
 2783SOL    HW119808   0.983   3.660   1.798  0.7452  1.2309 -0.8082
 2783SOL    HW219809   0.963   3.679   1.655  3.2836  1.1406 -1.5995
 2784SOL     OW19810   2.033   2.577   2.906  0.7124  0.1583  0.8736
 2784SOL    HW119811   1.952   2.599   2.860  1.8297  0.2121 -1.0881
 2784SOL    HW219812   2.102   2.628   2.863  2.1360  0.0009  2.9997
 2785SOL     OW19813   2.342   0.230   6.844  0.3597 -0.1279  0.1160
 2785SOL    HW119814   2.307   0.174   6.775  0.7520  2.0103 -1.8339
 2785SOL    HW219815   2.421   0.263   6.803  1.3962 -1.0873  1.3401
 2786SOL     OW19816   4.368   1.834   9.216  0.1482  0.2525 -0.3288
 2786SOL    HW119817   4.422   1.906   9.182  0.2490 -1.0015 -2.8639
 2786SOL    HW219818   4.282   1.839   9.174  0.0711  2.9155  0.1386
 2787SOL     OW19819   4.485   1.844   3.459  0.5952  0.1276 -0.1353
 2787SOL    HW119820   4.474   1.936   3.438 -2.5931 -0.7897 -2.4574
 2787SOL    HW219821   4.552   1.856   3.527  1.3470  0.0322 -0.8563
 2788SOL     OW19822   2.974   4.400  13.120 -0.2785  0.0876  0.2577
 2788SOL    HW119823   2.895   4.435  13.079  0.3642  0.2489 -0.8381
 2788SOL    HW219824   2.996   4.479  13.169  1.9651  0.5252 -1.4764
 2789SOL     OW19825   0.759   2.270   4.686  0.3668 -0.0620  0.1583
 2789SOL    HW119826   0.734   2.328   4.614 -1.1880  1.4684  1.9404
 2789SOL    HW219827   0.752   2.187   4.639  0.1858 -0.1940  0.4183
 2790SOL     OW19828   0.964   1.920   2.390  0.0207  0.0402 -0.1915
 2790SOL    HW119829   0.973   1.849   2.453  1.1165  1.1489  0.9167
 2790SOL    HW219830   0.932   1.990   2.447 -2.8072 -1.7558  0.4091
 2791SOL     OW19831   0.050   1.326   8.527  0.0948  0.3139  0.6920
 2791SOL    HW119832   0.076   1.395   8.467  0.1317 -1.0975 -0.9130
 2791SOL    HW219833   4.712   1.377   8.580 -0.1873  0.4974  0.1855
 2792SOL     OW19834   1.741   1.695  16.244  0.4289 -0.0078 -0.0809
 2792SOL    HW119835   1.833   1.698  16.219  0.4590 -1.5837 -0.1898
 2792SOL    HW219836   1.700   1.688  16.157  0.4988 -1.4373 -0.0120
 2793SOL     OW19837   3.922   4.518   0.989 -0.4718 -0.3493  0.0437
 2793SOL    HW119838   3.901   4.525   1.082  1.8928  4.8641  0.2256
 2793SOL    HW219839   3.867   4.585   0.948 -0.9458 -0.3526  0.6811
 2794SOL     OW19840   0.520   0.352   7.817 -0.1321 -0.1707 -0.0012
 2794SOL    HW119841   0.541   0.421   7.880 -1.8828 -0.0321  0.4165
 2794SOL    HW219842   0.604   0.331   7.776 -1.3020 -1.7515 -1.5672
 2795SOL     OW19843   4.266   4.580   1.251 -0.0838 -0.8632  0.6374
 2795SOL    HW119844   4.231   4.578   1.162  0.2884  0.2515  0.4596
 2795SOL    HW219845   4.267   4.488   1.276 -2.7824 -0.6983  1.3676
 2796SOL     OW19846   2.330   2.089  10.652 -0.5528  0.2718 -0.2762
 2796SOL    HW119847   2.374   2.084  10.567 -0.4569 -0.2458 -0.2006
 2796SOL    HW219848   2.281   2.170  10.640 -0.9445  0.4265  2.3288
 2797SOL     OW19849   2.021   4.441   4.278 -0.0430  0.5401  0.0867
 2797SOL    HW119850   2.019   4.421   4.372 -1.7964  0.3187 -0.0018
 2797SOL    HW219851   2.037   4.357   4.236 -1.7508  0.7527 -1.0198
 2798SOL     OW19852   1.174   1.892   1.887 -0.6341  0.1859 -0.4026
 2798SOL    HW119853   1.188   1.830   1.958  0.1961 -0.2195 -0.9219
 2798SOL    HW219854   1.079   1.900   1.896 -0.5334 -1.3037  1.9028
 2799SOL     OW19855   2.734   1.519   9.444 -0.3512 -0.4949  0.7886
 2799SOL    HW119856   2.687   1.571   9.379  2.5705  1.3624  0.1551
 2799SOL    HW219857   2.743   1.581   9.516  1.1801  0.8434 -0.5701
 2800SOL     OW19858   2.267   3.235   1.886  0.2045  1.1050 -0.1380
 2800SOL    HW119859   2.174   3.214   1.877  0.3983 -0.7232  2.0149
 2800SOL    HW219860   2.270   3.329   1.868  0.2605  0.7332 -2.0288
 2801SOL     OW19861   1.365   2.266  14.758  0.0860  0.4264  0.1605
 2801SOL    HW119862   1.284   2.294  14.801 -0.8103 -1.0312 -0.5992
 2801SOL    HW219863   1.431   2.303  14.817  0.6613  0.0430 -0.2329
 2802SOL     OW19864   4.397   2.908  10.004  0.0792 -0.6101  0.6455
 2802SOL    HW119865   4.417   2.871  10.091  2.5724 -0.4598  0.1517
 2802SOL    HW219866   4.344   2.981  10.036 -0.8966 -1.6191  1.3469
 2803SOL     OW19867   3.592   2.859   7.544  0.7883  0.3023  0.4148
 2803SOL    HW119868   3.569   2.767   7.537  0.2191  0.5954 -1.6449
 2803SOL    HW219869   3.672   2.862   7.596  1.6552 -2.2934 -0.7803
 2804SOL     OW19870   0.938   0.138  12.991 -0.1759 -0.6115 -0.7153
 2804SOL    HW119871   1.019   0.092  12.966  0.4572 -0.7498  1.6176
 2804SOL    HW219872   0.930   0.190  12.911 -0.9059  1.7085  0.8753
 2805SOL     OW19873   0.523   1.352   2.728 -0.1147 -0.1114  0.2562
 2805SOL    HW119874   0.581   1.302   2.785  1.6221  0.9716 -0.5707
 2805SOL    HW219875   0.586   1.389   2.667 -0.6865  0.2663 -0.1014
 2806SOL     OW19876   1.061   1.660  16.076  0.0667 -0.2744 -0.0074
 2806SOL    HW119877   0.975   1.699  16.063  0.1401 -0.0864  0.0710
 2806SOL    HW219878   1.034   1.568  16.087 -2.3237  0.4122 -0.0373
 2807SOL     OW19879   2.526   0.221   3.324  0.1620 -0.1476 -0.1772
 2807SOL    HW119880   2.453   0.159   3.336 -1.9566  2.2103 -0.9747
 2807SOL    HW219881   2.606   0.174   3.348 -0.6985 -1.0544  0.9816
 2808SOL     OW19882   4.067   2.156   8.472  0.5714  0.2225  0.5201
 2808SOL    HW119883   4.082   2.086   8.409 -1.4798 -1.7953  2.3060
 2808SOL    HW219884   3.995   2.202   8.430 -0.4241  0.2760  2.2805
 2809SOL     OW19885   2.036   0.866  13.701 -0.0352 -0.4978 -0.1745
 2809SOL    HW119886   1.950   0.896  13.731 -1.1468 -1.0641 -2.8035
 2809SOL    HW219887   2.101   0.887  13.768 -1.4468  0.7710  0.8022
 2810SOL     OW19888   2.531   2.698   3.433 -0.2961 -0.3770 -0.2297
 2810SOL    HW119889   2.442   2.678   3.401 -1.4266 -0.2640  2.8587
 2810SOL    HW219890   2.539   2.778   3.380  0.3293  0.8451  1.7304
 2811SOL     OW19891   0.965   2.540  13.504  0.0501 -0.0630 -0.0453
 2811SOL    HW119892   0.984   2.623  13.461 -0.1768 -0.0197 -0.0620
 2811SOL    HW219893   1.045   2.522  13.554  0.4303  1.6169 -0.0637
 2812SOL     OW19894   0.184   0.285  14.357  0.6539 -0.0869  0.3201
 2812SOL    HW119895   0.204   0.244  14.441  0.4244 -1.2511 -0.1961
 2812SOL    HW219896   0.178   0.210  14.298 -1.0263  1.3549 -1.3552
 2813SOL     OW19897   0.218   2.876   2.752 -0.7304  0.1250 -0.4401
 2813SOL    HW119898   0.174   2.907   2.831 -2.9553 -0.3879 -1.4743
 2813SOL    HW219899   0.230   2.783   2.771 -1.7033  0.0242 -0.3575
 2814SOL     OW19900   1.036   1.606   0.920  0.3240 -0.7681 -0.4456
 2814SOL    HW119901   1.014   1.514   0.934 -0.1947 -1.0393 -3.0350
 2814SOL    HW219902   1.010   1.643   1.005  2.2394 -0.6566  0.0981
 2815SOL     OW19903   3.971   3.940   2.214 -0.1693 -0.0309 -0.1905
 2815SOL    HW119904   3.895   3.941   2.272  1.6527 -0.9317  2.1912
 2815SOL    HW219905   3.936   3.921   2.127  2.0441  0.6288 -1.2138
 2816SOL     OW19906   4.081   3.192  10.322  0.6729 -0.1080 -0.1629
 2816SOL    HW119907   3.994   3.170  10.356  0.2676  1.1032 -0.4423
 2816SOL    HW219908   4.129   3.189  10.405 -0.7922 -0.3542  0.6797
 2817SOL     OW19909   1.442   2.215  10.700  0.3535 -0.1275 -0.5463
 2817SOL    HW119910   1.385   2.256  10.765 -1.9713 -0.6319 -2.2876
 2817SOL    HW219911   1.483   2.157  10.764 -0.0730  1.6512  1.3693
 2818SOL     OW19912   4.637   2.375   2.853  0.3608  0.2191  0.1949
 2818SOL    HW119913   4.631   2.281   2.836  0.7052  0.6731 -2.4078
 2818SOL    HW219914   4.624   2.404   2.763  0.7491 -0.0872  0.0404
 2819SOL     OW19915   4.548   2.381   3.345 -0.5141 -0.0226 -0.1162
 2819SOL    HW119916   4.559   2.376   3.249 -2.6398 -1.0783 -0.3081
 2819SOL    HW219917   4.455   2.397   3.358 -0.3494  0.1317  0.8653
 2820SOL     OW19918   2.292   2.702   8.656  0.3002 -0.6266 -0.3113
 2820SOL    HW119919   2.348   2.625   8.664  0.2779 -0.8156 -2.0573
 2820SOL    HW219920   2.329   2.751   8.582  0.0257  0.5139  0.2993
 2821SOL     OW19921   2.637   0.629   7.419  0.4351  0.4607  0.5609
 2821SOL    HW119922   2.593   0.587   7.346 -1.1866  0.4064  1.5635
 2821SOL    HW219923   2.697   0.695   7.382  2.9093 -1.2366  1.5271
 2822SOL     OW19924   0.600   0.080  13.464 -0.2402 -0.3735  0.2777
 2822SOL    HW119925   0.510   0.106  13.445  0.1486  0.3458 -0.6012
 2822SOL    HW219926   0.588   0.038  13.549 -1.2376 -2.0871 -0.7345
 2823SOL     OW19927   3.445   1.430   6.795 -0.8651 -0.1468 -0.2505
 2823SOL    HW119928   3.409   1.519   6.801 -2.3847 -0.8567  1.2288
 2823SOL    HW219929   3.433   1.427   6.700  0.5232 -3.2782 -0.3387
 2824SOL     OW19930   4.703   3.936   2.406 -0.7414 -0.5321 -0.2137
 2824SOL    HW119931   4.627   3.988   2.434 -0.9298 -0.3436 -1.0627
 2824SOL    HW219932   0.045   3.986   2.455  2.5427 -2.4189 -2.7180
 2825SOL     OW19933   0.124   1.805   0.468  0.5508 -0.5609  0.3296
 2825SOL    HW119934   0.163   1.724   0.435  2.0924  0.0954  0.5499
 2825SOL    HW219935   0.193   1.870   0.452  1.6564 -2.4044 -2.4136
 2826SOL     OW19936   2.612   0.329   4.239 -0.5015 -0.7277  0.2039
 2826SOL    HW119937   2.544   0.353   4.176 -0.6224 -1.1670  0.1668
 2826SOL    HW219938   2.693   0.352   4.193 -0.6728  1.0467  0.8001
 2827SOL     OW19939   0.428   2.625   8.627 -0.2417  0.2454 -0.2554
 2827SOL    HW119940   0.432   2.599   8.535  0.7042  2.4920 -0.8319
 2827SOL    HW219941   0.350   2.680   8.634 -2.3983 -2.7620 -0.3356
 2828SOL     OW19942   1.773   2.381  14.529 -0.1929  0.6113 -0.3689
 2828SOL    HW119943   1.866   2.390  14.506  0.1623  0.3114  0.9245
 2828SOL    HW219944   1.754   2.303  14.476 -1.0240  0.6454 -0.1259
 2829SOL     OW19945   3.060   3.897   3.789  0.6142  0.2820  0.4706
 2829SOL    HW119946   3.015   3.897   3.704  1.6930 -1.0153 -0.0975
 2829SOL    HW219947   2.986   3.882   3.846  1.9125  2.6230  2.7759
 2830SOL     OW19948   0.939   4.316   4.898  0.2806 -0.1456 -0.0368
 2830SOL    HW119949   0.950   4.356   4.811 -0.6842 -1.8771 -0.9497
 2830SOL    HW219950   0.854   4.358   4.913 -0.5232 -1.6933 -0.2881
 2831SOL     OW19951   0.814   2.094   6.561 -0.3152 -0.8056 -0.3832
 2831SOL    HW119952   0.870   2.141   6.623 -0.6236 -2.6558  1.3209
 2831SOL    HW219953   0.746   2.161   6.563  0.8286  0.3694 -0.8814
 2832SOL     OW19954   2.604   3.880   7.842  0.1574 -0.2996 -0.6057
 2832SOL    HW119955   2.628   3.826   7.766 -1.0358 -1.5058 -0.1209
 2832SOL    HW219956   2.641   3.824   7.910  1.3318 -0.6822 -1.5443
 2833SOL     OW19957   1.478   0.183  11.901  0.1676 -0.4613  0.3292
 2833SOL    HW119958   1.386   0.174  11.878 -0.1346 -0.0538  1.3696
 2833SOL    HW219959   1.511   0.233  11.826 -0.4227 -0.6194 -0.0349
 2834SOL     OW19960   2.212   0.713   2.886 -0.8734  0.2384  0.3051
 2834SOL    HW119961   2.283   0.657   2.917 -0.4076  1.1950  0.9730
 2834SOL    HW219962   2.260   0.777   2.833 -1.4719 -0.2201 -0.8124
 2835SOL     OW19963   0.831   1.351  10.952  0.2027 -0.1419  0.3694
 2835SOL    HW119964   0.832   1.387  10.864 -2.8644 -1.3094 -0.1419
 2835SOL    HW219965   0.747   1.371  10.993  0.8930 -0.6005  2.0278
 2836SOL     OW19966   2.785   1.362   7.484 -0.4638 -0.1895  0.2241
 2836SOL    HW119967   2.771   1.436   7.426 -1.0189  0.6646  1.4482
 2836SOL    HW219968   2.755   1.402   7.566 -0.6952  0.6467 -0.2748
 2837SOL     OW19969   3.697   3.513   3.550 -0.5513  0.8409  0.5736
 2837SOL    HW119970   3.628   3.511   3.483 -0.8547  0.9310  0.8852
 2837SOL    HW219971   3.763   3.565   3.505  0.4252  0.1106  1.1555
 2838SOL     OW19972   2.032   2.061   0.755 -0.1494 -0.2543  0.1633
 2838SOL    HW119973   1.940   2.036   0.763 -0.5484  1.5851  1.5193
 2838SOL    HW219974   2.040   2.136   0.814  0.8012 -0.2009 -0.0354
 2839SOL     OW19975   3.059   3.391   9.095  0.5232  0.2426  0.5672
 2839SOL    HW119976   3.047   3.418   9.186 -1.0934  0.9239  0.1455
 2839SOL    HW219977   3.005   3.312   9.095 -0.3645  0.8449  0.2512
 2840SOL     OW19978   4.717   0.367  12.722 -0.1409  0.0466 -0.2152
 2840SOL    HW119979   4.679   0.411  12.646 -1.7080 -1.7760 -0.4694
 2840SOL    HW219980   0.003   0.274  12.704  1.2297 -0.3117  2.3396
 2841SOL     OW19981   3.290   4.603   6.785  0.1476  0.3760  0.3306
 2841SOL    HW119982   3.290   4.682   6.839 -2.5960  0.5636  0.0475
 2841SOL    HW219983   3.365   4.618   6.728 -0.0364 -0.9785 -0.2776
 2842SOL     OW19984   1.361   2.844   7.653  0.1374 -0.4528 -0.4199
 2842SOL    HW119985   1.327   2.808   7.735 -2.0807  1.2139 -0.5920
 2842SOL    HW219986   1.370   2.935   7.682  0.3277 -0.3656 -0.7571
 2843SOL     OW19987   3.331   0.578   0.202  0.0829  0.1839 -0.1298
 2843SOL    HW119988   3.372   0.529   0.273  2.4956  0.8984 -1.0147
 2843SOL    HW219989   3.408   0.609   0.154 -0.9195  0.5174 -1.5432
 2844SOL     OW19990   3.145   0.833   4.954 -0.0060  0.3154  0.0831
 2844SOL    HW119991   3.162   0.917   4.996  1.6323 -0.0705  0.1802
 2844SOL    HW219992   3.058   0.819   4.992  0.2803  1.3179  1.1000
 2845SOL     OW19993   0.784   1.074  17.418  1.1402  0.8194 -0.2294
 2845SOL    HW119994   0.824   1.014  17.356 -1.3417  0.4501 -1.4454
 2845SOL    HW219995   0.825   1.038  17.497  0.1318 -2.1222 -1.0554
 2846SOL     OW19996   3.569   4.185   9.697  0.1481 -0.0266 -0.2152
 2846SOL    HW119997   3.540   4.246   9.765  1.1991 -2.4426  2.3780
 2846SOL    HW219998   3.501   4.198   9.630  0.0583  1.2458  0.1114
 2847SOL     OW19999   1.543   2.926  10.140  0.6846 -0.0789 -0.5480
 2847SOL    HW120000   1.457   2.902  10.106  0.8959  1.0795 -1.9226
 2847SOL    HW220001   1.591   2.867  10.082 -0.7310  1.1347 -2.9808
 2848SOL     OW20002   3.558   1.204   8.621 -0.1563  0.0530 -0.1837
 2848SOL    HW120003   3.648   1.212   8.651 -0.5531 -0.0766  1.0458
 2848SOL    HW220004   3.542   1.298   8.607 -0.3605  0.2983  1.7518
 2849SOL     OW20005   0.111   1.987   1.483 -0.1631 -0.3579 -0.2540
 2849SOL    HW120006   0.166   1.926   1.530 -1.5256 -0.6887  0.9087
 2849SOL    HW220007   0.069   1.931   1.418  0.0754 -0.8852  0.0482
 2850SOL     OW20008   2.797   0.247  11.020 -0.6009  0.2554 -0.3748
 2850SOL    HW120009   2.811   0.266  11.112 -0.3923 -0.9827 -0.1634
 2850SOL    HW220010   2.853   0.317  10.985  2.0601 -0.1274  3.1795
 2851SOL     OW20011   1.080   1.309  16.577  0.1643  0.0667 -0.2596
 2851SOL    HW120012   1.030   1.257  16.514 -1.6624  1.3203  0.1568
 2851SOL    HW220013   1.020   1.316  16.652  0.3532 -3.1951  0.2296
 2852SOL     OW20014   0.387   1.627  12.757 -0.6766 -0.2413  0.0425
 2852SOL    HW120015   0.431   1.599  12.677  0.8390  1.6741  0.1934
 2852SOL    HW220016   0.431   1.712  12.764  0.3750 -0.6777 -1.2792
 2853SOL     OW20017   2.450   2.282  16.379  0.2766 -0.1482  0.1714
 2853SOL    HW120018   2.481   2.276  16.469 -1.1411 -2.6848  0.4837
 2853SOL    HW220019   2.480   2.197  16.345 -0.3266 -0.3366  0.1089
 2854SOL     OW20020   0.706   1.445   7.365  0.4621  0.0657  0.2959
 2854SOL    HW120021   0.682   1.457   7.456  0.0645  3.4132 -0.2634
 2854SOL    HW220022   0.745   1.530   7.347  0.0508  0.0778 -0.5536
 2855SOL     OW20023   0.071   2.103   4.849  0.4622 -0.6007  0.2979
 2855SOL    HW120024   4.700   2.091   4.862  0.3221  0.7992  0.5352
 2855SOL    HW220025   0.094   2.017   4.815  0.5484  0.0093 -1.1900
 2856SOL     OW20026   2.055   1.891   3.566  0.3242  0.6695 -0.1972
 2856SOL    HW120027   2.123   1.828   3.592  1.3507  1.3078 -1.3096
 2856SOL    HW220028   1.980   1.833   3.554 -0.6152  1.5236  1.5514
 2857SOL     OW20029   0.732   1.104   2.559  0.5365 -0.3965  0.3687
 2857SOL    HW120030   0.695   1.094   2.647 -0.0514  2.6591  0.4497
 2857SOL    HW220031   0.686   1.029   2.520 -1.0400 -0.0890  1.6546
 2858SOL     OW20032   0.556   4.588   8.417  0.0849  0.1232 -0.0207
 2858SOL    HW120033   0.571   4.606   8.510 -0.9718 -3.5987  0.8607
 2858SOL    HW220034   0.506   4.506   8.427 -0.2921  0.4159  0.5569
 2859SOL     OW20035   2.129   0.099   5.218 -0.4149  0.1084  0.3953
 2859SOL    HW120036   2.158   0.007   5.216 -3.1418 -0.6959 -1.3879
 2859SOL    HW220037   2.137   0.115   5.125 -0.7683 -2.2064 -0.0465
 2860SOL     OW20038   2.344   2.925  12.161 -0.9242 -0.0834 -0.6207
 2860SOL    HW120039   2.322   2.916  12.254  1.3494  2.8686  0.1901
 2860SOL    HW220040   2.418   2.986  12.163 -1.9295  1.1256 -0.9690
 2861SOL     OW20041   1.175   2.334   6.606 -0.0066  0.1172 -0.1289
 2861SOL    HW120042   1.099   2.317   6.661  1.0221 -0.9088  0.9554
 2861SOL    HW220043   1.240   2.330   6.675 -2.5072 -4.1311  1.9500
 2862SOL     OW20044   2.239   2.595   7.622  0.5918 -0.0953 -0.8278
 2862SOL    HW120045   2.285   2.511   7.617 -2.0408 -1.6017  0.3602
 2862SOL    HW220046   2.225   2.593   7.717 -0.2412  0.7948 -0.9337
 2863SOL     OW20047   4.146   4.539   5.749 -0.4956 -0.0917  0.1783
 2863SOL    HW120048   4.188   4.594   5.682 -0.0608  1.6291  1.8547
 2863SOL    HW220049   4.226   4.516   5.796 -1.7453 -1.3061  1.6808
 2864SOL     OW20050   0.653   2.430   5.015  0.0315  0.1443 -0.2119
 2864SOL    HW120051   0.701   2.471   4.943  0.1163  0.2788 -0.0792
 2864SOL    HW220052   0.726   2.388   5.061 -0.3580 -0.0173  0.2597
 2865SOL     OW20053   0.289   3.469  13.786  0.3178 -0.0710  0.0678
 2865SOL    HW120054   0.369   3.507  13.750  0.3510 -0.7129 -0.5222
 2865SOL    HW220055   0.217   3.525  13.756 -0.8548 -2.0506 -0.7950
 2866SOL     OW20056   3.368   2.060   9.778 -0.5166 -0.2130  0.5180
 2866SOL    HW120057   3.404   2.010   9.852 -0.2675 -0.2965  0.3407
 2866SOL    HW220058   3.423   2.026   9.707  0.1420  2.0990 -0.0701
 2867SOL     OW20059   3.602   1.591   4.781  0.0283 -0.5685 -0.9889
 2867SOL    HW120060   3.670   1.524   4.787 -1.5394 -2.1533 -0.7319
 2867SOL    HW220061   3.571   1.580   4.691 -1.2186 -0.6742 -0.5445
 2868SOL     OW20062   3.087   0.768  17.635 -0.2005 -0.0932  0.3883
 2868SOL    HW120063   3.112   0.745  17.545  0.1282 -1.0528  0.7236
 2868SOL    HW220064   3.176   0.796  17.658 -0.5738  0.4504  1.1586
 2869SOL     OW20065   3.024   4.150   4.904  0.2388 -0.0662  0.2463
 2869SOL    HW120066   2.978   4.076   4.945 -0.5607 -2.0092 -4.1236
 2869SOL    HW220067   3.001   4.220   4.965 -0.8611 -0.2432  0.0354
 2870SOL     OW20068   0.318   4.284  13.200  0.2895  0.6075 -0.2838
 2870SOL    HW120069   0.398   4.253  13.243  0.6450  0.9876 -0.6717
 2870SOL    HW220070   0.254   4.306  13.268  0.7183  4.6285 -1.1988
 2871SOL     OW20071   1.370   1.255   5.280 -0.2688  0.6208  0.0495
 2871SOL    HW120072   1.354   1.254   5.374 -0.2624 -0.7027  0.0456
 2871SOL    HW220073   1.286   1.277   5.239 -0.2195 -0.3040 -0.5609
 2872SOL     OW20074   3.573   0.972   2.644  0.1941 -0.4852  0.4422
 2872SOL    HW120075   3.516   0.896   2.637  0.3031 -0.4532 -0.9085
 2872SOL    HW220076   3.629   0.933   2.711 -2.1377 -3.3559  0.6877
 2873SOL     OW20077   0.161   1.147   6.724  0.7365 -0.0765 -0.6120
 2873SOL    HW120078   0.177   1.057   6.698  0.2202  0.4575 -2.7900
 2873SOL    HW220079   0.180   1.196   6.643 -1.9991 -0.6640 -1.6041
 2874SOL     OW20080   1.737   4.174   3.345 -0.1596  0.6080 -0.5957
 2874SOL    HW120081   1.782   4.257   3.363 -0.2374  0.5474 -0.1261
 2874SOL    HW220082   1.748   4.168   3.250  1.0490  1.8844 -0.5394
 2875SOL     OW20083   2.541   4.214   4.787  0.8200 -0.5584  0.4844
 2875SOL    HW120084   2.535   4.298   4.742  1.8147 -0.0476  1.3005
 2875SOL    HW220085   2.455   4.177   4.764  0.7093  0.8248 -1.2904
 2876SOL     OW20086   0.319   0.473   5.099  0.1907  0.4840  0.5544
 2876SOL    HW120087   0.298   0.458   5.007  1.9558 -0.0143  0.2270
 2876SOL    HW220088   0.408   0.508   5.097  1.3572 -2.4778 -0.3882
 2877SOL     OW20089   1.604   2.470   4.259 -0.1772  0.2233 -0.1320
 2877SOL    HW120090   1.599   2.552   4.308  0.3945  0.0125  0.2716
 2877SOL    HW220091   1.653   2.418   4.322  0.2468  0.6713 -0.0962
 2878SOL     OW20092   2.608   0.921  15.777 -0.1083  0.1088 -0.8455
 2878SOL    HW120093   2.629   0.901  15.869 -2.8639 -1.1697 -0.5135
 2878SOL    HW220094   2.672   0.874  15.723  0.2641  0.0602 -0.3685
 2879SOL     OW20095   4.189   0.986   8.051 -0.7227 -0.0324  0.0252
 2879SOL    HW120096   4.186   0.924   7.979 -0.7641  0.1153 -0.1016
 2879SOL    HW220097   4.243   1.053   8.009 -1.3901  1.6328  1.7943
 2880SOL     OW20098   2.405   1.683  10.846  0.7346  0.3894 -0.3441
 2880SOL    HW120099   2.471   1.674  10.777  1.0957  0.8485 -0.0563
 2880SOL    HW220100   2.407   1.776  10.869 -3.2619  1.0386 -2.6246
 2881SOL     OW20101   0.663   1.480   8.660  1.0296 -0.3579 -0.1591
 2881SOL    HW120102   0.699   1.549   8.603 -1.1598  1.6004  0.8329
 2881SOL    HW220103   0.738   1.453   8.713  2.0102 -0.1657 -1.4488
 2882SOL     OW20104   0.487   0.017   8.937  0.5625  0.2091  0.3796
 2882SOL    HW120105   0.415   0.077   8.916  0.7633  0.9580  1.8211
 2882SOL    HW220106   0.437   4.685   8.997  0.0274 -2.1214 -2.2134
 2883SOL     OW20107   1.813   3.073   6.818 -0.2148  0.3498  0.4270
 2883SOL    HW120108   1.774   2.999   6.772  2.2696 -0.7867  0.1531
 2883SOL    HW220109   1.907   3.055   6.818  0.3006  2.9514  1.5718
 2884SOL     OW20110   1.349   0.562   2.423  0.2752 -0.0420 -1.0199
 2884SOL    HW120111   1.420   0.606   2.376  0.9080 -1.0684 -1.0323
 2884SOL    HW220112   1.281   0.557   2.356  0.6129  1.5744 -1.4790
 2885SOL     OW20113   4.578   4.129   4.196  0.4562  0.6169 -0.4561
 2885SOL    HW120114   4.554   4.213   4.158 -0.2848 -0.2791 -1.9516
 2885SOL    HW220115   4.510   4.106   4.260  1.1854 -2.7774 -0.8926
 2886SOL     OW20116   1.319   2.776   9.862 -0.3960 -0.3243  0.1850
 2886SOL    HW120117   1.331   2.802   9.954  2.3741 -1.8364  0.2476
 2886SOL    HW220118   1.271   2.853   9.831 -0.0820  0.0270  0.5648
 2887SOL     OW20119   0.114   2.391   6.619 -0.4504 -0.0341 -0.9116
 2887SOL    HW120120   0.108   2.310   6.669  1.4183 -1.6238 -3.2846
 2887SOL    HW220121   0.024   2.416   6.602 -0.1106  2.4698  0.8889
 2888SOL     OW20122   2.124   1.103   8.311 -0.0881 -0.3196 -0.5422
 2888SOL    HW120123   2.162   1.187   8.285 -0.1764 -0.4200 -0.9934
 2888SOL    HW220124   2.033   1.127   8.293  0.1591  0.6012 -0.5725
 2889SOL     OW20125   1.499   2.358   5.985  0.2311 -0.1143  0.0313
 2889SOL    HW120126   1.405   2.341   5.981 -0.1050  1.6430  0.5805
 2889SOL    HW220127   1.522   2.344   5.893  1.0517  3.1950 -0.2566
 2890SOL     OW20128   2.979   0.155   9.163 -0.1331  0.3846 -0.4578
 2890SOL    HW120129   2.946   0.236   9.202  0.3433  0.2579  0.1970
 2890SOL    HW220130   3.029   0.188   9.089 -2.3286  1.4303 -1.4771
 2891SOL     OW20131   1.402   1.014  13.033  0.9765  0.0486 -0.0929
 2891SOL    HW120132   1.435   0.964  13.107 -2.0220 -0.6624  0.7651
 2891SOL    HW220133   1.483   1.029  12.983  1.0643 -0.9655 -0.2638
 2892SOL     OW20134   1.322   3.527   5.091 -0.0873 -0.1556 -0.8523
 2892SOL    HW120135   1.326   3.548   5.185  0.3345  1.4819 -1.2415
 2892SOL    HW220136   1.366   3.441   5.090 -0.7435 -0.4468 -3.0185
 2893SOL     OW20137   3.704   2.673  15.768  0.4355  0.0068 -0.3282
 2893SOL    HW120138   3.735   2.759  15.799  0.5570 -0.3736  0.6157
 2893SOL    HW220139   3.608   2.672  15.771  0.4830 -0.4411  1.3475
 2894SOL     OW20140   0.657   4.165   9.338  0.6644 -0.5336  0.1628
 2894SOL    HW120141   0.585   4.107   9.313  0.1784 -1.0360  2.7786
 2894SOL    HW220142   0.621   4.215   9.412  1.4428 -3.9525  2.8465
 2895SOL     OW20143   3.927   0.471  17.550 -0.1346 -0.1151 -0.5622
 2895SOL    HW120144   3.922   0.445  17.458 -0.9220 -0.0441 -0.5433
 2895SOL    HW220145   3.988   0.414  17.596  0.0679 -0.9426 -1.8668
 2896SOL     OW20146   3.315   4.220   3.143  0.4559  0.1350 -0.9932
 2896SOL    HW120147   3.309   4.287   3.075 -2.2330 -1.2848 -2.1331
 2896SOL    HW220148   3.410   4.212   3.151  0.1776 -1.7736  0.2976
 2897SOL     OW20149   4.668   1.113   7.080 -0.0652 -0.5775 -0.8427
 2897SOL    HW120150   4.642   1.027   7.113  1.2494 -1.0508 -1.0034
 2897SOL    HW220151   4.598   1.135   7.019 -0.4631 -0.8880 -0.4962
 2898SOL     OW20152   2.592   1.863   3.157 -0.1134  0.0449 -0.2979
 2898SOL    HW120153   2.609   1.952   3.126  1.4189  0.1550  0.8350
 2898SOL    HW220154   2.682   1.835   3.137  0.5938  1.6558  0.6071
 2899SOL     OW20155   1.247   4.551   0.625 -0.4132  0.3256  0.1172
 2899SOL    HW120156   1.275   4.468   0.663 -1.1514 -0.2090 -0.5240
 2899SOL    HW220157   1.322   4.569   0.567 -1.7360 -0.9056 -1.9612
 2900SOL     OW20158   0.058   0.189  10.864  0.1441 -0.2890  0.3202
 2900SOL    HW120159   4.696   0.169  10.827  1.0037 -1.9867 -0.7416
 2900SOL    HW220160   0.032   0.233  10.946 -3.3268  1.2107 -1.6042
 2901SOL     OW20161   2.690   4.223   9.947 -0.0409  0.4111 -0.0474
 2901SOL    HW120162   2.715   4.289   9.883 -0.3502 -0.8126 -1.4366
 2901SOL    HW220163   2.776   4.205   9.985 -0.8190 -0.5045  1.2929
 2902SOL     OW20164   4.203   0.890  16.905  0.0792 -0.1408  0.1889
 2902SOL    HW120165   4.236   0.941  16.979  0.7068  0.5924 -0.5956
 2902SOL    HW220166   4.165   0.956  16.846 -2.6375 -2.2461 -0.4137
 2903SOL     OW20167   1.940   1.452  16.011 -0.1065 -0.0736 -0.1990
 2903SOL    HW120168   1.929   1.546  15.998  1.1792  0.3969  2.2377
 2903SOL    HW220169   2.024   1.424  15.975 -0.5931 -0.7177 -0.8409
 2904SOL     OW20170   3.699   2.204   4.964 -0.1212 -0.0767  0.1170
 2904SOL    HW120171   3.613   2.170   4.939  0.1468 -0.8007  0.1931
 2904SOL    HW220172   3.746   2.133   5.006 -2.7499 -1.0432  1.3996
 2905SOL     OW20173   3.420   2.299   2.801 -0.0025  0.5947  0.1255
 2905SOL    HW120174   3.421   2.280   2.707 -2.1580 -0.9750  0.4301
 2905SOL    HW220175   3.408   2.217   2.848 -0.9546  0.1755 -0.8503
 2906SOL     OW20176   2.727   4.606  13.493 -0.0283  0.4131 -0.0357
 2906SOL    HW120177   2.638   4.636  13.514 -1.0503 -1.6846 -1.3025
 2906SOL    HW220178   2.727   4.598  13.398 -0.8067  1.8069 -0.1653
 2907SOL     OW20179   0.395   0.276   1.239  0.0388 -0.3539 -0.3729
 2907SOL    HW120180   0.328   0.272   1.171 -2.5835  1.6644  2.0757
 2907SOL    HW220181   0.363   0.342   1.302  1.0178  1.4710 -1.7756
 2908SOL     OW20182   3.496   0.967   7.689 -0.2578  0.3921 -0.2028
 2908SOL    HW120183   3.536   0.883   7.667  0.4138  0.4798  0.7129
 2908SOL    HW220184   3.467   0.956   7.779  0.2111 -1.7727 -0.3273
 2909SOL     OW20185   4.378   3.089   6.792 -0.1679  0.2301 -0.5243
 2909SOL    HW120186   4.458   3.095   6.739 -0.2865  1.9408 -0.5170
 2909SOL    HW220187   4.331   3.036   6.728 -0.7474  0.2256 -0.0905
 2910SOL     OW20188   1.138   0.536   1.560 -0.0324  0.0455  0.6265
 2910SOL    HW120189   1.111   0.518   1.650 -0.5942  2.8099  1.0105
 2910SOL    HW220190   1.057   0.536   1.508  1.1970  0.1231 -1.2727
 2911SOL     OW20191   1.952   3.387  13.159 -0.5945 -0.2280 -0.3444
 2911SOL    HW120192   1.959   3.340  13.242  0.4535  0.8009  0.1537
 2911SOL    HW220193   2.019   3.456  13.164 -0.4244 -0.5428  1.7377
 2912SOL     OW20194   1.189   0.441   2.999  0.9633 -0.4678 -0.8539
 2912SOL    HW120195   1.163   0.522   3.044  0.8094 -0.3520 -1.1559
 2912SOL    HW220196   1.267   0.419   3.050 -0.3938 -0.1588  1.3846
 2913SOL     OW20197   0.819   4.106   6.714  0.3580  0.1247 -0.1583
 2913SOL    HW120198   0.781   4.099   6.802  1.3906 -1.6394  0.1435
 2913SOL    HW220199   0.752   4.155   6.664  0.8187 -0.3334 -1.2105
 2914SOL     OW20200   2.784   0.557  16.036 -0.4136  0.0903  0.6549
 2914SOL    HW120201   2.741   0.609  15.968  0.0161 -0.6717 -0.1997
 2914SOL    HW220202   2.856   0.507  15.998 -1.4961 -0.0350 -1.2405
 2915SOL     OW20203   0.478   1.712  16.443 -0.4236 -0.3131 -0.0387
 2915SOL    HW120204   0.481   1.710  16.539  2.4939  1.7178 -0.0994
 2915SOL    HW220205   0.385   1.724  16.424 -0.4757 -1.7980 -0.6916
 2916SOL     OW20206   4.460   4.194  10.314 -0.2459  0.2207 -0.6401
 2916SOL    HW120207   4.434   4.174  10.223 -1.8096  3.5919 -0.9240
 2916SOL    HW220208   4.435   4.286  10.313  1.2422  0.5976 -1.9026
 2917SOL     OW20209   2.990   1.403  15.848  0.1351  0.0260 -0.2467
 2917SOL    HW120210   3.083   1.409  15.868  0.1620  0.3149 -0.4522
 2917SOL    HW220211   2.997   1.419  15.754 -0.1233  0.2354 -0.2327
 2918SOL     OW20212   0.126   0.565  17.667  0.5575 -0.1171  0.0941
 2918SOL    HW120213   0.150   0.634   0.033  0.1622  0.0471  0.0671
 2918SOL    HW220214   0.191   0.497  17.683 -0.9432 -1.5158  0.2825
 2919SOL     OW20215   3.924   0.444  11.733  0.4885 -0.0324 -0.4711
 2919SOL    HW120216   3.940   0.519  11.791 -2.4921 -1.1624  1.8202
 2919SOL    HW220217   3.959   0.484  11.654  3.0984 -0.0368  0.6896
 2920SOL     OW20218   0.297   1.615   7.654 -0.0005  0.2139 -0.4603
 2920SOL    HW120219   0.313   1.557   7.727 -1.3586  0.0927 -0.2749
 2920SOL    HW220220   0.300   1.550   7.584  0.4904 -1.3119  0.9885
 2921SOL     OW20221   2.314   3.649   5.137 -0.2283  0.5726  0.3968
 2921SOL    HW120222   2.272   3.722   5.091 -0.9083 -0.0263  0.0636
 2921SOL    HW220223   2.257   3.621   5.208  0.1243  1.0744  0.8784
 2922SOL     OW20224   1.366   1.407   3.097 -0.0176 -0.1529  0.2660
 2922SOL    HW120225   1.391   1.430   3.008 -0.9617  2.0229  0.5508
 2922SOL    HW220226   1.429   1.463   3.142 -0.2290 -0.4030  0.8780
 2923SOL     OW20227   0.511   0.810   9.110 -0.5616 -0.5893  0.0121
 2923SOL    HW120228   0.462   0.868   9.167 -0.1975  1.8159 -2.1274
 2923SOL    HW220229   0.597   0.839   9.140 -0.4512 -0.7268 -0.1709
 2924SOL     OW20230   0.942   0.821   1.793  0.1944 -0.2091 -0.1371
 2924SOL    HW120231   0.875   0.869   1.840  0.0252 -1.5226  0.9620
 2924SOL    HW220232   1.020   0.865   1.826 -1.0218  1.0060  1.0694
 2925SOL     OW20233   3.663   2.728  17.304  0.2419  0.0073  0.3204
 2925SOL    HW120234   3.640   2.781  17.228  0.9084 -1.9514 -1.2441
 2925SOL    HW220235   3.758   2.727  17.299  0.2456 -1.4236  0.5881
 2926SOL     OW20236   0.986   1.885  10.896 -0.4137 -0.5378 -0.2401
 2926SOL    HW120237   0.968   1.978  10.881  2.6222  0.2195  0.8694
 2926SOL    HW220238   1.080   1.896  10.912 -0.1315 -0.8158 -1.6333
 2927SOL     OW20239   2.043   4.444   2.618 -0.6931  0.1445 -0.1537
 2927SOL    HW120240   2.011   4.466   2.530 -0.6969  0.5037 -0.0605
 2927SOL    HW220241   1.972   4.462   2.680  0.8131  3.2470  0.6454
 2928SOL     OW20242   0.724   2.654  11.147 -0.6672  0.1162  0.0119
 2928SOL    HW120243   0.768   2.596  11.085  1.3985  0.6413  0.9857
 2928SOL    HW220244   0.765   2.614  11.224 -1.0305  1.8298  1.0962
 2929SOL     OW20245   3.721   3.811   4.908  0.3271 -0.3556 -0.2637
 2929SOL    HW120246   3.814   3.799   4.927  0.0067 -0.4845  1.2411
 2929SOL    HW220247   3.710   3.772   4.822  3.4852  0.5996 -1.1079
 2930SOL     OW20248   0.343   4.628   6.857  0.0385  0.7989 -0.1411
 2930SOL    HW120249   0.394   4.589   6.927 -2.3637  0.3792  1.3698
 2930SOL    HW220250   0.255   4.628   6.894  0.4137  4.0926  0.7406
 2931SOL     OW20251   2.166   2.496  14.508  0.4863  0.3448  0.2037
 2931SOL    HW120252   2.225   2.420  14.505  0.4008  0.3544 -1.6971
 2931SOL    HW220253   2.129   2.494  14.419 -1.7285 -0.2638  1.1447
 2932SOL     OW20254   1.719   0.866   5.098  0.1303  0.1623 -0.6610
 2932SOL    HW120255   1.650   0.932   5.110 -2.3016 -2.2014 -1.4303
 2932SOL    HW220256   1.717   0.874   5.002  2.6653 -3.0921 -0.9782
 2933SOL     OW20257   1.310   0.643   6.163 -0.0897 -0.1013 -0.4850
 2933SOL    HW120258   1.340   0.553   6.149 -0.9344 -0.5366  0.4743
 2933SOL    HW220259   1.255   0.627   6.240 -0.1398  1.4964 -0.1815
 2934SOL     OW20260   1.222   1.211   7.510  0.0795  0.1204  0.0821
 2934SOL    HW120261   1.306   1.183   7.546  0.0728  0.7092  0.5671
 2934SOL    HW220262   1.225   1.307   7.504  1.9843  0.0395 -0.2450
 2935SOL     OW20263   4.170   0.465   2.218  0.3616 -0.3209  0.0693
 2935SOL    HW120264   4.088   0.515   2.212  1.3867  1.3946  0.1895
 2935SOL    HW220265   4.173   0.414   2.138 -2.5356 -1.6481  0.7914
 2936SOL     OW20266   1.385   3.871   5.963  0.2765 -0.1781  0.5419
 2936SOL    HW120267   1.437   3.822   6.027 -0.4912 -0.3647  1.0119
 2936SOL    HW220268   1.309   3.818   5.943  0.7509 -0.4831 -0.4462
 2937SOL     OW20269   3.899   2.478   6.503  0.1994  0.7065 -0.8212
 2937SOL    HW120270   3.877   2.550   6.443  0.6959  0.3130 -1.4682
 2937SOL    HW220271   3.899   2.521   6.588 -0.6981 -0.5517 -0.1913
 2938SOL     OW20272   0.444   2.145   8.321 -0.3892  0.1878  0.1435
 2938SOL    HW120273   0.381   2.205   8.362 -0.9781  0.3847 -1.0696
 2938SOL    HW220274   0.383   2.082   8.284  0.5717 -0.4836 -0.3143
 2939SOL     OW20275   1.939   2.300   5.817 -0.1955 -0.2080 -0.0004
 2939SOL    HW120276   1.961   2.206   5.821 -1.5931 -0.6067 -1.8668
 2939SOL    HW220277   1.878   2.314   5.889  1.2655  2.2435  0.7389
 2940SOL     OW20278   0.792   0.329   7.807  0.2033 -0.1728  0.7845
 2940SOL    HW120279   0.775   0.327   7.901 -0.5159 -2.3005  0.6041
 2940SOL    HW220280   0.805   0.422   7.785 -1.7857 -0.4787 -1.5990
 2941SOL     OW20281   2.421   3.826   8.272  0.1265 -0.4745 -0.2727
 2941SOL    HW120282   2.367   3.857   8.344 -1.3708  1.5445 -2.2545
 2941SOL    HW220283   2.354   3.810   8.206  0.7000 -2.2382 -0.4152
 2942SOL     OW20284   0.798   2.023   7.476 -0.1794 -0.0134 -0.3633
 2942SOL    HW120285   0.724   2.084   7.472 -1.3808 -1.3715  1.1015
 2942SOL    HW220286   0.774   1.975   7.555  0.6107  2.3879  1.3409
 2943SOL     OW20287   1.461   4.623   4.007  0.4504 -0.0263  0.7334
 2943SOL    HW120288   1.512   4.544   3.989  1.4703  0.7269  0.3080
 2943SOL    HW220289   1.524   4.694   4.022  2.4658 -1.5110 -0.8992
 2944SOL     OW20290   0.804   2.360  16.589  0.1825 -0.1658 -0.0294
 2944SOL    HW120291   0.773   2.439  16.633  1.6892  0.9026 -0.8967
 2944SOL    HW220292   0.851   2.401  16.516 -1.0349 -1.2055 -1.3876
 2945SOL     OW20293   3.625   4.589  10.399 -0.1164 -0.1590 -0.1733
 2945SOL    HW120294   3.538   4.573  10.361  0.2215 -1.0215 -0.5912
 2945SOL    HW220295   3.682   4.568  10.324  3.2562  1.4595  1.9339
 2946SOL     OW20296   0.352   0.745   5.433 -0.1859 -0.1891 -0.4384
 2946SOL    HW120297   0.445   0.757   5.451 -0.0335 -0.5586 -0.9803
 2946SOL    HW220298   0.339   0.779   5.344  1.7302 -0.8947 -0.9757
 2947SOL     OW20299   0.303   0.896   2.147 -0.4673 -0.2710  0.3855
 2947SOL    HW120300   0.335   0.893   2.237 -0.2026  0.6169  0.3165
 2947SOL    HW220301   0.335   0.977   2.108 -1.5823  1.0380  2.2290
 2948SOL     OW20302   2.905   3.223   8.127 -0.3634 -0.5245  0.0974
 2948SOL    HW120303   2.932   3.282   8.196  0.0762 -0.4953 -0.1012
 2948SOL    HW220304   2.979   3.250   8.072 -0.9370  2.1653  0.6971
 2949SOL     OW20305   4.574   0.131   3.774  0.5638 -0.4733  0.1620
 2949SOL    HW120306   4.625   0.211   3.788  0.4841 -0.1808 -1.1682
 2949SOL    HW220307   4.646   0.074   3.748  0.6100  0.1265 -1.0231
 2950SOL     OW20308   2.240   2.904  10.605 -0.3650 -0.1266  0.0167
 2950SOL    HW120309   2.246   2.884  10.698 -0.2411  2.6161  0.5998
 2950SOL    HW220310   2.159   2.861  10.576 -1.1762  0.3350  1.6238
 2951SOL     OW20311   2.770   1.611   4.820  0.4336 -0.2945 -0.3707
 2951SOL    HW120312   2.837   1.649   4.762  0.8481  0.3384  0.5197
 2951SOL    HW220313   2.744   1.541   4.760  1.4072 -1.4130  0.5250
 2952SOL     OW20314   1.463   1.236   6.256 -0.6826  0.1070 -0.5581
 2952SOL    HW120315   1.502   1.323   6.257  1.5741 -0.8966 -0.3153
 2952SOL    HW220316   1.375   1.268   6.275  0.1743  2.1887 -0.0986
 2953SOL     OW20317   1.199   0.250  10.548  0.6403 -0.3426  0.3632
 2953SOL    HW120318   1.139   0.293  10.608  0.6220 -0.5790  0.5150
 2953SOL    HW220319   1.268   0.218  10.606  0.2220 -0.0957  0.9893
 2954SOL     OW20320   0.285   1.835   1.619 -0.3523 -0.3052 -0.1271
 2954SOL    HW120321   0.226   1.763   1.598 -1.6112  0.5542  0.4891
 2954SOL    HW220322   0.317   1.801   1.703  1.0731 -1.4688 -1.1506
 2955SOL     OW20323   4.453   3.846   1.293  0.0415 -0.1937 -0.0661
 2955SOL    HW120324   4.450   3.784   1.219  0.2171 -1.9249  1.3793
 2955SOL    HW220325   4.532   3.889   1.260  0.9122 -2.5046 -1.0392
 2956SOL     OW20326   2.607   2.262  12.653  0.2066 -0.0059 -0.4062
 2956SOL    HW120327   2.694   2.260  12.692 -0.0074 -1.3956 -0.0034
 2956SOL    HW220328   2.553   2.224  12.722  1.8702 -1.7676 -0.0730
 2957SOL     OW20329   4.394   4.432   5.873 -0.1576 -0.4884 -0.6193
 2957SOL    HW120330   4.479   4.476   5.874 -0.9271  1.1100 -4.1238
 2957SOL    HW220331   4.383   4.430   5.968  1.8889  0.9288 -0.3448
 2958SOL     OW20332   3.778   2.071   4.226 -0.3937 -0.1986 -0.3539
 2958SOL    HW120333   3.752   1.981   4.206 -0.6967  0.3277 -2.3533
 2958SOL    HW220334   3.815   2.067   4.314 -1.1070  1.2703  0.0112
 2959SOL     OW20335   4.107   3.559   7.190  0.0313 -0.1754 -0.2100
 2959SOL    HW120336   4.042   3.605   7.136 -1.6423 -0.7782  1.2746
 2959SOL    HW220337   4.052   3.538   7.266 -1.2023 -0.5881 -1.2208
 2960SOL     OW20338   0.254   0.601  16.199 -0.2363 -0.6536 -0.0875
 2960SOL    HW120339   0.173   0.549  16.193  0.7132 -1.8879 -2.3282
 2960SOL    HW220340   0.252   0.627  16.291  1.1463  0.7743 -0.4701
 2961SOL     OW20341   4.212   4.187   9.203 -0.6746  0.2604  0.0421
 2961SOL    HW120342   4.207   4.275   9.167  3.9051 -0.1628 -1.7493
 2961SOL    HW220343   4.119   4.172   9.215 -0.8876  0.4384 -1.4505
 2962SOL     OW20344   4.556   3.068   5.658 -0.1600  0.4234 -0.1501
 2962SOL    HW120345   4.584   3.045   5.747  1.3096  1.8280 -0.2550
 2962SOL    HW220346   4.522   3.156   5.673  1.4988  1.3954 -2.1468
 2963SOL     OW20347   1.490   0.774   1.656 -0.2312 -0.2094  0.1690
 2963SOL    HW120348   1.448   0.687   1.655  0.8026 -0.6800 -2.1381
 2963SOL    HW220349   1.430   0.837   1.615  1.5859  1.9483  0.8494
 2964SOL     OW20350   4.243   3.171  15.653 -0.1766 -0.3986  0.4311
 2964SOL    HW120351   4.302   3.098  15.672 -0.5323 -0.6486  0.5928
 2964SOL    HW220352   4.309   3.240  15.647 -0.6821  0.0278 -0.2052
 2965SOL     OW20353   4.640   4.071   5.515  0.2249 -0.6200 -0.8456
 2965SOL    HW120354   4.583   4.002   5.481  0.0327 -0.3911 -0.9961
 2965SOL    HW220355   4.598   4.087   5.599  0.4300 -0.7824 -0.7153
 2966SOL     OW20356   2.837   4.463  16.359 -0.4864 -0.8353 -0.8540
 2966SOL    HW120357   2.797   4.550  16.353  0.0685 -0.5356 -0.2162
 2966SOL    HW220358   2.764   4.425  16.408 -0.2984  2.9788  2.4282
 2967SOL     OW20359   3.203   0.324   0.875 -0.2261 -0.3589  0.4290
 2967SOL    HW120360   3.145   0.348   0.804  1.4354  2.1868 -0.0525
 2967SOL    HW220361   3.287   0.331   0.829 -0.3440 -0.0704  0.2601
 2968SOL     OW20362   0.742   3.442   4.236 -0.3522  0.3136  0.0327
 2968SOL    HW120363   0.764   3.351   4.254  0.0647  0.4934  0.4301
 2968SOL    HW220364   0.751   3.475   4.325 -0.7711 -0.0664  0.2137
 2969SOL     OW20365   4.435   3.752   4.210  0.0153  0.0007 -0.2263
 2969SOL    HW120366   4.380   3.829   4.192  0.1739  0.0806 -0.3770
 2969SOL    HW220367   4.362   3.691   4.202  1.0732 -1.2314 -0.3760
 2970SOL     OW20368   4.228   3.597  13.847 -0.2449  0.0245  0.3834
 2970SOL    HW120369   4.179   3.638  13.776  1.6797  0.0918 -0.9020
 2970SOL    HW220370   4.239   3.668  13.910  0.4494 -2.7561  3.3881
 2971SOL     OW20371   4.180   4.130   3.818 -0.1320 -0.2226  0.6584
 2971SOL    HW120372   4.126   4.143   3.896 -0.3551  0.0173  0.4610
 2971SOL    HW220373   4.211   4.216   3.792 -1.5507  0.2659  0.5857
 2972SOL     OW20374   0.777   1.095   7.138  0.1330  0.0962 -0.6091
 2972SOL    HW120375   0.829   1.125   7.063 -0.0686 -1.5349 -1.4081
 2972SOL    HW220376   0.850   1.054   7.184 -1.3808 -0.2630  1.4821
 2973SOL     OW20377   3.258   3.105   9.497 -0.1842 -0.4242 -0.2738
 2973SOL    HW120378   3.173   3.087   9.456 -1.2683  1.2862  1.2537
 2973SOL    HW220379   3.321   3.068   9.434 -1.9904 -0.3842 -2.1116
 2974SOL     OW20380   1.432   1.269  10.009  0.3217  0.4527  0.0583
 2974SOL    HW120381   1.387   1.258  10.093  1.0343 -0.9288  0.2634
 2974SOL    HW220382   1.374   1.218   9.952  1.6795 -0.8740 -0.1425
 2975SOL     OW20383   4.631   3.301   8.227 -0.0525  0.0332 -0.4830
 2975SOL    HW120384   4.564   3.294   8.159 -0.4046 -0.1386 -0.1205
 2975SOL    HW220385   4.579   3.302   8.308  0.2442  1.2071 -0.3072
 2976SOL     OW20386   4.420   0.838  15.972  0.0304  0.0850 -0.3629
 2976SOL    HW120387   4.377   0.919  15.945  0.6052  1.0948  1.7172
 2976SOL    HW220388   4.451   0.860  16.060 -0.3525 -0.0614 -0.1918
 2977SOL     OW20389   4.245   4.289   1.233  0.3184 -0.3158  0.4385
 2977SOL    HW120390   4.290   4.245   1.161  0.6984  1.0257 -0.1501
 2977SOL    HW220391   4.243   4.219   1.299 -0.8492  0.1868  0.9465
 2978SOL     OW20392   2.084   1.016   1.372  0.5155 -0.1111 -1.0289
 2978SOL    HW120393   1.993   1.040   1.354 -0.4085 -4.0902 -1.6880
 2978SOL    HW220394   2.088   0.934   1.323  0.8044 -1.3346  1.0473
 2979SOL     OW20395   3.891   3.148   2.609 -0.0055  0.1764 -0.5060
 2979SOL    HW120396   3.825   3.159   2.540 -0.2711  1.0689 -0.1156
 2979SOL    HW220397   3.954   3.219   2.595  0.3523  0.2602  1.5931
 2980SOL     OW20398   3.834   0.626  11.951 -0.0552  0.3370  0.0389
 2980SOL    HW120399   3.785   0.689  11.899 -1.1882 -0.8423 -0.3076
 2980SOL    HW220400   3.788   0.543  11.936  0.2901  0.0247  0.6505
 2981SOL     OW20401   2.750   2.386   5.250  0.4073 -1.0245 -0.1725
 2981SOL    HW120402   2.718   2.407   5.162  3.2707 -2.3028 -1.5041
 2981SOL    HW220403   2.787   2.470   5.278  0.8100 -0.7322 -1.5821
 2982SOL     OW20404   2.759   3.678   6.744 -0.0843 -0.0442  0.1002
 2982SOL    HW120405   2.844   3.634   6.746  0.5661  1.3547  3.6034
 2982SOL    HW220406   2.779   3.754   6.689  0.2430 -1.4847 -1.7755
 2983SOL     OW20407   4.135   2.229  14.560  0.0006  0.2146  0.2464
 2983SOL    HW120408   4.112   2.244  14.652 -1.1110 -1.0062  0.1892
 2983SOL    HW220409   4.087   2.296  14.512 -1.2856 -1.3749 -0.7115
 2984SOL     OW20410   0.506   1.951   3.430 -0.2098 -0.2893  0.0259
 2984SOL    HW120411   0.419   1.916   3.414 -1.0154  1.8884 -0.3929
 2984SOL    HW220412   0.550   1.949   3.345 -0.9798 -1.0849 -0.3554
 2985SOL     OW20413   3.863   2.429  15.121  0.3687 -0.2352 -0.1767
 2985SOL    HW120414   3.799   2.500  15.122 -0.0035 -0.6068  1.4372
 2985SOL    HW220415   3.895   2.408  15.209  0.0019  0.2878  0.0798
 2986SOL     OW20416   3.757   1.342   3.811  0.0831 -0.4712 -0.4477
 2986SOL    HW120417   3.799   1.324   3.727  1.7799 -2.9952  0.9496
 2986SOL    HW220418   3.669   1.367   3.782 -0.1005 -1.8900 -1.0869
 2987SOL     OW20419   2.977   4.714   8.767  0.2515  0.3000 -0.0455
 2987SOL    HW120420   3.003   4.661   8.842 -1.1596 -1.9156 -1.1114
 2987SOL    HW220421   2.952   0.073   8.807 -2.6389 -0.3111 -0.5482
 2988SOL     OW20422   1.821   3.532   2.426 -0.2651 -0.0091  0.1526
 2988SOL    HW120423   1.882   3.585   2.376  1.7130 -1.1785  1.3266
 2988SOL    HW220424   1.805   3.459   2.366 -0.3511 -0.1559  0.3532
 2989SOL     OW20425   4.450   1.285   0.241  0.2125  0.0298 -0.6278
 2989SOL    HW120426   4.492   1.228   0.305 -0.7264 -0.0107 -0.0452
 2989SOL    HW220427   4.370   1.303   0.291  2.3445  2.2640  1.9508
 2990SOL     OW20428   1.709   1.477   6.501  0.1620  0.4085  0.6330
 2990SOL    HW120429   1.619   1.455   6.524  0.4151 -0.7426  0.5140
 2990SOL    HW220430   1.720   1.438   6.414 -0.3043  0.5353  0.5178
 2991SOL     OW20431   0.060   0.048  14.290  0.1990 -0.6423 -0.0588
 2991SOL    HW120432   4.689   0.040  14.301  0.0392 -0.6046 -1.3755
 2991SOL    HW220433   0.082   4.713  14.362  2.4921  1.5095  1.0084
 2992SOL     OW20434   2.189   0.978   5.925  0.1180  0.1907 -0.3733
 2992SOL    HW120435   2.238   1.060   5.915  2.2434 -0.9725  0.3786
 2992SOL    HW220436   2.129   0.978   5.851  1.8521 -1.4400 -1.7890
 2993SOL     OW20437   3.917   2.074  15.594 -0.1888 -0.6443 -0.5365
 2993SOL    HW120438   3.928   1.981  15.574 -1.9353 -0.5270 -2.0360
 2993SOL    HW220439   4.001   2.101  15.631  1.7070 -0.6549 -4.8149
 2994SOL     OW20440   3.317   3.108  14.771 -0.4655 -0.2324  0.4016
 2994SOL    HW120441   3.400   3.070  14.798 -0.9543 -2.3595 -1.1074
 2994SOL    HW220442   3.296   3.039  14.709  0.0378  0.4678 -0.5451
 2995SOL     OW20443   1.180   0.474   7.260  0.3271  0.2378  0.2415
 2995SOL    HW120444   1.270   0.487   7.288  0.4938 -0.0754 -0.1662
 2995SOL    HW220445   1.165   0.380   7.268  2.6606 -0.0873  0.6610
 2996SOL     OW20446   2.414   2.506  13.767 -0.5340 -0.0157 -0.5636
 2996SOL    HW120447   2.447   2.582  13.814  0.5434 -0.1967 -1.0333
 2996SOL    HW220448   2.470   2.508  13.690  0.8420  0.9867  0.4649
 2997SOL     OW20449   1.384   2.804   8.713  0.2176 -0.2915 -0.1286
 2997SOL    HW120450   1.371   2.713   8.688 -2.5056  0.4464 -1.3683
 2997SOL    HW220451   1.360   2.807   8.806  2.0110  1.9417  0.2633
 2998SOL     OW20452   1.787   1.492   3.189  0.2793 -0.3260  0.2234
 2998SOL    HW120453   1.767   1.421   3.128  2.2973  0.8777 -1.8678
 2998SOL    HW220454   1.810   1.562   3.127 -1.9522 -0.1913 -0.4644
 2999SOL     OW20455   3.948   0.748   5.857  0.1342 -0.7087 -0.5319
 2999SOL    HW120456   3.989   0.798   5.787  0.7402  1.4738  1.3882
 2999SOL    HW220457   3.890   0.817   5.890  2.8055  1.7164 -0.9328
 3000SOL     OW20458   1.016   3.742   4.506 -0.2188  0.2457 -0.5127
 3000SOL    HW120459   1.091   3.748   4.447 -0.8631  0.1252 -1.3412
 3000SOL    HW220460   1.058   3.783   4.581 -0.1399  2.2049 -1.6034
 3001SOL     OW20461   2.410   4.522   5.472  0.2026 -0.2086  0.1658
 3001SOL    HW120462   2.370   4.435   5.467 -0.2408 -0.0623  0.9747
 3001SOL    HW220463   2.441   4.522   5.382 -0.5251 -0.5717 -0.0886
 3002SOL     OW20464   3.985   3.939  10.472  0.2550 -0.2561 -0.0924
 3002SOL    HW120465   3.980   3.854  10.516 -0.3491 -0.1700 -0.0051
 3002SOL    HW220466   4.035   3.910  10.395  0.3678 -0.9370  0.2377
 3003SOL     OW20467   0.279   1.990   7.865  0.1656 -0.4568  0.2526
 3003SOL    HW120468   0.213   1.926   7.839  0.5308 -0.5848 -0.3733
 3003SOL    HW220469   0.225   2.058   7.905  0.9973 -0.0476  0.6912
 3004SOL     OW20470   2.268   1.917  17.192 -0.5186 -0.6257  0.1355
 3004SOL    HW120471   2.252   1.881  17.105  1.6245  2.0780 -1.3571
 3004SOL    HW220472   2.180   1.952  17.208 -0.1404  0.5557 -0.3571
 3005SOL     OW20473   2.423   0.836   2.310  0.1718 -0.4449 -0.1439
 3005SOL    HW120474   2.457   0.795   2.231  0.3186 -0.9102  0.1576
 3005SOL    HW220475   2.333   0.855   2.283  0.7511  0.7312 -1.2204
 3006SOL     OW20476   0.141   0.429   5.995 -0.4042  0.0390 -0.1202
 3006SOL    HW120477   0.156   0.342   5.958  0.3805 -0.6607  1.8037
 3006SOL    HW220478   0.057   0.459   5.960 -0.7111 -1.0134 -0.2840
 3007SOL     OW20479   0.161   3.693   2.960  0.7496  0.5311 -0.7026
 3007SOL    HW120480   0.193   3.724   2.875 -0.8294 -0.4333 -1.6404
 3007SOL    HW220481   0.118   3.771   2.994 -0.7483 -1.3364  1.7177
 3008SOL     OW20482   1.497   3.769   5.553  0.6478 -0.2083 -0.2005
 3008SOL    HW120483   1.429   3.826   5.590 -0.1326 -0.0291 -1.9347
 3008SOL    HW220484   1.554   3.841   5.528  0.9077 -0.3393  0.0223
 3009SOL     OW20485   3.134   1.989  17.275  0.1721  0.3005 -0.2976
 3009SOL    HW120486   3.121   2.006  17.369 -2.0620  0.1333 -0.5628
 3009SOL    HW220487   3.204   2.053  17.263 -0.2045  0.1735 -3.2190
 3010SOL     OW20488   0.409   1.399   0.900 -0.2806 -0.6614 -0.2451
 3010SOL    HW120489   0.438   1.313   0.868 -2.0376  0.1342 -3.9729
 3010SOL    HW220490   0.411   1.452   0.820  0.2916 -0.0711  0.1597
 3011SOL     OW20491   0.377   1.720   5.073 -0.6401 -0.4609  0.1656
 3011SOL    HW120492   0.363   1.797   5.128  1.1469  0.5867 -0.8491
 3011SOL    HW220493   0.387   1.650   5.138  0.1999 -2.2887 -1.9263
 3012SOL     OW20494   1.254   3.600   7.715 -0.4813 -0.1542 -0.2486
 3012SOL    HW120495   1.179   3.616   7.657 -0.7958  1.3850  0.5786
 3012SOL    HW220496   1.308   3.534   7.672  3.2788  1.6503  1.7343
 3013SOL     OW20497   4.640   3.560   0.239  0.7391  0.5458  0.0757
 3013SOL    HW120498   4.639   3.614   0.160  1.7725  1.5764  0.7640
 3013SOL    HW220499   4.548   3.557   0.266  1.2027 -3.0706  1.3435
 3014SOL     OW20500   3.316   0.399   9.024  0.2124 -0.6218  1.2089
 3014SOL    HW120501   3.233   0.448   9.024 -0.2839 -1.4815 -0.6684
 3014SOL    HW220502   3.352   0.454   9.093 -1.9824  0.7430  1.2914
 3015SOL     OW20503   2.533   3.331   8.272 -0.0268  0.1781 -0.2674
 3015SOL    HW120504   2.610   3.322   8.216 -1.1218 -3.1704 -1.2219
 3015SOL    HW220505   2.524   3.426   8.271 -0.2613  0.1640  1.3841
 3016SOL     OW20506   2.275   0.961   3.375  0.1325  0.4000  1.0246
 3016SOL    HW120507   2.297   0.891   3.314 -0.2684  0.7456  0.4795
 3016SOL    HW220508   2.184   0.936   3.388 -0.3711  0.8751 -1.5074
 3017SOL     OW20509   1.398   0.683   3.062  0.2640  0.5725  0.0021
 3017SOL    HW120510   1.378   0.662   2.971 -2.4637 -0.5331  0.8384
 3017SOL    HW220511   1.335   0.754   3.079  2.3121  2.2660  0.5226
 3018SOL     OW20512   0.585   0.062   0.580 -0.3303  0.6605  0.0241
 3018SOL    HW120513   0.601   4.702   0.626 -1.4658 -0.5739 -1.8107
 3018SOL    HW220514   0.496   0.081   0.607 -1.4799 -3.0200 -1.1004
 3019SOL     OW20515   0.092   1.218   2.639 -0.0420  0.4509 -0.3229
 3019SOL    HW120516   0.012   1.240   2.590 -0.5237 -1.4230 -0.3717
 3019SOL    HW220517   0.063   1.272   2.713  1.6195  0.5480  0.2585
 3020SOL     OW20518   1.738   3.368   4.277 -0.3664  0.0748 -0.2430
 3020SOL    HW120519   1.661   3.343   4.330  0.0144  0.4587  0.4933
 3020SOL    HW220520   1.691   3.403   4.202 -1.0668 -2.1242 -0.8510
 3021SOL     OW20521   3.309   4.668   8.791  0.2715 -0.1035  0.0097
 3021SOL    HW120522   3.373   4.713   8.847  2.9637 -2.1835 -1.3863
 3021SOL    HW220523   3.237   4.651   8.852 -0.6242  2.0155 -0.4498
 3022SOL     OW20524   3.133   0.089   4.934  0.4037  0.4061 -0.0321
 3022SOL    HW120525   3.138   0.040   4.852  0.7532  0.8089 -0.2499
 3022SOL    HW220526   3.216   0.062   4.973 -0.3306 -0.3921  0.9883
 3023SOL     OW20527   2.392   0.245   2.916  0.2984  0.2210 -0.2497
 3023SOL    HW120528   2.452   0.176   2.887  0.0831  0.2377 -0.7377
 3023SOL    HW220529   2.333   0.253   2.841  0.9154 -1.8945 -0.9686
 3024SOL     OW20530   2.679   1.119   6.642 -0.3579 -0.8520 -0.0238
 3024SOL    HW120531   2.614   1.182   6.673 -0.2189  0.1182 -1.7257
 3024SOL    HW220532   2.744   1.127   6.713 -0.7705 -0.0854  0.2668
 3025SOL     OW20533   4.071   0.811   1.409 -0.3429 -0.0626  0.2733
 3025SOL    HW120534   4.008   0.740   1.398 -0.5306  0.6987 -3.7949
 3025SOL    HW220535   4.096   0.826   1.318 -0.8387 -3.9528 -0.5027
 3026SOL     OW20536   1.684   0.054   0.447 -0.2344 -0.3797  0.1647
 3026SOL    HW120537   1.763   0.071   0.498  0.1600 -0.5561 -0.3839
 3026SOL    HW220538   1.619   0.108   0.491  1.5065  0.6933  1.4162
 3027SOL     OW20539   4.462   1.016   8.386  0.2498  0.2774  0.4505
 3027SOL    HW120540   4.448   0.945   8.324  0.4006 -0.5382  1.3553
 3027SOL    HW220541   4.426   0.972   8.463  0.1339 -0.9728 -0.3318
 3028SOL     OW20542   4.192   3.395   5.697  0.3304  0.0131  0.3209
 3028SOL    HW120543   4.168   3.370   5.786  0.5310 -1.4914 -0.0522
 3028SOL    HW220544   4.102   3.380   5.667  0.3061 -1.5745  1.2365
 3029SOL     OW20545   3.107   2.772   3.272 -0.3531 -0.4858  0.8208
 3029SOL    HW120546   3.093   2.710   3.201 -2.0878 -1.5783  2.0858
 3029SOL    HW220547   3.015   2.790   3.293 -0.5115  0.1833 -0.4776
 3030SOL     OW20548   3.070   4.051  13.115  0.8159 -0.0632 -0.2855
 3030SOL    HW120549   3.003   4.022  13.177 -0.0199 -1.0106 -1.6473
 3030SOL    HW220550   3.145   4.000  13.146 -0.7578 -1.8327  0.6576
 3031SOL     OW20551   4.568   1.402   8.985  0.0235  1.0509 -0.6629
 3031SOL    HW120552   4.597   1.336   8.921 -1.3559  0.8144 -1.0317
 3031SOL    HW220553   4.509   1.353   9.042  1.2270 -0.3921 -0.6661
 3032SOL     OW20554   0.265   0.345   0.068 -0.3015  0.5201  0.7877
 3032SOL    HW120555   0.222   0.283   0.126  0.2271 -0.5892 -0.0070
 3032SOL    HW220556   0.348   0.299   0.058  0.3056  1.6944  0.3472
 3033SOL     OW20557   2.036   0.981   3.579  0.0285 -0.0231  0.2391
 3033SOL    HW120558   2.086   1.015   3.654  0.1418  0.5374 -0.0930
 3033SOL    HW220559   1.951   0.959   3.617 -0.0728 -0.0453 -0.0060
 3034SOL     OW20560   3.675   4.177  12.360  0.5108  0.7452  0.0500
 3034SOL    HW120561   3.703   4.255  12.313 -1.0218  0.9059 -0.5990
 3034SOL    HW220562   3.758   4.172  12.407  0.9841  0.2524 -0.8463
 3035SOL     OW20563   0.901   0.502   6.088 -0.2931  0.4372  0.7421
 3035SOL    HW120564   0.880   0.595   6.089  1.7412  0.8909 -1.1638
 3035SOL    HW220565   0.828   0.469   6.034 -0.4773 -0.2392  1.4007
 3036SOL     OW20566   0.778   0.383   4.715  0.5201 -0.5681  0.3483
 3036SOL    HW120567   0.756   0.467   4.756  0.9393 -0.2261 -0.1336
 3036SOL    HW220568   0.846   0.364   4.781  0.2686  0.1899  0.8337
 3037SOL     OW20569   2.208   0.399   8.960 -0.6696  0.4245 -0.3268
 3037SOL    HW120570   2.253   0.346   9.025 -2.9372 -1.1856 -0.0636
 3037SOL    HW220571   2.121   0.365   8.980 -0.9823  1.2999 -0.1691
 3038SOL     OW20572   0.513   2.399   7.283 -0.6970 -0.0344  0.2216
 3038SOL    HW120573   0.438   2.429   7.333 -1.6176  0.8869 -1.7479
 3038SOL    HW220574   0.517   2.469   7.218  1.1730 -0.5824 -0.2781
 3039SOL     OW20575   2.326   3.878  10.150 -0.2659 -0.1000 -0.4523
 3039SOL    HW120576   2.307   3.969  10.169  0.6104  0.0288 -0.1906
 3039SOL    HW220577   2.299   3.842  10.235 -0.6076 -3.5622 -1.9990
 3040SOL     OW20578   1.303   1.834  12.033  0.4706 -0.0980  0.1845
 3040SOL    HW120579   1.257   1.818  12.115  0.5764  1.6274  0.5656
 3040SOL    HW220580   1.294   1.755  11.979 -0.3820 -0.5639  0.9998
 3041SOL     OW20581   3.894   0.571   2.818 -0.6173 -0.2677  0.3267
 3041SOL    HW120582   3.960   0.508   2.788 -0.4713  0.2936 -0.5251
 3041SOL    HW220583   3.944   0.635   2.868  1.9246  0.4601 -3.1349
 3042SOL     OW20584   1.553   0.696  14.181  0.1367  0.0290 -0.5055
 3042SOL    HW120585   1.638   0.669  14.146 -0.7152 -4.6912  1.0624
 3042SOL    HW220586   1.544   0.644  14.261  2.1056 -0.7240 -0.7714
 3043SOL     OW20587   1.819   2.763   8.817 -0.1129 -0.0217 -0.5987
 3043SOL    HW120588   1.858   2.784   8.903  0.3798 -0.1996 -0.7810
 3043SOL    HW220589   1.895   2.727   8.773 -0.8553  0.4484 -2.2456
 3044SOL     OW20590   3.107   2.693  11.346  0.5814 -0.2703 -0.2837
 3044SOL    HW120591   3.020   2.699  11.306 -1.2085 -1.8553  3.3496
 3044SOL    HW220592   3.117   2.755  11.419  1.6259  0.3645 -0.9749
 3045SOL     OW20593   0.657   3.801   4.777 -0.1019  0.1152 -0.1659
 3045SOL    HW120594   0.666   3.720   4.726 -0.2334  0.6780 -1.0653
 3045SOL    HW220595   0.575   3.783   4.822 -0.8775 -0.2046 -1.7271
 3046SOL     OW20596   3.687   1.132   9.231 -0.2035  0.0683  0.6261
 3046SOL    HW120597   3.779   1.160   9.236 -0.2325  0.6036 -1.8528
 3046SOL    HW220598   3.653   1.210   9.189  0.8493 -0.9700 -2.1543
 3047SOL     OW20599   0.400   3.437  15.827 -0.3303  0.1139 -0.0684
 3047SOL    HW120600   0.316   3.479  15.845  1.0027  2.5883  0.3456
 3047SOL    HW220601   0.400   3.426  15.732  0.0080  3.1372 -0.4048
 3048SOL     OW20602   3.975   2.291   5.658  0.0085  0.1508 -0.0581
 3048SOL    HW120603   3.928   2.305   5.741  0.8592  0.1304  0.4271
 3048SOL    HW220604   4.062   2.323   5.680 -0.7825  1.9664  0.4708
 3049SOL     OW20605   3.677   1.460   8.136 -0.4433 -0.4026  0.1262
 3049SOL    HW120606   3.665   1.365   8.132  1.5197 -0.6538 -0.1931
 3049SOL    HW220607   3.763   1.475   8.175  0.5294 -0.5513 -1.9361
 3050SOL     OW20608   2.622   1.253   3.913 -0.3427 -0.3745 -0.7662
 3050SOL    HW120609   2.621   1.173   3.964  0.2311 -1.5982 -2.6641
 3050SOL    HW220610   2.713   1.267   3.885  0.3016 -1.6517  0.7248
 3051SOL     OW20611   4.120   1.341   3.221 -0.0413 -0.0431  0.3530
 3051SOL    HW120612   4.160   1.345   3.134  0.3257 -0.6023  0.4960
 3051SOL    HW220613   4.031   1.373   3.207  0.5611  1.9658  1.1662
 3052SOL     OW20614   4.269   1.995  13.290  0.3279  0.3364 -0.4477
 3052SOL    HW120615   4.353   2.022  13.251  0.5064  0.7446  0.2184
 3052SOL    HW220616   4.297   1.947  13.369 -1.2251  0.9484  0.4774
 3053SOL     OW20617   1.662   4.087   4.766  0.0551 -0.0951  0.1490
 3053SOL    HW120618   1.656   4.007   4.819 -1.0697 -0.1864 -0.0992
 3053SOL    HW220619   1.621   4.057   4.685  0.3215 -0.6168  0.2036
 3054SOL     OW20620   4.059   2.398   7.556  0.2663 -0.0939 -0.2391
 3054SOL    HW120621   4.023   2.391   7.644  2.1824  0.3518  0.5810
 3054SOL    HW220622   4.062   2.493   7.545  1.4649  0.2348  3.0539
 3055SOL     OW20623   1.978   1.519   7.325  0.1641 -0.1941  0.8407
 3055SOL    HW120624   1.928   1.479   7.254 -2.7058  1.2301  2.0675
 3055SOL    HW220625   2.064   1.484   7.300  0.6660  1.6176  0.0310
 3056SOL     OW20626   3.565   1.171   4.619 -0.0810  0.0543  0.0344
 3056SOL    HW120627   3.645   1.118   4.614  0.5452  0.9527  0.5071
 3056SOL    HW220628   3.527   1.150   4.704  1.3273 -1.5939  0.2563
 3057SOL     OW20629   3.708   4.274   6.450  0.2315 -1.0166  0.1384
 3057SOL    HW120630   3.734   4.295   6.539  0.1931 -1.8874  0.3575
 3057SOL    HW220631   3.794   4.249   6.415  1.0235  0.4196  1.0741
 3058SOL     OW20632   3.864   1.861  16.228 -0.1341 -0.1231 -0.3783
 3058SOL    HW120633   3.933   1.919  16.260  0.6237 -0.3143 -1.6826
 3058SOL    HW220634   3.829   1.918  16.159  0.8405  0.9245 -0.0140
 3059SOL     OW20635   4.108   2.023   1.062  0.3049  0.7065 -0.3626
 3059SOL    HW120636   4.186   2.078   1.063  1.1509 -0.5253  2.7768
 3059SOL    HW220637   4.038   2.089   1.063 -1.7997 -1.4852 -2.6249
 3060SOL     OW20638   3.464   2.239   3.424  0.8024 -0.7780 -0.2291
 3060SOL    HW120639   3.440   2.326   3.456  2.1696 -0.3573 -0.3336
 3060SOL    HW220640   3.505   2.192   3.497 -0.8451 -2.2346 -0.2380
 3061SOL     OW20641   3.558   4.177   2.880 -1.0976  0.3289 -0.2897
 3061SOL    HW120642   3.645   4.209   2.905 -0.6460 -1.4885  0.4748
 3061SOL    HW220643   3.571   4.093   2.926 -0.5595 -0.7325 -2.3748
 3062SOL     OW20644   2.305   4.540   2.606 -0.3197 -0.5768 -0.4630
 3062SOL    HW120645   2.320   4.517   2.514  1.4332  0.7874 -0.5136
 3062SOL    HW220646   2.231   4.483   2.626 -0.7482 -0.2412 -1.0831
 3063SOL     OW20647   4.461   2.380  10.882 -0.1545  0.3730 -0.3346
 3063SOL    HW120648   4.473   2.470  10.850 -0.6965  0.8467  0.7877
 3063SOL    HW220649   4.367   2.374  10.862  0.2207 -0.6419 -1.7279
 3064SOL     OW20650   4.540   0.263  17.185 -0.0798  0.3586  0.1052
 3064SOL    HW120651   4.527   0.358  17.186  3.0829  0.8020  0.0365
 3064SOL    HW220652   4.583   0.266  17.270 -0.3947 -0.1093  0.2820
 3065SOL     OW20653   4.519   0.823  13.224  0.5225  0.2006  0.5586
 3065SOL    HW120654   4.435   0.787  13.252  1.0218 -1.0607  0.4283
 3065SOL    HW220655   4.488   0.858  13.141  1.6745 -2.0119 -0.8180
 3066SOL     OW20656   1.963   3.574  14.408 -0.0345 -0.5522 -0.0320
 3066SOL    HW120657   1.979   3.480  14.409 -0.7653 -0.6957 -1.8915
 3066SOL    HW220658   1.870   3.590  14.389 -0.1366  0.0241  0.9151
 3067SOL     OW20659   1.154   3.130   5.936 -0.1543 -0.1701  0.5978
 3067SOL    HW120660   1.200   3.138   6.019 -0.0690  1.6359  0.3736
 3067SOL    HW220661   1.066   3.132   5.971 -0.5382  2.3106 -0.5275
 3068SOL     OW20662   3.666   2.384   2.942  0.3299  0.3189  0.4434
 3068SOL    HW120663   3.657   2.340   3.027 -2.3064  1.2413  0.6281
 3068SOL    HW220664   3.584   2.359   2.897  0.8372  1.9363 -1.3747
 3069SOL     OW20665   4.712   4.506   5.584 -0.4399  0.4510  0.1594
 3069SOL    HW120666   0.084   4.517   5.586 -0.0980 -2.4212 -0.3101
 3069SOL    HW220667   4.701   4.412   5.569 -1.9632  0.3639  1.7746
 3070SOL     OW20668   1.752   3.173   1.955 -0.1773 -0.2545  0.7578
 3070SOL    HW120669   1.706   3.256   1.966  0.4544  0.3713 -1.3677
 3070SOL    HW220670   1.774   3.163   2.048 -0.8600 -2.2185  0.7009
 3071SOL     OW20671   0.010   1.762   5.141  0.7379  0.2051  0.4141
 3071SOL    HW120672   4.640   1.764   5.120  0.4311  1.5625  1.8390
 3071SOL    HW220673   0.031   1.671   5.121 -1.5699  0.1750 -1.8372
 3072SOL     OW20674   3.526   1.496  12.824 -0.0556 -0.5979  0.1950
 3072SOL    HW120675   3.453   1.548  12.791  0.9132  1.1977  0.8931
 3072SOL    HW220676   3.477   1.414  12.817 -0.3967 -0.4648  0.9765
 3073SOL     OW20677   3.188   1.388  13.362  0.3001  0.5842  0.4015
 3073SOL    HW120678   3.121   1.358  13.300 -0.7588  0.8413  1.4118
 3073SOL    HW220679   3.165   1.325  13.431 -1.5557  0.8493  0.0294
 3074SOL     OW20680   4.585   3.057   6.600 -0.5110  0.3498  0.0522
 3074SOL    HW120681   4.601   3.089   6.511 -2.4932  0.2877 -0.3089
 3074SOL    HW220682   4.612   2.967   6.581 -1.7606 -0.1762  0.8075
 3075SOL     OW20683   0.660   0.585  10.852  0.0604  0.3406  0.0498
 3075SOL    HW120684   0.585   0.548  10.806 -0.3731  0.7745  0.4140
 3075SOL    HW220685   0.618   0.633  10.922  0.0143  1.9418 -1.0839
 3076SOL     OW20686   1.219   1.658   3.157 -0.3497  0.3969 -0.1470
 3076SOL    HW120687   1.203   1.615   3.073 -2.6836 -0.0134  0.5044
 3076SOL    HW220688   1.306   1.623   3.178 -1.3930 -2.1443 -0.0717
 3077SOL     OW20689   2.722   2.123  12.320 -0.4701  0.5448  0.0747
 3077SOL    HW120690   2.707   2.096  12.229  1.7228 -2.9349  0.7409
 3077SOL    HW220691   2.699   2.045  12.370 -2.0543  1.0256  0.0964
 3078SOL     OW20692   3.992   0.376  13.651 -0.1985 -0.1377  0.6340
 3078SOL    HW120693   3.919   0.417  13.604  0.6498  1.7747  1.0109
 3078SOL    HW220694   4.018   0.452  13.703  0.9914 -0.5103  0.5726
 3079SOL     OW20695   0.628   1.919   2.935 -0.5681  0.0158 -0.1617
 3079SOL    HW120696   0.595   1.863   2.865  1.6351 -3.1649  1.3184
 3079SOL    HW220697   0.549   1.947   2.981 -0.1823 -0.5897  0.8784
 3080SOL     OW20698   0.485   2.479  16.474 -0.0021 -0.1290  0.0851
 3080SOL    HW120699   0.475   2.428  16.393 -1.0362  1.4226 -0.7730
 3080SOL    HW220700   0.532   2.558  16.445 -1.8964  0.3326 -1.7720
 3081SOL     OW20701   1.239   4.540   6.887 -0.4573  0.0050 -0.1680
 3081SOL    HW120702   1.274   4.573   6.804 -1.7300  2.7486  0.3905
 3081SOL    HW220703   1.294   4.463   6.897 -1.6189 -0.9446 -1.1632
 3082SOL     OW20704   1.662   1.299   7.628  0.1278 -0.1199 -0.4087
 3082SOL    HW120705   1.613   1.217   7.617  0.0646 -0.3327  1.5748
 3082SOL    HW220706   1.745   1.278   7.586  0.2952 -0.6776  0.2054
 3083SOL     OW20707   3.361   3.589   2.969  0.3315  0.0873 -0.0972
 3083SOL    HW120708   3.286   3.628   3.014  1.8888  2.0377  0.7710
 3083SOL    HW220709   3.410   3.541   3.036 -2.6072 -2.8843 -0.0201
 3084SOL     OW20710   1.820   1.732   2.556 -0.5523 -0.9342 -0.3813
 3084SOL    HW120711   1.830   1.645   2.596  0.3777 -0.3542  0.6427
 3084SOL    HW220712   1.836   1.713   2.464 -1.8270 -2.5112 -0.2799
 3085SOL     OW20713   1.148   2.785  13.203 -0.3568  0.4651  0.2913
 3085SOL    HW120714   1.221   2.767  13.263  0.8910  1.7445 -0.8421
 3085SOL    HW220715   1.079   2.819  13.261 -1.5770  0.5083 -1.2033
 3086SOL     OW20716   3.138   1.331  16.354 -0.6362  0.2233  0.0662
 3086SOL    HW120717   3.104   1.370  16.273 -0.6858 -1.5244 -0.7708
 3086SOL    HW220718   3.049   1.314  16.385  0.0692 -0.4818  1.7233
 3087SOL     OW20719   0.014   3.938   7.969 -0.3811  0.3931 -0.2378
 3087SOL    HW120720   0.039   3.989   8.046  2.1666 -0.9515 -0.1642
 3087SOL    HW220721   4.675   3.877   8.008 -1.0492  0.8190 -0.6473
 3088SOL     OW20722   2.580   1.075   7.998 -0.0256 -0.0183  0.2452
 3088SOL    HW120723   2.554   0.983   7.987 -0.6422  0.1414  0.3761
 3088SOL    HW220724   2.632   1.093   7.920  1.7371 -2.1150  0.9487
 3089SOL     OW20725   3.970   0.319   3.416  0.6193  0.2921 -0.2013
 3089SOL    HW120726   4.062   0.343   3.401  0.9265  0.9993  2.8576
 3089SOL    HW220727   3.967   0.295   3.508  0.9479  1.0113 -0.0045
 3090SOL     OW20728   0.025   0.600   1.866 -0.1762 -0.2383  0.0560
 3090SOL    HW120729   0.024   0.574   1.958  1.7137  1.0192  0.4274
 3090SOL    HW220730   0.092   0.669   1.863 -0.0746 -0.2843  1.1552
 3091SOL     OW20731   2.022   0.601   1.529 -0.4446 -0.3957 -0.5553
 3091SOL    HW120732   2.096   0.543   1.550  0.1062 -0.1986 -1.9355
 3091SOL    HW220733   1.968   0.608   1.608  1.4081 -1.9035  0.8353
 3092SOL     OW20734   2.835   3.091   6.139 -0.3960  0.1690  0.6974
 3092SOL    HW120735   2.820   3.008   6.093  0.2175  0.1788  0.4849
 3092SOL    HW220736   2.929   3.083   6.153 -0.0635  2.2622 -0.3994
 3093SOL     OW20737   3.843   4.640   2.692 -0.4201 -0.4412  0.1686
 3093SOL    HW120738   3.778   4.696   2.650 -0.1006  0.9023  1.4597
 3093SOL    HW220739   3.780   4.587   2.741 -1.4608 -0.1711 -0.8784
 3094SOL     OW20740   0.549   3.165   6.456 -0.5340  0.4607 -0.5435
 3094SOL    HW120741   0.565   3.246   6.408 -1.8797  1.3041  0.4328
 3094SOL    HW220742   0.545   3.200   6.545  0.4510 -0.2754 -0.2130
 3095SOL     OW20743   0.169   0.335  10.645 -0.6165 -0.5735  0.2451
 3095SOL    HW120744   0.139   0.280  10.573  2.1785 -1.7324 -0.0198
 3095SOL    HW220745   0.130   0.291  10.721  1.3380  2.1438  2.8008
 3096SOL     OW20746   1.731   1.346   5.461 -0.3710 -0.1380 -0.2949
 3096SOL    HW120747   1.806   1.363   5.404 -0.8055  1.4890 -0.3613
 3096SOL    HW220748   1.667   1.362   5.393 -0.4602 -0.1419 -0.2114
 3097SOL     OW20749   4.419   2.131   3.418  0.6915  0.2958  0.0446
 3097SOL    HW120750   4.465   2.215   3.420  0.7105  0.2452  1.4186
 3097SOL    HW220751   4.327   2.155   3.408  0.8142  0.9634  0.5356
 3098SOL     OW20752   3.726   2.982   5.489 -0.1261  0.0773 -0.1856
 3098SOL    HW120753   3.676   2.909   5.454  1.5230 -2.4543  2.6126
 3098SOL    HW220754   3.686   3.007   5.572 -0.2527  0.5006 -0.3735
 3099SOL     OW20755   1.717   1.067   3.444 -0.5866  0.2568  0.1208
 3099SOL    HW120756   1.668   0.990   3.412  0.6146 -0.5571  0.2549
 3099SOL    HW220757   1.765   1.028   3.517 -1.3521 -0.3113  0.3196
 3100SOL     OW20758   0.867   3.012   3.315 -0.3897  0.2974  0.0222
 3100SOL    HW120759   0.881   3.036   3.223 -0.9210  0.5742  0.0134
 3100SOL    HW220760   0.783   3.054   3.333  0.0434  1.7456 -1.3005
 3101SOL     OW20761   4.400   0.770   7.713 -0.0012 -0.3710  0.1566
 3101SOL    HW120762   4.352   0.743   7.791  0.3527 -0.6559  0.2750
 3101SOL    HW220763   4.427   0.684   7.682  0.8435  0.1342 -0.5161
 3102SOL     OW20764   0.719   3.590  10.304  0.1870  0.5961 -0.0733
 3102SOL    HW120765   0.778   3.515  10.306  0.6006  0.9284  0.1432
 3102SOL    HW220766   0.671   3.589  10.387  2.3148  1.2794  1.1637
 3103SOL     OW20767   3.163   3.389   0.411  0.0529  0.0202 -0.2087
 3103SOL    HW120768   3.142   3.326   0.342  0.4879 -0.5790  0.1967
 3103SOL    HW220769   3.219   3.429   0.344 -0.5455  1.3002  0.0601
 3104SOL     OW20770   4.206   1.609   7.677 -0.7391 -0.6124  0.5264
 3104SOL    HW120771   4.186   1.686   7.624 -2.1462  0.1354  2.1424
 3104SOL    HW220772   4.142   1.551   7.636 -0.8137 -0.3591  0.2882
 3105SOL     OW20773   4.011   1.762   1.800  0.1777  0.3887 -0.6854
 3105SOL    HW120774   4.044   1.705   1.731 -0.9387 -0.9565 -0.1122
 3105SOL    HW220775   3.932   1.715   1.827  0.9072 -0.5219 -0.1400
 3106SOL     OW20776   1.054   4.477   8.110  0.2016 -0.3126 -0.3695
 3106SOL    HW120777   1.079   4.391   8.145 -0.0693 -0.3913 -0.3676
 3106SOL    HW220778   1.117   4.528   8.159 -0.1463  1.0794 -1.3870
 3107SOL     OW20779   3.427   1.334   5.634  0.9203 -0.2872 -0.0254
 3107SOL    HW120780   3.380   1.414   5.609 -1.7572 -1.2892  1.8534
 3107SOL    HW220781   3.367   1.283   5.580  2.0945  0.6862 -2.2891
 3108SOL     OW20782   1.424   2.877   9.588  0.5669  0.5334 -0.3756
 3108SOL    HW120783   1.425   2.791   9.629 -1.3523  0.5307 -0.3547
 3108SOL    HW220784   1.331   2.898   9.591  0.5208  0.3759 -0.7300
 3109SOL     OW20785   1.080   2.339  11.344  0.0692  0.2739 -0.2318
 3109SOL    HW120786   1.040   2.318  11.428  1.9744  0.3230  0.7075
 3109SOL    HW220787   1.003   2.346  11.288 -1.4476  1.3809  1.9788
 3110SOL     OW20788   1.486   0.893   8.053 -0.3960  0.0378 -0.1908
 3110SOL    HW120789   1.531   0.846   8.123  1.9632  1.2098 -0.8931
 3110SOL    HW220790   1.399   0.854   8.063 -0.0240 -0.4192  1.2227
 3111SOL     OW20791   1.774   0.004   5.382  0.0240  0.2705  0.0483
 3111SOL    HW120792   1.837   0.076   5.379 -1.5546  1.5719 -2.0800
 3111SOL    HW220793   1.766   4.705   5.474 -1.2662 -1.4457 -0.4828
 3112SOL     OW20794   3.867   4.051   8.510 -0.6524 -0.0396 -0.2384
 3112SOL    HW120795   3.933   4.086   8.571  0.6245 -0.7382 -1.2147
 3112SOL    HW220796   3.882   3.957   8.514 -0.4968 -0.0636 -1.3848
 3113SOL     OW20797   2.392   4.065   3.286  0.0818 -0.5689 -0.4559
 3113SOL    HW120798   2.482   4.066   3.318 -0.3162  0.4225  0.6228
 3113SOL    HW220799   2.365   4.157   3.280 -0.6222 -0.6690  1.3794
 3114SOL     OW20800   3.630   0.448   8.914  0.2868 -0.3266 -0.1043
 3114SOL    HW120801   3.680   0.437   8.833  0.0657 -0.2084 -0.2548
 3114SOL    HW220802   3.605   0.540   8.907  0.6321 -0.2323 -0.1305
 3115SOL     OW20803   2.178   2.733  10.302  0.5174  0.3375  0.0593
 3115SOL    HW120804   2.116   2.758  10.371 -0.8518  0.8019 -1.3256
 3115SOL    HW220805   2.121   2.739  10.225  1.2330 -1.1267 -0.5848
 3116SOL     OW20806   1.463   2.392  16.908 -0.5087  0.7334  0.7500
 3116SOL    HW120807   1.480   2.423  16.997 -0.5600 -0.8988  1.3278
 3116SOL    HW220808   1.472   2.298  16.923  0.3819  0.7565  0.3333
 3117SOL     OW20809   3.999   1.628   4.384  0.4767  0.1248  0.1843
 3117SOL    HW120810   4.055   1.560   4.347  1.0896 -0.7933  2.8099
 3117SOL    HW220811   4.071   1.679   4.421  0.8706 -0.5515  0.3436
 3118SOL     OW20812   1.231   0.558  14.085 -0.0199  0.4250  0.0361
 3118SOL    HW120813   1.295   0.504  14.038 -0.2960 -1.4775  1.8701
 3118SOL    HW220814   1.151   0.516  14.055  1.4458 -0.2186 -3.0186
 3119SOL     OW20815   4.174   2.628   7.354  0.8948  0.6510 -0.2756
 3119SOL    HW120816   4.124   2.661   7.428 -0.3314 -1.9289  0.0360
 3119SOL    HW220817   4.251   2.593   7.398  1.7630 -2.7739 -4.4543
 3120SOL     OW20818   1.492   2.495   0.789  0.5433  0.1832  0.6862
 3120SOL    HW120819   1.396   2.494   0.782  0.6246  0.0188 -0.5095
 3120SOL    HW220820   1.514   2.534   0.704 -0.8679  0.2169  0.3353
 3121SOL     OW20821   0.777   3.767   3.681  0.2676 -0.1922 -0.0424
 3121SOL    HW120822   0.694   3.806   3.709  1.1066 -0.5079  2.8851
 3121SOL    HW220823   0.752   3.725   3.598  0.6973 -0.5229 -0.0001
 3122SOL     OW20824   2.270   2.398   2.713 -0.2839 -0.2814  0.6401
 3122SOL    HW120825   2.346   2.354   2.752 -0.6156 -0.4653  1.0679
 3122SOL    HW220826   2.263   2.463   2.783 -0.9728  0.5904 -0.2451
 3123SOL     OW20827   0.887   4.618  11.613 -0.0995 -0.4553 -0.2074
 3123SOL    HW120828   0.923   4.618  11.524 -0.0662 -2.3973 -0.1927
 3123SOL    HW220829   0.793   4.609  11.596  0.0659 -0.6378 -1.0747
 3124SOL     OW20830   4.379   4.490  16.930 -0.2305 -0.1598 -0.1275
 3124SOL    HW120831   4.285   4.499  16.942 -0.4118 -0.5111 -1.2811
 3124SOL    HW220832   4.403   4.487  17.023  5.5214  1.7817 -1.5435
 3125SOL     OW20833   0.720   1.855   3.272  0.4692  0.4853 -0.7990
 3125SOL    HW120834   0.775   1.921   3.232  2.7808 -0.2360  1.1947
 3125SOL    HW220835   0.760   1.780   3.228 -0.6866  0.5334 -1.9517
 3126SOL     OW20836   1.964   3.624   4.519  0.2917  0.1778  0.7870
 3126SOL    HW120837   1.887   3.680   4.510  0.3143  0.4989  2.4363
 3126SOL    HW220838   2.019   3.622   4.441  0.7741 -3.0963  1.2258
 3127SOL     OW20839   2.678   2.900   9.302 -0.2441  0.1876 -0.2164
 3127SOL    HW120840   2.605   2.896   9.363 -0.5863 -0.0826 -0.6384
 3127SOL    HW220841   2.687   2.992   9.277  1.8918  0.3419  1.1818
 3128SOL     OW20842   3.124   1.346   9.612  0.1086 -0.4549 -0.4027
 3128SOL    HW120843   3.127   1.265   9.662 -1.2323  0.5837  1.3335
 3128SOL    HW220844   3.068   1.330   9.535  1.3247  0.9664 -1.5889
 3129SOL     OW20845   1.116   3.813   0.694  0.3264 -0.0721 -0.4263
 3129SOL    HW120846   1.197   3.762   0.697 -0.5895 -1.4537  0.6795
 3129SOL    HW220847   1.100   3.819   0.600  0.2803  2.8212 -0.2400
 3130SOL     OW20848   1.009   3.359   2.433  0.1970 -0.1901  1.0432
 3130SOL    HW120849   1.093   3.401   2.413 -0.1903  0.8335  1.5248
 3130SOL    HW220850   1.028   3.279   2.385  0.6201 -0.9858  2.5382
 3131SOL     OW20851   2.222   4.275   2.822 -0.5406 -0.2762  0.8000
 3131SOL    HW120852   2.294   4.217   2.795 -1.5893 -0.8673 -0.7306
 3131SOL    HW220853   2.171   4.274   2.741  0.9399 -0.0534 -0.1461
 3132SOL     OW20854   2.667   1.984   1.274  0.3314  0.1665 -0.2513
 3132SOL    HW120855   2.594   1.948   1.225  0.0140 -0.1549  0.4473
 3132SOL    HW220856   2.620   2.011   1.353  1.0089 -1.5736  0.7566
 3133SOL     OW20857   4.304   3.785   9.684 -0.3406  0.7234 -0.0486
 3133SOL    HW120858   4.362   3.724   9.731 -0.1415  0.2734 -0.8808
 3133SOL    HW220859   4.266   3.729   9.617 -0.7354  2.2884 -1.1176
 3134SOL     OW20860   0.134   3.325   5.808  0.1010 -0.6424  0.0700
 3134SOL    HW120861   0.054   3.350   5.762 -0.1317  1.9179  1.8629
 3134SOL    HW220862   0.111   3.232   5.814 -0.5045 -0.4138  1.2458
 3135SOL     OW20863   1.926   1.928   6.705 -0.3476  0.3544  0.4922
 3135SOL    HW120864   1.861   1.859   6.693 -1.5098  0.9316  3.3348
 3135SOL    HW220865   1.974   1.907   6.625  0.2813 -0.4050  1.0620
 3136SOL     OW20866   0.189   3.120   0.413  0.6226  0.0641  0.1615
 3136SOL    HW120867   0.185   3.079   0.499 -0.7196  1.5066  0.7760
 3136SOL    HW220868   0.232   3.204   0.433  0.7731 -0.0900  0.4783
 3137SOL     OW20869   0.728   0.072   7.122  0.1019  0.5114 -0.1284
 3137SOL    HW120870   0.694   0.085   7.034 -1.5610 -0.6256  0.3676
 3137SOL    HW220871   0.660   0.014   7.155  1.1683 -1.1400 -0.8443
 3138SOL     OW20872   4.293   3.457   3.614  0.3186 -0.2217 -0.5472
 3138SOL    HW120873   4.224   3.496   3.561 -1.2192 -1.1036  0.8029
 3138SOL    HW220874   4.240   3.471   3.693 -0.3688  2.3558 -1.4731
 3139SOL     OW20875   3.708   3.983   5.616  0.3274  0.0540 -0.6037
 3139SOL    HW120876   3.732   3.895   5.647 -1.6611 -0.1384  0.3898
 3139SOL    HW220877   3.628   3.972   5.565  1.4491 -0.7683 -2.2127
 3140SOL     OW20878   4.299   0.470   7.192 -0.7347  0.6277  0.0220
 3140SOL    HW120879   4.264   0.467   7.281  1.4896  0.0329  0.8811
 3140SOL    HW220880   4.223   0.474   7.134 -0.1094 -2.0986 -1.0079
 3141SOL     OW20881   1.123   2.787   0.829  0.2580 -0.0635  0.2093
 3141SOL    HW120882   1.038   2.810   0.868  0.2328  3.5288 -2.0037
 3141SOL    HW220883   1.096   2.712   0.776 -0.2168 -0.1385  0.5583
 3142SOL     OW20884   2.958   1.135   5.437 -0.0671 -0.1997 -0.6074
 3142SOL    HW120885   3.038   1.165   5.479 -0.0992 -1.1792  0.1572
 3142SOL    HW220886   2.913   1.096   5.512  1.7570 -1.8199 -0.3522
 3143SOL     OW20887   3.307   4.091  10.118 -0.3285  0.4184  0.0467
 3143SOL    HW120888   3.342   4.178  10.138 -0.4980  0.7963 -1.2908
 3143SOL    HW220889   3.307   4.096  10.022 -0.6731  1.4106  0.0984
 3144SOL     OW20890   1.144   1.638   3.405 -0.1537 -0.5215 -0.1602
 3144SOL    HW120891   1.159   1.603   3.317 -0.0491 -0.9604  0.0307
 3144SOL    HW220892   1.056   1.673   3.393 -0.2639  0.0628  2.4230
 3145SOL     OW20893   2.333   2.332   7.598  0.4864  0.2146  0.1582
 3145SOL    HW120894   2.405   2.270   7.611  0.1089 -0.2925 -0.1411
 3145SOL    HW220895   2.263   2.296   7.652 -0.2686 -0.6326 -1.3786
 3146SOL     OW20896   3.169   4.036  16.871  0.6366 -0.9695 -0.3243
 3146SOL    HW120897   3.235   4.090  16.913  2.1807 -2.0672 -1.3506
 3146SOL    HW220898   3.155   3.969  16.937  4.3144 -0.2862  1.1200
 3147SOL     OW20899   3.599   0.284  13.738 -0.1506 -0.0269  0.0029
 3147SOL    HW120900   3.678   0.338  13.731  0.4896 -0.9596  0.1071
 3147SOL    HW220901   3.530   0.347  13.760 -0.9029 -0.3536 -1.4275
 3148SOL     OW20902   0.113   0.266   3.070  0.4224 -0.0858  0.1543
 3148SOL    HW120903   0.070   0.342   3.109 -1.0414  0.7320 -3.1146
 3148SOL    HW220904   0.200   0.279   3.109  0.5757  2.3083 -0.9516
 3149SOL     OW20905   3.053   0.283   3.958  0.4619  0.1353  0.6319
 3149SOL    HW120906   3.060   0.199   4.003 -1.9360  0.8573  2.3298
 3149SOL    HW220907   3.112   0.260   3.886  1.8300  1.4764  1.3225
 3150SOL     OW20908   0.880   2.044   2.612 -0.1117  0.1356  0.0448
 3150SOL    HW120909   0.949   2.098   2.650 -1.1948  1.3667  0.2792
 3150SOL    HW220910   0.804   2.070   2.665  0.8957  0.7277  1.1890
 3151SOL     OW20911   2.647   0.927   7.315  0.3949 -0.2973  0.2670
 3151SOL    HW120912   2.583   0.931   7.245  0.6390 -0.3000  0.0457
 3151SOL    HW220913   2.725   0.898   7.268 -0.0500  0.4517 -0.9202
 3152SOL     OW20914   1.986   3.197   1.649  0.0809 -0.2805  0.0304
 3152SOL    HW120915   1.999   3.102   1.641 -0.8555 -0.2851 -1.2329
 3152SOL    HW220916   2.024   3.207   1.737 -0.7482  1.0056  0.2359
 3153SOL     OW20917   0.912   1.886   0.776 -0.1749 -0.0937 -0.2941
 3153SOL    HW120918   0.936   1.975   0.802  1.1356 -0.0533 -1.6714
 3153SOL    HW220919   0.988   1.840   0.742  0.1117  1.4858 -1.7680
 3154SOL     OW20920   3.708   0.056   7.864 -0.6115 -0.2326  0.5337
 3154SOL    HW120921   3.643   0.013   7.920 -0.2818 -1.9236 -0.3883
 3154SOL    HW220922   3.672   0.044   7.776  1.3016  0.3499 -0.3238
 3155SOL     OW20923   3.221   4.556   0.173  0.2257 -0.4538 -0.0825
 3155SOL    HW120924   3.201   4.605   0.253 -0.5038  1.5209 -1.4791
 3155SOL    HW220925   3.137   4.562   0.129 -0.0740 -0.4724  0.4873
 3156SOL     OW20926   4.295   0.002   6.422 -0.5529 -0.2875  0.8600
 3156SOL    HW120927   4.241   0.081   6.415 -2.0034 -1.2565  1.2377
 3156SOL    HW220928   4.331   4.712   6.334 -0.6618  2.0739  0.4474
 3157SOL     OW20929   0.344   1.730   6.558  0.4502 -0.2959  0.3952
 3157SOL    HW120930   0.383   1.703   6.474  3.9602 -0.1671  1.9821
 3157SOL    HW220931   0.259   1.687   6.554  0.0420  0.5187  0.1612
 3158SOL     OW20932   1.632   3.063   8.296 -0.0749  0.0537 -0.6541
 3158SOL    HW120933   1.641   3.113   8.215  1.2129  0.8925 -0.0106
 3158SOL    HW220934   1.596   3.126   8.359 -2.5468 -2.1284  0.1135
 3159SOL     OW20935   4.540   0.966   6.164 -0.2407 -0.0613 -0.5313
 3159SOL    HW120936   4.511   0.893   6.109 -0.8240 -1.3180  1.4602
 3159SOL    HW220937   4.629   0.937   6.185  0.0461 -0.1727 -1.8887
 3160SOL     OW20938   0.197   4.612  10.940 -0.0624  0.2035 -0.7512
 3160SOL    HW120939   0.132   4.678  10.963 -0.4522 -0.7636  0.9165
 3160SOL    HW220940   0.275   4.643  10.988  0.7821 -2.2079 -0.5822
 3161SOL     OW20941   0.401   2.471   2.199 -0.1577 -0.6610  0.5558
 3161SOL    HW120942   0.402   2.531   2.125  1.7309 -0.4409  0.7738
 3161SOL    HW220943   0.345   2.520   2.260  0.3675 -0.2604  0.7062
 3162SOL     OW20944   3.458   3.213   4.747  0.9057  0.1437 -0.1125
 3162SOL    HW120945   3.401   3.277   4.704 -0.1358  0.0881  1.1896
 3162SOL    HW220946   3.398   3.139   4.744 -0.7973  1.4456  1.2127
 3163SOL     OW20947   4.113   4.120   8.653  0.7668 -0.1016 -0.0687
 3163SOL    HW120948   4.173   4.148   8.721  0.6533 -1.4448  0.5879
 3163SOL    HW220949   4.116   4.191   8.588 -2.0700 -0.3691 -0.5247
 3164SOL     OW20950   1.143   1.604  12.053 -0.1803 -0.6813 -0.5146
 3164SOL    HW120951   1.172   1.601  11.962 -0.8048  1.4576 -0.7876
 3164SOL    HW220952   1.057   1.644  12.039 -0.3346  0.1850  2.9299
 3165SOL     OW20953   1.923   4.157  13.051  0.1226 -0.1967 -0.6358
 3165SOL    HW120954   1.839   4.112  13.064 -0.8050  1.1888 -1.8843
 3165SOL    HW220955   1.953   4.156  13.142 -1.8427 -0.0348  0.0127
 3166SOL     OW20956   0.147   2.978   6.294 -0.0388 -0.0184 -0.3699
 3166SOL    HW120957   0.081   3.044   6.315 -0.3940 -1.2074  2.3149
 3166SOL    HW220958   0.235   3.015   6.282 -0.1839  0.2553 -0.5883
 3167SOL     OW20959   0.768   4.125   2.688 -0.5654 -0.5285  0.1317
 3167SOL    HW120960   0.752   4.057   2.622 -1.7775 -1.2217  1.1529
 3167SOL    HW220961   0.785   4.080   2.770  1.7848  0.0406 -0.0353
 3168SOL     OW20962   2.189   2.573   2.502  0.0674  0.5063  0.2380
 3168SOL    HW120963   2.231   2.547   2.584  0.9687 -0.3828 -0.5030
 3168SOL    HW220964   2.106   2.607   2.535  0.7668  1.8531  0.6264
 3169SOL     OW20965   0.103   3.700   2.360 -0.1418 -0.3574 -0.5441
 3169SOL    HW120966   0.061   3.781   2.390  1.3804  0.2446 -0.0607
 3169SOL    HW220967   0.115   3.654   2.443  3.3237  0.9009 -0.3689
 3170SOL     OW20968   1.963   1.551   0.407 -0.6297  0.2971 -0.4737
 3170SOL    HW120969   2.029   1.579   0.472 -3.9444  0.7759  2.6955
 3170SOL    HW220970   1.993   1.468   0.371  1.8622  0.7919  0.4479
 3171SOL     OW20971   2.422   3.069   9.652 -0.4093  0.0451 -0.6262
 3171SOL    HW120972   2.449   2.997   9.596 -0.9015  0.5885 -1.5746
 3171SOL    HW220973   2.327   3.060   9.644 -0.9591  3.9209  1.2671
 3172SOL     OW20974   4.276   2.367  10.165  0.2578 -0.3908  0.3702
 3172SOL    HW120975   4.272   2.460  10.143 -0.4368 -0.0636  1.9058
 3172SOL    HW220976   4.190   2.340  10.135 -0.3011 -1.3639  2.8977
 3173SOL     OW20977   1.409   3.701   3.126 -0.0268 -0.7243 -0.0550
 3173SOL    HW120978   1.404   3.754   3.206  0.4744 -1.1051  0.2302
 3173SOL    HW220979   1.402   3.611   3.157  0.5701 -0.3429  1.1951
 3174SOL     OW20980   4.413   1.288   8.427  0.5093  0.2156  0.0490
 3174SOL    HW120981   4.471   1.212   8.426 -1.3482 -1.1900 -0.8252
 3174SOL    HW220982   4.440   1.346   8.357  0.4402 -0.7048 -0.7420
 3175SOL     OW20983   2.405   0.317   5.789 -0.8160  0.3125  0.3809
 3175SOL    HW120984   2.409   0.334   5.695 -1.5743  1.7867  0.6022
 3175SOL    HW220985   2.330   0.258   5.783  0.1816 -0.8786 -0.1602
 3176SOL     OW20986   1.699   0.917  12.818  0.3324  0.1062  0.5468
 3176SOL    HW120987   1.671   1.006  12.841 -0.9707 -0.7903  2.4110
 3176SOL    HW220988   1.794   0.918  12.816  0.3025 -3.8064 -3.6960
 3177SOL     OW20989   2.459   4.700   3.181 -0.6386  0.4587  0.3953
 3177SOL    HW120990   2.488   4.611   3.161  1.7253  0.6791  2.7903
 3177SOL    HW220991   2.515   0.040   3.137 -1.3425  2.2030  2.0213
 3178SOL     OW20992   2.153   2.934  10.868 -0.0409  0.6179  0.3605
 3178SOL    HW120993   2.063   2.948  10.837  0.1400 -0.6087 -0.7363
 3178SOL    HW220994   2.158   2.840  10.886  2.9068  0.6700 -0.2900
 3179SOL     OW20995   1.870   2.211   5.374  0.2039 -0.8891  0.4476
 3179SOL    HW120996   1.880   2.168   5.289 -1.9790 -1.1564  0.3084
 3179SOL    HW220997   1.774   2.218   5.368  0.2881  0.7208  0.7906
 3180SOL     OW20998   3.879   3.116   8.493 -0.2171  0.2707  0.3328
 3180SOL    HW120999   3.916   3.057   8.428 -0.2203 -0.3586  0.8964
 3180SOL    HW221000   3.952   3.146   8.546  1.3394 -2.6211 -0.1729
 3181SOL     OW21001   2.210   0.635  14.506 -0.1568 -0.1170  0.0921
 3181SOL    HW121002   2.279   0.679  14.457 -2.8343 -0.0173 -3.5717
 3181SOL    HW221003   2.238   0.544  14.499 -0.6420 -0.3024  0.4941
 3182SOL     OW21004   0.217   2.089   9.385 -0.1904  0.5841  0.2241
 3182SOL    HW121005   0.312   2.080   9.386 -0.3611 -0.9350  2.0687
 3182SOL    HW221006   0.207   2.179   9.418 -1.2847  0.8302 -0.7839
 3183SOL     OW21007   3.808   2.864  11.644 -0.5061  0.7765 -0.2148
 3183SOL    HW121008   3.856   2.790  11.681 -0.4606  0.5632 -0.7042
 3183SOL    HW221009   3.876   2.931  11.631 -0.0296  0.7273  1.9509
 3184SOL     OW21010   3.595   0.893   8.003  0.0536  0.0463 -0.3386
 3184SOL    HW121011   3.675   0.856   8.041 -0.0313  0.3004  0.0782
 3184SOL    HW221012   3.644   0.929   7.928  0.2385  3.3296  1.3769
 3185SOL     OW21013   4.544   1.997   0.325 -0.3578 -0.0271 -0.3038
 3185SOL    HW121014   4.617   1.992   0.263 -1.0559 -0.4448 -1.0866
 3185SOL    HW221015   4.584   2.050   0.394 -0.9430 -0.6945  0.5464
 3186SOL     OW21016   2.701   2.281   4.648  0.1103 -0.3324  0.2847
 3186SOL    HW121017   2.631   2.329   4.693 -0.0327  0.6453 -0.9844
 3186SOL    HW221018   2.675   2.192   4.669  0.2189 -0.6047 -0.7535
 3187SOL     OW21019   2.912   3.115   7.777  0.6876  0.1005 -0.1009
 3187SOL    HW121020   2.832   3.105   7.726  0.6164  2.0012 -0.3620
 3187SOL    HW221021   2.935   3.204   7.749  1.3941 -0.2565 -0.6483
 3188SOL     OW21022   0.581   3.609   7.414  0.0872  0.2431  0.2669
 3188SOL    HW121023   0.648   3.561   7.365  1.1497  1.5694  0.4009
 3188SOL    HW221024   0.494   3.586   7.380  0.5557  0.7522 -1.2851
 3189SOL     OW21025   2.559   2.029  16.316 -0.1280  0.1301  0.2904
 3189SOL    HW121026   2.497   1.974  16.267 -0.9193 -0.2432  1.6963
 3189SOL    HW221027   2.633   1.969  16.325  1.2694  1.8396  0.0349
 3190SOL     OW21028   2.516   2.622   5.946 -0.1650  0.4973 -0.4438
 3190SOL    HW121029   2.597   2.638   5.995  1.4360 -1.0826 -2.5450
 3190SOL    HW221030   2.496   2.532   5.971 -1.1790  0.9776  0.4283
 3191SOL     OW21031   4.270   3.221   3.841  0.1734  0.0369 -0.1493
 3191SOL    HW121032   4.326   3.180   3.907 -2.4527 -0.6271  1.6559
 3191SOL    HW221033   4.299   3.311   3.858  0.5758 -0.5264  2.1388
 3192SOL     OW21034   3.798   4.299   2.898 -0.1641  0.6837 -0.3291
 3192SOL    HW121035   3.783   4.376   2.953 -2.2691 -1.2823  1.8560
 3192SOL    HW221036   3.892   4.320   2.897  0.4629 -2.0853  2.0094
 3193SOL     OW21037   3.322   0.097  12.448 -0.8134  0.0301 -0.3362
 3193SOL    HW121038   3.246   0.156  12.448 -0.3027  0.6781  2.7870
 3193SOL    HW221039   3.309   0.043  12.370 -0.6858  0.3714 -0.5934
 3194SOL     OW21040   2.925   0.411   7.399  0.0568 -0.2923 -0.0153
 3194SOL    HW121041   2.868   0.389   7.326 -1.7639 -2.6433  2.1175
 3194SOL    HW221042   2.946   0.502   7.377 -1.5793  0.5056  1.7200
 3195SOL     OW21043   2.669   4.498   6.073 -0.2076  0.0549 -0.0711
 3195SOL    HW121044   2.624   4.459   5.998 -0.9653  0.6019  0.0924
 3195SOL    HW221045   2.601   4.550   6.116 -0.5210  0.3056 -0.8710
 3196SOL     OW21046   3.468   1.074   4.870 -0.8450 -0.1338  0.0675
 3196SOL    HW121047   3.515   0.995   4.844 -1.7745  0.0413 -2.1580
 3196SOL    HW221048   3.457   1.038   4.958  0.4845  1.3324  0.8345
 3197SOL     OW21049   1.676   1.657   7.893  0.2197  0.3246  0.1868
 3197SOL    HW121050   1.610   1.611   7.944 -0.0374 -0.4950 -0.8929
 3197SOL    HW221051   1.749   1.626   7.947 -0.5580  0.2808  1.1992
 3198SOL     OW21052   2.144   0.569  10.324  0.2069 -0.0242  0.3745
 3198SOL    HW121053   2.169   0.485  10.364 -0.3647 -0.1170  0.5307
 3198SOL    HW221054   2.212   0.620  10.369  1.7505 -2.1786  0.4882
 3199SOL     OW21055   3.254   4.665   8.033 -0.8433  0.1117 -0.5230
 3199SOL    HW121056   3.191   4.705   7.973 -0.9077  1.1000  0.1954
 3199SOL    HW221057   3.218   4.581   8.061 -1.4847  0.6420  0.2268
 3200SOL     OW21058   4.348   1.523   0.663 -0.1405 -0.7224 -0.2217
 3200SOL    HW121059   4.388   1.437   0.674  1.4525  0.0312 -0.0817
 3200SOL    HW221060   4.255   1.511   0.681  0.3853 -1.1285  2.2873
 3201SOL     OW21061   3.523   0.653   4.532 -0.1134 -0.5909 -0.1309
 3201SOL    HW121062   3.458   0.720   4.551  0.7869  0.4055 -0.5918
 3201SOL    HW221063   3.591   0.711   4.496 -0.0215 -0.2644  0.5804
 3202SOL     OW21064   4.426   1.352   5.322 -0.5653 -0.1419  0.5248
 3202SOL    HW121065   4.374   1.431   5.306  0.1042  0.1364 -0.2960
 3202SOL    HW221066   4.509   1.383   5.358  0.1685  0.7146 -1.8315
 3203SOL     OW21067   4.301   4.285   7.314  0.4005  0.2124  0.2343
 3203SOL    HW121068   4.253   4.355   7.359  3.7976  2.9504 -0.4578
 3203SOL    HW221069   4.325   4.241   7.396  0.0631 -1.2775 -0.4495
 3204SOL     OW21070   4.545   0.911   7.899  0.5370 -0.4622 -0.0600
 3204SOL    HW121071   4.625   0.929   7.849 -0.7445  1.2982 -1.4972
 3204SOL    HW221072   4.482   0.871   7.839 -1.0716  0.1466  1.2295
 3205SOL     OW21073   0.676   0.885   6.222 -0.0201 -0.2097  0.0346
 3205SOL    HW121074   0.605   0.948   6.237  1.7511  2.2041 -1.7751
 3205SOL    HW221075   0.705   0.919   6.137  0.5494 -2.7484 -0.7939
 3206SOL     OW21076   3.387   2.222   8.432 -0.1500 -0.8802  0.0904
 3206SOL    HW121077   3.413   2.253   8.519 -0.3038 -1.7177  0.4380
 3206SOL    HW221078   3.473   2.237   8.393  0.4693 -1.2148  1.3251
 3207SOL     OW21079   4.050   4.118   2.566  0.4179 -0.4336 -0.2027
 3207SOL    HW121080   4.081   4.102   2.655 -1.4085  1.2459  0.7564
 3207SOL    HW221081   3.956   4.127   2.585  0.4408 -1.1679  0.2491
 3208SOL     OW21082   1.604   2.712  14.725  0.0452  0.3787 -0.2388
 3208SOL    HW121083   1.661   2.663  14.785  0.4594 -0.6851 -1.4789
 3208SOL    HW221084   1.581   2.656  14.650  2.1442 -1.3010  0.3735
 3209SOL     OW21085   0.882   1.132  15.886 -0.0716  0.0145  0.0873
 3209SOL    HW121086   0.959   1.177  15.920  0.7541 -2.7539  1.9866
 3209SOL    HW221087   0.899   1.037  15.884  1.1223  0.2257  0.3074
 3210SOL     OW21088   4.604   1.592   1.927  0.4438  0.3987  0.3143
 3210SOL    HW121089   4.639   1.647   1.857 -0.8315  0.0858 -0.5761
 3210SOL    HW221090   4.679   1.564   1.980 -0.3355  2.8185  2.6925
 3211SOL     OW21091   4.298   4.654   4.516  0.3167 -0.1403 -0.2103
 3211SOL    HW121092   4.359   4.713   4.561  0.9687 -0.4389 -0.7141
 3211SOL    HW221093   4.307   4.686   4.426  1.4523  0.6406  0.1729
 3212SOL     OW21094   3.075   1.932   9.162 -0.0072 -0.1569  0.1224
 3212SOL    HW121095   3.160   1.911   9.202 -0.1476 -2.2481 -0.6668
 3212SOL    HW221096   3.073   2.027   9.174  0.7280 -0.2342  0.8888
 3213SOL     OW21097   0.718   4.483   4.906 -0.7229 -0.1098  0.1543
 3213SOL    HW121098   0.670   4.552   4.951 -2.1548 -0.6352 -0.5766
 3213SOL    HW221099   0.646   4.428   4.876  0.3464 -0.4541 -1.7465
 3214SOL     OW21100   2.021   3.524  15.239  0.2897 -0.0394  0.1052
 3214SOL    HW121101   1.958   3.453  15.234 -0.5396  0.7426 -0.5531
 3214SOL    HW221102   2.074   3.504  15.162 -0.5558 -1.7253 -0.0294
 3215SOL     OW21103   1.454   1.236  10.943 -0.4694 -0.5673 -0.0714
 3215SOL    HW121104   1.476   1.302  10.877  0.0926  0.5126  1.1896
 3215SOL    HW221105   1.362   1.214  10.926 -0.2484 -0.5631 -1.2806
 3216SOL     OW21106   3.542   3.070   6.194  0.5132  0.6449  0.0996
 3216SOL    HW121107   3.476   3.127   6.233 -0.3280 -0.4095  0.2228
 3216SOL    HW221108   3.489   3.007   6.145 -0.2026 -0.8229  2.7244
 3217SOL     OW21109   0.593   0.759   7.645 -0.1496  0.5506 -0.0868
 3217SOL    HW121110   0.563   0.761   7.554  2.2985  0.7731 -0.8847
 3217SOL    HW221111   0.517   0.757   7.703 -0.4642 -1.5775 -0.5638
 3218SOL     OW21112   2.209   2.153   4.147 -0.4853  0.0100  0.2406
 3218SOL    HW121113   2.270   2.110   4.206  0.7945  0.2101 -0.9263
 3218SOL    HW221114   2.222   2.108   4.063  1.3465 -0.4482  0.7929
 3219SOL     OW21115   2.058   3.429  13.517  0.0506  0.0168  1.0508
 3219SOL    HW121116   2.011   3.358  13.473  0.8043  0.4414 -0.4507
 3219SOL    HW221117   2.125   3.379  13.564  1.0148  1.4898  1.2345
 3220SOL     OW21118   4.469   1.359   6.210 -0.7457  0.1082 -0.2997
 3220SOL    HW121119   4.540   1.318   6.160  0.4541  1.1848  0.5238
 3220SOL    HW221120   4.464   1.303   6.288 -2.3046 -2.2694 -2.0941
 3221SOL     OW21121   2.853   1.591   6.260 -0.1384 -0.3004  0.2297
 3221SOL    HW121122   2.889   1.673   6.227  0.1814  0.3001  2.0553
 3221SOL    HW221123   2.873   1.537   6.184  0.8508  1.0689 -0.4854
 3222SOL     OW21124   1.426   1.025   5.680 -0.1686  0.4223 -0.0509
 3222SOL    HW121125   1.480   1.103   5.690  1.5425 -0.8236  0.4170
 3222SOL    HW221126   1.392   1.007   5.768 -1.9189  1.4853 -0.5051
 3223SOL     OW21127   2.421   0.777   1.837 -0.0858 -0.5115 -0.6110
 3223SOL    HW121128   2.348   0.820   1.793 -0.3822 -0.3072  0.0888
 3223SOL    HW221129   2.491   0.840   1.818  1.7337 -1.3727  3.3434
 3224SOL     OW21130   4.327   3.415   4.996  0.2099  0.0105  0.6492
 3224SOL    HW121131   4.294   3.326   4.992  2.8759 -0.9322 -0.2944
 3224SOL    HW221132   4.347   3.422   5.089  1.3032 -3.0485  0.6171
 3225SOL     OW21133   0.904   3.794   4.208 -0.4263  0.3467 -0.2540
 3225SOL    HW121134   0.900   3.707   4.168  0.3163  0.2708 -0.1648
 3225SOL    HW221135   0.810   3.806   4.215 -0.3616 -0.1278  1.3974
 3226SOL     OW21136   3.082   1.443  12.804 -0.3659  0.2914 -0.0112
 3226SOL    HW121137   3.055   1.352  12.787  1.0354 -0.0265 -0.4523
 3226SOL    HW221138   3.012   1.493  12.761 -0.4168 -1.6153 -2.1330
 3227SOL     OW21139   1.257   2.432   7.315 -0.9426  0.3973 -0.7129
 3227SOL    HW121140   1.209   2.442   7.233 -1.8909 -2.3226 -0.4765
 3227SOL    HW221141   1.232   2.518   7.347  1.5884  0.9049 -0.0535
 3228SOL     OW21142   1.355   2.203  15.447  0.1385 -0.0212  0.0751
 3228SOL    HW121143   1.402   2.124  15.476  0.1581  0.3987  1.1655
 3228SOL    HW221144   1.406   2.237  15.374 -1.1277  0.7320 -0.4583
 3229SOL     OW21145   0.133   2.673   7.551 -0.6321 -0.3248 -0.2005
 3229SOL    HW121146   0.142   2.765   7.577  3.3729 -0.1998 -2.1881
 3229SOL    HW221147   0.109   2.636   7.636 -0.1029  0.8580  0.4616
 3230SOL     OW21148   0.507   2.950   1.576  0.1943 -0.1721 -0.4269
 3230SOL    HW121149   0.481   3.033   1.536 -1.1652 -0.9076 -1.0548
 3230SOL    HW221150   0.464   2.882   1.526 -0.3663 -1.2997  1.5676
 3231SOL     OW21151   3.048   0.654   6.155 -0.2516  0.1616  0.0418
 3231SOL    HW121152   3.119   0.593   6.175  0.6261  0.9085 -0.8369
 3231SOL    HW221153   3.094   0.709   6.092 -1.0586  1.1242  0.2901
 3232SOL     OW21154   3.104   0.704   8.000  0.3602  0.0549 -0.2319
 3232SOL    HW121155   3.088   0.611   8.017  1.2811 -0.2233 -0.8718
 3232SOL    HW221156   3.016   0.738   7.983  0.8497  1.6747  0.4791
 3233SOL     OW21157   3.343   0.933   2.926 -0.2903 -0.0036 -0.1760
 3233SOL    HW121158   3.277   0.894   2.869 -2.0091  1.1312  1.0511
 3233SOL    HW221159   3.419   0.881   2.901  0.8283  0.0450  3.2385
 3234SOL     OW21160   0.971   2.674   6.838 -0.1005  0.3168  0.2354
 3234SOL    HW121161   0.928   2.589   6.846  0.6465  0.1443  2.2965
 3234SOL    HW221162   0.936   2.701   6.753  0.6222  0.3859 -0.0343
 3235SOL     OW21163   3.862   1.810   4.186 -0.1071 -0.2744 -0.8067
 3235SOL    HW121164   3.866   1.732   4.242 -0.8254  2.6360  3.2725
 3235SOL    HW221165   3.951   1.843   4.195 -0.4491  0.1760  0.8930
 3236SOL     OW21166   4.599   1.396  15.873 -0.2827 -0.4947 -0.5608
 3236SOL    HW121167   4.528   1.354  15.823  0.5378  0.3080 -2.4188
 3236SOL    HW221168   4.553   1.473  15.908 -2.5288 -1.9243 -0.3776
 3237SOL     OW21169   2.211   0.721  12.817 -0.1322 -0.4379  0.2990
 3237SOL    HW121170   2.158   0.764  12.749 -0.2882 -0.7078  0.2497
 3237SOL    HW221171   2.191   0.777  12.893 -0.2934 -2.6458  1.8682
 3238SOL     OW21172   0.262   3.041   5.144  0.5999  0.5231  0.4519
 3238SOL    HW121173   0.349   3.056   5.108  1.1844 -0.8600  1.2973
 3238SOL    HW221174   0.279   3.004   5.231  0.1860  1.4521  0.9358
 3239SOL     OW21175   1.755   4.099   5.794 -0.0921  0.0944  0.0598
 3239SOL    HW121176   1.739   4.156   5.870  0.6686 -0.1638  0.4187
 3239SOL    HW221177   1.730   4.011   5.820 -1.8243  1.1385  1.9423
 3240SOL     OW21178   2.929   1.876   6.477 -0.1003 -0.3132 -0.0785
 3240SOL    HW121179   2.855   1.913   6.525  2.0308  0.1386  2.9306
 3240SOL    HW221180   2.938   1.788   6.512  1.5910 -0.0776  0.0829
 3241SOL     OW21181   3.706   3.129  12.954  0.5928  0.1206 -0.3840
 3241SOL    HW121182   3.798   3.144  12.930  0.8172 -0.7049 -0.0422
 3241SOL    HW221183   3.661   3.188  12.893 -0.0158  0.1795  0.1231
 3242SOL     OW21184   3.459   4.448   7.370 -0.1192 -0.7148  0.0798
 3242SOL    HW121185   3.427   4.525   7.416 -4.0496 -2.6971  0.7256
 3242SOL    HW221186   3.405   4.378   7.409  1.2945 -1.9348 -0.1475
 3243SOL     OW21187   4.603   4.131   6.456 -0.0117 -0.2400  0.2062
 3243SOL    HW121188   4.513   4.150   6.483  0.4978  0.6297  1.3048
 3243SOL    HW221189   4.659   4.158   6.528 -0.6165 -0.3855  0.7343
 3244SOL     OW21190   4.676   0.916   5.837  0.0420  0.0838  0.1341
 3244SOL    HW121191   4.715   0.854   5.775 -3.3820 -0.3060 -1.6118
 3244SOL    HW221192   0.022   0.959   5.888 -1.1872 -0.2023  2.0534
 3245SOL     OW21193   2.095   0.999  16.959 -0.5053  0.0534 -0.2735
 3245SOL    HW121194   2.103   1.043  16.875  0.1928 -1.4080 -0.9701
 3245SOL    HW221195   2.013   0.950  16.953 -1.0874  0.9106  0.7989
 3246SOL     OW21196   4.306   1.487   5.798 -0.2160 -0.1736  0.0115
 3246SOL    HW121197   4.341   1.566   5.757 -2.8733  0.4421 -1.0521
 3246SOL    HW221198   4.224   1.507   5.843 -0.9321 -1.8713 -0.5267
 3247SOL     OW21199   3.367   1.083  13.234  0.5049 -0.0071  0.1046
 3247SOL    HW121200   3.298   1.025  13.266 -0.6433  1.4857  0.3695
 3247SOL    HW221201   3.328   1.128  13.160  0.5012 -0.1169  0.0404
 3248SOL     OW21202   3.572   4.036   2.158  0.2398  0.2391  0.1041
 3248SOL    HW121203   3.600   4.024   2.249  2.0492  0.9040 -0.3706
 3248SOL    HW221204   3.486   4.001   2.179  1.0986 -0.2254  2.8454
 3249SOL     OW21205   1.314   3.028  13.141 -0.2407 -0.1202 -0.3544
 3249SOL    HW121206   1.407   3.011  13.158 -0.4790 -0.4160  0.6338
 3249SOL    HW221207   1.277   2.940  13.132 -0.2225 -0.4169  2.5002
 3250SOL     OW21208   3.162   0.365   1.273 -0.0712  0.0653  0.2100
 3250SOL    HW121209   3.231   0.396   1.331  1.1033 -0.8374 -0.6835
 3250SOL    HW221210   3.168   0.271   1.293 -1.2156 -0.4676 -1.9430
 3251SOL     OW21211   1.848   1.432  14.292  0.2857 -0.3038 -0.1516
 3251SOL    HW121212   1.869   1.524  14.275  2.1064 -0.3199  2.0375
 3251SOL    HW221213   1.864   1.385  14.210  1.6796 -1.9092  1.0208
 3252SOL     OW21214   3.665   2.246   1.518  0.0462  0.0406  0.5305
 3252SOL    HW121215   3.618   2.242   1.434  2.7090  0.9421 -0.9972
 3252SOL    HW221216   3.698   2.336   1.515 -1.2456  0.5523  1.5744
 3253SOL     OW21217   3.211   2.177   9.288  0.7710 -0.1565  0.1396
 3253SOL    HW121218   3.252   2.092   9.302  0.6062  0.0755  1.9962
 3253SOL    HW221219   3.265   2.221   9.222  1.2659 -0.4116  0.3735
 3254SOL     OW21220   1.802   1.045   9.013 -0.5508  0.8127  0.3339
 3254SOL    HW121221   1.733   1.077   9.071 -0.0040  0.7721  1.0160
 3254SOL    HW221222   1.793   1.107   8.942  1.9763  0.1611 -0.5502
 3255SOL     OW21223   0.631   3.038   7.914  0.6378  0.5569 -0.2050
 3255SOL    HW121224   0.550   3.073   7.876  1.5585 -0.1033 -2.7617
 3255SOL    HW221225   0.621   3.095   7.991 -1.5256  0.5916 -0.4942
 3256SOL     OW21226   1.453   1.033   8.688 -0.9959 -0.1330  0.1094
 3256SOL    HW121227   1.358   1.023   8.685 -1.1361  1.2136  0.1656
 3256SOL    HW221228   1.464   1.097   8.618  2.6621  0.0454  0.8575
 3257SOL     OW21229   1.347   3.619   4.830  0.2542 -0.3017  0.0138
 3257SOL    HW121230   1.359   3.589   4.920  0.4492  0.0983  0.1209
 3257SOL    HW221231   1.431   3.589   4.794  2.6638  1.9434  3.6546
 3258SOL     OW21232   4.549   4.375   1.323 -0.0737  0.2405 -0.7126
 3258SOL    HW121233   4.628   4.349   1.276 -1.7247 -1.3627 -2.5859
 3258SOL    HW221234   4.477   4.345   1.267  1.1836  0.4136 -2.4457
 3259SOL     OW21235   1.070   0.219   4.712  0.1027  0.1565 -0.2923
 3259SOL    HW121236   0.989   0.170   4.723 -0.7972  1.8752  0.5449
 3259SOL    HW221237   1.038   0.290   4.657 -1.5622 -1.3162 -1.2415
 3260SOL     OW21238   2.362   1.908  16.138  0.3169 -0.1208  0.6638
 3260SOL    HW121239   2.325   1.992  16.110  0.9293  0.1824  0.7418
 3260SOL    HW221240   2.283   1.856  16.130 -0.4191  1.2388 -0.7322
 3261SOL     OW21241   1.627   2.318   0.986 -0.4489  0.1595  0.5712
 3261SOL    HW121242   1.605   2.384   0.921 -2.5088 -1.2097 -0.1230
 3261SOL    HW221243   1.639   2.382   1.056  0.1216  0.3310  0.3163
 3262SOL     OW21244   0.121   0.617  10.643  0.1207 -0.3079  0.4635
 3262SOL    HW121245   0.112   0.523  10.661 -1.6299 -0.1923  0.2083
 3262SOL    HW221246   0.047   0.647  10.697  0.7594  2.3126 -0.1207
 3263SOL     OW21247   4.255   2.356   2.113 -0.4057  0.3294  0.1908
 3263SOL    HW121248   4.223   2.278   2.068  0.5424  0.2325 -0.3151
 3263SOL    HW221249   4.175   2.404   2.135 -0.0357  0.9123  0.2617
 3264SOL     OW21250   2.971   0.173   8.487 -0.4047 -0.1482 -0.2241
 3264SOL    HW121251   3.050   0.168   8.541  0.2706 -3.5109 -1.5170
 3264SOL    HW221252   2.971   0.258   8.444  0.0032  0.0843  0.2354
 3265SOL     OW21253   2.637   3.438   4.838  0.1190  0.4284 -0.1034
 3265SOL    HW121254   2.616   3.469   4.926 -1.1422 -0.8748  0.0444
 3265SOL    HW221255   2.596   3.505   4.783  0.5577  0.4191 -0.4461
 3266SOL     OW21256   4.382   2.944  13.982  0.4715 -0.0224 -0.2989
 3266SOL    HW121257   4.347   2.982  14.063  1.1729 -1.3040  0.6018
 3266SOL    HW221258   4.434   2.871  14.015 -1.0347  0.2320  2.6888
 3267SOL     OW21259   3.803   1.620   8.426  0.1298 -0.1205 -0.1344
 3267SOL    HW121260   3.865   1.593   8.358  0.1262 -1.7260  0.4955
 3267SOL    HW221261   3.852   1.600   8.506  0.4529 -0.0058 -0.3010
 3268SOL     OW21262   3.248   4.002  15.300 -0.2546 -0.6398  0.0529
 3268SOL    HW121263   3.270   3.986  15.209 -2.7334  0.3645 -0.7301
 3268SOL    HW221264   3.204   4.086  15.285  1.1419  0.3900  1.8093
 3269SOL     OW21265   4.681   4.689   2.039  0.2818 -0.2973 -0.3038
 3269SOL    HW121266   4.600   4.637   2.040 -1.0055  1.7261  0.4307
 3269SOL    HW221267   4.679   4.721   1.949  1.0004  0.8071  0.0712
 3270SOL     OW21268   3.647   0.737   6.794 -0.1167 -0.9428  0.3040
 3270SOL    HW121269   3.625   0.740   6.701  0.8918 -0.9076  0.0680
 3270SOL    HW221270   3.625   0.826   6.821 -2.5732 -0.7336 -2.2919
 3271SOL     OW21271   2.280   1.883   2.387  0.7606 -0.0525  0.4269
 3271SOL    HW121272   2.237   1.866   2.303 -0.2850 -3.1837  1.5705
 3271SOL    HW221273   2.259   1.807   2.440  1.4054 -1.8006 -1.7937
 3272SOL     OW21274   3.161   3.178   2.883 -0.4691  0.2982  0.5988
 3272SOL    HW121275   3.150   3.261   2.836 -0.7518  0.9865  1.8599
 3272SOL    HW221276   3.221   3.134   2.823 -2.3374  1.2146 -1.9389
 3273SOL     OW21277   2.378   3.269   9.385  0.2467 -0.2664  0.1997
 3273SOL    HW121278   2.351   3.349   9.340 -1.8650 -0.1871  1.6179
 3273SOL    HW221279   2.294   3.242   9.422 -0.8247  2.4582 -0.2593
 3274SOL     OW21280   4.183   3.895   3.049 -0.0115  0.1042  0.4798
 3274SOL    HW121281   4.146   3.818   3.093  0.2784 -1.3594 -1.8434
 3274SOL    HW221282   4.211   3.944   3.127  1.4021  0.9840 -0.5863
 3275SOL     OW21283   3.322   1.588   6.243  0.0875  0.2446  0.2972
 3275SOL    HW121284   3.243   1.633   6.272  0.1158  0.1262  0.5604
 3275SOL    HW221285   3.301   1.565   6.152  1.9953 -0.6982  0.0929
 3276SOL     OW21286   0.443   1.958   4.906 -0.7211 -0.4400 -0.0393
 3276SOL    HW121287   0.388   1.885   4.936 -1.4741 -0.5565 -1.6734
 3276SOL    HW221288   0.398   2.024   4.958 -1.1738 -0.5285 -0.3107
 3277SOL     OW21289   1.441   0.919   1.246 -0.1326  0.0148  0.4092
 3277SOL    HW121290   1.533   0.944   1.236 -0.0106  0.6379  2.9546
 3277SOL    HW221291   1.419   0.976   1.320 -2.3873 -0.5100  0.1207
 3278SOL     OW21292   4.148   4.329   3.236 -0.2959 -0.0730  0.2374
 3278SOL    HW121293   4.066   4.376   3.251  0.4271  1.1495  0.3078
 3278SOL    HW221294   4.149   4.273   3.313 -2.1011 -0.6125 -0.1256
 3279SOL     OW21295   4.185   2.486  17.313  0.3263 -0.6187  0.1574
 3279SOL    HW121296   4.249   2.485  17.384 -0.7440  0.2187  1.1450
 3279SOL    HW221297   4.196   2.395  17.285  0.6924 -0.7792  0.8267
 3280SOL     OW21298   0.388   2.841   3.068 -0.2300  0.3013  0.3094
 3280SOL    HW121299   0.308   2.893   3.060  0.5513  1.4703  0.0338
 3280SOL    HW221300   0.452   2.911   3.057 -0.7889  0.7420 -0.1056
 3281SOL     OW21301   2.057   2.641   8.770 -0.2947 -0.0748  0.0890
 3281SOL    HW121302   2.093   2.564   8.813  0.1648 -0.3639 -0.8098
 3281SOL    HW221303   2.134   2.672   8.722  0.4125 -0.4600  0.9810
 3282SOL     OW21304   0.454   4.241   0.081  0.2395 -0.0659  0.0020
 3282SOL    HW121305   0.493   4.275   0.001 -0.1506  1.5827  0.5174
 3282SOL    HW221306   0.377   4.197   0.044  0.1264 -0.9268  1.2331
 3283SOL     OW21307   1.195   3.390  16.031  0.4625 -0.0759  0.0275
 3283SOL    HW121308   1.268   3.345  16.075  1.3259  2.4642  1.1657
 3283SOL    HW221309   1.138   3.313  16.040  1.1580 -0.4798  0.9917
 3284SOL     OW21310   4.072   1.286  16.040  0.3569 -0.1508 -0.0343
 3284SOL    HW121311   4.022   1.295  16.120 -1.4100 -0.0658 -1.1425
 3284SOL    HW221312   4.040   1.200  16.013 -2.8695  1.7199 -2.1858
 3285SOL     OW21313   1.271   0.597   7.033  0.4799  0.1568  0.5461
 3285SOL    HW121314   1.289   0.517   6.984  4.4438  1.1954  0.3242
 3285SOL    HW221315   1.238   0.548   7.108 -2.7263  2.3635  0.6202
 3286SOL     OW21316   2.314   4.390   7.725  0.0523 -0.2153  0.7514
 3286SOL    HW121317   2.406   4.404   7.749  0.3061 -2.7534  1.2252
 3286SOL    HW221318   2.286   4.481   7.713  0.3959 -0.4419 -1.7588
 3287SOL     OW21319   1.825   1.475  17.226  0.1558 -0.3194 -0.1633
 3287SOL    HW121320   1.899   1.429  17.187  0.4635 -0.1244  0.1924
 3287SOL    HW221321   1.761   1.441  17.162  2.2777 -2.2776 -1.2300
 3288SOL     OW21322   2.455   3.792   8.776 -0.3693 -0.5370 -0.2732
 3288SOL    HW121323   2.472   3.709   8.732  0.1326  0.2427 -1.5746
 3288SOL    HW221324   2.521   3.856   8.748  2.1279 -2.8241  0.3871
 3289SOL     OW21325   4.359   1.886   7.741 -0.0981 -0.0275 -0.4123
 3289SOL    HW121326   4.411   1.808   7.722 -0.6588 -0.1568 -1.3996
 3289SOL    HW221327   4.414   1.927   7.808 -0.8509 -1.7026  1.2050
 3290SOL     OW21328   1.929   1.130   3.168 -1.3304 -0.0648 -0.0152
 3290SOL    HW121329   1.937   1.038   3.145  1.9365  0.0565  0.6583
 3290SOL    HW221330   1.985   1.174   3.104  0.4665  0.3508  1.8417
 3291SOL     OW21331   4.044   1.056   7.773 -0.8549 -0.2351 -0.1170
 3291SOL    HW121332   4.134   1.081   7.795 -1.0627  0.4242 -0.0296
 3291SOL    HW221333   4.003   1.119   7.833  0.5406 -0.3960  1.0155
 3292SOL     OW21334   4.573   2.647  11.936  0.3042 -1.0232  0.3922
 3292SOL    HW121335   4.542   2.580  11.875  1.6905  0.7091 -2.2054
 3292SOL    HW221336   4.667   2.627  11.932 -0.0111 -2.1148 -1.6929
 3293SOL     OW21337   1.148   1.169  11.592 -0.4291 -0.4572  0.5925
 3293SOL    HW121338   1.064   1.200  11.559  0.7843  2.1551 -0.0352
 3293SOL    HW221339   1.195   1.159  11.509 -0.5780 -1.7220  0.6647
 3294SOL     OW21340   0.443   4.391   1.748  0.2866  0.6832  0.6338
 3294SOL    HW121341   0.362   4.393   1.697 -0.5085 -0.6206  1.8501
 3294SOL    HW221342   0.479   4.314   1.704  1.0808  1.1944  0.3855
 3295SOL     OW21343   1.378   4.591   4.467  0.4361 -0.4176  0.1307
 3295SOL    HW121344   1.470   4.592   4.496  0.8519  2.9593 -1.3400
 3295SOL    HW221345   1.378   4.526   4.396  2.0036  0.7178 -0.9104
 3296SOL     OW21346   2.987   3.683   4.465  0.7955 -0.2725 -0.1813
 3296SOL    HW121347   2.958   3.595   4.490  0.6739  0.4255  2.1853
 3296SOL    HW221348   3.063   3.661   4.412  0.6259 -2.5276  0.5378
 3297SOL     OW21349   3.309   4.307   0.101  0.1633 -0.5348  0.3840
 3297SOL    HW121350   3.275   4.395   0.120 -0.5179 -1.0952  1.7472
 3297SOL    HW221351   3.396   4.331   0.069  0.8667 -1.1211  1.8989
 3298SOL     OW21352   2.575   3.970   4.440  0.4221  0.5278 -0.6645
 3298SOL    HW121353   2.645   3.926   4.391  2.2820  2.2533  0.4715
 3298SOL    HW221354   2.616   3.990   4.524 -0.1058 -1.7115  0.1447
 3299SOL     OW21355   3.810   4.050   4.405  0.0962  0.5103 -0.1452
 3299SOL    HW121356   3.777   3.966   4.373  0.7232  0.5903 -1.0127
 3299SOL    HW221357   3.730   4.078   4.449 -0.0747 -2.2149  1.2740
 3300SOL     OW21358   0.872   0.696   2.697  0.2732  0.0404  0.2476
 3300SOL    HW121359   0.846   0.722   2.609  0.8908  1.7873  0.5889
 3300SOL    HW221360   0.790   0.714   2.743  0.6160  1.0264  0.4625
 3301SOL     OW21361   2.588   3.158   9.201  0.0124 -0.3653 -0.4353
 3301SOL    HW121362   2.561   3.236   9.250  0.9553 -0.4100  0.1673
 3301SOL    HW221363   2.502   3.123   9.176  0.2054 -1.3658  0.2768
 3302SOL     OW21364   4.180   3.298   7.096 -0.0154 -0.6505 -0.0476
 3302SOL    HW121365   4.155   3.387   7.124  1.3414 -0.0502 -0.7537
 3302SOL    HW221366   4.245   3.310   7.027  0.6403  1.1470  0.8670
 3303SOL     OW21367   3.848   1.373   6.676  0.1570  0.0321  0.0597
 3303SOL    HW121368   3.802   1.356   6.594  3.6601  0.2277 -1.9172
 3303SOL    HW221369   3.931   1.329   6.656 -0.7486 -1.6633  0.0104
 3304SOL     OW21370   2.362   4.353   4.298  1.0335 -0.0214 -0.1178
 3304SOL    HW121371   2.316   4.379   4.378 -0.3733 -0.6636 -0.7159
 3304SOL    HW221372   2.303   4.283   4.270  1.5495 -0.4898 -0.0280
 3305SOL     OW21373   1.799   0.588   1.700  0.4026 -0.3232 -0.6939
 3305SOL    HW121374   1.751   0.544   1.770  1.0181  0.2422  0.0938
 3305SOL    HW221375   1.791   0.679   1.730  1.0516 -1.0110  1.5361
 3306SOL     OW21376   0.198   0.359   5.308 -1.2102 -0.0481  0.2680
 3306SOL    HW121377   0.236   0.405   5.234  0.3052  0.0773  1.1171
 3306SOL    HW221378   0.250   0.280   5.295  2.0050  2.4070 -1.8562
 3307SOL     OW21379   3.932   4.475   7.345  0.3324 -0.9076 -0.2083
 3307SOL    HW121380   3.939   4.544   7.411 -0.5645 -1.4778  0.4894
 3307SOL    HW221381   3.984   4.520   7.279 -1.1610 -3.1287 -2.9239
 3308SOL     OW21382   3.877   1.297   8.403 -0.5586  0.9779 -0.5286
 3308SOL    HW121383   3.865   1.315   8.497  0.8071 -1.7426  0.1593
 3308SOL    HW221384   3.969   1.284   8.381 -0.9872 -0.9598 -1.1653
 3309SOL     OW21385   4.708   1.666   2.537  0.1474  0.1496  0.5494
 3309SOL    HW121386   0.041   1.593   2.512  1.1912  1.1441 -0.0007
 3309SOL    HW221387   0.018   1.739   2.486 -0.2035  0.2272  0.4350
 3310SOL     OW21388   2.749   3.841   8.919 -0.0176  0.1031  0.0186
 3310SOL    HW121389   2.668   3.866   8.963  0.5042 -0.2644  1.1712
 3310SOL    HW221390   2.739   3.764   8.862 -1.2364  0.0228  0.3242
 3311SOL     OW21391   0.948   0.282   2.987  0.3675 -0.7580  1.0576
 3311SOL    HW121392   0.890   0.352   2.955 -0.4336 -0.9300  2.1413
 3311SOL    HW221393   1.034   0.324   2.980  1.6986 -3.6728 -0.0695
 3312SOL     OW21394   0.465   1.349   0.620 -0.0821  0.8941 -0.1016
 3312SOL    HW121395   0.512   1.389   0.546 -0.9572  0.9972 -0.5949
 3312SOL    HW221396   0.376   1.361   0.589 -0.0457  2.3368  0.3593
 3313SOL     OW21397   0.284   2.171   1.317 -0.1340 -0.3714 -0.1006
 3313SOL    HW121398   0.207   2.117   1.338 -0.6872  0.3045 -0.3955
 3313SOL    HW221399   0.254   2.232   1.249  0.9650  0.9973  0.6545
 3314SOL     OW21400   0.023   1.391   2.862 -0.5449  0.1500 -0.1582
 3314SOL    HW121401   0.042   1.324   2.928  2.3184  0.4285 -0.7313
 3314SOL    HW221402   0.081   1.464   2.882  2.7169 -2.6486  0.6431
 3315SOL     OW21403   1.570   1.593  16.418 -0.3617 -0.0022 -0.5128
 3315SOL    HW121404   1.629   1.649  16.367 -0.2017  2.0333  1.9268
 3315SOL    HW221405   1.485   1.594  16.374 -0.3270  1.4507 -0.5295
 3316SOL     OW21406   0.855   2.843   1.797 -0.4080 -0.2283 -0.1825
 3316SOL    HW121407   0.804   2.762   1.797  1.7294 -1.5296  3.2910
 3316SOL    HW221408   0.870   2.864   1.705 -1.5693  0.1425 -0.2855
 3317SOL     OW21409   3.138   1.904  13.706 -0.1310 -0.3723  0.4066
 3317SOL    HW121410   3.072   1.836  13.691  0.6564 -1.1699  0.6062
 3317SOL    HW221411   3.182   1.906  13.621 -0.3630  1.2258  0.3182
 3318SOL     OW21412   1.917   1.241  14.110  0.1063  0.0450 -0.0826
 3318SOL    HW121413   1.833   1.195  14.118  0.3053 -0.6729 -1.9948
 3318SOL    HW221414   1.960   1.199  14.036 -1.7766 -2.1294  0.0314
 3319SOL     OW21415   3.592   0.047  11.251  0.0365  0.6346 -0.4332
 3319SOL    HW121416   3.534   0.115  11.286  1.7761  2.3704 -0.8977
 3319SOL    HW221417   3.547   4.687  11.255  0.6045  0.2281 -2.3454
 3320SOL     OW21418   0.934   3.762   6.178 -0.1978  0.4566  0.2627
 3320SOL    HW121419   0.966   3.824   6.112  0.0158  1.6558  1.5010
 3320SOL    HW221420   1.014   3.714   6.200 -2.5383 -2.9477  1.3452
 3321SOL     OW21421   3.081   2.311   7.680  0.1391 -0.0367 -0.2170
 3321SOL    HW121422   3.023   2.355   7.617 -0.9127  1.6707  1.9692
 3321SOL    HW221423   3.016   2.283   7.744  0.0696 -0.8558 -0.6442
 3322SOL     OW21424   4.047   2.969   1.859  0.1205 -0.5799  0.0321
 3322SOL    HW121425   4.059   3.009   1.946  0.9378 -0.1160 -0.2880
 3322SOL    HW221426   4.140   2.966   1.836  0.0833 -0.1729 -0.1693
 3323SOL     OW21427   0.956   2.896   0.335 -0.2218 -0.0163 -0.4362
 3323SOL    HW121428   1.004   2.966   0.291 -0.5496  1.1454  1.0005
 3323SOL    HW221429   0.978   2.824   0.276  3.8714  1.2207 -0.4088
 3324SOL     OW21430   1.517   3.769   6.185 -0.4519 -0.1884 -0.2739
 3324SOL    HW121431   1.602   3.725   6.189 -0.9536 -1.2936 -1.5981
 3324SOL    HW221432   1.510   3.808   6.272  0.7555  0.4607 -0.4732
 3325SOL     OW21433   1.132   2.110   7.371  0.6444  0.6750  0.6720
 3325SOL    HW121434   1.099   2.164   7.443 -3.7565 -0.4935 -0.4553
 3325SOL    HW221435   1.226   2.123   7.377  0.6766  1.5834 -1.8658
 3326SOL     OW21436   1.367   4.264   7.603 -0.3566  0.5491 -0.2731
 3326SOL    HW121437   1.395   4.218   7.524 -0.6451 -0.0139 -0.0499
 3326SOL    HW221438   1.412   4.346   7.582  0.7301 -0.3969 -1.6379
 3327SOL     OW21439   1.756   0.489   8.492  0.0803 -0.1356  0.0644
 3327SOL    HW121440   1.728   0.522   8.406  1.0652 -0.3713 -0.3409
 3327SOL    HW221441   1.768   0.567   8.545  0.6330  0.7341 -1.3237
 3328SOL     OW21442   3.366   0.283  14.969  0.0404  0.0140 -0.8275
 3328SOL    HW121443   3.445   0.333  14.950  0.4124 -0.7001 -1.1838
 3328SOL    HW221444   3.399   0.230  15.042 -0.0385  1.9706  0.6085
 3329SOL     OW21445   2.631   3.767   9.437  0.3866  0.3888 -0.7276
 3329SOL    HW121446   2.620   3.832   9.368  0.6228  0.2113 -0.9345
 3329SOL    HW221447   2.571   3.808   9.499  1.1235  0.0519  0.2172
 3330SOL     OW21448   3.644   3.598   3.789 -0.2705  0.8304 -0.5967
 3330SOL    HW121449   3.632   3.688   3.759  0.3135  1.8251  2.1547
 3330SOL    HW221450   3.649   3.568   3.699  2.1194  0.0291 -0.1963
 3331SOL     OW21451   2.930   2.053   8.433 -0.7570 -0.1655  0.0102
 3331SOL    HW121452   2.937   2.027   8.525  1.0947 -0.8711 -0.3194
 3331SOL    HW221453   3.006   2.110   8.420 -0.8130 -0.6250 -2.3152
 3332SOL     OW21454   0.990   3.064   7.549 -0.1749  0.3297  0.0148
 3332SOL    HW121455   1.043   3.030   7.477  0.3085  2.3994 -0.6009
 3332SOL    HW221456   1.039   3.039   7.627  0.7621 -1.0451 -1.0201
 3333SOL     OW21457   0.579   2.099   2.655 -0.0997 -0.0018 -0.1668
 3333SOL    HW121458   0.490   2.131   2.643  0.1151 -0.1333 -2.1370
 3333SOL    HW221459   0.613   2.150   2.729  1.5740 -0.8843 -0.3264
 3334SOL     OW21460   4.272   0.318   6.829 -0.5251 -0.2544 -0.0642
 3334SOL    HW121461   4.194   0.351   6.875  0.2514  1.3205  0.1126
 3334SOL    HW221462   4.338   0.359   6.885 -0.7986 -0.6505  0.5578
 3335SOL     OW21463   2.718   3.567   3.877  0.1942  0.3289 -0.1953
 3335SOL    HW121464   2.634   3.605   3.853 -0.4191 -0.2970  0.9926
 3335SOL    HW221465   2.777   3.642   3.887 -0.6844  0.9518  0.2476
 3336SOL     OW21466   1.288   0.891   5.897 -0.2058  0.1375 -0.0337
 3336SOL    HW121467   1.372   0.923   5.930 -0.1105 -1.3626  1.2077
 3336SOL    HW221468   1.307   0.799   5.878  1.2943  0.5308 -0.4060
 3337SOL     OW21469   3.983   3.186   7.328 -0.4284 -0.4998  0.1129
 3337SOL    HW121470   4.052   3.217   7.269 -1.5698  2.5106  0.3337
 3337SOL    HW221471   3.961   3.266   7.376 -2.2938  1.1034 -3.4080
 3338SOL     OW21472   2.351   3.010   8.002 -0.2381  0.5960  0.0535
 3338SOL    HW121473   2.339   3.080   8.066 -2.5098 -0.2343  0.5223
 3338SOL    HW221474   2.281   2.955   8.037  0.2436  0.8061  1.3632
 3339SOL     OW21475   4.116   1.918  11.675  0.0211  0.3796  0.2063
 3339SOL    HW121476   4.037   1.869  11.654  0.9012 -1.1534  0.4160
 3339SOL    HW221477   4.178   1.860  11.630 -0.2136  0.6562 -0.4738
 3340SOL     OW21478   2.374   1.929  14.970  0.5023 -0.6035  0.4189
 3340SOL    HW121479   2.313   1.893  15.034  0.5154 -0.7053  0.3744
 3340SOL    HW221480   2.441   1.963  15.029  1.1474 -0.4194 -0.4181
 3341SOL     OW21481   3.355   3.249  17.626  0.3877  0.4263  0.0783
 3341SOL    HW121482   3.402   3.307  17.567 -1.4964  1.9882  0.1164
 3341SOL    HW221483   3.412   3.173  17.640  1.8274  1.7229  1.1724
 3342SOL     OW21484   1.726   2.588   4.020  0.3312  0.2071  0.4852
 3342SOL    HW121485   1.682   2.635   4.090  0.4831  2.5419 -0.9734
 3342SOL    HW221486   1.806   2.563   4.066 -0.0122 -0.6989  0.5949
 3343SOL     OW21487   4.375   3.369  15.338 -0.1767 -0.0160 -0.1940
 3343SOL    HW121488   4.443   3.368  15.271  0.4449 -0.0219  0.4380
 3343SOL    HW221489   4.359   3.278  15.361 -1.3234  0.3328  0.3932
 3344SOL     OW21490   2.175   1.893   7.750 -0.2292  0.4265  0.7226
 3344SOL    HW121491   2.095   1.848   7.723  0.0235 -0.2135  1.0573
 3344SOL    HW221492   2.141   1.943   7.824  0.4686 -0.7815  1.8490
 3345SOL     OW21493   0.021   1.654   6.222 -0.9274  0.0080 -0.3355
 3345SOL    HW121494   0.027   1.750   6.216  0.1130  0.0458  1.3478
 3345SOL    HW221495   0.015   1.639   6.128 -0.5091  1.4574 -0.5943
 3346SOL     OW21496   2.607   0.220   7.478  0.1836  0.1974  0.0828
 3346SOL    HW121497   2.670   0.247   7.412 -0.4229 -2.0999 -1.4487
 3346SOL    HW221498   2.630   0.293   7.536 -1.0148  0.0191  0.7899
 3347SOL     OW21499   3.882   4.573   4.989  0.3435  0.2351 -0.8716
 3347SOL    HW121500   3.848   4.486   4.970 -0.1878 -0.2524  2.2299
 3347SOL    HW221501   3.902   4.601   4.900 -1.7720  0.3312 -1.3331
 3348SOL     OW21502   0.391   0.238   3.234  0.6170  0.3396 -0.0926
 3348SOL    HW121503   0.356   0.172   3.294  0.9809 -0.0330 -0.2937
 3348SOL    HW221504   0.413   0.311   3.291 -2.1619  2.0432 -1.1410
 3349SOL     OW21505   0.267   0.780   5.077  0.0792  0.3349 -0.4458
 3349SOL    HW121506   0.177   0.812   5.081 -0.5005 -1.4082  0.7013
 3349SOL    HW221507   0.285   0.775   4.984  3.8660 -0.5867  0.3230
 3350SOL     OW21508   0.578   4.343   3.006  0.2252  0.7250  0.2128
 3350SOL    HW121509   0.510   4.410   3.010  0.9938  1.6425 -2.4677
 3350SOL    HW221510   0.651   4.382   2.958 -1.5511  1.0432 -2.1897
 3351SOL     OW21511   3.787   0.843   5.120 -0.3553  0.1468 -1.1322
 3351SOL    HW121512   3.876   0.852   5.085 -0.0932 -0.7483 -0.6956
 3351SOL    HW221513   3.772   0.750   5.107  0.0995  0.0190 -0.7500
 3352SOL     OW21514   1.792   2.110  10.138 -0.0004 -0.1125  0.2800
 3352SOL    HW121515   1.843   2.062  10.204 -0.2112 -0.2474  0.3425
 3352SOL    HW221516   1.765   2.187  10.188  2.2440  1.1973 -0.5402
 3353SOL     OW21517   4.456   4.019   3.226 -0.4818 -0.7594 -0.1587
 3353SOL    HW121518   4.369   4.020   3.267 -0.1399  0.5592  0.5402
 3353SOL    HW221519   4.425   4.064   3.147 -0.5999  0.7840  0.7542
 3354SOL     OW21520   1.326   1.137  13.823 -0.4912  0.4113  0.3167
 3354SOL    HW121521   1.345   1.217  13.773  2.8108  0.1781  1.1950
 3354SOL    HW221522   1.294   1.088  13.747 -0.2679  0.0728  0.4410
 3355SOL     OW21523   0.115   1.806   7.695 -0.0448  0.0702 -0.0127
 3355SOL    HW121524   0.069   1.816   7.612  0.2745 -0.5673 -0.2646
 3355SOL    HW221525   0.185   1.743   7.686 -0.5784 -0.6037  0.5606
 3356SOL     OW21526   3.553   0.217   9.043  0.6172  0.1516 -0.0395
 3356SOL    HW121527   3.466   0.255   9.047  0.6122  0.0742  0.7563
 3356SOL    HW221528   3.601   0.288   8.999  1.8347  0.8498  2.3985
 3357SOL     OW21529   1.008   0.488   4.333 -0.0937  0.2278  0.4395
 3357SOL    HW121530   1.086   0.466   4.282  0.0554 -1.4011  1.3620
 3357SOL    HW221531   0.933   0.465   4.277  0.4268  1.5169 -0.7845
 3358SOL     OW21532   3.000   0.455   3.398  0.6894  0.5879 -0.0779
 3358SOL    HW121533   3.004   0.511   3.321 -1.0892  0.6358 -0.1341
 3358SOL    HW221534   2.997   0.526   3.461  0.0026 -0.0270  0.5856
 3359SOL     OW21535   3.105   2.928  16.116  1.0247  0.1776  0.5887
 3359SOL    HW121536   3.033   2.868  16.131 -0.7423  2.1836  0.1584
 3359SOL    HW221537   3.124   2.961  16.203  0.3105 -0.2050  0.8874
 3360SOL     OW21538   3.114   2.253   8.429 -0.1051  0.2737  0.2547
 3360SOL    HW121539   3.208   2.238   8.433 -0.5089 -2.0783  0.6331
 3360SOL    HW221540   3.104   2.349   8.432  0.2729  0.3177  0.1245
 3361SOL     OW21541   0.394   0.862   3.887  0.8693  0.4326 -0.0427
 3361SOL    HW121542   0.485   0.837   3.904  0.9089  0.6047  0.0033
 3361SOL    HW221543   0.361   0.799   3.823 -0.7979  2.0010 -0.7122
 3362SOL     OW21544   4.575   3.888   6.292  0.2726 -0.2110 -0.3166
 3362SOL    HW121545   4.558   3.943   6.369 -1.3216  0.3401 -1.0688
 3362SOL    HW221546   4.667   3.910   6.279  0.6204 -0.8229  1.0164
 3363SOL     OW21547   0.932   0.114   5.651  0.1469  0.3245  0.1168
 3363SOL    HW121548   1.007   0.173   5.658  0.7186 -0.1999 -1.4882
 3363SOL    HW221549   0.863   0.181   5.655  0.1352  0.6533 -4.8794
 3364SOL     OW21550   1.188   4.208   6.404  0.2822 -0.2954 -0.2964
 3364SOL    HW121551   1.161   4.273   6.469 -1.1122  0.0968 -1.2496
 3364SOL    HW221552   1.252   4.152   6.448 -0.2722 -1.7970 -1.3997
 3365SOL     OW21553   4.625   0.132   5.005 -0.3298 -0.1016 -0.0129
 3365SOL    HW121554   4.541   0.163   4.972 -0.8698  0.2676  1.7022
 3365SOL    HW221555   4.651   0.209   5.055 -0.5873  0.8724 -1.3814
 3366SOL     OW21556   0.325   3.996   5.007  0.1711  0.7349  0.3348
 3366SOL    HW121557   0.245   3.976   5.056 -0.3951  0.4771 -0.7138
 3366SOL    HW221558   0.321   3.940   4.930  1.1908  0.4711  0.4677
 3367SOL     OW21559   2.244   0.493   5.135  0.5239 -0.2776 -0.2664
 3367SOL    HW121560   2.183   0.425   5.107  0.8583 -0.7195  0.0815
 3367SOL    HW221561   2.187   0.569   5.122  0.4698 -0.6103 -1.9064
 3368SOL     OW21562   0.770   0.928   5.031 -0.4204 -0.2883  0.3635
 3368SOL    HW121563   0.676   0.946   5.041 -0.9349 -1.0326 -3.2658
 3368SOL    HW221564   0.772   0.834   5.049 -1.7241 -0.1851  1.1044
 3369SOL     OW21565   3.437   1.766  12.365  1.5337  0.3713  0.5518
 3369SOL    HW121566   3.447   1.860  12.348 -1.4915  0.4664 -0.7176
 3369SOL    HW221567   3.447   1.767  12.460 -0.1051  0.5738  0.7281
 3370SOL     OW21568   3.465   0.726   5.543 -0.3146 -0.0273 -0.0063
 3370SOL    HW121569   3.456   0.789   5.615  3.0139 -0.9968  1.2851
 3370SOL    HW221570   3.488   0.648   5.594  2.5338  1.2621  0.7095
 3371SOL     OW21571   0.212   3.666  13.438 -0.3343 -0.4091  0.0930
 3371SOL    HW121572   0.158   3.656  13.516 -2.6378  2.2704 -1.1506
 3371SOL    HW221573   0.221   3.573  13.416  0.4289 -0.3925  0.3039
 3372SOL     OW21574   3.838   0.138   2.884 -0.3999 -0.5321  0.4664
 3372SOL    HW121575   3.874   0.050   2.889  0.3416 -0.1640  1.4809
 3372SOL    HW221576   3.800   0.139   2.796 -0.5544  2.2262  0.5708
 3373SOL     OW21577   4.229   4.338  14.995 -0.1399  0.0493 -0.2729
 3373SOL    HW121578   4.168   4.293  15.054 -0.3854  1.2133  0.3714
 3373SOL    HW221579   4.168   4.353  14.922  1.2597  0.3018 -1.3840
 3374SOL     OW21580   2.347   1.615  11.372  0.0184  0.4482 -0.3763
 3374SOL    HW121581   2.251   1.611  11.364 -0.1770  1.1961  1.5586
 3374SOL    HW221582   2.379   1.527  11.393 -0.7364  1.3401  4.4304
 3375SOL     OW21583   3.177   1.594   2.561 -0.1651 -0.2111 -0.8121
 3375SOL    HW121584   3.250   1.647   2.529 -0.0807 -1.0348 -1.9866
 3375SOL    HW221585   3.233   1.522   2.593 -0.9816 -0.2607  0.5227
 3376SOL     OW21586   3.897   3.116   3.047 -0.1139 -0.6581  0.3345
 3376SOL    HW121587   3.857   3.094   3.132  0.2635  1.5140  1.0719
 3376SOL    HW221588   3.825   3.173   3.020  0.9729 -0.0014 -1.1515
 3377SOL     OW21589   1.579   1.718  10.705 -0.0366  0.1789 -0.0437
 3377SOL    HW121590   1.566   1.734  10.611  0.1828  2.5229  0.3051
 3377SOL    HW221591   1.631   1.791  10.740 -1.5950  1.0793  0.3864
 3378SOL     OW21592   1.372   0.361   5.732  0.1210 -0.6741 -0.5775
 3378SOL    HW121593   1.425   0.326   5.803  1.3021 -2.9199 -2.5614
 3378SOL    HW221594   1.425   0.336   5.656 -2.2685 -1.7852 -1.8838
 3379SOL     OW21595   0.606   3.825   7.806 -0.3172  0.2074 -0.3787
 3379SOL    HW121596   0.559   3.889   7.859  2.2826  1.4131  0.4345
 3379SOL    HW221597   0.684   3.807   7.857 -0.1712 -0.9611 -1.0047
 3380SOL     OW21598   0.069   3.590   4.061 -0.0505 -0.0149  0.1394
 3380SOL    HW121599   0.153   3.546   4.045  1.0321  1.7527  0.8759
 3380SOL    HW221600   0.077   3.641   4.142  0.3224  0.5261 -0.2371
 3381SOL     OW21601   3.720   0.173   2.647 -0.2650 -0.1845  0.9194
 3381SOL    HW121602   3.677   0.250   2.685 -1.8203 -0.8512  0.5093
 3381SOL    HW221603   3.703   0.175   2.553 -1.2680 -0.2519  1.0946
 3382SOL     OW21604   1.438   4.040   5.357  0.6775  0.4934 -0.5713
 3382SOL    HW121605   1.389   4.008   5.281 -0.0924 -0.6039  0.3865
 3382SOL    HW221606   1.457   4.129   5.325  2.2577  0.7277  1.0025
 3383SOL     OW21607   2.356   1.083  16.798  0.4318 -0.1887 -0.0045
 3383SOL    HW121608   2.372   1.064  16.706  1.2449  0.2975  0.0265
 3383SOL    HW221609   2.417   1.021  16.838 -1.6706 -1.7173  0.8239
 3384SOL     OW21610   0.391   3.107   0.883 -0.1845 -0.6483  0.1412
 3384SOL    HW121611   0.453   3.116   0.810 -3.3272  2.6003 -2.1086
 3384SOL    HW221612   0.356   3.019   0.868  0.0029 -0.2311 -2.7579
 3385SOL     OW21613   3.119   4.062   6.646 -0.2456 -0.5127 -0.2710
 3385SOL    HW121614   3.115   4.078   6.552 -0.8600  3.3619  0.4314
 3385SOL    HW221615   3.136   4.151   6.674  0.6387 -0.7247 -0.1302
 3386SOL     OW21616   1.916   3.442   8.218 -0.3753  0.0793 -0.2711
 3386SOL    HW121617   1.903   3.467   8.127 -1.8609 -0.4367 -0.2028
 3386SOL    HW221618   1.822   3.438   8.238  0.4029 -0.3510  3.2460
 3387SOL     OW21619   3.603   1.023   8.836 -0.1362 -0.2195 -0.8241
 3387SOL    HW121620   3.608   1.071   8.754 -2.0088  1.2733 -0.0570
 3387SOL    HW221621   3.516   1.048   8.867 -0.6062 -3.0456  0.1309
 3388SOL     OW21622   2.557   1.115  13.528 -0.0142  0.1208 -0.4712
 3388SOL    HW121623   2.623   1.048  13.544 -0.7536 -0.7896 -1.2013
 3388SOL    HW221624   2.514   1.116  13.613  1.7050 -0.9902  0.4055
 3389SOL     OW21625   2.123   1.572  14.807 -0.0491 -0.5204  0.0259
 3389SOL    HW121626   2.167   1.499  14.850 -0.5153  1.0906  3.2814
 3389SOL    HW221627   2.117   1.540  14.717 -1.1337  1.2723 -0.5399
 3390SOL     OW21628   4.451   0.368  13.743  0.0372  0.0293 -0.0946
 3390SOL    HW121629   4.423   0.316  13.668 -0.5693  2.7975 -1.8051
 3390SOL    HW221630   4.529   0.409  13.705  1.7436 -1.9295  1.2618
 3391SOL     OW21631   2.927   0.011   7.331  0.1679  0.5097  0.3568
 3391SOL    HW121632   2.912   4.655   7.382 -2.9775 -0.3592 -1.9258
 3391SOL    HW221633   3.010   4.713   7.288 -1.3804 -0.7668 -2.0293
 3392SOL     OW21634   3.287   2.027   3.887 -0.4121  0.2660  0.5083
 3392SOL    HW121635   3.199   1.988   3.885 -0.4885  0.4639 -0.2305
 3392SOL    HW221636   3.274   2.101   3.827 -2.4825 -0.4558  0.0679
 3393SOL     OW21637   0.292   3.821   3.791  0.1480 -0.6322  0.1143
 3393SOL    HW121638   0.216   3.879   3.788  0.2400 -0.2729  4.2981
 3393SOL    HW221639   0.293   3.782   3.704 -0.1987 -1.1286  0.3296
 3394SOL     OW21640   0.121   3.736   5.809 -0.1916 -0.7967 -0.0905
 3394SOL    HW121641   0.077   3.698   5.884  1.4649 -0.0077  1.2986
 3394SOL    HW221642   0.125   3.659   5.752 -2.4760 -0.7467 -0.2973
 3395SOL     OW21643   2.173   2.862   5.105  0.3580  0.2470 -0.6267
 3395SOL    HW121644   2.091   2.828   5.069 -1.6240  2.4968  1.8249
 3395SOL    HW221645   2.247   2.838   5.049  0.9788  0.8292 -0.0585
 3396SOL     OW21646   3.684   1.098  16.389 -0.6166 -0.0760  0.9278
 3396SOL    HW121647   3.592   1.119  16.404 -1.3286 -0.9645 -2.0397
 3396SOL    HW221648   3.704   1.067  16.477 -0.4288  1.2654  1.3585
 3397SOL     OW21649   2.761   3.534  12.779 -0.4863 -0.0122 -0.3248
 3397SOL    HW121650   2.846   3.511  12.742 -1.2961 -0.8223 -1.6693
 3397SOL    HW221651   2.719   3.570  12.701  0.6455 -1.4521 -1.6016
 3398SOL     OW21652   1.826   3.278   1.416  0.0428 -0.4190 -0.3601
 3398SOL    HW121653   1.881   3.259   1.492 -1.1783 -1.4840  0.2507
 3398SOL    HW221654   1.745   3.244   1.453 -0.5948  1.1270 -0.3343
 3399SOL     OW21655   0.663   1.845   1.791  0.1568 -0.6094  0.6788
 3399SOL    HW121656   0.600   1.825   1.861 -2.4072 -1.9161 -2.0028
 3399SOL    HW221657   0.619   1.904   1.730  0.4176 -2.0697 -0.9118
 3400SOL     OW21658   0.181   2.772   4.840  0.1296  0.3960  0.0858
 3400SOL    HW121659   0.112   2.829   4.875 -0.7405 -0.2142 -0.6184
 3400SOL    HW221660   0.196   2.822   4.761  0.1313 -0.8974 -0.7371
 3401SOL     OW21661   2.333   0.305  12.614 -1.0690 -0.5506 -0.3026
 3401SOL    HW121662   2.376   0.377  12.568 -2.1927  0.5958  0.4191
 3401SOL    HW221663   2.304   0.356  12.690 -0.1995 -0.5950  0.0597
 3402SOL     OW21664   0.922   1.051   0.527 -0.0432 -0.9393 -0.3662
 3402SOL    HW121665   0.941   0.969   0.571 -1.2629 -0.0478  1.8290
 3402SOL    HW221666   0.990   1.044   0.461 -0.4479 -1.6048 -0.7133
 3403SOL     OW21667   3.878   1.274  16.247 -0.3475  0.4841 -0.2689
 3403SOL    HW121668   3.903   1.344  16.308  0.2802  2.1958 -2.4778
 3403SOL    HW221669   3.813   1.232  16.304  0.1130  0.7638  0.4609
 3404SOL     OW21670   2.442   3.567   3.561  0.2851 -0.1560  0.6238
 3404SOL    HW121671   2.468   3.482   3.597  1.9936 -0.3070 -0.9404
 3404SOL    HW221672   2.453   3.527   3.475  0.6287 -0.7157  0.9273
 3405SOL     OW21673   1.007   0.727  11.527  0.0907 -0.4332 -0.2683
 3405SOL    HW121674   1.055   0.653  11.565 -2.7189 -0.9378  2.2594
 3405SOL    HW221675   0.984   0.685  11.444 -2.6384 -1.6802  1.1083
 3406SOL     OW21676   3.198   1.365  11.668 -0.1166  0.3072 -0.8162
 3406SOL    HW121677   3.134   1.361  11.739  0.9050 -1.9632 -0.0456
 3406SOL    HW221678   3.184   1.458  11.652 -2.3859  0.0605 -0.2793
 3407SOL     OW21679   0.724   4.178   5.142  0.1143  0.0404 -0.2655
 3407SOL    HW121680   0.784   4.249   5.164 -0.5203  0.3799  0.3837
 3407SOL    HW221681   0.663   4.193   5.214  0.9700 -1.0282  0.6785
 3408SOL     OW21682   4.281   3.603  11.868 -0.4412 -0.0045 -0.3906
 3408SOL    HW121683   4.199   3.653  11.868 -0.6121 -0.2831  1.5624
 3408SOL    HW221684   4.343   3.675  11.871  1.4856 -1.6524 -1.0834
 3409SOL     OW21685   4.394   2.385  17.527 -0.5109  0.4463  0.0171
 3409SOL    HW121686   4.401   2.352  17.616  0.7834  1.7911  0.3986
 3409SOL    HW221687   4.482   2.406  17.495  0.5818  1.0327  3.4201
 3410SOL     OW21688   0.040   3.136   2.766  0.5497 -0.5021 -0.4015
 3410SOL    HW121689   0.101   3.066   2.741 -1.5383 -2.0397 -1.2852
 3410SOL    HW221690   4.691   3.082   2.799 -0.6089  1.2445 -0.0506
 3411SOL     OW21691   1.003   2.934  17.661 -0.1775  0.0520  0.3439
 3411SOL    HW121692   0.950   3.005   0.002  1.0667  1.6750 -0.9842
 3411SOL    HW221693   1.078   2.984  17.630 -1.5620  0.9558 -1.5577
 3412SOL     OW21694   0.769   2.752   0.461  0.0211  0.3643  0.2707
 3412SOL    HW121695   0.834   2.817   0.436  0.4154 -0.1973 -0.1613
 3412SOL    HW221696   0.783   2.763   0.555 -1.2155 -1.0621  0.6343
 3413SOL     OW21697   2.191   0.793   7.791  0.0406 -0.4089 -0.1578
 3413SOL    HW121698   2.279   0.816   7.761 -0.7518  1.7180 -0.8709
 3413SOL    HW221699   2.178   0.849   7.868  0.4577  0.0201 -0.3989
 3414SOL     OW21700   0.767   4.716   7.462  0.1468 -0.5145  0.5875
 3414SOL    HW121701   0.718   0.073   7.481  0.5036  0.0672 -0.9494
 3414SOL    HW221702   0.818   0.017   7.385 -0.6953  1.6445  0.7146
 3415SOL     OW21703   4.589   1.572   9.867 -0.1671  0.1768 -0.1633
 3415SOL    HW121704   4.613   1.483   9.893 -1.5757  0.2594  1.3686
 3415SOL    HW221705   4.656   1.624   9.913 -1.4478  1.8179 -0.1840
 3416SOL     OW21706   2.128   3.567  13.276  1.1175 -0.4960  0.3094
 3416SOL    HW121707   2.218   3.535  13.278  1.4345  0.3679 -0.1387
 3416SOL    HW221708   2.096   3.516  13.351  1.5899 -2.5437 -0.8689
 3417SOL     OW21709   3.800   3.774   3.500 -0.2485  0.4002  0.0960
 3417SOL    HW121710   3.805   3.845   3.564 -2.2472 -0.0926  0.8048
 3417SOL    HW221711   3.761   3.825   3.429 -0.9498 -0.4781 -0.1479
 3418SOL     OW21712   2.148   2.883   8.096 -0.1930 -0.3708 -0.2294
 3418SOL    HW121713   2.064   2.905   8.057 -0.6841 -1.8427 -0.0353
 3418SOL    HW221714   2.128   2.793   8.125 -1.8871  0.2001  0.4074
 3419SOL     OW21715   4.634   0.972   9.053  0.4298  0.0485 -0.3882
 3419SOL    HW121716   4.717   0.938   9.087  0.1556  0.0171  0.2554
 3419SOL    HW221717   4.597   1.006   9.134  1.9980  0.1965  0.2637
 3420SOL     OW21718   3.493   1.784  14.600  0.0516 -0.3652 -0.0447
 3420SOL    HW121719   3.543   1.844  14.655 -0.2130  0.3303 -0.5593
 3420SOL    HW221720   3.529   1.782  14.512  0.9048  2.6006  0.2505
 3421SOL     OW21721   1.394   0.585   4.661  0.1017  0.5453  0.0889
 3421SOL    HW121722   1.342   0.663   4.641 -0.8590  0.2005  1.2277
 3421SOL    HW221723   1.349   0.557   4.741 -1.8803  2.6304 -0.3002
 3422SOL     OW21724   4.276   0.086  11.872  0.3339 -0.1994  0.2024
 3422SOL    HW121725   4.277   0.009  11.816 -0.8268  0.5494 -0.8681
 3422SOL    HW221726   4.258   0.148  11.801  1.6753 -1.5657 -1.3097
 3423SOL     OW21727   2.095   1.105   8.580 -0.3170 -0.2248 -0.6701
 3423SOL    HW121728   2.053   1.026   8.614 -0.2412 -0.2886 -0.7245
 3423SOL    HW221729   2.082   1.106   8.485  0.0665 -0.7535 -0.7274
 3424SOL     OW21730   0.972   4.720   2.916  0.7173 -0.2896 -0.3190
 3424SOL    HW121731   1.011   0.080   2.941  0.6856 -0.7398  1.2737
 3424SOL    HW221732   0.941   0.015   2.828  0.3622  0.3884 -0.0455
 3425SOL     OW21733   0.706   3.050   2.443  0.5652  0.1604  0.3467
 3425SOL    HW121734   0.747   3.103   2.375  0.8915  0.9500  1.1566
 3425SOL    HW221735   0.617   3.063   2.410  0.5705 -0.4981  0.0673
 3426SOL     OW21736   2.613   1.515   4.359  0.0351  0.2076  0.1931
 3426SOL    HW121737   2.635   1.435   4.406  1.0430  1.0756  1.1807
 3426SOL    HW221738   2.641   1.585   4.417  1.7999 -2.1018  2.1195
 3427SOL     OW21739   4.313   3.072   1.835  0.0915 -0.4197 -0.1356
 3427SOL    HW121740   4.299   3.141   1.900 -0.0017  1.2963 -1.9758
 3427SOL    HW221741   4.406   3.057   1.853  0.3390 -1.0027 -1.8937
 3428SOL     OW21742   4.126   4.306   8.462 -0.3199  0.1549 -0.5572
 3428SOL    HW121743   4.097   4.281   8.375  0.3047 -1.0186 -0.4232
 3428SOL    HW221744   4.105   4.399   8.476 -1.4501 -0.1503 -0.2606
 3429SOL     OW21745   1.651   2.818   8.012 -0.4413 -0.3450  0.1633
 3429SOL    HW121746   1.623   2.899   7.970  1.4985 -0.4218 -1.3366
 3429SOL    HW221747   1.694   2.767   7.943  0.9828  0.2614  0.5969
 3430SOL     OW21748   1.811   0.503   5.309  0.0258 -0.2572  0.0634
 3430SOL    HW121749   1.718   0.524   5.308  0.5919  2.1589  0.1604
 3430SOL    HW221750   1.802   0.452   5.390  2.0094  0.5893  0.8240
 3431SOL     OW21751   2.210   2.591  12.714 -0.1132  0.3231  0.2110
 3431SOL    HW121752   2.210   2.518  12.652  0.5746  0.8400 -0.3916
 3431SOL    HW221753   2.265   2.555  12.783  0.7612 -0.0265 -0.6692
 3432SOL     OW21754   2.187   0.336   3.353  0.3804  0.2030  0.3998
 3432SOL    HW121755   2.140   0.274   3.408  0.0227 -1.6776 -2.0364
 3432SOL    HW221756   2.172   0.299   3.266  0.6305 -0.9539  0.8435
 3433SOL     OW21757   0.893   2.830  14.622 -0.4475  0.3439  0.4895
 3433SOL    HW121758   0.823   2.825  14.557  0.9676  1.0784 -1.0879
 3433SOL    HW221759   0.959   2.862  14.560  1.1825 -2.1564  0.9410
 3434SOL     OW21760   4.282   2.962   5.742 -0.0942  0.2456 -0.6181
 3434SOL    HW121761   4.212   2.989   5.683  0.0050  0.8339 -0.4672
 3434SOL    HW221762   4.336   3.039   5.725  1.2175 -0.1085  1.9585
 3435SOL     OW21763   1.216   0.912   2.506  0.0213 -0.3268 -0.9202
 3435SOL    HW121764   1.299   0.893   2.549 -0.7514  0.2612  0.8308
 3435SOL    HW221765   1.162   0.833   2.507 -0.9617  0.3339 -1.6393
 3436SOL     OW21766   0.271   0.096  12.052  0.1713 -0.0282  0.2012
 3436SOL    HW121767   0.366   0.100  12.042 -0.0403 -0.3210 -1.9392
 3436SOL    HW221768   0.259   0.023  11.991 -4.0859  0.0789  0.9150
 3437SOL     OW21769   1.826   3.232   7.176  0.2590  0.0470  0.7981
 3437SOL    HW121770   1.807   3.148   7.218 -3.0220  1.1354  1.4926
 3437SOL    HW221771   1.922   3.237   7.173  0.2834  0.8128  2.7938
 3438SOL     OW21772   4.534   3.490   4.247 -0.4993  0.1722  0.4192
 3438SOL    HW121773   4.527   3.583   4.224 -1.3934 -0.5362 -2.0899
 3438SOL    HW221774   4.548   3.504   4.341  1.4243  0.7421  0.0434
 3439SOL     OW21775   2.818   4.107   6.378 -0.8331  0.0225  0.0762
 3439SOL    HW121776   2.763   4.171   6.424  1.3337  1.5531  0.5004
 3439SOL    HW221777   2.880   4.165   6.335 -0.0175  0.2671  1.5838
 3440SOL     OW21778   0.965   0.851   6.278 -0.1200 -0.1024  0.6625
 3440SOL    HW121779   0.871   0.869   6.285 -0.0929  0.7189 -1.0424
 3440SOL    HW221780   1.007   0.921   6.328  0.6258  0.9571 -1.4626
 3441SOL     OW21781   0.539   3.941  15.104  0.1433  0.2198  0.1877
 3441SOL    HW121782   0.620   3.958  15.152 -1.2107  2.2404  1.7681
 3441SOL    HW221783   0.566   3.877  15.038  0.7003  2.7363 -1.9964
 3442SOL     OW21784   2.547   0.201   6.640  0.8120  0.1509 -0.0967
 3442SOL    HW121785   2.637   0.234   6.640  0.6344  0.6379  1.8017
 3442SOL    HW221786   2.511   0.257   6.571  0.9825  0.2230 -0.1288
 3443SOL     OW21787   4.714   1.460   4.984  0.1691  0.5846 -0.6600
 3443SOL    HW121788   0.024   1.384   5.032  1.2954  0.2145 -2.0122
 3443SOL    HW221789   4.621   1.443   4.995  0.1255  0.3864 -1.2730
 3444SOL     OW21790   4.257   3.205   1.257  0.3098  0.7957 -0.0190
 3444SOL    HW121791   4.259   3.114   1.289 -1.6777  0.3152 -1.2945
 3444SOL    HW221792   4.212   3.257   1.324 -0.6597 -0.3584  0.2401
 3445SOL     OW21793   1.910   3.225  11.653  0.3121 -0.6434  0.0041
 3445SOL    HW121794   1.891   3.133  11.668 -0.2718 -0.1973  1.9571
 3445SOL    HW221795   1.864   3.242  11.571  1.8996  0.3124 -0.7055
 3446SOL     OW21796   0.013   1.058   7.470  0.5714  0.2468 -0.0605
 3446SOL    HW121797   4.650   1.099   7.469 -0.3137 -1.5922  1.8921
 3446SOL    HW221798   4.710   0.966   7.459 -0.8934  0.7436 -0.7414
 3447SOL     OW21799   3.076   1.786   2.999 -0.1032  0.2624 -0.5948
 3447SOL    HW121800   3.052   1.762   2.909  0.5218 -1.3990 -0.3103
 3447SOL    HW221801   3.160   1.740   3.005  0.6192  1.8668  1.7112
 3448SOL     OW21802   1.705   1.447  16.856 -0.3257  0.2397 -0.1384
 3448SOL    HW121803   1.752   1.367  16.878  0.9517  1.5223  1.7702
 3448SOL    HW221804   1.774   1.509  16.833 -0.2886  0.8968  1.7889
 3449SOL     OW21805   1.256   0.462   8.023 -0.0718  0.3047 -0.1558
 3449SOL    HW121806   1.166   0.429   8.026  0.2289 -0.2951  1.8941
 3449SOL    HW221807   1.276   0.449   7.930  1.9202  0.5269  0.2411
 3450SOL     OW21808   1.803   2.242  16.740  0.1717  0.5887 -0.2389
 3450SOL    HW121809   1.727   2.215  16.791  0.9323 -1.7377 -0.3302
 3450SOL    HW221810   1.811   2.338  16.742 -1.6601  0.7702 -1.8716
 3451SOL     OW21811   2.851   3.518   9.933 -0.1169 -0.4234  0.2784
 3451SOL    HW121812   2.757   3.504   9.926 -0.3401  0.6617  1.2447
 3451SOL    HW221813   2.882   3.469   9.857 -3.2127 -0.1947 -1.1393
 3452SOL     OW21814   0.076   1.278   7.296  0.4298  0.4831  0.5039
 3452SOL    HW121815   0.056   1.206   7.355  0.9896  0.3402  0.5152
 3452SOL    HW221816   0.052   1.239   7.213 -0.1552 -1.3861  1.5692
 3453SOL     OW21817   0.989   4.646   6.842  0.0851  0.3893 -0.2931
 3453SOL    HW121818   1.081   4.623   6.829 -0.1977 -0.7983 -0.1819
 3453SOL    HW221819   0.937   4.601   6.776  0.3888  2.5119 -1.9574
 3454SOL     OW21820   1.360   0.881   9.120 -0.4072  0.2453  0.6852
 3454SOL    HW121821   1.379   0.967   9.083 -0.9954 -0.0968 -0.4139
 3454SOL    HW221822   1.306   0.844   9.050  0.0984  0.1351  0.3515
 3455SOL     OW21823   3.437   3.249   0.962 -0.1109  0.0646 -0.0945
 3455SOL    HW121824   3.347   3.216   0.959  0.7712 -2.4125  0.4049
 3455SOL    HW221825   3.428   3.344   0.959 -1.1650  0.0205  1.5907
 3456SOL     OW21826   0.787   3.349   7.699  0.0075  0.4554  0.3591
 3456SOL    HW121827   0.769   3.377   7.789  0.4721  3.1690 -0.4072
 3456SOL    HW221828   0.850   3.277   7.710 -0.4521 -0.1744 -1.0701
 3457SOL     OW21829   2.605   4.268   8.240 -0.0753 -0.8238  0.0547
 3457SOL    HW121830   2.658   4.232   8.169 -0.3028 -0.5048 -0.2780
 3457SOL    HW221831   2.577   4.190   8.287  1.4758 -1.2919  0.1999
 3458SOL     OW21832   2.691   2.364  12.402  0.1780 -0.4024 -0.2146
 3458SOL    HW121833   2.701   2.347  12.495 -3.4930 -0.9088  0.0884
 3458SOL    HW221834   2.699   2.272  12.375 -0.9257 -0.3815 -0.5967
 3459SOL     OW21835   0.771   4.095  10.369 -0.1615  0.0859 -0.3046
 3459SOL    HW121836   0.697   4.053  10.413  0.0526  1.4761  1.4010
 3459SOL    HW221837   0.833   4.022  10.362  0.1922  0.5650 -2.1350
 3460SOL     OW21838   2.273   1.894  11.342 -0.2767 -0.1726 -0.2124
 3460SOL    HW121839   2.288   1.803  11.366  1.9956  0.5288  0.9897
 3460SOL    HW221840   2.364   1.924  11.349 -1.0478  1.8985  0.8364
 3461SOL     OW21841   3.754   2.492   0.557  0.0666 -0.5247  0.3251
 3461SOL    HW121842   3.770   2.401   0.530 -1.0411 -0.5840 -0.1225
 3461SOL    HW221843   3.753   2.492   0.653  1.0540  0.4402  0.3385
 3462SOL     OW21844   3.345   1.020   1.492  0.0242 -0.1445  0.2846
 3462SOL    HW121845   3.281   0.984   1.431  2.4433 -2.7335 -0.7022
 3462SOL    HW221846   3.350   1.111   1.461  1.0825 -0.2938  0.0202
 3463SOL     OW21847   2.523   3.167   6.019  0.1160  0.8828 -0.0496
 3463SOL    HW121848   2.512   3.215   5.937  0.2485 -2.2408 -1.8817
 3463SOL    HW221849   2.588   3.225   6.059  0.1996 -1.3846  3.1248
 3464SOL     OW21850   0.325   0.085  10.742  0.0505  0.1687  0.0480
 3464SOL    HW121851   0.337   0.021  10.812  1.6479  0.9956  0.5321
 3464SOL    HW221852   0.239   0.122  10.764 -1.1474 -2.6136 -0.0471
 3465SOL     OW21853   0.125   0.184   6.600 -0.0244 -0.2990  0.0446
 3465SOL    HW121854   0.157   0.123   6.534  0.5452  1.2729 -1.1357
 3465SOL    HW221855   0.071   0.243   6.547  1.6100  0.5906 -0.6385
 3466SOL     OW21856   1.041   3.081  14.702  0.6061 -0.0823  0.5518
 3466SOL    HW121857   0.988   3.131  14.640  4.2309  0.0044 -2.4975
 3466SOL    HW221858   0.987   3.006  14.727  0.7876 -0.3371  0.1747
 3467SOL     OW21859   3.948   0.511   1.217 -0.0794 -0.5792  0.9373
 3467SOL    HW121860   3.940   0.534   1.124  1.1710 -1.0288  0.7085
 3467SOL    HW221861   3.906   0.581   1.267  0.1067  1.6706 -2.0692
 3468SOL     OW21862   4.476   0.362   3.540 -0.0903  0.1487  0.5781
 3468SOL    HW121863   4.548   0.374   3.602 -0.8775  0.9489  1.3329
 3468SOL    HW221864   4.524   0.351   3.458 -3.3489 -1.1558 -1.1637
 3469SOL     OW21865   3.610   0.038   7.619 -0.2602  0.1978 -0.0991
 3469SOL    HW121866   3.590   0.129   7.599 -0.0444  1.0955  3.6111
 3469SOL    HW221867   3.535   4.720   7.577 -1.9352  1.2904  1.7986
 3470SOL     OW21868   4.382   0.990   2.710 -0.7011  0.2052  0.1939
 3470SOL    HW121869   4.325   1.033   2.773 -0.2125  1.0150  0.0716
 3470SOL    HW221870   4.353   1.031   2.629 -2.0865 -1.6676 -0.2753
 3471SOL     OW21871   3.613   0.414  14.984  0.3357 -0.0159 -0.1975
 3471SOL    HW121872   3.676   0.483  14.962  1.1331 -0.3380  1.0305
 3471SOL    HW221873   3.633   0.415  15.078 -1.5709  0.5701  0.1873
 3472SOL     OW21874   3.226   0.394   7.540 -0.0294 -0.9518 -0.1564
 3472SOL    HW121875   3.151   0.444   7.573  1.2501 -0.6116  2.2699
 3472SOL    HW221876   3.191   0.357   7.460 -0.3682 -0.8661 -0.0473
 3473SOL     OW21877   0.621   1.163   1.610 -0.0183 -0.0872  0.2943
 3473SOL    HW121878   0.699   1.212   1.634 -0.2721 -0.3203  1.5621
 3473SOL    HW221879   0.551   1.226   1.629 -0.4199 -0.2780 -0.5214
 3474SOL     OW21880   1.759   4.440   3.350 -0.1449  0.3175 -0.0614
 3474SOL    HW121881   1.781   4.533   3.346 -1.3190  0.5454 -1.3223
 3474SOL    HW221882   1.669   4.446   3.318  0.1518  1.0232 -0.7630
 3475SOL     OW21883   0.154   0.128   3.790  0.4449 -0.1942 -0.2688
 3475SOL    HW121884   0.243   0.124   3.823  1.1216  0.6167 -1.9914
 3475SOL    HW221885   0.111   0.153   3.872 -0.2830  1.1051 -1.0365
 3476SOL     OW21886   2.366   1.173  11.020  0.0204  0.1443 -0.4771
 3476SOL    HW121887   2.272   1.188  11.021  0.0000  0.0287 -0.6886
 3476SOL    HW221888   2.395   1.259  10.990 -0.6724  0.8908  1.0029
 3477SOL     OW21889   3.563   1.373   2.897 -0.2497 -0.2367  0.1044
 3477SOL    HW121890   3.606   1.309   2.954 -0.6738 -2.4728 -2.0933
 3477SOL    HW221891   3.534   1.431   2.967 -0.9158 -0.7869  0.2861
 3478SOL     OW21892   4.321   2.716   2.482  0.1436 -0.1605 -0.0043
 3478SOL    HW121893   4.256   2.729   2.413 -1.8059 -1.1714  1.6511
 3478SOL    HW221894   4.326   2.805   2.515 -0.9812 -0.5747  1.2768
 3479SOL     OW21895   1.300   2.336  17.418 -0.0191 -0.3393  0.2054
 3479SOL    HW121896   1.335   2.256  17.458  0.5033  0.7932  2.0187
 3479SOL    HW221897   1.210   2.312  17.396 -0.1287  0.3257 -0.0675
 3480SOL     OW21898   2.064   4.329  14.473  0.2353  0.0773  0.1125
 3480SOL    HW121899   2.149   4.317  14.515 -0.0800  1.6146  1.1617
 3480SOL    HW221900   2.038   4.237  14.463  0.4172  0.0876 -0.4819
 3481SOL     OW21901   2.391   4.025  12.610 -0.1262 -0.2756  0.0221
 3481SOL    HW121902   2.313   4.032  12.665  1.9324  1.4362  2.7548
 3481SOL    HW221903   2.355   3.998  12.526  0.2120 -0.5359 -0.0380
 3482SOL     OW21904   3.674   4.051  15.221  0.0521  0.1570  0.5206
 3482SOL    HW121905   3.712   3.964  15.230  0.5107  0.0652 -2.1033
 3482SOL    HW221906   3.661   4.066  15.314  2.0433  0.4257  0.7554
 3483SOL     OW21907   2.686   0.147   6.288 -0.3058 -0.7017 -0.0953
 3483SOL    HW121908   2.613   0.145   6.226 -0.6983  1.8287  0.2857
 3483SOL    HW221909   2.702   0.052   6.290  1.1651 -0.3790  2.5272
 3484SOL     OW21910   2.133   3.336   4.675  0.2454  0.0741 -0.2844
 3484SOL    HW121911   2.047   3.356   4.713 -0.3684 -2.4154 -0.3660
 3484SOL    HW221912   2.131   3.241   4.689 -0.9779  0.0725 -0.3954
 3485SOL     OW21913   4.056   4.426   0.159 -0.1155 -0.0130 -0.1960
 3485SOL    HW121914   4.104   4.418   0.242  0.8968  2.7637 -0.5277
 3485SOL    HW221915   3.998   4.497   0.187  0.8899  0.9228 -0.4915
 3486SOL     OW21916   1.742   1.568   9.134  0.1753 -1.0120  0.2688
 3486SOL    HW121917   1.650   1.573   9.107  0.4333  1.4677 -0.1621
 3486SOL    HW221918   1.783   1.563   9.048 -0.6969  2.4870 -0.3765
 3487SOL     OW21919   2.857   1.725   3.703 -0.1522  0.0222  0.5037
 3487SOL    HW121920   2.917   1.655   3.678  0.1270 -0.6015  2.9407
 3487SOL    HW221921   2.828   1.692   3.788  0.0253 -0.5350  0.3477
 3488SOL     OW21922   0.213   4.704   6.374 -0.0175 -0.1546  0.2113
 3488SOL    HW121923   0.192   4.622   6.331  1.5247  1.2285 -3.1788
 3488SOL    HW221924   0.248   0.024   6.296  1.7677 -0.1895  0.9924
 3489SOL     OW21925   2.567   0.220  12.924 -0.4395 -0.5184 -0.3383
 3489SOL    HW121926   2.621   0.227  13.003 -0.4293 -2.0224 -0.2189
 3489SOL    HW221927   2.482   0.191  12.956 -2.0819  2.1076 -2.3089
 3490SOL     OW21928   0.850   0.928  17.616 -0.0294 -0.0320  0.1108
 3490SOL    HW121929   0.810   0.918   0.007 -0.7186 -2.6699 -0.5073
 3490SOL    HW221930   0.829   0.845  17.573 -1.4481  1.5277 -2.1701
 3491SOL     OW21931   1.331   3.005   5.267  0.0350  0.7516 -0.3534
 3491SOL    HW121932   1.427   3.002   5.258 -0.0222  0.9785 -1.0324
 3491SOL    HW221933   1.306   3.010   5.175  0.4562 -3.1680 -0.6605
 3492SOL     OW21934   3.684   2.527   2.491  0.1148  0.0444 -0.6960
 3492SOL    HW121935   3.736   2.554   2.567  1.7724  1.0353 -2.1783
 3492SOL    HW221936   3.647   2.611   2.464 -1.2504 -0.1419  0.6101
 3493SOL     OW21937   1.290   3.054   4.097 -0.1463  0.6063  0.1517
 3493SOL    HW121938   1.211   3.016   4.058  0.8770 -2.2425  0.8896
 3493SOL    HW221939   1.338   2.978   4.130 -1.4091 -1.5273 -2.9458
 3494SOL     OW21940   3.714   1.336   5.649 -0.1531  0.4547  0.5125
 3494SOL    HW121941   3.724   1.378   5.564 -1.0084  1.4860  0.9195
 3494SOL    HW221942   3.622   1.350   5.672 -0.4646 -0.2433 -0.3251
 3495SOL     OW21943   1.133   3.478   3.315 -0.0367  0.0725  0.7596
 3495SOL    HW121944   1.091   3.412   3.370 -2.1288  2.8597  2.4731
 3495SOL    HW221945   1.085   3.472   3.233 -1.2205  6.0634  1.0047
 3496SOL     OW21946   4.582   3.673   6.822  0.4129 -0.6819  0.3875
 3496SOL    HW121947   4.580   3.664   6.726  0.8324 -1.3997  0.4432
 3496SOL    HW221948   4.495   3.652   6.856  1.7440 -5.0000  1.1983
 3497SOL     OW21949   2.206   1.020   3.784 -0.0579 -0.1928  0.1979
 3497SOL    HW121950   2.265   1.080   3.830 -2.8673  2.0648  0.8645
 3497SOL    HW221951   2.250   0.935   3.780  0.7057  0.2891 -1.7892
 3498SOL     OW21952   0.251   4.383   3.200 -0.0175  0.3968 -0.1242
 3498SOL    HW121953   0.185   4.386   3.269 -1.7910  1.8379 -1.8985
 3498SOL    HW221954   0.302   4.458   3.230  0.6387  0.6915 -1.9473
 3499SOL     OW21955   1.836   4.632  15.167  0.1442  0.0165  0.1542
 3499SOL    HW121956   1.891   4.637  15.088  1.4125 -0.4827  1.0150
 3499SOL    HW221957   1.757   4.678  15.136  0.7077  0.1018 -1.1833
 3500SOL     OW21958   3.568   0.527  13.235  0.5106 -0.2530  0.8361
 3500SOL    HW121959   3.568   0.544  13.329  1.1558 -1.8386  1.1167
 3500SOL    HW221960   3.662   0.508  13.233  0.3248 -0.9213 -1.3253
 3501SOL     OW21961   0.816   4.638   5.336  0.0399 -0.3311  0.8271
 3501SOL    HW121962   0.781   0.004   5.342  0.9723  0.2410 -2.2361
 3501SOL    HW221963   0.829   4.610   5.427 -2.9039  0.4842  1.4916
 3502SOL     OW21964   1.528   4.172  15.436 -0.0236 -0.5373 -0.6435
 3502SOL    HW121965   1.616   4.161  15.398 -0.6732  1.9093 -2.8608
 3502SOL    HW221966   1.506   4.259  15.404 -0.3198 -1.3193 -2.6083
 3503SOL     OW21967   2.675   3.255  12.646  0.6474  0.2148 -0.7179
 3503SOL    HW121968   2.642   3.189  12.585  0.1397 -1.4513  1.3375
 3503SOL    HW221969   2.639   3.335  12.609  0.1680  0.0183 -0.6819
 3504SOL     OW21970   0.293   1.399  10.344 -0.6263 -0.6961 -0.5299
 3504SOL    HW121971   0.296   1.494  10.359 -1.5396 -0.9062  0.9702
 3504SOL    HW221972   0.244   1.370  10.422 -2.5241  2.3887 -0.5580
 3505SOL     OW21973   1.640   4.639   8.218  0.1850  0.4422 -0.1035
 3505SOL    HW121974   1.578   4.579   8.260  0.9907  0.1305  0.6483
 3505SOL    HW221975   1.626   4.708   8.283 -0.2811 -0.5077  0.8095
 3506SOL     OW21976   2.363   1.332  11.731 -0.0595 -0.4781  0.1350
 3506SOL    HW121977   2.363   1.427  11.722  0.4852 -0.5024 -0.1446
 3506SOL    HW221978   2.365   1.316  11.637 -0.4157 -0.2427  0.0890
 3507SOL     OW21979   0.147   3.306   5.133 -0.1730  0.7499 -0.3494
 3507SOL    HW121980   0.194   3.230   5.168 -0.0748  1.6140  1.3777
 3507SOL    HW221981   0.062   3.265   5.118  0.6815 -0.5524 -1.6462
 3508SOL     OW21982   1.089   2.931   3.964 -0.1369  0.0512  0.1034
 3508SOL    HW121983   1.007   2.975   3.942 -1.2777 -1.2971  1.6327
 3508SOL    HW221984   1.072   2.866   3.895  2.2736  0.2162 -0.6629
 3509SOL     OW21985   1.196   2.029  14.611 -0.4870  0.6487 -0.2690
 3509SOL    HW121986   1.224   2.095  14.547 -2.7649 -0.2079 -2.1326
 3509SOL    HW221987   1.133   2.077  14.664 -1.4754  1.6509 -2.3755
 3510SOL     OW21988   2.354   3.925   4.205  0.3677  0.7838 -0.0613
 3510SOL    HW121989   2.415   3.935   4.278 -0.1491  0.5786  0.3942
 3510SOL    HW221990   2.404   3.929   4.123  1.4032 -0.1154  0.5247
 3511SOL     OW21991   4.347   1.125   1.704 -0.5500  0.1090 -0.1524
 3511SOL    HW121992   4.276   1.176   1.742 -2.3937 -1.4436 -1.5372
 3511SOL    HW221993   4.314   1.119   1.614 -1.4089 -0.7098  0.2194
 3512SOL     OW21994   1.242   2.498   4.827  0.0280  0.1751 -0.0498
 3512SOL    HW121995   1.202   2.462   4.748  0.8976 -1.0468  0.0720
 3512SOL    HW221996   1.178   2.556   4.869 -0.5207 -0.0694 -0.5508
 3513SOL     OW21997   2.135   2.191   2.377 -0.4905 -0.3666  0.2808
 3513SOL    HW121998   2.106   2.234   2.296  0.9130 -0.6884 -0.3946
 3513SOL    HW221999   2.079   2.114   2.386 -1.3145  0.3064  0.9101
 3514SOL     OW22000   1.911   0.696   7.632  0.0936 -0.2471  0.4980
 3514SOL    HW122001   1.963   0.776   7.644 -0.7747  0.5504 -1.1320
 3514SOL    HW222002   1.838   0.748   7.600  0.5916  0.2873  0.2259
 3515SOL     OW22003   3.123   3.894   5.358  0.0486 -0.0461  0.2405
 3515SOL    HW122004   3.065   3.967   5.381 -2.4023 -1.7980 -0.3002
 3515SOL    HW222005   3.110   3.837   5.434  1.7819  2.0330  2.0863
 3516SOL     OW22006   3.050   2.723   4.553 -0.0592 -0.3029 -0.4873
 3516SOL    HW122007   3.085   2.691   4.635 -2.2029 -0.1493  0.4781
 3516SOL    HW222008   2.963   2.743   4.587  0.5854 -0.6857  1.3462
 3517SOL     OW22009   4.647   3.316   6.773 -0.4010  0.3616 -0.5991
 3517SOL    HW122010   4.571   3.346   6.722 -0.6206 -0.5261 -0.7951
 3517SOL    HW222011   4.685   3.266   6.700  0.3852 -0.1704  0.1868
 3518SOL     OW22012   3.683   2.468   6.013 -0.4640  0.3254  0.1426
 3518SOL    HW122013   3.600   2.471   6.060  0.0748 -1.3872  1.2002
 3518SOL    HW222014   3.740   2.509   6.079  0.4347  1.5937 -1.4325
 3519SOL     OW22015   2.430   1.296   5.245  0.2932  0.8936  0.0568
 3519SOL    HW122016   2.389   1.333   5.324 -0.8378  1.2622 -0.7023
 3519SOL    HW222017   2.503   1.353   5.222 -0.2346  1.0713 -1.1632
 3520SOL     OW22018   4.236   1.477  14.556  0.0858  0.5601  0.1052
 3520SOL    HW122019   4.212   1.546  14.618 -0.9985 -0.6072  0.9754
 3520SOL    HW222020   4.171   1.492  14.488  0.0097  2.7921  0.6664
 3521SOL     OW22021   2.027   2.396   0.593  0.3636  0.1499  0.3412
 3521SOL    HW122022   2.075   2.468   0.636  1.2031 -0.6973  0.8248
 3521SOL    HW222023   1.975   2.452   0.536 -0.5146  0.7740  1.7446
 3522SOL     OW22024   1.788   4.242   7.262  0.2747 -0.1545  0.0625
 3522SOL    HW122025   1.752   4.272   7.345 -1.0537  1.5599 -1.1158
 3522SOL    HW222026   1.881   4.259   7.277  0.2167  1.2886 -1.1099
 3523SOL     OW22027   4.646   1.872   0.647  0.2847  0.3555 -0.4758
 3523SOL    HW122028   0.000   1.857   0.593  0.4910  2.4270 -0.7402
 3523SOL    HW222029   4.576   1.825   0.602 -0.5809 -1.3297  2.6264
 3524SOL     OW22030   2.235   4.378  17.466 -0.1186 -0.1559 -0.3919
 3524SOL    HW122031   2.261   4.364  17.557 -2.2761  1.3441  0.4674
 3524SOL    HW222032   2.244   4.292  17.425  1.0820 -0.0716 -0.2888
 3525SOL     OW22033   1.196   1.159  13.505  0.5945 -0.8489 -0.7800
 3525SOL    HW122034   1.223   1.231  13.563 -0.6230 -0.2547 -0.9547
 3525SOL    HW222035   1.248   1.177  13.427 -0.3761  3.3227 -0.4461
 3526SOL     OW22036   2.112   0.052  16.204  0.6714 -0.3737 -0.5184
 3526SOL    HW122037   2.113   0.110  16.128 -1.9919 -0.8309 -0.9041
 3526SOL    HW222038   2.109   4.689  16.163  0.3446 -0.9993  0.8347
 3527SOL     OW22039   2.916   4.440   1.764 -0.4695 -0.6150  0.0271
 3527SOL    HW122040   2.862   4.379   1.714 -0.5246 -0.7731  0.2798
 3527SOL    HW222041   2.857   4.515   1.768  1.6902  1.1649 -1.6222
 3528SOL     OW22042   3.593   2.282  14.392 -0.4361 -0.3777 -0.7945
 3528SOL    HW122043   3.550   2.239  14.466  0.4064  0.2901  0.0851
 3528SOL    HW222044   3.525   2.292  14.325 -0.5812 -1.1565 -0.7617
 3529SOL     OW22045   0.750   1.704  17.050 -0.0709  0.0026 -0.1935
 3529SOL    HW122046   0.818   1.706  16.983  0.3895 -1.7616  0.2308
 3529SOL    HW222047   0.750   1.798  17.069  1.1777 -0.0990  0.3050
 3530SOL     OW22048   3.205   4.109   3.868  0.0379 -0.0451  0.0540
 3530SOL    HW122049   3.147   4.061   3.809  0.9057 -0.2067 -0.6878
 3530SOL    HW222050   3.148   4.182   3.893  1.4348  0.1827  2.5130
 3531SOL     OW22051   2.077   0.366  15.407 -0.4324  0.7560 -0.1569
 3531SOL    HW122052   2.163   0.357  15.366 -0.5056 -1.2534  0.1544
 3531SOL    HW222053   2.019   0.362  15.331 -1.1438  2.5603  0.2925
 3532SOL     OW22054   0.772   2.243   0.626 -0.0647 -0.5125 -0.4852
 3532SOL    HW122055   0.775   2.290   0.542  2.0739  3.4307  1.8146
 3532SOL    HW222056   0.837   2.177   0.599  2.2762  0.9886  1.5436
 3533SOL     OW22057   3.392   4.490   8.578 -0.4043 -0.1450 -0.2325
 3533SOL    HW122058   3.478   4.531   8.564  0.2870 -2.0559 -1.6018
 3533SOL    HW222059   3.349   4.553   8.636 -0.9249 -1.1148  0.4338
 3534SOL     OW22060   2.792   1.525  10.345  0.1560  0.2172  0.4536
 3534SOL    HW122061   2.759   1.485  10.425 -0.4497  1.0698  0.6251
 3534SOL    HW222062   2.712   1.575  10.326 -0.4089 -0.4444  1.1034
 3535SOL     OW22063   3.543   1.778   5.845  0.6819 -0.0843 -0.3821
 3535SOL    HW122064   3.615   1.726   5.881 -0.5838 -1.5542  0.0440
 3535SOL    HW222065   3.589   1.817   5.770 -1.1945 -0.3143 -1.6689
 3536SOL     OW22066   3.779   2.184   9.917  0.5095 -0.8831  0.0551
 3536SOL    HW122067   3.742   2.204   9.830  0.2771 -1.8165 -0.0681
 3536SOL    HW222068   3.760   2.090   9.916  1.3366 -1.0515  1.5043
 3537SOL     OW22069   0.383   3.110   6.248 -0.2186  0.0157  0.2240
 3537SOL    HW122070   0.440   3.128   6.322  0.0781  0.0079 -0.0032
 3537SOL    HW222071   0.327   3.186   6.260  1.2284  1.2396 -0.8683
 3538SOL     OW22072   1.767   4.278   2.795  0.2528  0.1318  0.4692
 3538SOL    HW122073   1.700   4.235   2.740 -0.5235  1.3325  0.4682
 3538SOL    HW222074   1.849   4.232   2.777 -1.0687 -2.2291  0.4154
 3539SOL     OW22075   1.403   1.935   4.855  0.0941 -0.7995 -0.1032
 3539SOL    HW122076   1.441   2.005   4.801  0.6367 -2.0511 -1.3250
 3539SOL    HW222077   1.320   1.977   4.879  1.4500  2.1532 -0.5242
 3540SOL     OW22078   1.840   1.183  16.945  0.7008  0.3356  0.0403
 3540SOL    HW122079   1.882   1.149  16.865 -0.4582 -1.1925  0.0867
 3540SOL    HW222080   1.749   1.163  16.923  0.0024  1.1240  2.2193
 3541SOL     OW22081   2.575   1.671   6.767 -0.2201  0.1624  0.1241
 3541SOL    HW122082   2.644   1.611   6.738  0.0200 -0.1239  1.2983
 3541SOL    HW222083   2.540   1.700   6.683  1.1123  2.3737  0.3562
 3542SOL     OW22084   3.869   3.393  16.644 -0.5062 -0.5317  0.1131
 3542SOL    HW122085   3.921   3.373  16.721  1.2578  3.5125 -0.0092
 3542SOL    HW222086   3.882   3.484  16.619 -1.1808  0.3739  3.0303
 3543SOL     OW22087   4.226   0.748   5.958  0.3224 -0.0793  0.4282
 3543SOL    HW122088   4.223   0.833   6.001  0.2419  0.2021 -0.1314
 3543SOL    HW222089   4.136   0.741   5.926  0.5628  0.3872 -0.3353
 3544SOL     OW22090   1.907   3.963  13.273  0.4463  0.3308 -0.5814
 3544SOL    HW122091   1.963   3.902  13.226  3.0963  2.6378 -0.4492
 3544SOL    HW222092   1.845   3.913  13.326  1.2879  1.6047  1.5765
 3545SOL     OW22093   2.409   0.436   5.542  0.1452 -0.5824 -0.0415
 3545SOL    HW122094   2.409   0.525   5.507 -0.6053 -1.2149 -1.6624
 3545SOL    HW222095   2.321   0.405   5.522  1.1429 -2.7104 -1.1882
 3546SOL     OW22096   3.729   1.586  16.422 -0.5280 -0.1459  0.2373
 3546SOL    HW122097   3.638   1.613  16.409 -0.6840 -1.1297 -0.7567
 3546SOL    HW222098   3.781   1.640  16.362  1.5703 -1.4196  0.9086
 3547SOL     OW22099   2.932   4.650   6.114  0.4960 -0.0994 -0.2693
 3547SOL    HW122100   2.989   4.668   6.039  0.1011  1.6357 -0.1468
 3547SOL    HW222101   2.855   4.605   6.078  1.1667  0.4026 -2.3753
 3548SOL     OW22102   0.064   1.177   4.393  0.0008 -0.3984 -0.2152
 3548SOL    HW122103   0.083   1.098   4.343 -0.1626 -0.5022 -0.1110
 3548SOL    HW222104   0.050   1.138   4.479 -0.7589  0.7493  0.1745
 3549SOL     OW22105   2.922   1.991   8.140 -0.6058 -0.2927  0.0596
 3549SOL    HW122106   2.975   2.053   8.090  0.2208 -1.3756 -0.4015
 3549SOL    HW222107   2.954   1.989   8.231 -0.4470  0.2796  0.0179
 3550SOL     OW22108   2.067   4.558   8.299 -0.3586 -0.1025 -0.2884
 3550SOL    HW122109   2.020   4.641   8.290 -0.5996 -0.2591 -0.4774
 3550SOL    HW222110   2.124   4.560   8.376 -2.0076 -2.1905  0.9710
 3551SOL     OW22111   3.254   2.936   2.362 -0.8283  0.1283 -0.1028
 3551SOL    HW122112   3.322   2.905   2.302 -1.3830 -1.1953 -0.0449
 3551SOL    HW222113   3.304   3.011   2.394 -0.6940 -0.2123  0.4787
 3552SOL     OW22114   1.900   0.310   6.881 -0.1890  0.0135 -0.1522
 3552SOL    HW122115   1.943   0.253   6.945 -0.2854 -0.3086 -0.3732
 3552SOL    HW222116   1.987   0.347   6.866  0.8462 -2.4856 -0.3509
 3553SOL     OW22117   4.044   0.438  15.420  0.1196  0.3222  0.0384
 3553SOL    HW122118   4.104   0.393  15.480 -0.4943  1.1019  1.2376
 3553SOL    HW222119   4.029   0.524  15.460  0.5535  0.0667  0.7542
 3554SOL     OW22120   1.166   1.227   3.150  0.6521  0.3842 -0.4515
 3554SOL    HW122121   1.238   1.288   3.135 -0.7220  1.9424 -0.6987
 3554SOL    HW222122   1.183   1.202   3.241  3.9698 -0.9816 -1.4444
 3555SOL     OW22123   4.029   0.610   6.584 -0.2551 -0.4402  0.1864
 3555SOL    HW122124   4.115   0.644   6.609  0.6795 -3.7208  1.4594
 3555SOL    HW222125   3.976   0.606   6.663  3.5765  1.4741  2.8270
 3556SOL     OW22126   1.330   2.794   0.068  0.2385  0.0743 -0.3495
 3556SOL    HW122127   1.299   2.841  17.686 -0.6490 -0.0406 -0.0628
 3556SOL    HW222128   1.366   2.714   0.028  0.3148 -0.5374  0.9306
 3557SOL     OW22129   2.316   2.544   5.701  0.1947 -0.0942 -0.6657
 3557SOL    HW122130   2.355   2.485   5.766  1.3568  1.2151 -0.1800
 3557SOL    HW222131   2.395   2.597   5.688  0.6021 -0.6397 -0.4321
 3558SOL     OW22132   3.683   3.306   3.007 -0.0843 -0.2624 -0.2298
 3558SOL    HW122133   3.666   3.286   2.915 -2.7423 -1.6769  0.5555
 3558SOL    HW222134   3.600   3.350   3.025 -0.6876 -1.0325 -1.1373
 3559SOL     OW22135   4.522   2.513   1.671  0.0558 -0.5610 -1.0471
 3559SOL    HW122136   4.538   2.588   1.729  1.3062 -1.8909  0.3420
 3559SOL    HW222137   4.469   2.556   1.604  0.8302  3.5049  0.9835
 3560SOL     OW22138   1.809   0.451   2.480  1.1194 -0.0310 -0.4382
 3560SOL    HW122139   1.788   0.392   2.407 -0.2314 -0.7391  0.5174
 3560SOL    HW222140   1.884   0.504   2.453  1.4407 -0.3274 -0.1363
 3561SOL     OW22141   0.513   3.026   4.512  0.4983  0.5046 -0.1736
 3561SOL    HW122142   0.591   2.989   4.554  0.2564  0.9474  0.6709
 3561SOL    HW222143   0.549   3.074   4.438 -0.3576  2.8657  0.9660
 3562SOL     OW22144   2.014   3.143  17.005  0.2032  0.1665  0.0748
 3562SOL    HW122145   1.974   3.215  16.957 -0.5542  0.1624  0.7064
 3562SOL    HW222146   1.974   3.067  16.962  0.8635 -0.7815  1.1389
 3563SOL     OW22147   4.411   1.250   9.116 -0.3826  0.4352  0.6509
 3563SOL    HW122148   4.401   1.264   9.210 -0.8934 -0.3458  0.7111
 3563SOL    HW222149   4.354   1.174   9.108 -0.6934  0.5746  1.4901
 3564SOL     OW22150   2.095   3.698   0.501 -0.0901 -0.4035  0.3402
 3564SOL    HW122151   2.056   3.693   0.589  1.2580 -0.4581  0.9391
 3564SOL    HW222152   2.155   3.771   0.516  0.0642 -0.4989  0.1855
 3565SOL     OW22153   0.556   0.647  11.392  0.2630  0.0254  0.0474
 3565SOL    HW122154   0.476   0.690  11.424 -0.2764 -1.4161  0.6686
 3565SOL    HW222155   0.626   0.671  11.452 -0.3811  1.9479  0.0227
 3566SOL     OW22156   4.573   3.746   4.510  0.3400 -0.2417 -0.1916
 3566SOL    HW122157   4.537   3.783   4.430  2.4610 -1.0552 -1.5249
 3566SOL    HW222158   4.546   3.808   4.578  1.2339  0.4144 -0.4463
 3567SOL     OW22159   4.366   3.880   7.038 -0.1334  0.8006  0.1325
 3567SOL    HW122160   4.419   3.941   6.986  2.5177 -1.7873 -0.1774
 3567SOL    HW222161   4.417   3.868   7.118 -3.3116 -1.0997  1.8418
 3568SOL     OW22162   1.303   2.667   6.422  0.0875 -0.3245 -0.4278
 3568SOL    HW122163   1.309   2.639   6.331 -1.1667  0.7147 -0.8192
 3568SOL    HW222164   1.266   2.755   6.424  1.2054  0.1261 -0.1337
 3569SOL     OW22165   3.386   3.359  14.678 -0.3574  0.0875  0.4497
 3569SOL    HW122166   3.360   3.288  14.737  1.2667 -0.2745  0.7220
 3569SOL    HW222167   3.304   3.409  14.671 -0.5266 -0.2696 -0.1633
 3570SOL     OW22168   0.141   0.691  17.121  0.0014 -0.4440 -0.4667
 3570SOL    HW122169   0.107   0.606  17.148 -0.5008 -0.1059 -0.0434
 3570SOL    HW222170   0.209   0.721  17.182  1.7603  0.1853 -2.7190
 3571SOL     OW22171   4.645   2.105   7.186 -0.1530 -0.1835 -0.1453
 3571SOL    HW122172   4.584   2.058   7.129  0.1935  1.3462 -1.7812
 3571SOL    HW222173   0.002   2.066   7.154 -0.5574 -1.3689  0.2768
 3572SOL     OW22174   0.728   1.791   2.611 -0.0966  0.1641  0.4647
 3572SOL    HW122175   0.656   1.815   2.669  0.6898 -0.9051  1.8774
 3572SOL    HW222176   0.751   1.874   2.568 -0.5472 -0.6626 -1.3771
 3573SOL     OW22177   1.374   3.815   2.147 -0.1000  0.2816  0.0164
 3573SOL    HW122178   1.425   3.795   2.226  1.7073 -1.8239 -1.7016
 3573SOL    HW222179   1.357   3.732   2.102  0.8034  1.3693 -2.3093
 3574SOL     OW22180   3.875   2.295   7.380 -0.2948  0.4894  0.0870
 3574SOL    HW122181   3.959   2.302   7.425 -0.1131 -0.4619 -0.0979
 3574SOL    HW222182   3.809   2.291   7.449  2.2385 -0.5904  2.4508
 3575SOL     OW22183   0.865   1.478   5.443 -0.4225 -0.4784  0.3783
 3575SOL    HW122184   0.806   1.434   5.504  0.9547 -2.0725  0.5534
 3575SOL    HW222185   0.856   1.428   5.362 -0.7435  2.1291 -1.1942
 3576SOL     OW22186   1.499   3.919   6.900  0.2409  0.6040 -0.8442
 3576SOL    HW122187   1.541   3.869   6.971 -0.8296 -0.9594 -1.3037
 3576SOL    HW222188   1.431   3.962   6.952  1.5107  1.2512  0.2908
 3577SOL     OW22189   0.842   1.063  12.019 -0.5464 -0.5631  0.2881
 3577SOL    HW122190   0.897   1.116  11.961 -0.5778 -0.3104  0.4898
 3577SOL    HW222191   0.794   1.132  12.065  2.6664  3.1629 -1.8977
 3578SOL     OW22192   3.680   3.715   5.315 -0.1130 -0.2229 -0.3344
 3578SOL    HW122193   3.673   3.622   5.291  0.0458 -0.8666  2.0986
 3578SOL    HW222194   3.588   3.733   5.332 -0.4141 -1.4167 -0.6625
 3579SOL     OW22195   3.455   3.474   3.436  0.0671  0.5176 -0.3008
 3579SOL    HW122196   3.478   3.444   3.348 -1.9161 -1.1911 -0.2302
 3579SOL    HW222197   3.424   3.399   3.487  0.9850  0.4164  0.1154
 3580SOL     OW22198   3.020   2.352   4.066  0.1034 -0.2590  0.1978
 3580SOL    HW122199   3.034   2.445   4.049 -0.1048 -0.0510  1.1639
 3580SOL    HW222200   2.971   2.327   3.988  1.1729 -0.5054 -0.3956
 3581SOL     OW22201   3.637   2.583   4.405  0.2652 -0.2598  0.3963
 3581SOL    HW122202   3.623   2.599   4.499  1.3133 -0.5891  0.6154
 3581SOL    HW222203   3.624   2.489   4.401 -1.9219  0.1344 -1.5744
 3582SOL     OW22204   2.425   1.976   7.800 -0.3367 -0.0242  0.0912
 3582SOL    HW122205   2.331   1.961   7.790 -0.3497  0.6791 -0.9015
 3582SOL    HW222206   2.419   2.030   7.878 -2.2773 -1.7285  1.1045
 3583SOL     OW22207   0.604   0.839   7.081 -0.0664  0.3953  0.4237
 3583SOL    HW122208   0.664   0.913   7.086 -0.8501  0.9569  1.4228
 3583SOL    HW222209   0.651   0.780   7.021  0.4796  0.9974  0.2595
 3584SOL     OW22210   4.619   0.528   5.518 -0.0859 -0.2693 -0.0225
 3584SOL    HW122211   4.572   0.482   5.449 -2.1868 -0.6183  1.6594
 3584SOL    HW222212   4.702   0.548   5.475  0.9136 -1.3251  1.4208
 3585SOL     OW22213   1.781   4.290   5.594 -0.7261 -0.3682 -0.3790
 3585SOL    HW122214   1.813   4.209   5.633  0.9346 -0.1569 -1.3296
 3585SOL    HW222215   1.726   4.315   5.669 -2.5279  1.8739 -2.4666
 3586SOL     OW22216   3.548   1.897   9.676 -0.2125 -0.2876 -0.0194
 3586SOL    HW122217   3.523   1.906   9.585  1.8883 -1.0452 -0.6657
 3586SOL    HW222218   3.501   1.819   9.706  0.5649 -0.9627 -0.5411
 3587SOL     OW22219   1.162   0.991   1.913 -0.5310  0.2233  0.6477
 3587SOL    HW122220   1.254   1.012   1.928 -0.0619 -0.2367 -1.5965
 3587SOL    HW222221   1.121   1.074   1.891  0.1529  0.4629  0.2720
 3588SOL     OW22222   4.319   2.974   2.477  0.3050  0.6806 -0.1099
 3588SOL    HW122223   4.275   3.044   2.428  3.3093  2.1165 -0.8127
 3588SOL    HW222224   4.370   3.025   2.540 -1.6839  0.1882  1.8908
 3589SOL     OW22225   2.857   0.040  16.522  0.5877 -0.5864 -0.2159
 3589SOL    HW122226   2.768   0.015  16.498  0.2589  0.3051  0.0604
 3589SOL    HW222227   2.839   0.125  16.563 -0.7688 -1.8061  1.6873
 3590SOL     OW22228   0.259   1.914  15.534  0.1169 -0.3640 -0.6525
 3590SOL    HW122229   0.207   1.836  15.554 -1.7581  0.4142 -2.4517
 3590SOL    HW222230   0.198   1.955  15.472 -1.0923  1.4069  1.7040
 3591SOL     OW22231   1.716   2.392   2.765  0.4145  0.0581  0.2485
 3591SOL    HW122232   1.807   2.393   2.737  0.3742  0.1436  0.1235
 3591SOL    HW222233   1.692   2.301   2.748  0.3847  0.2427 -0.6825
 3592SOL     OW22234   2.183   1.784   4.935  0.1112 -0.3300  0.0301
 3592SOL    HW122235   2.148   1.767   4.847 -0.2076  2.7823 -0.4720
 3592SOL    HW222236   2.113   1.760   4.995 -0.3157 -0.8164 -0.6571
 3593SOL     OW22237   2.689   4.715   7.076  0.4827 -0.2697  0.1497
 3593SOL    HW122238   2.616   0.047   7.103  0.4674  0.0392 -0.5345
 3593SOL    HW222239   2.747   0.066   7.059  0.4313 -1.0091 -3.2772
 3594SOL     OW22240   2.059   2.914   4.400  0.4186 -0.1195  0.6381
 3594SOL    HW122241   2.075   2.850   4.470  0.5825  0.6752  1.3316
 3594SOL    HW222242   2.066   2.855   4.325  1.5828 -0.1159  0.7469
 3595SOL     OW22243   2.373   2.398   6.072 -0.3017 -0.0919  0.1508
 3595SOL    HW122244   2.304   2.462   6.082 -2.1620 -1.8067 -1.7543
 3595SOL    HW222245   2.415   2.392   6.158 -1.1502 -1.9415  0.4443
 3596SOL     OW22246   0.940   1.329   7.517 -0.3025  0.0673 -0.3448
 3596SOL    HW122247   0.940   1.381   7.437 -0.3692 -0.5252 -0.7294
 3596SOL    HW222248   0.846   1.310   7.523 -0.1734 -0.3659  0.1949
 3597SOL     OW22249   2.635   2.765  17.242  0.4778 -0.1894 -0.3987
 3597SOL    HW122250   2.614   2.824  17.170 -1.2100  1.4330  1.4411
 3597SOL    HW222251   2.638   2.680  17.197 -0.8599 -1.1954  1.3908
 3598SOL     OW22252   2.452   3.594   4.063 -0.0224  0.0178 -0.0186
 3598SOL    HW122253   2.367   3.626   4.033 -1.7148 -4.4042  0.0692
 3598SOL    HW222254   2.441   3.505   4.031 -0.9574  0.3345 -0.5829
 3599SOL     OW22255   0.911   0.559   1.427  0.6140  0.1181  0.2776
 3599SOL    HW122256   0.861   0.504   1.367  1.5465 -1.5226  1.0161
 3599SOL    HW222257   0.877   0.645   1.403  1.1972  0.4301  0.5653
 3600SOL     OW22258   1.225   4.206   6.138 -0.0024 -0.6752  0.1624
 3600SOL    HW122259   1.188   4.196   6.226  2.2536 -0.4965  1.1473
 3600SOL    HW222260   1.316   4.178   6.150  1.1270  1.1061 -4.2331
 3601SOL     OW22261   1.716   3.117   2.601 -0.2689 -0.2825  0.0367
 3601SOL    HW122262   1.692   3.202   2.637 -1.1616 -0.1159 -0.9528
 3601SOL    HW222263   1.628   3.080   2.614  0.5099 -2.2521 -0.2557
 3602SOL     OW22264   1.060   1.242   1.147  0.1202  0.5298  0.3312
 3602SOL    HW122265   0.986   1.181   1.142  2.3596 -2.0776 -1.1679
 3602SOL    HW222266   1.059   1.275   1.057  0.5385 -0.8876 -0.1898
 3603SOL     OW22267   1.205   2.151   2.951  0.1146 -0.2734 -0.0622
 3603SOL    HW122268   1.177   2.166   2.861  0.4466 -0.1657 -0.1496
 3603SOL    HW222269   1.191   2.237   2.990 -0.7964 -0.7890  0.7387
 3604SOL     OW22270   0.352   3.326   7.592 -0.2119 -0.3397  0.6351
 3604SOL    HW122271   0.270   3.370   7.569  0.7900  0.6806 -1.0047
 3604SOL    HW222272   0.369   3.379   7.671 -0.2531 -1.3265  1.3047
 3605SOL     OW22273   2.548   1.655  15.289  0.2268 -0.0612  0.6032
 3605SOL    HW122274   2.479   1.618  15.344  1.2086 -0.9255  1.2512
 3605SOL    HW222275   2.489   1.684  15.219 -0.2410 -6.2442 -1.5279
 3606SOL     OW22276   1.507   1.106   1.766  0.3852  0.1635  0.0228
 3606SOL    HW122277   1.574   1.126   1.831  0.6229 -1.0534  0.1490
 3606SOL    HW222278   1.444   1.058   1.819  1.2547 -0.9647  0.0276
 3607SOL     OW22279   0.175   1.452  12.718  0.0690 -0.3691 -0.0297
 3607SOL    HW122280   0.257   1.486  12.755 -0.8218  1.7434 -0.0121
 3607SOL    HW222281   0.177   1.482  12.627 -3.2552 -0.4008 -0.1195
 3608SOL     OW22282   0.800   0.379   1.244 -0.4068 -0.1773  0.0763
 3608SOL    HW122283   0.831   0.405   1.157 -0.3095  0.2288  0.2350
 3608SOL    HW222284   0.740   0.310   1.217  0.0231 -0.5813  0.1505
 3609SOL     OW22285   0.244   3.212   7.074 -0.0283  0.8223  0.9201
 3609SOL    HW122286   0.184   3.139   7.064  1.2205 -0.0839  0.0181
 3609SOL    HW222287   0.180   3.284   7.081 -1.6004 -0.5689  0.7842
 3610SOL     OW22288   2.886   2.584   6.620 -0.3346 -0.5421 -0.2259
 3610SOL    HW122289   2.808   2.587   6.677  0.3512 -0.5100  0.7163
 3610SOL    HW222290   2.896   2.672   6.584 -1.3191 -0.0751  0.6273
 3611SOL     OW22291   2.242   0.265   8.481  0.2358  0.0257 -0.0111
 3611SOL    HW122292   2.186   0.264   8.403 -0.1897  2.1432  0.2676
 3611SOL    HW222293   2.201   0.320   8.548 -2.0806 -2.6333  0.7730
 3612SOL     OW22294   1.892   1.706  17.553 -0.3114  0.6578  0.2704
 3612SOL    HW122295   1.967   1.675  17.604  1.5163 -0.3024 -2.9627
 3612SOL    HW222296   1.929   1.777  17.500 -2.0072  2.0820  1.0176
 3613SOL     OW22297   4.570   3.790   8.124  0.1564 -0.9012 -0.0963
 3613SOL    HW122298   4.585   3.707   8.169 -0.7146 -0.6677  0.6237
 3613SOL    HW222299   4.556   3.841   8.203 -2.0307  0.9042 -1.6551
 3614SOL     OW22300   3.719   1.650   7.608 -0.1561 -0.2271  0.0292
 3614SOL    HW122301   3.784   1.707   7.647  0.3699 -0.9503  0.2111
 3614SOL    HW222302   3.636   1.665   7.652 -0.0047 -1.2861  0.6666
 3615SOL     OW22303   2.068   1.236   2.953  0.2344 -0.0949 -0.2035
 3615SOL    HW122304   2.111   1.169   2.900  0.3805 -0.4444  0.3561
 3615SOL    HW222305   1.985   1.254   2.909 -1.6784 -1.2876  2.8927
 3616SOL     OW22306   0.501   3.178  15.844  0.7736 -0.6385 -0.3696
 3616SOL    HW122307   0.451   3.260  15.848 -1.4106 -2.0672  1.1011
 3616SOL    HW222308   0.489   3.156  15.752  0.2303 -2.9919  0.2728
 3617SOL     OW22309   4.664   3.449   0.748 -0.4421 -0.0015  0.0448
 3617SOL    HW122310   4.692   3.529   0.703 -1.9084  0.7528  0.4708
 3617SOL    HW222311   4.594   3.426   0.686  0.6682  0.7388 -1.4754
 3618SOL     OW22312   1.900   2.541  14.840  0.6069  0.8424  0.2752
 3618SOL    HW122313   1.981   2.497  14.867 -0.6502 -1.2816  0.6328
 3618SOL    HW222314   1.839   2.471  14.816 -0.3069  0.0432  4.9136
 3619SOL     OW22315   3.844   2.792   3.672 -0.1881  0.2933 -0.0928
 3619SOL    HW122316   3.870   2.857   3.606 -0.9857 -2.8261 -3.4886
 3619SOL    HW222317   3.787   2.737   3.619  1.8698 -1.1571 -0.8073
 3620SOL     OW22318   0.422   3.164   7.290 -0.0150 -0.3436  0.1452
 3620SOL    HW122319   0.431   3.228   7.360 -1.2650  0.3292 -0.3080
 3620SOL    HW222320   0.346   3.194   7.241  1.2693  2.8708  0.1195
 3621SOL     OW22321   0.794   1.315  14.666  0.7506  0.6530 -0.0860
 3621SOL    HW122322   0.800   1.340  14.758  0.5293  1.5653 -0.3169
 3621SOL    HW222323   0.809   1.394  14.615  3.2568 -0.0503 -0.4423
 3622SOL     OW22324   1.401   1.276   8.256  0.1852  0.1207 -0.2050
 3622SOL    HW122325   1.375   1.187   8.278 -1.7693  0.2998 -1.8089
 3622SOL    HW222326   1.388   1.271   8.162 -1.6979 -1.7650  0.1404
 3623SOL     OW22327   2.935   4.419   9.354 -0.3506  0.0434  0.4711
 3623SOL    HW122328   2.932   4.486   9.286 -0.1867 -0.4950 -0.0611
 3623SOL    HW222329   2.967   4.470   9.428 -0.4293 -0.1599  0.6466
 3624SOL     OW22330   3.453   4.054   7.403 -0.4965 -0.1729 -0.2020
 3624SOL    HW122331   3.440   3.964   7.373 -2.6520  0.0583  0.0700
 3624SOL    HW222332   3.376   4.091   7.361 -0.8656 -1.3231 -0.5267
 3625SOL     OW22333   2.489   3.045  16.590  0.1340 -0.0463 -0.1216
 3625SOL    HW122334   2.582   3.067  16.592  0.4102 -1.3011  0.4481
 3625SOL    HW222335   2.464   3.101  16.663 -1.7789 -1.2703  0.1649
 3626SOL     OW22336   1.986   2.658  10.115 -0.0586 -0.1216 -0.1461
 3626SOL    HW122337   1.953   2.596  10.180 -1.4604  0.6303 -0.1404
 3626SOL    HW222338   1.971   2.614  10.031 -0.2020  0.1698 -0.2728
 3627SOL     OW22339   2.501   0.445   5.997  0.0593 -0.1755  0.4245
 3627SOL    HW122340   2.472   0.408   5.913  1.3944 -1.5045  0.5477
 3627SOL    HW222341   2.591   0.412   5.985  0.3215  0.7463 -0.1535
 3628SOL     OW22342   3.074   3.799   0.528 -0.1842  0.2084  0.0605
 3628SOL    HW122343   3.165   3.807   0.557  0.3338 -3.1978 -0.6184
 3628SOL    HW222344   3.054   3.717   0.574  1.9386 -0.2452  0.1880
 3629SOL     OW22345   0.224   2.314   4.957  0.0697  0.4749 -0.8037
 3629SOL    HW122346   0.158   2.258   4.917 -0.1974  1.2209 -1.4067
 3629SOL    HW222347   0.308   2.281   4.924  0.3535  1.2037 -0.8164
 3630SOL     OW22348   1.547   3.645   9.123 -0.0856 -0.0459 -0.0733
 3630SOL    HW122349   1.552   3.564   9.174  1.9824 -0.3057 -0.7189
 3630SOL    HW222350   1.478   3.696   9.168  1.8974  1.0829  1.6757
 3631SOL     OW22351   4.305   2.940   8.528  0.0504 -0.1644 -0.0749
 3631SOL    HW122352   4.286   2.996   8.603  1.1547 -0.1727  0.1995
 3631SOL    HW222353   4.235   2.876   8.543 -1.1555  0.1040 -4.4247
 3632SOL     OW22354   0.397   1.966   1.174  0.7785 -0.0381  0.1736
 3632SOL    HW122355   0.492   1.973   1.181  0.7009  0.6377  0.5365
 3632SOL    HW222356   0.367   2.030   1.239  0.2146 -1.3340  1.1965
 3633SOL     OW22357   0.931   3.077   3.035  0.2729 -0.0110 -0.4086
 3633SOL    HW122358   0.890   2.995   3.007  2.6622 -1.2971 -0.1502
 3633SOL    HW222359   1.021   3.055   3.011  0.6818  0.9113  0.2605
 3634SOL     OW22360   4.102   4.722   3.053 -0.1873 -0.4273  0.0610
 3634SOL    HW122361   4.106   0.085   3.095 -1.6889 -0.3408  0.0458
 3634SOL    HW222362   4.158   0.006   2.976  0.1891  0.4177  0.4136
 3635SOL     OW22363   2.016   1.537   4.760 -0.0389  0.5152 -0.3691
 3635SOL    HW122364   2.021   1.490   4.677  2.0859  0.0861  0.0206
 3635SOL    HW222365   1.924   1.564   4.764 -0.1311 -0.1215  2.1680
 3636SOL     OW22366   4.223   1.573   7.022  0.2150 -0.0847 -0.1214
 3636SOL    HW122367   4.142   1.535   6.990 -1.8557  2.1359  2.5183
 3636SOL    HW222368   4.193   1.627   7.096 -0.2360  1.8401 -1.7019
 3637SOL     OW22369   0.198   3.254  12.187 -0.0524  0.0206 -0.0868
 3637SOL    HW122370   0.168   3.308  12.260  1.6610 -0.0468  0.6610
 3637SOL    HW222371   0.285   3.230  12.218  0.3329  2.0760  0.4060
 3638SOL     OW22372   0.359   3.995   0.492 -0.1021  0.8804 -0.0550
 3638SOL    HW122373   0.344   4.077   0.445 -1.7748  0.5704 -0.0840
 3638SOL    HW222374   0.417   3.948   0.432 -1.2915 -0.2061 -0.3480
 3639SOL     OW22375   1.026   2.997   5.150  0.7110 -0.3860  0.2796
 3639SOL    HW122376   0.971   3.061   5.196  2.2929  1.0652  0.1145
 3639SOL    HW222377   1.085   3.057   5.106  2.2628 -0.7157  1.8959
 3640SOL     OW22378   4.639   1.472   3.456 -0.1761  0.1308 -0.1141
 3640SOL    HW122379   4.584   1.483   3.379  0.1229  1.2989 -0.1581
 3640SOL    HW222380   4.570   1.455   3.521  0.0870 -2.0490 -0.3944
 3641SOL     OW22381   2.212   3.058   6.985  0.0626  0.5242 -0.1029
 3641SOL    HW122382   2.159   3.023   6.914  0.7206  1.4184 -1.0328
 3641SOL    HW222383   2.305   3.051   6.963  0.1089  0.3062  0.1538
 3642SOL     OW22384   0.459   4.435   9.321 -0.5340  0.3366  0.0897
 3642SOL    HW122385   0.431   4.356   9.368  0.5598  0.0373  0.2399
 3642SOL    HW222386   0.504   4.473   9.396  1.0931 -1.7204  0.1595
 3643SOL     OW22387   3.276   4.466   2.952 -0.1951 -0.0991  0.0493
 3643SOL    HW122388   3.235   4.550   2.930  0.7272  0.3885  0.1927
 3643SOL    HW222389   3.321   4.445   2.870  0.0938  1.1089 -0.1052
 3644SOL     OW22390   3.416   4.663  17.386  0.0316 -0.1577 -0.0462
 3644SOL    HW122391   3.476   0.012  17.367 -0.2158  0.3271  0.9966
 3644SOL    HW222392   3.462   4.582  17.365  0.9495  0.6555 -1.1453
 3645SOL     OW22393   0.163   3.907  10.679 -0.3816 -0.1302 -0.3028
 3645SOL    HW122394   0.250   3.900  10.718 -0.5451  0.1622  0.1076
 3645SOL    HW222395   0.178   3.864  10.595 -0.2435  0.7757 -0.7461
 3646SOL     OW22396   4.635   3.143   5.150  0.6489  0.5973 -0.3746
 3646SOL    HW122397   4.605   3.101   5.231 -2.0086  0.9926 -1.1359
 3646SOL    HW222398   4.561   3.203   5.146 -0.7474 -1.2222 -2.0826
 3647SOL     OW22399   2.033   1.440   4.504  0.5870  0.2649  0.2004
 3647SOL    HW122400   1.985   1.365   4.469  1.5217  0.1356 -0.8094
 3647SOL    HW222401   2.065   1.486   4.426  1.9941 -1.5142 -0.2713
 3648SOL     OW22402   2.596   0.827   6.046  0.1258  0.2032 -0.3026
 3648SOL    HW122403   2.560   0.916   6.047 -3.1866 -1.1470  0.2519
 3648SOL    HW222404   2.659   0.829   6.118  0.0502  1.0231 -0.2596
 3649SOL     OW22405   2.963   1.728   4.360 -0.9406 -0.3080  0.5926
 3649SOL    HW122406   3.025   1.773   4.302 -1.0105  0.2200  0.9324
 3649SOL    HW222407   2.881   1.730   4.310 -0.3624  1.4001 -0.2912
 3650SOL     OW22408   1.196   2.422  13.650 -0.1310  0.0820 -0.6081
 3650SOL    HW122409   1.233   2.365  13.582  0.4098  0.9043 -1.0075
 3650SOL    HW222410   1.217   2.376  13.731 -4.0923 -1.1903 -0.3090
 3651SOL     OW22411   1.130   3.202   1.807  0.1306  0.2138  0.1698
 3651SOL    HW122412   1.191   3.200   1.733 -0.6675 -2.6055 -0.4246
 3651SOL    HW222413   1.067   3.262   1.769  0.9593 -1.0124 -3.1248
 3652SOL     OW22414   2.080   1.314  11.265  0.4018 -0.2671  0.3689
 3652SOL    HW122415   1.999   1.274  11.296 -0.6685  0.9516 -0.8624
 3652SOL    HW222416   2.079   1.312  11.170  3.6034 -0.6158  0.3680
 3653SOL     OW22417   0.246   2.959   4.667 -0.3075 -0.2293  0.1161
 3653SOL    HW122418   0.311   2.969   4.598  0.0350  1.7632  0.7155
 3653SOL    HW222419   0.198   3.042   4.668  0.2180  0.0626  1.3320
 3654SOL     OW22420   0.883   2.291  12.330 -0.0092 -0.0094  0.1466
 3654SOL    HW122421   0.857   2.236  12.404 -0.9555  1.2659  0.7737
 3654SOL    HW222422   0.967   2.249  12.310  0.3816  1.0082 -0.3406
 3655SOL     OW22423   2.324   1.574  13.083 -0.6128  0.0237 -0.1166
 3655SOL    HW122424   2.330   1.488  13.124  0.3074 -1.4725 -3.3945
 3655SOL    HW222425   2.357   1.629  13.154  1.7121 -3.1052  1.2197
 3656SOL     OW22426   3.937   1.221   0.845  0.4277 -0.0347  0.1015
 3656SOL    HW122427   3.862   1.181   0.889  0.9705 -0.7052  0.4161
 3656SOL    HW222428   3.900   1.275   0.775  0.0495  0.3023  0.5686
 3657SOL     OW22429   2.693   2.739   2.241  0.6151  0.8131  0.0690
 3657SOL    HW122430   2.719   2.820   2.196  3.7766 -0.6619 -0.7356
 3657SOL    HW222431   2.607   2.734   2.199  1.1693  2.4891 -1.2992
 3658SOL     OW22432   4.176   1.079  17.299  0.3619  0.6049 -0.0019
 3658SOL    HW122433   4.110   1.010  17.306  0.6531  0.5017  1.7268
 3658SOL    HW222434   4.198   1.075  17.392  0.2072 -1.6581 -0.0695
 3659SOL     OW22435   4.569   2.554   7.800  0.0886  0.2323 -0.0270
 3659SOL    HW122436   4.507   2.531   7.869  0.5434 -2.2824 -0.4575
 3659SOL    HW222437   4.641   2.601   7.841  0.2029  1.8812 -2.1173
 3660SOL     OW22438   1.935   1.959   6.404  0.0868  0.3647  0.8010
 3660SOL    HW122439   1.853   2.008   6.411 -0.5680 -0.5593 -0.4859
 3660SOL    HW222440   1.937   1.920   6.317  1.5451  0.3147  0.8706
 3661SOL     OW22441   2.397   2.025   5.607 -0.0157 -0.3634 -0.0679
 3661SOL    HW122442   2.399   2.014   5.702  2.6772  1.7052  0.1082
 3661SOL    HW222443   2.319   1.982   5.574  0.0825  0.0609 -0.8473
 3662SOL     OW22444   3.455   1.055   3.148  0.3730 -0.2429 -0.1216
 3662SOL    HW122445   3.398   1.006   3.089 -1.3125  2.6916 -0.9265
 3662SOL    HW222446   3.460   0.998   3.225  0.1787 -2.0021 -1.4319
 3663SOL     OW22447   4.601   2.626  13.788 -0.0716 -0.6121 -0.2250
 3663SOL    HW122448   4.667   2.558  13.803 -0.4327 -0.4560  2.0980
 3663SOL    HW222449   4.607   2.651  13.696 -0.5219  1.4290  0.3043
 3664SOL     OW22450   0.886   1.668  14.453  0.3604 -0.0257  0.5934
 3664SOL    HW122451   0.844   1.747  14.419  2.4970  1.1471  0.7130
 3664SOL    HW222452   0.973   1.704  14.470  0.8821 -0.4835 -1.1984
 3665SOL     OW22453   1.852   4.392  12.844  0.1899 -0.2368  0.3399
 3665SOL    HW122454   1.784   4.418  12.906 -0.7009 -2.6619  0.3900
 3665SOL    HW222455   1.828   4.304  12.815 -0.1032 -0.4041  1.1131
 3666SOL     OW22456   0.372   0.980   0.769  0.0530 -0.0297  0.0752
 3666SOL    HW122457   0.343   1.035   0.842 -0.1592  0.7189 -0.5657
 3666SOL    HW222458   0.320   0.901   0.785 -0.7459  0.2848 -1.0320
 3667SOL     OW22459   1.056   1.451   2.438 -0.2973  0.0135  0.0028
 3667SOL    HW122460   1.076   1.389   2.507  2.0083 -0.7898 -1.3941
 3667SOL    HW222461   0.974   1.421   2.399 -0.5397 -1.1549  1.4431
 3668SOL     OW22462   1.560   2.114   5.089 -0.1561 -0.0350 -0.4794
 3668SOL    HW122463   1.524   2.190   5.044 -0.1933 -1.3098 -2.6493
 3668SOL    HW222464   1.520   2.037   5.047 -0.9266  0.5049 -0.7284
 3669SOL     OW22465   3.324   1.608   7.690  0.7913 -0.1092  0.1783
 3669SOL    HW122466   3.345   1.531   7.744 -1.0732  0.5653  1.8513
 3669SOL    HW222467   3.401   1.654   7.723  0.0024  2.2463 -1.2875
 3670SOL     OW22468   3.857   4.236   8.907 -0.3673 -0.0583 -0.0035
 3670SOL    HW122469   3.787   4.176   8.882 -0.0783  0.8221 -2.8495
 3670SOL    HW222470   3.820   4.283   8.982 -2.2390  0.1186 -1.0373
 3671SOL     OW22471   1.926   0.865   4.784  0.3417 -0.1929  0.2489
 3671SOL    HW122472   1.834   0.845   4.769 -0.1248  2.1134  0.0278
 3671SOL    HW222473   1.915   0.932   4.852 -2.1698 -1.1436  0.7785
 3672SOL     OW22474   0.835   0.292   9.117 -0.0657  0.9899 -0.6303
 3672SOL    HW122475   0.813   0.253   9.033  0.3744 -1.7466  0.5253
 3672SOL    HW222476   0.904   0.235   9.150 -0.5726  0.9757  0.4084
 3673SOL     OW22477   3.992   2.968   3.473  0.2254  0.3619 -0.1461
 3673SOL    HW122478   4.079   2.932   3.454  1.6256  3.6593 -0.0126
 3673SOL    HW222479   4.021   3.048   3.517  1.9400 -0.4571  0.2438
 3674SOL     OW22480   2.159   2.679   4.011 -0.0392  0.7997 -0.0157
 3674SOL    HW122481   2.229   2.728   3.968  1.0020  1.1897  2.1190
 3674SOL    HW222482   2.210   2.599   4.028  2.9742  2.6412 -0.3158
 3675SOL     OW22483   3.028   3.808   6.502 -0.2411 -0.3469  0.0711
 3675SOL    HW122484   2.955   3.865   6.526 -0.1745 -0.6165  0.9071
 3675SOL    HW222485   3.084   3.874   6.461 -1.7818  0.1957 -1.1525
 3676SOL     OW22486   4.452   2.024   1.444  0.3701 -0.0604  0.6506
 3676SOL    HW122487   4.452   2.117   1.464 -1.1326  0.0914 -0.1007
 3676SOL    HW222488   4.377   1.987   1.491  0.1511  1.7066  1.6637
 3677SOL     OW22489   2.440   0.299  15.761  0.3643  0.0649 -0.1072
 3677SOL    HW122490   2.523   0.299  15.809 -2.6084 -0.0688  4.9682
 3677SOL    HW222491   2.384   0.319  15.835 -0.5086 -1.3213 -0.4076
 3678SOL     OW22492   3.180   1.660   4.836 -0.2293  0.1170  0.8039
 3678SOL    HW122493   3.205   1.752   4.830  1.6986 -0.5504 -1.3636
 3678SOL    HW222494   3.119   1.653   4.910 -2.0858 -1.0453 -0.8362
 3679SOL     OW22495   3.339   1.567  10.209  0.0476  0.4691  0.2101
 3679SOL    HW122496   3.306   1.622  10.279  0.0907  2.5706 -1.4198
 3679SOL    HW222497   3.435   1.571  10.218  0.1103  0.9268 -0.5711
 3680SOL     OW22498   1.716   4.147   9.272  0.2674 -0.1797  0.4283
 3680SOL    HW122499   1.761   4.120   9.193  1.5541  0.2534  1.0129
 3680SOL    HW222500   1.758   4.223   9.313  1.4272 -0.6555  0.1244
 3681SOL     OW22501   4.043   2.489   1.461  0.0543  0.2104 -0.3487
 3681SOL    HW122502   4.046   2.483   1.556 -0.3395 -1.0400 -0.4197
 3681SOL    HW222503   4.067   2.399   1.440 -0.5983  0.0136 -0.2346
 3682SOL     OW22504   0.534   1.721   8.321 -0.0728  0.4482  0.4598
 3682SOL    HW122505   0.615   1.689   8.360 -1.0351 -2.5754 -0.0272
 3682SOL    HW222506   0.519   1.799   8.376  2.5417  0.1979  1.5435
 3683SOL     OW22507   0.456   1.230  16.160 -0.5398 -0.3162  0.6022
 3683SOL    HW122508   0.517   1.192  16.097 -3.6026 -2.5458 -1.0240
 3683SOL    HW222509   0.378   1.175  16.159 -0.3182 -0.6439  1.8012
 3684SOL     OW22510   4.694   1.151  15.965  0.1479 -0.2316  0.0380
 3684SOL    HW122511   0.056   1.150  15.922  0.7430 -0.8630  1.2339
 3684SOL    HW222512   4.664   1.237  15.933  0.2114 -0.3981 -0.4747
 3685SOL     OW22513   1.277   0.961  10.291 -0.4985 -0.2196  0.3620
 3685SOL    HW122514   1.206   1.026  10.285 -0.0622 -0.0415 -2.7131
 3685SOL    HW222515   1.238   0.907  10.359  0.1058  0.1118  0.9655
 3686SOL     OW22516   0.179   1.240  14.259  0.2379 -0.7922  0.3801
 3686SOL    HW122517   0.193   1.257  14.166  2.4018  1.7585  1.1641
 3686SOL    HW222518   0.135   1.156  14.249 -2.2746  0.5862 -0.0809
 3687SOL     OW22519   3.469   2.740  13.679 -0.1904 -0.4132  0.6576
 3687SOL    HW122520   3.508   2.762  13.595  2.4109 -0.6288  1.8034
 3687SOL    HW222521   3.551   2.731  13.727  0.7288 -0.2155 -0.8974
 3688SOL     OW22522   4.132   3.440   8.421  0.2575  0.4468 -0.8864
 3688SOL    HW122523   4.177   3.469   8.341  2.3568 -0.0240  0.1349
 3688SOL    HW222524   4.162   3.506   8.483 -2.0005  1.1251 -0.5356
 3689SOL     OW22525   1.083   1.661   7.721 -0.8142 -0.0613  0.2555
 3689SOL    HW122526   1.043   1.656   7.808 -0.4928 -1.1480  0.3420
 3689SOL    HW222527   1.071   1.571   7.690  1.7133 -0.4515  0.3755
 3690SOL     OW22528   0.097   2.522   8.361 -0.6986 -0.1871  0.3001
 3690SOL    HW122529   0.057   2.436   8.357 -0.4884 -0.1078 -3.5598
 3690SOL    HW222530   0.064   2.560   8.443 -1.1589 -1.2342  0.5996
 3691SOL     OW22531   4.531   1.145   3.123  0.5851  0.1180 -0.3394
 3691SOL    HW122532   4.598   1.082   3.095  0.0474 -0.1400 -1.0362
 3691SOL    HW222533   4.544   1.139   3.218  0.4770 -2.6694 -0.4813
 3692SOL     OW22534   0.915   3.748  13.400 -0.7022  0.0423  0.3350
 3692SOL    HW122535   0.968   3.827  13.412  0.3081 -0.4956 -0.6041
 3692SOL    HW222536   0.896   3.720  13.489  1.3881  0.2528  0.8460
 3693SOL     OW22537   3.852   1.647   6.359 -0.3182  0.2750 -0.0047
 3693SOL    HW122538   3.873   1.689   6.442 -0.8494 -1.2585  0.9159
 3693SOL    HW222539   3.808   1.571   6.398  0.6881  0.1519  0.8994
 3694SOL     OW22540   3.922   1.720   2.420 -0.2811 -0.1501 -0.3520
 3694SOL    HW122541   3.907   1.714   2.325  0.8874 -1.7930 -0.4383
 3694SOL    HW222542   3.958   1.634   2.443  1.6626  0.5275 -0.9394
 3695SOL     OW22543   3.486   1.719  16.389  0.3182 -0.3021 -0.3259
 3695SOL    HW122544   3.512   1.752  16.303  0.9427  1.4089  0.5118
 3695SOL    HW222545   3.419   1.656  16.361 -0.4319  0.9641 -1.4026
 3696SOL     OW22546   0.352   0.390  15.885 -0.0611 -0.4275  0.0785
 3696SOL    HW122547   0.267   0.362  15.918  0.0239  0.5551  1.1181
 3696SOL    HW222548   0.413   0.385  15.959  0.2218 -0.3507 -0.1453
 3697SOL     OW22549   1.075   4.276  16.656 -0.0652  0.2463  0.1255
 3697SOL    HW122550   1.052   4.340  16.723 -4.2416  0.6048 -1.6281
 3697SOL    HW222551   1.108   4.200  16.704 -0.4013  0.2359  0.3398
 3698SOL     OW22552   3.707   3.926   6.149  0.3709  0.4739  0.5867
 3698SOL    HW122553   3.672   3.901   6.063  0.5143 -1.1330  1.0005
 3698SOL    HW222554   3.699   4.021   6.141  0.3137  0.3860 -0.4641
 3699SOL     OW22555   3.989   4.331  10.164  0.3049  0.2849 -0.5126
 3699SOL    HW122556   4.014   4.241  10.186 -3.3169 -0.7424 -0.6204
 3699SOL    HW222557   4.057   4.380  10.210  2.1930 -0.8385 -2.0786
 3700SOL     OW22558   0.571   4.548   3.920 -0.2478  0.0821 -0.2443
 3700SOL    HW122559   0.501   4.483   3.930 -1.0259  1.2091  1.5872
 3700SOL    HW222560   0.546   4.585   3.835 -2.8783  0.7924  0.8263
 3701SOL     OW22561   3.574   0.327   1.898 -0.5365  0.1682 -0.5507
 3701SOL    HW122562   3.569   0.379   1.978 -1.6476 -1.4784  0.4460
 3701SOL    HW222563   3.547   0.238   1.922  1.4071 -0.2574  0.0834
 3702SOL     OW22564   1.482   0.396   4.447  0.1182  0.2281 -0.1551
 3702SOL    HW122565   1.441   0.317   4.484 -0.4584 -0.2116 -1.7286
 3702SOL    HW222566   1.484   0.441   4.531 -0.6944 -0.9503  0.4850
 3703SOL     OW22567   1.235   2.767   6.868  0.2756  0.0067 -0.3603
 3703SOL    HW122568   1.286   2.702   6.819  1.4080 -1.8607  3.3331
 3703SOL    HW222569   1.146   2.731   6.863  0.2593 -0.0111  0.0615
 3704SOL     OW22570   3.188   3.849  13.271  0.0972  0.2101  0.1184
 3704SOL    HW122571   3.172   3.756  13.254  1.6843  0.0208 -0.3041
 3704SOL    HW222572   3.161   3.848  13.363 -2.2961 -0.5202 -0.5966
 3705SOL     OW22573   2.736   2.933   7.373  0.3925  0.4259  0.0359
 3705SOL    HW122574   2.828   2.915   7.393  0.6132  0.2371 -1.1667
 3705SOL    HW222575   2.702   2.858   7.423  2.4811  0.3313  1.3153
 3706SOL     OW22576   1.974   0.246   2.634  0.3304 -0.1602 -0.4974
 3706SOL    HW122577   1.965   0.306   2.560  0.5566  0.2600 -0.1871
 3706SOL    HW222578   1.955   0.308   2.705 -0.9324 -0.9773 -0.1228
 3707SOL     OW22579   2.742   4.643   2.936  0.3419  0.4760  1.1151
 3707SOL    HW122580   2.818   4.696   2.915  2.0926 -3.1382 -1.6787
 3707SOL    HW222581   2.754   4.622   3.029 -0.2097  2.1823  1.5692
 3708SOL     OW22582   3.582   3.081  11.935  0.2279 -0.2604  0.1367
 3708SOL    HW122583   3.564   3.172  11.911  1.0253 -0.5402 -1.5384
 3708SOL    HW222584   3.526   3.066  12.011  0.5416 -0.1418  0.3916
 3709SOL     OW22585   0.225   4.322   1.563 -0.3133  0.1463 -0.1927
 3709SOL    HW122586   0.134   4.329   1.593 -0.2489 -1.7464  0.3807
 3709SOL    HW222587   0.232   4.390   1.495 -2.7497  1.1517  0.5547
 3710SOL     OW22588   2.544   0.994  13.272 -0.4380 -0.5784 -0.6837
 3710SOL    HW122589   2.536   1.079  13.315  0.7080 -0.5016 -0.6238
 3710SOL    HW222590   2.452   0.965  13.277 -0.3428 -0.6269  0.6871
 3711SOL     OW22591   2.581   3.804   3.304 -0.0614 -0.1652 -0.5599
 3711SOL    HW122592   2.586   3.888   3.258  2.8943 -0.2334 -0.3324
 3711SOL    HW222593   2.643   3.750   3.256  0.7944 -0.0849  0.4512
 3712SOL     OW22594   3.430   1.023   1.012 -0.2398 -0.3576  0.3160
 3712SOL    HW122595   3.400   1.103   1.056 -1.4881 -1.0588  0.7325
 3712SOL    HW222596   3.381   0.954   1.057  1.3994 -1.9918 -0.4101
 3713SOL     OW22597   1.724   1.653  14.575 -0.4032 -0.2236  0.0719
 3713SOL    HW122598   1.723   1.558  14.579  0.4825 -0.2196  0.4961
 3713SOL    HW222599   1.727   1.673  14.669 -0.3735  1.2254 -0.2324
 3714SOL     OW22600   4.091   4.557   8.622  0.2980 -0.0764 -0.2072
 3714SOL    HW122601   4.050   4.475   8.650 -1.1654  1.0497  0.9761
 3714SOL    HW222602   4.118   4.586   8.710 -0.4442  0.8352 -0.2801
 3715SOL     OW22603   2.385   1.553   2.299  0.4670 -0.1208  0.2677
 3715SOL    HW122604   2.330   1.482   2.332  0.3885  0.4712  1.4233
 3715SOL    HW222605   2.407   1.600   2.380 -0.0328  2.4705 -1.0903
 3716SOL     OW22606   2.123   3.691   8.567 -0.2098  0.5501 -0.0433
 3716SOL    HW122607   2.078   3.727   8.491 -0.9266 -0.3806 -0.0542
 3716SOL    HW222608   2.080   3.740   8.636 -1.0946  0.6917 -0.7075
 3717SOL     OW22609   3.545   4.193  13.051 -0.3812  0.5289 -0.5026
 3717SOL    HW122610   3.577   4.121  12.997  1.8770  0.1977  1.2792
 3717SOL    HW222611   3.633   4.230  13.046  0.1721 -0.7954 -0.5136
 3718SOL     OW22612   0.938   3.079   8.137 -0.2272  0.6301 -0.1517
 3718SOL    HW122613   0.884   3.129   8.197 -0.2690 -2.2279  2.2041
 3718SOL    HW222614   1.019   3.096   8.185 -2.4870  2.1116  3.0427
 3719SOL     OW22615   2.533   0.432   9.007 -0.2028  0.0972 -0.1189
 3719SOL    HW122616   2.534   0.390   9.093 -1.9117  2.5372  1.0771
 3719SOL    HW222617   2.492   0.367   8.949 -0.0637 -0.2615  0.1821
 3720SOL     OW22618   1.389   3.536   5.984  0.0128  0.2276 -0.4311
 3720SOL    HW122619   1.427   3.570   6.065 -2.0848 -0.0928  0.7045
 3720SOL    HW222620   1.297   3.523   6.010 -0.5052 -0.0949 -2.4060
 3721SOL     OW22621   0.453   1.662   2.333  0.1375 -0.3455  0.1486
 3721SOL    HW122622   0.424   1.751   2.353 -1.5953 -0.3645 -2.2204
 3721SOL    HW222623   0.545   1.683   2.319  0.8621 -1.7579  3.0349
 3722SOL     OW22624   0.823   0.636   8.932 -0.3709 -0.2558  0.4671
 3722SOL    HW122625   0.812   0.706   8.996 -1.3587 -0.6471  0.7257
 3722SOL    HW222626   0.901   0.591   8.964 -0.7214 -1.4608 -0.3560
 3723SOL     OW22627   4.428   2.197   3.845 -0.5820  0.2860  0.0368
 3723SOL    HW122628   4.394   2.270   3.794  2.8669  1.1713 -1.0043
 3723SOL    HW222629   4.514   2.187   3.803 -1.1690 -1.5950 -0.7309
 3724SOL     OW22630   2.181   2.087   6.585  0.1278  0.0869 -0.3418
 3724SOL    HW122631   2.143   2.061   6.501  0.5500 -0.1033 -0.4783
 3724SOL    HW222632   2.131   2.032   6.645  1.1069  2.6310  2.8475
 3725SOL     OW22633   1.074   4.272   4.414  0.5394  0.3753 -0.0963
 3725SOL    HW122634   1.073   4.326   4.335  1.1472 -0.1766 -0.4826
 3725SOL    HW222635   1.046   4.185   4.386  0.0256  0.4961  0.0329
 3726SOL     OW22636   4.301   1.430   2.074  0.2360  1.0775 -0.1261
 3726SOL    HW122637   4.222   1.382   2.099  0.8065  0.0812 -0.2344
 3726SOL    HW222638   4.353   1.407   2.151 -0.6978  0.0629  0.2084
 3727SOL     OW22639   1.268   1.949  17.362  0.2603  0.4726  0.1117
 3727SOL    HW122640   1.302   1.992  17.283 -1.3586  1.8160  0.1525
 3727SOL    HW222641   1.339   1.887  17.381  0.9050  1.1430 -0.0843
 3728SOL     OW22642   1.934   1.163   5.921 -0.5625 -0.0745  0.0806
 3728SOL    HW122643   1.853   1.210   5.902  0.7682  2.3833  0.4500
 3728SOL    HW222644   1.900   1.086   5.967  1.0205 -1.0789 -0.4482
 3729SOL     OW22645   2.129   4.660   2.961  0.3496 -0.7094  0.0817
 3729SOL    HW122646   2.219   4.628   2.951  0.7803  1.0259 -1.5893
 3729SOL    HW222647   2.098   4.676   2.872  0.2533  2.0914  0.6295
 3730SOL     OW22648   2.937   2.078   4.117 -0.3664 -1.3241  0.4108
 3730SOL    HW122649   2.943   2.077   4.213 -0.6749 -0.4919  0.4407
 3730SOL    HW222650   2.995   2.152   4.099 -1.3278 -1.1776 -2.0503
 3731SOL     OW22651   3.904   0.563   2.148 -0.1240  0.1307  0.2330
 3731SOL    HW122652   3.884   0.629   2.214 -1.1096 -0.6268  0.7068
 3731SOL    HW222653   3.871   0.482   2.188 -1.4609 -0.5817 -2.2709
 3732SOL     OW22654   0.539   3.615   1.927 -0.3860 -0.4334 -0.2811
 3732SOL    HW122655   0.617   3.641   1.879 -1.1369  2.1101 -0.1501
 3732SOL    HW222656   0.476   3.671   1.881 -2.2271  0.0252  2.7704
 3733SOL     OW22657   1.544   2.285  12.505  0.4926 -0.0691 -0.3345
 3733SOL    HW122658   1.543   2.306  12.598  0.8526  0.0865 -0.3662
 3733SOL    HW222659   1.628   2.242  12.491  0.2824 -0.8520  0.7607
 3734SOL     OW22660   4.467   4.426   7.167 -0.0118  0.2291  0.4863
 3734SOL    HW122661   4.405   4.375   7.218 -1.0849  1.1364  0.1049
 3734SOL    HW222662   4.539   4.436   7.229  0.2466  1.8432 -0.0643
 3735SOL     OW22663   3.357   1.945   8.384  0.5740 -0.0623  0.0066
 3735SOL    HW122664   3.447   1.916   8.399  0.5489  0.0789  0.4296
 3735SOL    HW222665   3.347   2.012   8.452 -1.4743 -0.1760 -0.1799
 3736SOL     OW22666   1.834   2.058   4.814  0.0804  0.2579  0.0026
 3736SOL    HW122667   1.893   2.096   4.749  0.4466 -0.7101 -0.2317
 3736SOL    HW222668   1.863   2.101   4.894  1.5022  1.4333 -1.1419
 3737SOL     OW22669   1.751   3.351   3.140  0.8943  0.4128  0.4269
 3737SOL    HW122670   1.684   3.409   3.176  0.5197 -0.2227  0.7583
 3737SOL    HW222671   1.768   3.308   3.223  0.9411  0.6031  0.5167
 3738SOL     OW22672   1.150   1.849  12.275 -0.0085  0.1732 -0.2004
 3738SOL    HW122673   1.076   1.828  12.332  1.4381 -0.1755  1.5251
 3738SOL    HW222674   1.094   1.868  12.199 -0.0016 -0.3118 -0.3283
 3739SOL     OW22675   3.326   1.563   7.434 -0.1185 -0.2017  0.0021
 3739SOL    HW122676   3.303   1.579   7.526  0.3414 -2.0345  0.4237
 3739SOL    HW222677   3.373   1.480   7.445  0.4958  0.1833  0.3157
 3740SOL     OW22678   1.604   3.417   2.018 -0.2648  0.0139  0.3810
 3740SOL    HW122679   1.535   3.421   2.083  0.4742 -0.6057  1.2072
 3740SOL    HW222680   1.563   3.483   1.963 -1.5621 -1.0193  0.1200
 3741SOL     OW22681   3.568   0.412   4.417 -0.3469  0.2474 -0.3213
 3741SOL    HW122682   3.486   0.363   4.419  1.0703 -2.0825 -0.3709
 3741SOL    HW222683   3.536   0.494   4.455 -0.5337  1.1713 -2.4749
 3742SOL     OW22684   2.247   2.629   4.874  0.2291  0.2020 -0.1093
 3742SOL    HW122685   2.324   2.648   4.928 -0.3366  2.4245 -0.0676
 3742SOL    HW222686   2.294   2.615   4.792 -0.1477  0.5236 -0.3809
 3743SOL     OW22687   2.853   2.882  14.810 -0.1611 -0.2268 -0.5901
 3743SOL    HW122688   2.926   2.903  14.870  0.3541 -0.0593 -1.2775
 3743SOL    HW222689   2.860   2.958  14.752  1.6722 -1.0669 -1.4741
 3744SOL     OW22690   4.191   0.509   4.058  0.2514 -0.3643  0.1256
 3744SOL    HW122691   4.128   0.437   4.053  1.2872 -1.0909 -2.6979
 3744SOL    HW222692   4.257   0.462   4.109  0.9462  1.4894  0.9116
 3745SOL     OW22693   3.978   2.053   1.795 -0.0164  0.0353  0.0986
 3745SOL    HW122694   3.905   2.051   1.734 -1.4099 -1.4325  1.7948
 3745SOL    HW222695   4.011   1.964   1.785 -2.3089 -0.7266 -0.7232
 3746SOL     OW22696   1.933   3.586  12.802  0.3482 -0.2317 -0.4808
 3746SOL    HW122697   1.899   3.507  12.843 -0.2650  1.3948  2.1152
 3746SOL    HW222698   1.883   3.658  12.841 -0.8690 -0.2839 -1.9292
 3747SOL     OW22699   0.688   4.110  12.442 -0.1740  0.4445 -0.1568
 3747SOL    HW122700   0.675   4.023  12.479  3.5843 -0.0770 -0.0638
 3747SOL    HW222701   0.732   4.085  12.360 -1.2566  2.3630 -1.3265
 3748SOL     OW22702   0.091   1.319   3.739  0.4353  0.2318  0.4289
 3748SOL    HW122703   0.047   1.240   3.708 -0.0886 -0.1613  2.1583
 3748SOL    HW222704   0.094   1.315   3.835 -0.7857  1.6101  0.5439
 3749SOL     OW22705   3.412   0.702   8.860  0.1066  0.2914 -0.5570
 3749SOL    HW122706   3.384   0.755   8.934  1.3006 -0.5070  0.4599
 3749SOL    HW222707   3.331   0.656   8.839  0.7535 -1.7793  1.4657
 3750SOL     OW22708   3.883   3.256   5.912 -0.3112  0.6603 -0.0000
 3750SOL    HW122709   3.858   3.296   5.829 -0.3373 -1.3915 -0.9610
 3750SOL    HW222710   3.820   3.184   5.918  0.3850 -0.1160 -1.9705
 3751SOL     OW22711   4.704   0.785   6.874 -0.1930 -0.1954 -0.3018
 3751SOL    HW122712   4.633   0.840   6.842  0.2878 -0.6831 -2.1678
 3751SOL    HW222713   4.672   0.776   6.964  0.8898  1.3770  0.2440
 3752SOL     OW22714   1.353   3.702   0.703  0.3028  0.7563  0.7565
 3752SOL    HW122715   1.396   3.780   0.669  0.4782 -0.3684 -1.6194
 3752SOL    HW222716   1.393   3.697   0.790  0.5585 -2.0432  0.4946
 3753SOL     OW22717   3.159   1.803   7.725 -0.7358  0.2244 -0.1239
 3753SOL    HW122718   3.222   1.731   7.711 -1.2158 -0.5638  1.8087
 3753SOL    HW222719   3.176   1.850   7.643 -2.8510 -0.8931 -1.2169
 3754SOL     OW22720   1.485   2.675   1.339 -0.1308 -0.7405 -0.0230
 3754SOL    HW122721   1.469   2.769   1.350 -1.0474 -0.4661 -3.8828
 3754SOL    HW222722   1.411   2.639   1.291 -0.0712 -2.1898  0.9619
 3755SOL     OW22723   3.477   4.342  10.084  0.0259  0.3193 -0.4222
 3755SOL    HW122724   3.541   4.291  10.135  1.6440 -0.9338 -3.7279
 3755SOL    HW222725   3.458   4.408  10.151  2.8431  0.1522  0.5555
 3756SOL     OW22726   4.561   3.051   7.126 -0.0607  0.3802  0.0628
 3756SOL    HW122727   4.596   2.969   7.092  1.3431  0.4070  1.4764
 3756SOL    HW222728   4.612   3.105   7.066 -2.6526  3.6249  0.7648
 3757SOL     OW22729   4.522   1.270   0.684  0.6922 -0.0699 -0.1458
 3757SOL    HW122730   4.561   1.309   0.605  2.1373 -0.8528  0.1743
 3757SOL    HW222731   4.591   1.259   0.749  1.8226  1.4576 -1.0715
 3758SOL     OW22732   3.885   2.694   4.037  0.0095 -0.0257 -0.0313
 3758SOL    HW122733   3.920   2.680   4.125 -0.9734 -1.4154  0.1475
 3758SOL    HW222734   3.905   2.785   4.017  1.6179 -0.3422  0.1152
 3759SOL     OW22735   1.455   0.147   6.577  0.6395  0.5820 -0.2660
 3759SOL    HW122736   1.490   0.109   6.496 -1.1612 -0.2770 -0.6404
 3759SOL    HW222737   1.400   0.216   6.539  2.0861  2.2156  0.6154
 3760SOL     OW22738   4.384   0.937   4.608 -0.0844 -0.1561  0.4114
 3760SOL    HW122739   4.300   0.935   4.562 -0.0634  0.3252  0.3475
 3760SOL    HW222740   4.421   1.008   4.556  0.4997 -0.4672  0.4116
 3761SOL     OW22741   4.266   3.081   4.198  0.0742  0.0776 -0.1410
 3761SOL    HW122742   4.331   3.081   4.268 -1.3907  0.4052  1.2153
 3761SOL    HW222743   4.324   3.122   4.134 -1.4660 -0.2772 -1.7752
 3762SOL     OW22744   4.324   4.140  16.525  0.6306 -0.0910 -0.2591
 3762SOL    HW122745   4.362   4.216  16.480  1.4054  0.1472  0.8108
 3762SOL    HW222746   4.378   4.151  16.603  1.5541  0.8153 -1.0140
 3763SOL     OW22747   3.159   1.149   1.888  0.1693  0.1726  0.3268
 3763SOL    HW122748   3.239   1.146   1.836 -0.9117 -1.2556 -1.2298
 3763SOL    HW222749   3.183   1.135   1.980  0.7827  0.1432  0.1596
 3764SOL     OW22750   3.177   2.194   4.728  0.1027 -0.0064 -0.0618
 3764SOL    HW122751   3.260   2.224   4.691  0.7100 -0.9219  0.5563
 3764SOL    HW222752   3.141   2.272   4.770 -0.1340 -0.0206 -0.2377
 3765SOL     OW22753   4.673   1.737   7.261  0.1601 -0.0884  0.2143
 3765SOL    HW122754   4.635   1.736   7.349 -1.7896 -1.2314 -0.6445
 3765SOL    HW222755   4.648   1.647   7.239 -1.5654 -0.1949  2.5543
 3766SOL     OW22756   4.360   1.150  12.754  0.1172  0.2097  0.2401
 3766SOL    HW122757   4.412   1.218  12.711  1.2181 -0.4051  0.6198
 3766SOL    HW222758   4.270   1.176  12.734  0.0360  0.3275  0.7630
 3767SOL     OW22759   0.849   3.997   7.629  0.4148 -0.0563  0.8798
 3767SOL    HW122760   0.788   3.952   7.687 -1.8845  0.9962 -0.7350
 3767SOL    HW222761   0.926   4.015   7.683 -1.3843  2.2578  2.6594
 3768SOL     OW22762   2.488   4.003   1.573  0.1674 -0.7601  0.2255
 3768SOL    HW122763   2.580   4.021   1.555 -0.0612  0.9348  0.7513
 3768SOL    HW222764   2.467   4.084   1.619  0.4514 -0.4779 -0.1470
 3769SOL     OW22765   4.657   2.151   0.546  0.7486  0.6708 -0.0662
 3769SOL    HW122766   4.646   2.232   0.595 -1.0776  2.2314 -3.0449
 3769SOL    HW222767   4.633   2.098   0.622 -0.6733 -0.3998 -1.2572
 3770SOL     OW22768   2.655   1.503   7.688 -0.7957 -0.3277  0.2665
 3770SOL    HW122769   2.649   1.492   7.783 -2.4873  1.7566  0.3951
 3770SOL    HW222770   2.616   1.588   7.671  1.8124  0.9908  0.9403
 3771SOL     OW22771   0.098   4.549   6.927  0.2544  0.4760  0.2053
 3771SOL    HW122772   0.071   4.583   6.842  0.1911  1.3681  0.5784
 3771SOL    HW222773   0.059   4.619   6.979 -1.1429  0.6089 -1.0400
 3772SOL     OW22774   0.066   2.746  14.639  0.1039  0.6548 -0.2144
 3772SOL    HW122775   0.016   2.819  14.675 -0.3416  0.8183 -1.1689
 3772SOL    HW222776   0.131   2.732  14.708  0.2396 -0.8539 -0.6333
 3773SOL     OW22777   0.909   0.548  11.030  0.2576 -0.1499 -0.6669
 3773SOL    HW122778   0.818   0.573  11.019  0.7863  1.9178 -0.3106
 3773SOL    HW222779   0.905   0.455  11.006  0.1782 -0.3447  0.0969
 3774SOL     OW22780   0.291   2.095   3.917  0.4482  0.7569  0.1342
 3774SOL    HW122781   0.308   2.105   3.823  2.2641 -0.2330  0.3593
 3774SOL    HW222782   0.362   2.037   3.945  1.4590  1.5849 -0.6671
 3775SOL     OW22783   0.312   3.930   3.219  0.0637  0.1029 -0.4551
 3775SOL    HW122784   0.284   3.840   3.204  0.0992 -0.3799  2.3817
 3775SOL    HW222785   0.314   3.961   3.129  2.1179 -1.2409 -0.8679
 3776SOL     OW22786   4.007   2.583  10.675  0.2403  0.3249  0.1135
 3776SOL    HW122787   3.961   2.637  10.740 -2.5577 -0.2935 -1.3369
 3776SOL    HW222788   4.091   2.550  10.708  0.0186  1.3634  1.7410
 3777SOL     OW22789   4.502   4.699   1.574 -0.5574  0.3838 -0.1578
 3777SOL    HW122790   4.515   0.005   1.484 -0.1910  2.8332  0.7032
 3777SOL    HW222791   4.407   4.704   1.585 -0.4281 -1.3020  1.7504
 3778SOL     OW22792   4.339   4.696   0.256 -0.0511 -0.2358  0.0747
 3778SOL    HW122793   4.362   0.016   0.338 -0.7899 -1.2390  0.8146
 3778SOL    HW222794   4.305   4.612   0.286  1.0164 -0.6611  0.1029
 3779SOL     OW22795   2.854   2.148   2.569 -0.4478 -0.6079  0.6476
 3779SOL    HW122796   2.848   2.172   2.662 -0.8297  0.7422  0.2734
 3779SOL    HW222797   2.764   2.176   2.557  0.0200 -0.2810 -2.0050
 3780SOL     OW22798   0.026   3.578   0.970 -0.2047  0.5469 -0.1634
 3780SOL    HW122799   0.112   3.543   0.991 -0.5266  0.8125  1.5877
 3780SOL    HW222800   0.005   3.522   0.895  3.8414 -0.8808 -0.2424
 3781SOL     OW22801   0.599   0.958   0.950  0.2496  0.5832  0.0216
 3781SOL    HW122802   0.623   0.966   0.858 -0.1888 -1.1173 -0.2305
 3781SOL    HW222803   0.512   1.000   0.946 -0.9531 -1.9927 -0.6814
 3782SOL     OW22804   4.261   0.613  10.788  0.7451 -0.3284 -0.2189
 3782SOL    HW122805   4.354   0.625  10.766  1.3895 -0.8045  2.2615
 3782SOL    HW222806   4.267   0.614  10.884 -0.5531  0.0064 -0.1371
 3783SOL     OW22807   3.086   2.657   3.658 -0.0232  0.0422  0.3053
 3783SOL    HW122808   3.067   2.569   3.626 -0.7763  1.2798 -2.6255
 3783SOL    HW222809   3.033   2.720   3.608  3.1006 -0.1329 -3.2525
 3784SOL     OW22810   1.658   0.126   3.409  0.3148  0.5004 -0.1579
 3784SOL    HW122811   1.728   0.085   3.357  0.7317  0.3410  0.5372
 3784SOL    HW222812   1.705   0.187   3.465 -0.9901  2.1788 -0.9077
 3785SOL     OW22813   4.365   0.470   5.405  0.3082  0.4614 -0.1543
 3785SOL    HW122814   4.305   0.414   5.356  1.3166 -1.3024  0.6330
 3785SOL    HW222815   4.300   0.482   5.475 -0.3057  0.8428 -0.7828
 3786SOL     OW22816   3.378   4.552  10.302  0.0961  0.0805  0.0679
 3786SOL    HW122817   3.298   4.505  10.324  0.2847  0.3533  1.3420
 3786SOL    HW222818   3.340   4.638  10.287  0.8283  0.6827  1.7028
 3787SOL     OW22819   2.031   1.098   7.749 -0.2585 -0.1059 -0.2166
 3787SOL    HW122820   2.038   1.053   7.664 -0.0303 -1.4465  0.5091
 3787SOL    HW222821   1.963   1.044   7.791 -1.7153  0.4581 -1.8218
 3788SOL     OW22822   0.740   1.826   6.517  0.0210  0.1806 -0.0015
 3788SOL    HW122823   0.819   1.802   6.566  0.0368  1.1538  0.4397
 3788SOL    HW222824   0.754   1.920   6.516 -0.6399  0.3033  1.3257
 3789SOL     OW22825   4.567   3.039   1.943 -0.2548 -0.0955 -0.0527
 3789SOL    HW122826   4.642   3.054   1.886  0.0531 -4.2763 -0.6939
 3789SOL    HW222827   4.555   2.948   1.968  1.2491 -0.1482  0.4897
 3790SOL     OW22828   2.098   2.425   5.236 -0.6266 -0.6074  0.3240
 3790SOL    HW122829   2.117   2.394   5.325  1.7395 -1.2595 -0.4217
 3790SOL    HW222830   2.003   2.441   5.237 -1.0422 -3.1685  0.0542
 3791SOL     OW22831   3.376   4.296   0.593 -0.3097 -0.2877  0.6922
 3791SOL    HW122832   3.367   4.308   0.687 -1.6999 -0.0905  0.5353
 3791SOL    HW222833   3.289   4.263   0.572  0.3079  0.0033 -2.2809
 3792SOL     OW22834   1.030   2.253  17.316 -0.2518 -0.3088 -0.1521
 3792SOL    HW122835   1.063   2.243  17.227  2.0296  2.4663  0.3818
 3792SOL    HW222836   0.946   2.298  17.304 -0.5812 -0.9763 -0.3200
 3793SOL     OW22837   2.164   1.518   6.469  0.3971 -0.2500  0.3003
 3793SOL    HW122838   2.219   1.497   6.394 -0.6209 -0.5835 -0.3507
 3793SOL    HW222839   2.143   1.431   6.503 -1.5227 -0.5036 -1.5522
 3794SOL     OW22840   3.897   2.205   6.432 -0.4985 -0.0149 -0.0998
 3794SOL    HW122841   3.826   2.181   6.372 -0.0097  1.6464 -1.3537
 3794SOL    HW222842   3.868   2.287   6.472 -0.7141 -0.0065 -0.2692
 3795SOL     OW22843   0.359   2.103   0.759 -0.0575  0.5096 -0.5325
 3795SOL    HW122844   0.293   2.073   0.821  0.7805  0.2442  0.2422
 3795SOL    HW222845   0.316   2.092   0.674 -0.1790 -3.4147  0.0314
 3796SOL     OW22846   2.845   3.796   8.283 -0.0359 -0.3672 -0.1668
 3796SOL    HW122847   2.919   3.754   8.239 -0.4711 -1.2353 -0.0494
 3796SOL    HW222848   2.830   3.740   8.359  0.3681  2.1141  1.7396
 3797SOL     OW22849   2.873   0.850  13.793 -0.7502  0.4118  0.2870
 3797SOL    HW122850   2.853   0.846  13.887 -2.2990 -0.7111 -0.0909
 3797SOL    HW222851   2.967   0.841  13.810 -0.6120  0.6081 -0.3867
 3798SOL     OW22852   1.044   0.462   2.733 -0.5118 -0.0793  0.1106
 3798SOL    HW122853   1.083   0.467   2.820  1.8915 -0.0827 -0.9554
 3798SOL    HW222854   1.013   0.552   2.722  1.4569  0.7930  1.7379
 3799SOL     OW22855   3.862   0.926  13.135 -0.0300  0.2891  0.1035
 3799SOL    HW122856   3.769   0.909  13.120  0.4306 -1.9454 -0.2897
 3799SOL    HW222857   3.895   0.836  13.128 -1.0924 -0.0498 -0.6026
 3800SOL     OW22858   3.633   2.689   6.563 -0.5415 -0.1593  0.0927
 3800SOL    HW122859   3.654   2.773   6.523  1.4890 -0.9086 -0.4313
 3800SOL    HW222860   3.715   2.686   6.612  0.3146 -1.4792 -1.3944
 3801SOL     OW22861   2.398   4.058   6.150 -0.4158  0.5999  0.7143
 3801SOL    HW122862   2.368   4.068   6.060  0.1188 -1.9712  0.2448
 3801SOL    HW222863   2.363   4.131   6.200 -0.3308  0.8729  0.3780
 3802SOL     OW22864   4.059   2.401   3.746  0.1688 -0.3325 -0.3412
 3802SOL    HW122865   3.973   2.385   3.707  0.5872  0.3207 -1.5544
 3802SOL    HW222866   4.111   2.326   3.718 -2.1719 -1.9809 -0.2568
 3803SOL     OW22867   3.949   1.852   9.641  0.0456 -0.2147 -0.2354
 3803SOL    HW122868   3.930   1.921   9.577 -2.0255 -0.6443 -0.0878
 3803SOL    HW222869   3.989   1.782   9.588  1.9460  0.8889 -0.2608
 3804SOL     OW22870   2.468   1.506   2.038 -0.3001  0.2356  0.0695
 3804SOL    HW122871   2.549   1.555   2.050 -0.2289 -0.2949  1.7179
 3804SOL    HW222872   2.417   1.553   2.104  0.5754 -0.5331  1.2775
 3805SOL     OW22873   1.912   0.332   4.571  0.0030  0.5992 -0.1088
 3805SOL    HW122874   1.863   0.332   4.654  0.1974  0.7543  0.0047
 3805SOL    HW222875   1.925   0.426   4.562 -0.3770  0.5762 -0.8548
 3806SOL     OW22876   0.932   2.615   0.734  0.4277 -0.4026  0.2152
 3806SOL    HW122877   0.887   2.531   0.745  1.6698 -1.1428 -0.3426
 3806SOL    HW222878   0.869   2.682   0.761 -0.1489 -1.4739  1.5421
 3807SOL     OW22879   3.589   3.097   7.891 -0.1392  0.3425  0.2108
 3807SOL    HW122880   3.625   3.009   7.879 -0.4032  0.0444  1.6078
 3807SOL    HW222881   3.670   3.148   7.890  2.1800 -3.3053  0.6803
 3808SOL     OW22882   1.778   3.060   3.631  0.2677 -0.2841  0.0939
 3808SOL    HW122883   1.837   3.021   3.567  0.5452  1.5328 -0.7638
 3808SOL    HW222884   1.793   2.995   3.700  0.0102 -1.0947 -0.6119
 3809SOL     OW22885   3.527   0.337   3.022 -0.0995 -0.1448  0.1737
 3809SOL    HW122886   3.528   0.397   3.097 -0.1455  0.7288 -0.5306
 3809SOL    HW222887   3.433   0.331   3.007 -0.1159 -1.2481  0.6960
 3810SOL     OW22888   1.587   2.955  13.190 -0.1529 -0.1973  0.1152
 3810SOL    HW122889   1.554   2.866  13.175 -0.1279 -0.3356  0.9116
 3810SOL    HW222890   1.678   2.932  13.209 -0.1473 -1.1539 -1.0827
 3811SOL     OW22891   0.183   3.160  11.318 -0.4235  0.1047 -0.0800
 3811SOL    HW122892   0.186   3.152  11.413  0.9097 -1.5391 -0.2596
 3811SOL    HW222893   0.096   3.198  11.302  0.4213  1.3560 -1.6992
 3812SOL     OW22894   0.361   3.291  15.576  0.1817 -0.1864 -0.2733
 3812SOL    HW122895   0.436   3.343  15.549 -0.9232  1.6555  0.2162
 3812SOL    HW222896   0.404   3.205  15.577  0.5175 -0.0244 -0.5510
 3813SOL     OW22897   3.617   1.293   4.146  0.3727  0.1606 -0.3095
 3813SOL    HW122898   3.688   1.307   4.208 -0.8112 -1.4652  1.4222
 3813SOL    HW222899   3.573   1.227   4.200  0.8690  0.6303  0.6813
 3814SOL     OW22900   0.654   3.965   3.414  0.0983 -0.3026 -0.0043
 3814SOL    HW122901   0.738   3.937   3.377  0.2119 -1.9395  1.4925
 3814SOL    HW222902   0.673   4.042   3.466 -1.7415  0.3023 -0.2193
 3815SOL     OW22903   4.707   3.721  15.747 -0.3197  0.0760 -0.7753
 3815SOL    HW122904   4.641   3.715  15.815 -0.4762 -1.6240 -1.0788
 3815SOL    HW222905   0.048   3.666  15.792 -1.3118 -0.5722 -0.1519
 3816SOL     OW22906   4.289   3.908   9.165  0.1159  0.0089 -0.2706
 3816SOL    HW122907   4.256   3.990   9.202 -0.3322  0.1078 -0.9012
 3816SOL    HW222908   4.217   3.853   9.133  0.2366 -0.1097 -0.3414
 3817SOL     OW22909   1.005   0.781   4.318  0.2924 -0.0459 -0.0295
 3817SOL    HW122910   1.011   0.704   4.261  3.8654  0.3370 -0.1571
 3817SOL    HW222911   1.088   0.821   4.290 -0.6312  1.6890 -0.2368
 3818SOL     OW22912   0.159   0.306   4.244  0.1267 -0.0153 -0.3637
 3818SOL    HW122913   0.236   0.317   4.300 -1.5011  2.7316  1.3930
 3818SOL    HW222914   0.101   0.375   4.278  0.5513  0.1501  0.0379
 3819SOL     OW22915   2.243   0.231   2.693  0.3455  0.5663  0.6304
 3819SOL    HW122916   2.153   0.248   2.663  1.4004 -1.2722 -3.6172
 3819SOL    HW222917   2.272   0.174   2.622  0.7390  0.0651  1.1969
 3820SOL     OW22918   4.309   2.514   2.660 -0.0839 -0.5074  0.5468
 3820SOL    HW122919   4.318   2.593   2.606  1.3194 -0.4287  0.8997
 3820SOL    HW222920   4.244   2.466   2.607 -0.0871 -0.4833  0.5290
 3821SOL     OW22921   2.346   4.490   7.311 -0.7496  0.3787 -0.5280
 3821SOL    HW122922   2.397   4.557   7.356  0.3959 -0.5753 -0.4022
 3821SOL    HW222923   2.286   4.537   7.254  0.9618  2.4168 -0.6382
 3822SOL     OW22924   4.087   0.488  10.183 -0.2771  0.3781 -0.0956
 3822SOL    HW122925   4.075   0.543  10.106  1.9019  0.0345 -0.7056
 3822SOL    HW222926   4.137   0.414  10.147  0.5543 -0.2120  2.2778
 3823SOL     OW22927   2.311   2.186   1.247  0.4899 -0.0244 -0.0411
 3823SOL    HW122928   2.317   2.127   1.322 -1.5941 -1.0941 -0.7027
 3823SOL    HW222929   2.294   2.268   1.293  1.8295  0.8326 -1.0776
 3824SOL     OW22930   0.886   2.650   6.272 -0.8886  0.4402  0.6288
 3824SOL    HW122931   0.913   2.738   6.245  1.3984 -0.5326 -0.1984
 3824SOL    HW222932   0.955   2.591   6.301  0.7685  2.9403  1.8135
 3825SOL     OW22933   2.137   1.917  11.053 -0.4154  0.4546  0.1229
 3825SOL    HW122934   2.166   1.889  11.140  1.2678  1.0555 -0.2459
 3825SOL    HW222935   2.061   1.859  11.052 -2.4029  3.0397 -0.4748
 3826SOL     OW22936   2.192   3.126   3.471  0.7785  0.0574 -0.3364
 3826SOL    HW122937   2.126   3.174   3.421 -1.3288 -0.4155  1.9908
 3826SOL    HW222938   2.271   3.142   3.420  1.3644 -0.0117  0.5611
 3827SOL     OW22939   3.850   3.764   7.335 -0.3967 -0.1903  0.1626
 3827SOL    HW122940   3.844   3.858   7.320  1.0572  0.0679  1.1290
 3827SOL    HW222941   3.875   3.736   7.247 -0.6935  1.1873 -0.3619
 3828SOL     OW22942   0.552   2.404  15.049 -0.2142 -0.2031 -0.0114
 3828SOL    HW122943   0.632   2.361  15.019 -0.5401 -0.8455  0.0500
 3828SOL    HW222944   0.560   2.498  15.034  0.6902 -0.4353 -0.9628
 3829SOL     OW22945   4.374   2.329   0.095  0.2003 -0.2253  0.1923
 3829SOL    HW122946   4.424   2.313   0.175 -0.6546  0.2121  0.8185
 3829SOL    HW222947   4.306   2.261   0.100 -0.1284 -0.0753 -2.6868
 3830SOL     OW22948   2.140   1.013   4.314 -0.2372  0.0172  0.1791
 3830SOL    HW122949   2.203   0.975   4.375 -1.5636 -1.7991  0.4217
 3830SOL    HW222950   2.191   1.033   4.235 -1.1517 -0.9685 -0.6595
 3831SOL     OW22951   4.072   2.447   8.330 -0.2999  0.2349 -0.1839
 3831SOL    HW122952   4.097   2.442   8.423 -2.4193  0.8964  0.4122
 3831SOL    HW222953   3.993   2.394   8.339  0.7472 -1.5160 -1.3313
 3832SOL     OW22954   1.761   2.145   0.729  0.4666  0.4138  0.1305
 3832SOL    HW122955   1.784   2.203   0.802 -0.8332  2.0610 -0.7829
 3832SOL    HW222956   1.682   2.102   0.760  0.7740 -0.1419  0.1430
 3833SOL     OW22957   3.082   1.978   2.721 -0.1292  0.2076 -0.4415
 3833SOL    HW122958   3.024   1.904   2.734 -0.3815  0.8385  2.0578
 3833SOL    HW222959   3.129   1.959   2.640 -3.1712 -1.0996 -1.8781
 3834SOL     OW22960   2.615   2.024   4.445 -0.1870 -0.4491 -0.0934
 3834SOL    HW122961   2.667   2.092   4.403 -1.0112 -0.5042 -1.1768
 3834SOL    HW222962   2.651   2.034   4.533  0.2450  0.7879 -0.4112
 3835SOL     OW22963   3.034   3.788  16.210 -0.3194  0.0360  0.2836
 3835SOL    HW122964   3.062   3.706  16.252  1.3580 -0.6977 -2.2691
 3835SOL    HW222965   3.098   3.818  16.146 -1.6040  0.5602 -0.7598
 3836SOL     OW22966   0.268   3.483  12.378  0.0461 -0.1193  0.3018
 3836SOL    HW122967   0.334   3.418  12.352 -1.2305 -0.3132 -2.3304
 3836SOL    HW222968   0.282   3.543  12.305 -0.1553 -0.9445 -0.4053
 3837SOL     OW22969   2.330   4.342  15.965  0.3058 -0.9002 -0.1431
 3837SOL    HW122970   2.298   4.313  16.050  0.6745 -2.0174 -0.3819
 3837SOL    HW222971   2.251   4.370  15.920  2.1631  1.4769 -1.9368
 3838SOL     OW22972   3.626   1.649   2.254  0.4748 -0.1272 -0.7364
 3838SOL    HW122973   3.717   1.664   2.279  0.3921 -2.6928  1.1254
 3838SOL    HW222974   3.626   1.701   2.173  3.3371  1.1983  0.1296
 3839SOL     OW22975   0.884   2.011   1.872 -0.2203  0.2400  0.3399
 3839SOL    HW122976   0.795   1.981   1.852  0.1192  0.1484 -0.9911
 3839SOL    HW222977   0.889   1.953   1.949 -1.7172  0.1371  0.3675
 3840SOL     OW22978   3.732   4.187  16.907 -0.0363 -0.2421 -0.1241
 3840SOL    HW122979   3.812   4.170  16.957  1.2018  0.8304 -1.7200
 3840SOL    HW222980   3.735   4.283  16.901  1.2357 -0.2539  0.2584
 3841SOL     OW22981   0.641   1.013  10.089 -0.4588  0.1961 -0.0369
 3841SOL    HW122982   0.633   1.092  10.142 -1.4552 -1.4544  2.2694
 3841SOL    HW222983   0.601   0.947  10.146  0.0167  1.4954  1.7696
 3842SOL     OW22984   0.079   2.739  10.725 -0.5990 -0.3977 -0.6793
 3842SOL    HW122985   0.093   2.753  10.819  0.1440 -0.9682 -0.7027
 3842SOL    HW222986   0.077   2.829  10.695  0.6207  0.3659  1.5076
 3843SOL     OW22987   3.824   4.664   0.173  0.4579  0.2587  0.2737
 3843SOL    HW122988   3.869   4.654   0.257  1.8891 -1.8073 -0.7289
 3843SOL    HW222989   3.745   4.716   0.181 -1.3717 -2.5218  0.3023
 3844SOL     OW22990   3.053   1.156  12.794 -0.0820  0.1019  0.4196
 3844SOL    HW122991   2.966   1.148  12.834 -0.2907 -1.2924 -0.3133
 3844SOL    HW222992   3.072   1.071  12.755 -1.2575  0.4456 -0.8980
 3845SOL     OW22993   4.408   3.374   8.046  0.2969  0.1503 -0.2783
 3845SOL    HW122994   4.382   3.444   8.106 -2.1784 -0.2186 -0.9068
 3845SOL    HW222995   4.326   3.328   8.025 -1.2080  3.5532 -1.9071
 3846SOL     OW22996   0.801   3.616   4.030  0.2249  0.3303  0.0623
 3846SOL    HW122997   0.782   3.564   4.107  0.3654 -1.6091 -1.2074
 3846SOL    HW222998   0.720   3.621   3.977  0.8775  0.4202 -0.9328
 3847SOL     OW22999   1.942   3.127   8.335 -0.0962 -0.1980  0.1951
 3847SOL    HW123000   1.981   3.195   8.279  2.6895 -1.3929  0.6679
 3847SOL    HW223001   1.903   3.069   8.269 -0.0959 -0.0874  0.0959
 3848SOL     OW23002   2.483   2.601  11.234  0.2408 -0.7416 -0.0806
 3848SOL    HW123003   2.565   2.609  11.284  0.5365 -0.5126 -0.6046
 3848SOL    HW223004   2.488   2.507  11.217  1.1580 -0.6372 -0.3587
 3849SOL     OW23005   0.275   0.937   8.742  0.3959  0.1942  0.2174
 3849SOL    HW123006   0.232   1.023   8.743  0.8032  0.3998 -0.5684
 3849SOL    HW223007   0.306   0.935   8.652 -1.4356 -2.1744 -0.3511
 3850SOL     OW23008   2.397   1.189  13.756  0.8583  0.4735 -0.2600
 3850SOL    HW123009   2.370   1.280  13.765 -0.6809 -0.1572  1.6163
 3850SOL    HW223010   2.442   1.164  13.837 -0.1598  0.7728  0.3982
 3851SOL     OW23011   2.184   1.930   1.335 -0.1426  0.3314  0.2922
 3851SOL    HW123012   2.167   1.921   1.428 -0.9306 -0.4954  0.0726
 3851SOL    HW223013   2.263   1.876   1.331 -1.0839 -0.8342 -3.2190
 3852SOL     OW23014   2.282   1.540   7.478  0.4703 -0.2426  0.3529
 3852SOL    HW123015   2.272   1.445   7.470  1.2384 -0.3225  0.3333
 3852SOL    HW223016   2.372   1.551   7.447  0.8293  1.1517  1.9410
 3853SOL     OW23017   1.556   1.795   5.597  0.4751 -0.2851 -0.1523
 3853SOL    HW123018   1.474   1.747   5.587 -0.1783  1.1652 -1.7978
 3853SOL    HW223019   1.613   1.719   5.611  0.7428 -0.3394 -1.5323
 3854SOL     OW23020   3.712   3.831   2.007  0.3272 -0.1097 -0.5497
 3854SOL    HW123021   3.683   3.906   2.059  1.4877 -0.3687  0.4584
 3854SOL    HW223022   3.693   3.760   2.069  1.2167 -0.2069 -0.3855
 3855SOL     OW23023   4.608   4.611   7.480  0.2134  0.2641  0.3142
 3855SOL    HW123024   4.576   4.558   7.553  1.7020  0.5020  1.1449
 3855SOL    HW223025   4.650   4.542   7.430 -0.3114 -0.8882  1.4468
 3856SOL     OW23026   3.766   3.839  10.821 -0.1953 -0.6487 -0.1562
 3856SOL    HW123027   3.789   3.789  10.742 -1.8569 -0.1648 -0.9460
 3856SOL    HW223028   3.701   3.782  10.862 -0.7243  0.8117  1.0461
 3857SOL     OW23029   0.043   2.179   6.819 -0.2636 -0.8405  0.3138
 3857SOL    HW123030   4.677   2.171   6.854  0.8249 -0.9144  3.0988
 3857SOL    HW223031   0.053   2.097   6.772 -0.6600 -1.0545  0.6006
 3858SOL     OW23032   2.764   1.688   2.890 -0.0215  0.3994 -0.2005
 3858SOL    HW123033   2.845   1.683   2.839  0.4847 -0.0830  0.6450
 3858SOL    HW223034   2.714   1.764   2.859 -1.8665 -0.7299  0.0115
 3859SOL     OW23035   4.670   4.541   6.379  0.4341  0.4794  0.3202
 3859SOL    HW123036   4.694   4.628   6.413  2.2131  0.6739 -1.3972
 3859SOL    HW223037   4.581   4.530   6.412  0.5716 -0.7939  0.2404
 3860SOL     OW23038   0.728   1.719   7.272 -0.1757  0.5648 -0.4584
 3860SOL    HW123039   0.641   1.754   7.293  0.1175  1.4203 -0.6709
 3860SOL    HW223040   0.741   1.751   7.183 -0.8269 -0.2798 -0.8651
 3861SOL     OW23041   2.595   0.488  17.372 -0.2327  0.4061  0.2227
 3861SOL    HW123042   2.610   0.467  17.464  2.8966  0.8447 -0.1891
 3861SOL    HW223043   2.517   0.544  17.372  1.2293  2.4563 -1.3254
 3862SOL     OW23044   3.513   2.480   6.407  0.7534 -0.3180 -0.0050
 3862SOL    HW123045   3.540   2.550   6.467 -3.5272  0.2713  1.2049
 3862SOL    HW223046   3.570   2.407   6.432  2.9543  1.6217  0.6972
 3863SOL     OW23047   3.962   0.995   8.769 -0.5046 -0.5610  0.2398
 3863SOL    HW123048   3.959   0.900   8.784  1.1942 -0.5341  0.8307
 3863SOL    HW223049   4.021   0.999   8.694  0.0180 -2.7272  0.5271
 3864SOL     OW23050   3.408   1.301   5.941 -0.4847  0.0082 -0.7783
 3864SOL    HW123051   3.395   1.395   5.952  1.9397  0.2771 -0.1926
 3864SOL    HW223052   3.461   1.316   5.863 -1.8543  0.1694 -1.6737
 3865SOL     OW23053   1.430   3.772   3.627 -0.4032  0.0595 -0.4116
 3865SOL    HW123054   1.448   3.820   3.546  1.3175  0.4401  0.1802
 3865SOL    HW223055   1.416   3.683   3.597  0.4399  0.1158 -0.9768
 3866SOL     OW23056   3.088   3.177  11.358 -0.1136 -0.4086 -0.2029
 3866SOL    HW123057   3.132   3.094  11.380  3.8285  1.9683  0.8409
 3866SOL    HW223058   3.095   3.184  11.263  1.5185 -0.2788 -0.0787
 3867SOL     OW23059   2.540   0.379   9.303  0.2169  0.2916 -0.7338
 3867SOL    HW123060   2.515   0.337   9.386 -1.3858  0.2688 -1.2335
 3867SOL    HW223061   2.620   0.327   9.296  0.5363  0.9583 -1.8754
 3868SOL     OW23062   1.700   0.569   8.200  0.1755  0.6475 -0.3162
 3868SOL    HW123063   1.715   0.660   8.175  1.8046  0.7390  1.0150
 3868SOL    HW223064   1.780   0.530   8.166  0.0658  0.0247  0.1413
 3869SOL     OW23065   0.859   3.780  11.112 -0.2672 -0.0379 -0.4089
 3869SOL    HW123066   0.857   3.866  11.153 -0.3381 -0.1311 -0.2130
 3869SOL    HW223067   0.857   3.803  11.019 -0.7891  2.4522  0.2289
 3870SOL     OW23068   3.083   4.223  15.267 -0.2459  0.3903 -0.6122
 3870SOL    HW123069   3.084   4.257  15.178 -0.4874 -0.8601 -1.0989
 3870SOL    HW223070   3.052   4.297  15.319 -0.1246 -0.2580  0.3794
 3871SOL     OW23071   4.242   2.441   5.688 -0.6476  0.2450 -0.8734
 3871SOL    HW123072   4.264   2.442   5.596 -1.2245  2.4042 -0.9897
 3871SOL    HW223073   4.265   2.530   5.715  1.8568 -1.1346  1.6198
 3872SOL     OW23074   2.277   0.908  13.843 -0.6321  0.5555 -0.0727
 3872SOL    HW123075   2.334   0.954  13.781  1.1542 -1.9648 -0.2966
 3872SOL    HW223076   2.330   0.833  13.871 -2.1279 -0.6683 -0.5206
 3873SOL     OW23077   2.630   2.065   5.131  0.0506 -0.2607 -0.1208
 3873SOL    HW123078   2.545   2.103   5.107  0.4285 -0.4059 -1.6874
 3873SOL    HW223079   2.620   2.069   5.226  2.8838 -0.6064  0.1767
 3874SOL     OW23080   2.628   2.785   6.510  0.2565  0.1432 -0.3409
 3874SOL    HW123081   2.612   2.737   6.429  0.2083 -2.6789  1.3396
 3874SOL    HW223082   2.677   2.860   6.476 -1.2101  1.5810  0.7650
 3875SOL     OW23083   0.733   1.741   5.648 -0.0413 -0.2597  0.6961
 3875SOL    HW123084   0.660   1.794   5.679 -0.5458 -0.6507  0.1582
 3875SOL    HW223085   0.769   1.715   5.733  1.2871 -1.6103 -0.2701
 3876SOL     OW23086   1.496   0.228   6.841  0.1483  0.1739 -0.4218
 3876SOL    HW123087   1.551   0.175   6.900 -0.9478  0.1866  0.6309
 3876SOL    HW223088   1.495   0.177   6.760 -1.4191 -1.3164  0.5190
 3877SOL     OW23089   0.450   4.528   7.063 -0.1465  0.0233  0.2203
 3877SOL    HW123090   0.506   4.559   7.135  1.7990 -0.3371 -1.1443
 3877SOL    HW223091   0.469   4.435   7.061 -0.6470 -0.0940  1.0064
 3878SOL     OW23092   2.101   0.027  11.725 -0.2301 -0.7253  0.1918
 3878SOL    HW123093   2.105   0.122  11.710 -0.2270 -0.5834  1.0803
 3878SOL    HW223094   2.008   0.010  11.709 -0.2313  0.1498 -0.7576
 3879SOL     OW23095   0.507   1.931   3.956  0.2202 -0.3993 -0.3596
 3879SOL    HW123096   0.491   1.868   4.027 -0.2948  1.0915  0.8523
 3879SOL    HW223097   0.563   1.988   4.008 -1.0008  1.2553 -0.8716
 3880SOL     OW23098   1.038   1.773   6.603  0.3976  0.0397 -0.2528
 3880SOL    HW123099   1.048   1.818   6.687  1.2816 -2.4344  0.9604
 3880SOL    HW223100   1.126   1.736   6.594  0.9954  1.4156 -0.0527
 3881SOL     OW23101   0.460   3.694   1.298  0.0499  0.2373 -0.6196
 3881SOL    HW123102   0.398   3.767   1.309 -2.5342 -1.9235 -0.8439
 3881SOL    HW223103   0.542   3.731   1.330 -0.8380  0.2055  1.7278
 3882SOL     OW23104   2.432   2.804  11.051  0.4239  0.2767  0.3847
 3882SOL    HW123105   2.337   2.799  11.043  0.5668 -1.6268 -0.0112
 3882SOL    HW223106   2.445   2.728  11.107 -0.9932 -1.3454 -1.4969
 3883SOL     OW23107   0.811   3.224   6.318  0.5863 -0.4368 -0.2163
 3883SOL    HW123108   0.718   3.243   6.302 -0.0075 -1.5344  1.9675
 3883SOL    HW223109   0.827   3.179   6.235 -1.1205 -2.1657  0.4007
 3884SOL     OW23110   0.266   0.379   2.675 -0.5371 -0.2056 -0.0619
 3884SOL    HW123111   0.277   0.341   2.587 -0.9031  1.2205 -0.7205
 3884SOL    HW223112   0.192   0.329   2.711  0.4824 -0.6374  1.4008
 3885SOL     OW23113   4.692   4.560   0.837  0.0970 -0.0596 -0.4974
 3885SOL    HW123114   4.704   4.468   0.816 -1.2329 -0.5810  0.9791
 3885SOL    HW223115   4.606   4.551   0.878 -0.2270 -0.0552 -1.1687
 3886SOL     OW23116   0.782   2.812  11.577 -0.2864  1.1616 -0.1201
 3886SOL    HW123117   0.723   2.849  11.511  0.1561 -1.1294 -1.8249
 3886SOL    HW223118   0.814   2.892  11.617 -0.9679 -0.2515  3.2341
 3887SOL     OW23119   3.944   0.302   6.343  0.6644  0.7155 -0.6275
 3887SOL    HW123120   3.961   0.278   6.252 -0.6598 -1.3485 -0.3414
 3887SOL    HW223121   3.985   0.232   6.394  1.4404 -0.6669 -3.1326
 3888SOL     OW23122   4.467   1.343   3.627  0.2008  0.0246  0.7652
 3888SOL    HW123123   4.416   1.344   3.708 -2.2047 -0.6681 -0.7379
 3888SOL    HW223124   4.401   1.357   3.559  1.4252  1.5217 -0.1353
 3889SOL     OW23125   2.423   1.999  13.601  0.2438  0.1026 -0.1086
 3889SOL    HW123126   2.444   2.080  13.647  2.3724  0.4893 -1.7296
 3889SOL    HW223127   2.399   2.024  13.512  0.5117  0.5168 -0.0643
 3890SOL     OW23128   0.164   2.183   9.018 -0.0186  0.5732  0.2581
 3890SOL    HW123129   0.144   2.116   9.083 -0.9274  2.0220  1.4589
 3890SOL    HW223130   0.139   2.271   9.044 -1.3234  0.5191 -0.7663
 3891SOL     OW23131   0.913   1.989   3.107 -0.0643  0.9345  0.2584
 3891SOL    HW123132   0.909   2.066   3.049 -1.0293 -0.2466 -1.2442
 3891SOL    HW223133   0.997   1.997   3.151  0.3281 -1.1123 -0.1589
 3892SOL     OW23134   1.056   2.037   8.532  0.1294 -0.3850  0.0395
 3892SOL    HW123135   1.077   2.008   8.620  1.8008  0.1147 -0.1865
 3892SOL    HW223136   1.142   2.068   8.501 -0.3863  1.7114  0.7509
 3893SOL     OW23137   0.338   3.044   7.571 -0.2726  0.5324 -0.1620
 3893SOL    HW123138   0.339   3.138   7.591  0.2255  0.1242  1.7852
 3893SOL    HW223139   0.348   3.045   7.476  0.1145 -1.2567 -0.1365
 3894SOL     OW23140   0.498   4.554   1.979  0.1305 -0.0234 -0.2720
 3894SOL    HW123141   0.490   4.519   1.890 -0.6152 -2.0615  0.5953
 3894SOL    HW223142   0.572   4.614   1.966 -0.3672  0.6109 -0.1487
 3895SOL     OW23143   2.366   3.287   8.734  0.5878 -0.4207 -0.4955
 3895SOL    HW123144   2.320   3.258   8.656 -0.9833  1.2195 -0.1861
 3895SOL    HW223145   2.448   3.251   8.702 -0.5309 -0.7167 -2.9940
 3896SOL     OW23146   2.501   1.407   3.711  0.7051  0.0434 -0.0185
 3896SOL    HW123147   2.575   1.365   3.667  1.4064 -1.1479  2.3101
 3896SOL    HW223148   2.526   1.386   3.801 -1.6315 -0.6347  0.4899
 3897SOL     OW23149   2.550   1.136  16.589  0.1000 -0.0542 -0.1198
 3897SOL    HW123150   2.642   1.111  16.581  0.0750 -0.2228  0.1474
 3897SOL    HW223151   2.561   1.223  16.549 -0.7453  0.0025 -0.2403
 3898SOL     OW23152   0.704   3.749   2.785 -0.4306 -0.3600  0.2280
 3898SOL    HW123153   0.701   3.830   2.837 -0.7292 -1.0003  1.1953
 3898SOL    HW223154   0.783   3.776   2.739  0.3608 -0.6341  1.4144
 3899SOL     OW23155   0.463   0.697   1.046 -0.1235  0.6207  0.2283
 3899SOL    HW123156   0.428   0.732   1.129 -1.6548 -0.3691 -0.0120
 3899SOL    HW223157   0.477   0.779   0.999 -1.3380 -0.8140 -2.6164
 3900SOL     OW23158   2.363   2.650   0.955  0.1877  1.1651 -0.1902
 3900SOL    HW123159   2.443   2.649   1.008 -1.5854  0.0417  2.4611
 3900SOL    HW223160   2.310   2.711   1.007 -1.2121  0.9975 -1.4331
 3901SOL     OW23161   3.880   2.158  10.637 -0.3774  0.1423  0.2028
 3901SOL    HW123162   3.841   2.179  10.722  1.5414 -0.2799  1.1993
 3901SOL    HW223163   3.890   2.063  10.629 -1.5359  0.0766 -0.4171
 3902SOL     OW23164   0.622   2.236   7.485 -0.4366 -0.0894  0.3495
 3902SOL    HW123165   0.553   2.290   7.525 -0.2729  1.1146 -0.9828
 3902SOL    HW223166   0.605   2.261   7.394  0.7340  0.5166  0.3001
 3903SOL     OW23167   0.088   0.621   2.482 -0.3847  0.2362  0.1504
 3903SOL    HW123168   0.079   0.563   2.557 -0.3442 -2.4503 -1.9422
 3903SOL    HW223169   0.019   0.580   2.430 -0.5994  0.0592  0.5698
 3904SOL     OW23170   2.078   1.817   4.668 -0.2257  0.4315  0.0813
 3904SOL    HW123171   2.089   1.890   4.608 -0.6674  0.7621  0.4070
 3904SOL    HW223172   2.154   1.773   4.630  0.0627  0.3796  0.7115
 3905SOL     OW23173   2.169   4.168  16.940  0.1201  0.1980  0.3131
 3905SOL    HW123174   2.220   4.236  16.985 -0.6348  0.3973  0.8754
 3905SOL    HW223175   2.153   4.209  16.855 -2.3289 -0.5498  0.4228
 3906SOL     OW23176   1.458   1.187  10.311  0.1224  0.3008 -0.4207
 3906SOL    HW123177   1.419   1.105  10.340 -1.0577  1.2535  0.6787
 3906SOL    HW223178   1.550   1.163  10.321  0.3022  1.6379  1.0202
 3907SOL     OW23179   2.667   2.795   4.443  0.0296 -0.8681 -0.2370
 3907SOL    HW123180   2.650   2.883   4.412 -0.5705 -0.2376  1.8906
 3907SOL    HW223181   2.579   2.756   4.438  0.5984 -2.2158  0.1446
 3908SOL     OW23182   1.849   3.238   7.883  0.4422  0.3902 -0.1496
 3908SOL    HW123183   1.870   3.231   7.790 -1.9857  0.5428 -0.7296
 3908SOL    HW223184   1.938   3.236   7.918 -0.4845  3.0547  2.3994
 3909SOL     OW23185   2.303   3.305   7.550  0.2870  0.5072  0.3341
 3909SOL    HW123186   2.397   3.319   7.540 -0.4572  3.5529 -2.3742
 3909SOL    HW223187   2.301   3.223   7.600 -1.3461  0.3025 -0.0629
 3910SOL     OW23188   2.990   4.482  15.358  0.3241  0.5889  0.7448
 3910SOL    HW123189   3.062   4.469  15.296 -1.1705  1.6392 -1.2173
 3910SOL    HW223190   2.997   4.577  15.370 -2.6490  1.1220 -1.7012
 3911SOL     OW23191   1.597   1.173  12.052  0.2858  0.2626  0.6146
 3911SOL    HW123192   1.655   1.099  12.067  1.9999  1.4542 -0.0543
 3911SOL    HW223193   1.540   1.139  11.983 -0.3175 -2.4887  2.4681
 3912SOL     OW23194   0.927   3.055   0.574  0.2166 -0.0532 -0.4330
 3912SOL    HW123195   0.921   3.019   0.485  0.7046 -0.4578 -0.3017
 3912SOL    HW223196   0.949   3.145   0.551  0.1986  0.1268  0.2587
 3913SOL     OW23197   1.044   2.338   7.921  0.2255 -0.1481 -0.5862
 3913SOL    HW123198   1.105   2.345   7.995 -1.1802 -1.0292  0.6630
 3913SOL    HW223199   1.032   2.432   7.904  0.3846  0.3707  2.0802
 3914SOL     OW23200   3.301   1.535  16.317 -0.4795 -1.1711  0.3867
 3914SOL    HW123201   3.268   1.499  16.400  1.5094  2.5900  2.8028
 3914SOL    HW223202   3.281   1.464  16.256 -2.1613  0.5678 -1.0658
 3915SOL     OW23203   4.177   3.747   6.116 -0.1541  0.3446  0.0349
 3915SOL    HW123204   4.263   3.767   6.078 -0.0335 -0.2407 -0.0090
 3915SOL    HW223205   4.186   3.652   6.125 -2.7695  0.0692 -0.4192
 3916SOL     OW23206   2.651   4.675   4.058 -0.5812 -0.0493 -0.1250
 3916SOL    HW123207   2.629   4.583   4.073 -0.7167  0.0637  0.3974
 3916SOL    HW223208   2.742   4.654   4.079 -0.2778  1.2806 -0.0871
 3917SOL     OW23209   1.316   1.553   1.631  0.4137  0.5089  0.3287
 3917SOL    HW123210   1.353   1.625   1.581  1.4557 -0.2470 -0.0028
 3917SOL    HW223211   1.384   1.486   1.620  0.7801  0.6635  1.6751
 3918SOL     OW23212   4.151   1.671   4.721 -0.1680 -0.5661  0.0353
 3918SOL    HW123213   4.236   1.627   4.724  1.0461  1.7038 -1.7274
 3918SOL    HW223214   4.161   1.730   4.646  2.9307 -0.0962  0.8542
 3919SOL     OW23215   1.896   1.688   8.204  0.1839 -0.3825 -0.1220
 3919SOL    HW123216   1.928   1.601   8.178 -1.1065 -0.5864 -1.0030
 3919SOL    HW223217   1.941   1.743   8.139  0.6333  0.6969  1.1152
 3920SOL     OW23218   1.372   1.731  16.649 -0.0944 -0.0454  0.3965
 3920SOL    HW123219   1.420   1.683  16.581 -0.3955  1.7648 -1.0822
 3920SOL    HW223220   1.325   1.658  16.691  0.9356 -0.2075  1.2765
 3921SOL     OW23221   1.420   4.033   8.140 -0.1073 -0.0276  0.1819
 3921SOL    HW123222   1.396   4.046   8.232  0.5656 -0.0703  0.3657
 3921SOL    HW223223   1.402   3.939   8.131  1.0265 -0.3163  0.8986
 3922SOL     OW23224   1.047   2.236   4.328 -0.1018  0.3436 -0.0295
 3922SOL    HW123225   1.142   2.247   4.325  0.3807 -3.3442  2.3294
 3922SOL    HW223226   1.014   2.190   4.251  1.0118  1.4147 -1.1486
 3923SOL     OW23227   1.153   0.305  16.573 -0.2675  0.0383 -0.4224
 3923SOL    HW123228   1.111   0.249  16.508  1.3364 -1.1493 -0.4277
 3923SOL    HW223229   1.238   0.263  16.587 -0.2646  0.4183  0.7002
 3924SOL     OW23230   4.470   3.216  10.101  0.0246 -0.0387 -0.5247
 3924SOL    HW123231   4.468   3.248  10.191  2.6407 -2.6136  0.4097
 3924SOL    HW223232   4.512   3.131  10.096  0.0840  0.0344 -1.3850
 3925SOL     OW23233   4.048   1.191   1.828  0.4000 -0.0591 -0.5678
 3925SOL    HW123234   3.995   1.118   1.861 -2.0422  1.8329 -0.3439
 3925SOL    HW223235   4.087   1.216   1.911  3.4115  1.5664 -2.5037
 3926SOL     OW23236   1.620   2.832  15.155  0.4750 -0.3011  0.2114
 3926SOL    HW123237   1.581   2.797  15.075 -1.9439  1.5638  0.5624
 3926SOL    HW223238   1.657   2.752  15.191  1.8880  0.5639  0.6638
 3927SOL     OW23239   4.002   2.001   5.675 -0.1608 -0.3990  0.3311
 3927SOL    HW123240   3.949   1.990   5.596  0.9793 -0.4069 -0.4330
 3927SOL    HW223241   3.987   2.092   5.699  0.2817 -0.1683 -0.2792
 3928SOL     OW23242   4.276   0.260   5.735 -0.6380 -0.1412 -0.2776
 3928SOL    HW123243   4.370   0.272   5.748 -0.6627  0.2954 -0.4905
 3928SOL    HW223244   4.251   0.344   5.772 -0.5898 -0.1341 -0.2611
 3929SOL     OW23245   1.080   4.717   7.487  0.5469 -0.7826 -0.0335
 3929SOL    HW123246   1.111   0.083   7.503 -3.0343  1.0748 -3.5898
 3929SOL    HW223247   0.997   0.003   7.534  1.5215 -1.7400  1.8999
 3930SOL     OW23248   1.968   4.147   2.649  0.7468 -0.4465 -0.3469
 3930SOL    HW123249   1.981   4.055   2.627  0.4275  0.0199 -2.4606
 3930SOL    HW223250   2.028   4.189   2.588  3.5043  0.1316  2.7963
 3931SOL     OW23251   2.308   4.109   9.016 -0.2431 -0.6118 -0.3032
 3931SOL    HW123252   2.220   4.087   9.047 -0.1346  0.0792  0.5148
 3931SOL    HW223253   2.313   4.203   9.035  1.2341 -0.5884 -0.8621
 3932SOL     OW23254   1.243   1.868   2.562  0.0988  0.5413 -0.2812
 3932SOL    HW123255   1.154   1.835   2.554  0.1182  0.1583  1.0755
 3932SOL    HW223256   1.287   1.784   2.574 -0.1724  0.4256 -0.1110
 3933SOL     OW23257   0.062   4.609   7.906  0.5237  0.3159 -0.5111
 3933SOL    HW123258   4.712   4.644   7.957  1.2020  1.5688 -0.3966
 3933SOL    HW223259   0.084   4.686   7.854 -1.2606  0.7411 -0.6456
 3934SOL     OW23260   2.500   0.142   6.080  1.1074 -0.6823  0.4543
 3934SOL    HW123261   2.537   0.172   5.997  1.8584 -1.8273  0.3713
 3934SOL    HW223262   2.411   0.118   6.054 -0.1037  2.2620  1.9341
 3935SOL     OW23263   0.587   1.616   3.332  0.0961 -0.4399  0.0036
 3935SOL    HW123264   0.500   1.641   3.362  0.6764  3.6716 -1.6932
 3935SOL    HW223265   0.624   1.704   3.333  1.5492 -1.0859  3.2404
 3936SOL     OW23266   1.783   4.399   8.078 -0.1927  0.3566 -0.6064
 3936SOL    HW123267   1.727   4.326   8.052 -1.2986  0.8504  0.3909
 3936SOL    HW223268   1.733   4.448   8.144 -0.9676 -1.1810 -0.0727
 3937SOL     OW23269   0.516   2.109  16.583  0.1513 -0.0036  0.3707
 3937SOL    HW123270   0.583   2.048  16.613 -0.3399 -0.0901  1.3130
 3937SOL    HW223271   0.476   2.147  16.662  1.0844 -1.6965  1.6452
 3938SOL     OW23272   2.438   0.666   4.738 -0.1673 -0.0711  0.5983
 3938SOL    HW123273   2.490   0.740   4.768  0.6966 -0.3982 -0.0820
 3938SOL    HW223274   2.346   0.690   4.728 -0.3630  0.1494  2.8521
 3939SOL     OW23275   0.753   4.011  13.218 -0.9937  0.6733  0.1175
 3939SOL    HW123276   0.749   4.037  13.310 -1.6164  3.8419 -0.8127
 3939SOL    HW223277   0.785   4.092  13.179 -0.4372 -0.1209 -1.0570
 3940SOL     OW23278   3.972   0.170  11.707  0.0707  0.5945 -0.2823
 3940SOL    HW123279   3.969   0.147  11.614  1.4087  0.1257 -0.2048
 3940SOL    HW223280   3.945   0.262  11.709 -0.5389  0.4259 -0.6618
 3941SOL     OW23281   2.854   1.003  14.045  0.1530 -0.3068 -0.0420
 3941SOL    HW123282   2.890   1.053  14.118  4.3868 -3.6575  0.1417
 3941SOL    HW223283   2.876   0.916  14.077  2.1623  0.0498 -0.4812
 3942SOL     OW23284   2.210   3.921   5.096  0.3228 -0.2577  0.3254
 3942SOL    HW123285   2.204   3.950   5.005  0.4046 -2.2917 -0.3143
 3942SOL    HW223286   2.120   3.907   5.127  0.6067 -0.5289  1.0268
 3943SOL     OW23287   2.323   4.161  10.260 -0.0496 -0.5969  0.4141
 3943SOL    HW123288   2.248   4.220  10.253  0.9344  0.1935 -3.3480
 3943SOL    HW223289   2.328   4.155  10.356  0.0699  2.7327  0.5974
 3944SOL     OW23290   3.052   0.143   1.124  0.3405  0.2531 -0.4326
 3944SOL    HW123291   2.978   0.187   1.082 -0.7758  0.9922  2.3343
 3944SOL    HW223292   3.119   0.210   1.109  1.2726 -0.6371 -0.2895
 3945SOL     OW23293   0.231   2.264  10.728  0.4796 -0.0576 -1.0191
 3945SOL    HW123294   0.140   2.291  10.718  0.3544 -0.6728 -1.5533
 3945SOL    HW223295   0.214   2.190  10.786 -1.2804  1.2040  0.0889
 3946SOL     OW23296   2.100   4.057   8.297 -0.0871 -0.4373  0.6960
 3946SOL    HW123297   2.048   4.106   8.361  0.1888  0.5147  0.1824
 3946SOL    HW223298   2.125   4.122   8.231  0.5804 -0.4601  0.9224
 3947SOL     OW23299   4.717   4.520  14.730  0.0766  0.0928  0.0612
 3947SOL    HW123300   4.718   4.460  14.805  3.0916 -0.3521 -0.3076
 3947SOL    HW223301   4.628   4.509  14.698 -0.2200 -0.9358  1.2138
 3948SOL     OW23302   0.031   3.944   4.800  0.1842 -0.4410 -0.3305
 3948SOL    HW123303   0.011   3.962   4.708  2.0578  1.5055 -0.3687
 3948SOL    HW223304   0.118   3.905   4.791 -0.4172 -1.9586  0.6295
 3949SOL     OW23305   1.562   3.909  13.329 -0.0793  0.1224  0.4380
 3949SOL    HW123306   1.626   3.867  13.387  1.9776  0.3909 -1.6087
 3949SOL    HW223307   1.490   3.917  13.391 -0.1534  0.6591  0.2806
 3950SOL     OW23308   2.496   1.782   5.276  0.0574  0.3391 -0.1911
 3950SOL    HW123309   2.423   1.837   5.248 -1.0645  0.1703  2.3573
 3950SOL    HW223310   2.492   1.783   5.372 -0.3241 -0.9311 -0.2050
 3951SOL     OW23311   1.331   3.298   7.909 -0.2803  0.7721 -0.4774
 3951SOL    HW123312   1.399   3.334   7.853  2.4782 -0.9458  1.7595
 3951SOL    HW223313   1.361   3.322   7.996 -1.4895 -1.4069  0.5483
 3952SOL     OW23314   0.554   2.548   7.076 -0.2683  0.0795 -0.4905
 3952SOL    HW123315   0.535   2.525   6.985 -0.7317  0.1318 -0.4078
 3952SOL    HW223316   0.517   2.636   7.088  2.0364  1.0447 -0.5314
 3953SOL     OW23317   4.546   3.505   1.970  0.8502 -0.4569  0.2672
 3953SOL    HW123318   4.545   3.593   2.009 -0.6417 -0.2333 -0.2765
 3953SOL    HW223319   4.640   3.488   1.972  0.8041 -0.5543  1.7228
 3954SOL     OW23320   3.874   2.627   6.701 -0.7140  0.2584 -0.1870
 3954SOL    HW123321   3.915   2.714   6.704 -0.1454  0.0673 -2.3231
 3954SOL    HW223322   3.895   2.606   6.792  2.7137 -0.3230 -1.1031
 3955SOL     OW23323   4.607   3.753   0.033 -0.1736  0.0187 -0.2346
 3955SOL    HW123324   4.587   3.714  17.644 -2.0530  0.4872 -0.0258
 3955SOL    HW223325   4.521   3.795   0.047  0.6049  1.4189  0.4147
 3956SOL     OW23326   0.111   2.005   1.941 -0.5826 -0.5905 -0.1180
 3956SOL    HW123327   0.133   2.098   1.950 -3.7502 -0.0127  1.4779
 3956SOL    HW223328   0.025   2.009   1.899 -1.0424  1.4730  1.0286
 3957SOL     OW23329   0.738   0.186   5.070 -0.0328  0.4935 -0.3198
 3957SOL    HW123330   0.797   0.260   5.054 -0.1145  0.9605  1.4684
 3957SOL    HW223331   0.742   0.170   5.164 -1.4423 -1.9882 -0.7044
 3958SOL     OW23332   1.867   0.601   3.359 -0.1537 -0.2171  0.2983
 3958SOL    HW123333   1.784   0.553   3.365 -0.1675 -0.2530 -0.1740
 3958SOL    HW223334   1.883   0.616   3.452  1.6127 -1.3264  0.1698
 3959SOL     OW23335   3.529   4.499   9.783  0.0937  0.0708 -0.1790
 3959SOL    HW123336   3.547   4.565   9.717  0.0451 -1.1404 -1.3922
 3959SOL    HW223337   3.586   4.527   9.855  2.1425  1.0618 -2.2034
 3960SOL     OW23338   1.473   2.518   5.169 -0.1204 -0.4105 -0.5092
 3960SOL    HW123339   1.413   2.583   5.133 -0.0634 -1.2649 -2.1411
 3960SOL    HW223340   1.477   2.453   5.099 -2.6438  0.0022 -1.0360
 3961SOL     OW23341   0.363   2.291   7.687 -0.1529  0.6105  0.0878
 3961SOL    HW123342   0.371   2.254   7.774 -0.9953  0.3001  0.0269
 3961SOL    HW223343   0.412   2.372   7.704  1.1048  0.0310 -0.7477
 3962SOL     OW23344   1.723   1.721   6.278  0.0268 -0.2533 -0.5646
 3962SOL    HW123345   1.745   1.633   6.307  1.4355  0.5661  0.8403
 3962SOL    HW223346   1.710   1.767   6.361 -1.1314  0.5796 -1.2064
 3963SOL     OW23347   0.650   1.046   2.185 -0.4778 -0.4698  0.2204
 3963SOL    HW123348   0.596   1.113   2.227 -0.8872 -1.5585  1.4478
 3963SOL    HW223349   0.721   1.059   2.248 -0.3660 -2.9616  0.6434
 3964SOL     OW23350   2.607   3.895   2.824  0.3512 -0.2130 -0.1097
 3964SOL    HW123351   2.652   3.811   2.825 -1.0309 -0.9778 -1.7683
 3964SOL    HW223352   2.680   3.947   2.857  0.8984  0.2692 -2.0802
 3965SOL     OW23353   3.431   1.246   1.195  0.3941 -0.1273  0.2908
 3965SOL    HW123354   3.515   1.228   1.238  2.1535  1.3157 -2.5806
 3965SOL    HW223355   3.384   1.310   1.247 -1.1076 -1.7526  0.9580
 3966SOL     OW23356   4.577   1.820   3.012  0.4897  0.2236 -0.0637
 3966SOL    HW123357   4.555   1.796   2.921  1.5627  1.1548 -0.5644
 3966SOL    HW223358   4.486   1.830   3.043  0.9676  1.5020  0.9176
 3967SOL     OW23359   2.827   3.545   4.237 -0.0957  0.1932  0.1473
 3967SOL    HW123360   2.899   3.501   4.282 -1.6524  1.4650  3.8333
 3967SOL    HW223361   2.860   3.547   4.147  2.2719  1.2223  1.0290
 3968SOL     OW23362   4.503   0.919   9.544 -0.0669  0.1625  0.2221
 3968SOL    HW123363   4.554   0.967   9.479 -1.8845 -1.3525 -2.3068
 3968SOL    HW223364   4.529   0.831   9.517 -1.4898  0.2927 -1.5021
 3969SOL     OW23365   0.087   1.549   2.117 -0.3096 -0.2401 -0.1991
 3969SOL    HW123366   0.093   1.491   2.193  0.3249 -2.7655 -2.1533
 3969SOL    HW223367   0.165   1.605   2.124 -0.1096 -0.8582  2.4391
 3970SOL     OW23368   1.325   1.507   6.056 -0.5260 -0.0297  0.8220
 3970SOL    HW123369   1.420   1.507   6.062 -0.5463 -1.0327  1.0268
 3970SOL    HW223370   1.296   1.416   6.051 -1.3763  0.1544  2.5218
 3971SOL     OW23371   1.369   2.549   5.648  0.3006 -0.0132 -0.0413
 3971SOL    HW123372   1.325   2.598   5.579  2.1220 -0.5964 -1.6301
 3971SOL    HW223373   1.383   2.467   5.600 -0.0723 -1.4237  2.2808
 3972SOL     OW23374   3.742   2.140  13.084  0.4341  0.1723  0.0505
 3972SOL    HW123375   3.705   2.062  13.126  1.7487 -1.8831 -2.5866
 3972SOL    HW223376   3.741   2.206  13.153 -0.2029 -0.6641  0.8436
 3973SOL     OW23377   0.902   4.202  14.089 -0.4127 -0.2404 -0.2454
 3973SOL    HW123378   0.836   4.159  14.035 -1.6349 -1.4460  2.1782
 3973SOL    HW223379   0.951   4.253  14.025  2.1430  0.7686  2.4876
 3974SOL     OW23380   0.653   2.029   0.440  0.0122  0.3379 -0.0532
 3974SOL    HW123381   0.699   2.112   0.423  0.7580  0.1727  1.1393
 3974SOL    HW223382   0.586   2.045   0.373 -0.3494  3.1117  0.9578
 3975SOL     OW23383   1.252   1.643  11.810 -0.6812  0.2232  0.1806
 3975SOL    HW123384   1.178   1.670  11.755  0.1601  1.7838 -0.1939
 3975SOL    HW223385   1.256   1.560  11.763  0.0435  0.5110 -0.2736
 3976SOL     OW23386   2.005   3.977  16.817  0.4099 -0.2226  0.2358
 3976SOL    HW123387   2.011   3.894  16.865 -1.4972  1.4344  3.3341
 3976SOL    HW223388   2.030   4.042  16.883 -1.1107  1.1592 -0.5325
 3977SOL     OW23389   1.042   2.696   0.175  0.3385  0.2302  0.1104
 3977SOL    HW123390   1.087   2.702   0.091  1.6178  0.8928  0.8378
 3977SOL    HW223391   1.074   2.611   0.204  2.9358  1.6772  1.4867
 3978SOL     OW23392   4.140   1.513   6.348  0.1174  0.3811  0.3501
 3978SOL    HW123393   4.220   1.562   6.327 -0.0882  1.4022  1.9632
 3978SOL    HW223394   4.088   1.531   6.269  2.8239  0.1092 -1.5198
 3979SOL     OW23395   0.600   1.000   3.384 -0.4068  0.4513  0.1287
 3979SOL    HW123396   0.690   0.968   3.396 -1.5339 -2.9657 -0.4093
 3979SOL    HW223397   0.623   1.055   3.309 -1.5458 -1.9478 -2.0005
 3980SOL     OW23398   3.153   4.704   2.877  0.0610  0.1038 -0.5861
 3980SOL    HW123399   3.203   0.038   2.819  0.8857  1.1111  1.1027
 3980SOL    HW223400   3.064   0.008   2.858  0.0908 -1.2096 -2.6483
 3981SOL     OW23401   2.791   2.112   6.193 -0.0365 -0.2282  0.4400
 3981SOL    HW123402   2.746   2.128   6.276 -0.3512 -1.5429  0.5299
 3981SOL    HW223403   2.878   2.141   6.220 -0.6312  1.5519  0.3882
 3982SOL     OW23404   4.311   0.363   6.088  0.1365 -0.5099 -0.0958
 3982SOL    HW123405   4.225   0.358   6.131  0.5417  2.5269  1.0236
 3982SOL    HW223406   4.361   0.289   6.123 -2.0206 -1.1522  1.6655
 3983SOL     OW23407   1.156   3.094   3.382  0.1410 -0.5320  0.3551
 3983SOL    HW123408   1.149   3.158   3.452 -3.2137 -1.0188  0.4647
 3983SOL    HW223409   1.063   3.074   3.371 -0.0297 -0.0204  0.8685
 3984SOL     OW23410   0.447   3.436   6.955 -0.6857  0.0062 -0.0469
 3984SOL    HW123411   0.396   3.363   6.991 -0.0411 -0.7290 -0.6286
 3984SOL    HW223412   0.397   3.513   6.983  2.4822  1.5906  1.2127
 3985SOL     OW23413   2.539   1.311   7.138 -0.1053 -0.0650 -0.3629
 3985SOL    HW123414   2.483   1.270   7.203  1.9314 -0.2046  1.3081
 3985SOL    HW223415   2.487   1.301   7.058 -1.9596 -0.7486  0.9267
 3986SOL     OW23416   3.080   0.989   0.946  0.4010 -0.4250 -0.2330
 3986SOL    HW123417   3.035   0.913   0.984 -0.6562  0.4976  0.3374
 3986SOL    HW223418   3.039   1.056   1.001  0.5480  0.1735 -0.8624
 3987SOL     OW23419   3.116   3.688   9.821 -0.0349 -0.4244  0.2465
 3987SOL    HW123420   3.055   3.616   9.806 -3.2580  2.1234  1.2285
 3987SOL    HW223421   3.092   3.699   9.913 -1.6796 -2.1440  0.0191
 3988SOL     OW23422   0.532   4.010   6.446  0.6396  0.5414  0.3067
 3988SOL    HW123423   0.552   4.095   6.484  2.1929  0.4472 -0.2943
 3988SOL    HW223424   0.621   3.980   6.429  1.0346 -0.1547  3.6182
 3989SOL     OW23425   1.926   0.278   8.969  0.4121 -0.5030  0.2610
 3989SOL    HW123426   1.836   0.284   9.000  0.5813  0.5462  0.5531
 3989SOL    HW223427   1.972   0.227   9.035 -0.2422 -1.9108 -0.3716
 3990SOL     OW23428   3.434   2.411  10.470  0.5371 -0.2155  0.3898
 3990SOL    HW123429   3.379   2.386  10.396  0.3770 -1.9751  1.1052
 3990SOL    HW223430   3.472   2.327  10.497 -0.3285 -1.0619 -1.0272
 3991SOL     OW23431   0.372   3.130  11.130 -0.5262 -0.6301 -0.2859
 3991SOL    HW123432   0.442   3.142  11.194  0.9825 -1.6827 -1.7319
 3991SOL    HW223433   0.299   3.138  11.191  1.5927 -1.3863  2.3324
 3992SOL     OW23434   3.568   4.436   8.888 -0.8450 -0.1218 -0.7368
 3992SOL    HW123435   3.600   4.476   8.969 -1.6395 -3.0165  0.9828
 3992SOL    HW223436   3.651   4.421   8.843 -1.2616 -1.2284 -1.1353
 3993SOL     OW23437   4.661   0.293   6.473  0.1318  0.1915  0.5385
 3993SOL    HW123438   4.610   0.217   6.501  1.8457 -1.5349 -1.0581
 3993SOL    HW223439   4.611   0.360   6.519 -0.5753  0.2643 -0.3516
 3994SOL     OW23440   0.028   0.677   3.355  0.3663  0.2167 -0.4507
 3994SOL    HW123441   4.673   0.731   3.346 -0.2748 -0.3849  1.5707
 3994SOL    HW223442   0.048   0.672   3.448  0.2415 -0.2768 -0.4515
 3995SOL     OW23443   4.256   0.754   6.622  0.0125 -0.6191 -0.0773
 3995SOL    HW123444   4.300   0.812   6.559 -0.1097 -1.1398 -0.6442
 3995SOL    HW223445   4.281   0.793   6.705  0.4776 -0.0240 -0.4894
 3996SOL     OW23446   2.592   2.396   3.047  0.1850  0.4784 -0.7675
 3996SOL    HW123447   2.535   2.382   3.123  2.3030  0.4716  0.8487
 3996SOL    HW223448   2.677   2.400   3.093 -1.4544 -1.4659  2.4578
 3997SOL     OW23449   1.381   3.259  16.175 -0.9146 -0.1303 -0.2363
 3997SOL    HW123450   1.424   3.173  16.180 -0.0958  0.3455  0.7695
 3997SOL    HW223451   1.384   3.295  16.263  1.1107 -1.0998  0.0837
 3998SOL     OW23452   0.391   1.621  11.072 -0.0344 -0.0640 -0.4050
 3998SOL    HW123453   0.409   1.633  11.165 -1.7657  0.0782 -0.0898
 3998SOL    HW223454   0.462   1.674  11.036  0.7288 -0.3006  0.7551
 3999SOL     OW23455   0.721   2.069  12.211  0.1701 -0.5381  0.1303
 3999SOL    HW123456   0.752   2.093  12.299 -4.3943  0.0508  1.5569
 3999SOL    HW223457   0.626   2.073  12.223  0.1792 -1.5397  0.5354
 4000SOL     OW23458   2.166   1.706  16.043  0.2473  0.2202 -0.4270
 4000SOL    HW123459   2.220   1.630  16.020  0.0098 -0.4970  1.4495
 4000SOL    HW223460   2.185   1.761  15.966 -0.1703 -0.0574 -0.7307
 4001SOL     OW23461   0.726   2.071   8.662  0.5453 -0.5103  0.1894
 4001SOL    HW123462   0.644   2.034   8.629 -0.2528  0.7585  0.7533
 4001SOL    HW223463   0.783   1.996   8.680  1.4679  0.6097  1.8767
 4002SOL     OW23464   0.576   1.979  12.560 -0.1355 -0.1673  0.1248
 4002SOL    HW123465   0.528   1.925  12.497 -0.5233  0.9070 -0.4971
 4002SOL    HW223466   0.540   1.941  12.641  1.4465  0.0629  0.9337
 4003SOL     OW23467   4.307   0.174   7.354  0.0782  0.0295  0.0070
 4003SOL    HW123468   4.270   0.230   7.422  1.6704  2.4294 -1.1056
 4003SOL    HW223469   4.362   0.120   7.411  4.0087  1.3500 -2.5536
 4004SOL     OW23470   4.450   4.325   2.356 -0.0384  0.4277  0.2242
 4004SOL    HW123471   4.541   4.347   2.375 -0.1333  1.2221 -0.2229
 4004SOL    HW223472   4.455   4.288   2.268 -3.1246 -0.0084  0.2476
 4005SOL     OW23473   0.888   3.112   3.894  0.3475 -0.3521 -0.2349
 4005SOL    HW123474   0.862   3.171   3.824  1.2985 -0.8842 -1.0319
 4005SOL    HW223475   0.804   3.066   3.906 -0.0757 -0.2303 -2.6420
 4006SOL     OW23476   0.657   4.105   3.134 -0.5727 -0.1722  0.0223
 4006SOL    HW123477   0.658   4.191   3.090 -1.5560  0.4102  1.1441
 4006SOL    HW223478   0.628   4.114   3.224 -0.2383  1.7411 -0.0417
 4007SOL     OW23479   1.093   1.141  10.170  0.6983 -0.0422  0.6226
 4007SOL    HW123480   1.045   1.224  10.167  0.5848 -0.0988  0.8995
 4007SOL    HW223481   1.037   1.071  10.135 -1.3992 -0.1033  4.0994
 4008SOL     OW23482   0.859   4.538  13.551 -0.3663 -0.6618  0.1166
 4008SOL    HW123483   0.815   4.535  13.466 -0.9740 -0.2464  0.4140
 4008SOL    HW223484   0.946   4.574  13.533 -0.4587  0.0914  1.1820
 4009SOL     OW23485   2.376   2.184   4.546 -0.1650 -0.0159 -0.4861
 4009SOL    HW123486   2.427   2.226   4.616 -3.2126  1.8519  0.6342
 4009SOL    HW223487   2.338   2.105   4.583  0.1591 -1.0695 -2.4622
 4010SOL     OW23488   1.420   0.394   2.183 -0.2028 -0.7042  0.4809
 4010SOL    HW123489   1.475   0.355   2.250 -0.6897 -3.5139 -0.7517
 4010SOL    HW223490   1.451   0.350   2.104  3.4230  2.0008  0.4290
 4011SOL     OW23491   1.885   0.621   4.125 -0.2981  0.2503  0.0062
 4011SOL    HW123492   1.973   0.653   4.143 -0.9950  1.7858  0.7341
 4011SOL    HW223493   1.865   0.594   4.214  0.2348 -0.9814 -0.2454
 4012SOL     OW23494   0.557   2.852  11.188  0.0018 -0.8353 -0.2105
 4012SOL    HW123495   0.616   2.927  11.188 -0.8671 -0.1559 -0.5980
 4012SOL    HW223496   0.626   2.786  11.179  1.4633  0.7381 -0.5485
 4013SOL     OW23497   3.273   2.899   5.865 -0.0245 -0.1275 -0.1807
 4013SOL    HW123498   3.315   2.908   5.951  0.8292  0.4230 -0.6574
 4013SOL    HW223499   3.198   2.959   5.866 -0.1219 -0.2613  0.3525
 4014SOL     OW23500   3.748   2.238   0.426  0.3713 -0.9535 -0.2778
 4014SOL    HW123501   3.812   2.168   0.440 -0.1870 -1.0753  1.8044
 4014SOL    HW223502   3.781   2.284   0.349 -0.3513  1.4042  0.8100
 4015SOL     OW23503   4.124   1.982   2.234 -1.2716  0.6068 -0.2807
 4015SOL    HW123504   4.114   1.891   2.262  1.2194  0.2286 -0.5754
 4015SOL    HW223505   4.116   2.028   2.318 -0.2911  1.2821 -0.5588
 4016SOL     OW23506   3.897   2.974  17.465 -0.1344  0.0356 -0.0099
 4016SOL    HW123507   3.894   2.880  17.450 -0.3082  0.3005 -1.6360
 4016SOL    HW223508   3.917   2.981  17.559 -1.6885 -2.7215  0.5196
 4017SOL     OW23509   0.637   2.755   5.253  0.3619  0.3934 -0.2043
 4017SOL    HW123510   0.546   2.728   5.244  0.6131 -0.8822  1.1272
 4017SOL    HW223511   0.648   2.788   5.163 -0.5896 -0.7755 -0.7536
 4018SOL     OW23512   2.783   0.807   3.243 -0.0767  0.6611  0.2117
 4018SOL    HW123513   2.732   0.734   3.207 -0.2745 -0.7833  3.4022
 4018SOL    HW223514   2.718   0.876   3.253 -2.2115 -1.5298  1.4641
 4019SOL     OW23515   1.531   1.802   7.521 -0.1860 -0.0132  0.2342
 4019SOL    HW123516   1.438   1.812   7.544 -0.2106 -4.1535  1.9147
 4019SOL    HW223517   1.560   1.891   7.543  2.6969 -1.0530  0.5422
 4020SOL     OW23518   0.471   4.132   2.753 -0.2134  0.1401  0.1833
 4020SOL    HW123519   0.548   4.161   2.802 -1.2972  2.0651  0.7682
 4020SOL    HW223520   0.475   4.199   2.685  1.0269  0.2496  0.3550
 4021SOL     OW23521   1.868   1.428   6.247 -0.1067 -0.0234  0.8883
 4021SOL    HW123522   1.942   1.467   6.201 -0.2542 -1.1921 -0.3577
 4021SOL    HW223523   1.887   1.334   6.255 -0.5535 -0.3380 -1.6043
 4022SOL     OW23524   3.505   3.754   7.585  0.4142  0.3096 -0.4388
 4022SOL    HW123525   3.595   3.722   7.593  0.4495  1.0189  1.8995
 4022SOL    HW223526   3.514   3.845   7.555 -2.2779  0.5646 -0.5113
 4023SOL     OW23527   2.879   0.470   4.654  0.0850  0.0344 -0.6556
 4023SOL    HW123528   2.793   0.426   4.652  0.6507 -1.0455 -1.0262
 4023SOL    HW223529   2.851   0.542   4.711 -0.3619 -0.5668 -0.1069
 4024SOL     OW23530   1.675   2.610   9.737  0.7642  0.2398 -0.4200
 4024SOL    HW123531   1.612   2.586   9.669 -0.3170 -0.7241  0.9417
 4024SOL    HW223532   1.685   2.520   9.767 -0.0728 -0.0325 -0.9745
 4025SOL     OW23533   3.208   2.766  13.581 -0.4137 -0.0809 -0.4176
 4025SOL    HW123534   3.216   2.834  13.515 -1.7137 -2.3133 -2.8638
 4025SOL    HW223535   3.300   2.758  13.607 -0.3211  0.2107 -0.6554
 4026SOL     OW23536   4.680   3.060  10.724 -0.1602  0.1191 -0.4543
 4026SOL    HW123537   4.682   3.067  10.819 -1.7958  0.2884 -0.4396
 4026SOL    HW223538   0.038   3.104  10.701  0.3230  0.9088  2.8483
 4027SOL     OW23539   3.897   1.537   5.037 -0.1342 -0.0045 -0.3955
 4027SOL    HW123540   3.905   1.585   5.119 -0.7840 -0.0857 -0.2853
 4027SOL    HW223541   3.811   1.575   5.019  0.4122  3.1256  3.7688
 4028SOL     OW23542   1.378   3.765   7.331 -0.2380  0.8892 -0.0013
 4028SOL    HW123543   1.286   3.789   7.317 -0.1719  1.4569  0.5262
 4028SOL    HW223544   1.385   3.687   7.277 -3.3485  1.4339 -1.1748
 4029SOL     OW23545   4.059   0.396   7.009  0.0869  0.2507  0.0981
 4029SOL    HW123546   3.988   0.337   7.033 -0.7846  1.9988  1.7393
 4029SOL    HW223547   4.020   0.481   6.992 -2.2692 -0.4868  1.8911
 4030SOL     OW23548   2.531   4.719   0.080 -0.0854  0.3311 -0.1471
 4030SOL    HW123549   2.537   4.633   0.120  2.4431  1.1786  1.2580
 4030SOL    HW223550   2.440   4.714   0.050 -0.2484  0.7750  0.2612
 4031SOL     OW23551   3.035   3.861   3.520  0.2346  0.0030 -0.4600
 4031SOL    HW123552   3.120   3.828   3.493 -0.3364 -0.9710 -1.0684
 4031SOL    HW223553   2.982   3.782   3.515 -0.5881  0.4848  0.5386
 4032SOL     OW23554   0.651   1.047  10.825 -0.1161  0.2555 -0.0745
 4032SOL    HW123555   0.587   1.034  10.895  1.2619 -1.1429  0.9363
 4032SOL    HW223556   0.604   1.102  10.762  1.9930  0.0448 -1.8279
 4033SOL     OW23557   1.239   1.489   7.465 -0.2040 -0.8034 -0.1480
 4033SOL    HW123558   1.242   1.563   7.526 -1.6522 -1.6059  0.9127
 4033SOL    HW223559   1.200   1.524   7.386 -0.1956 -1.8157 -0.5986
 4034SOL     OW23560   1.913   1.619  14.970  0.5169  0.1154 -0.5655
 4034SOL    HW123561   1.951   1.637  15.056 -0.3855 -0.8387  0.0234
 4034SOL    HW223562   1.992   1.634  14.917  1.6202 -0.3777  0.9356
 4035SOL     OW23563   4.597   3.924   5.842 -0.6445  0.5501  0.7588
 4035SOL    HW123564   4.692   3.917   5.834 -0.8294 -1.0423 -0.0434
 4035SOL    HW223565   4.579   4.010   5.805 -1.1342 -0.1130 -0.5737
 4036SOL     OW23566   0.147   1.543   3.577  0.1030  0.0313 -0.4086
 4036SOL    HW123567   0.137   1.461   3.625  0.8545  1.8078  2.7320
 4036SOL    HW223568   0.060   1.538   3.538 -0.6489 -0.5137  1.3442
 4037SOL     OW23569   0.184   2.600   5.420 -0.0237 -0.0337 -0.3989
 4037SOL    HW123570   0.164   2.622   5.329  1.7064  1.4375 -0.4081
 4037SOL    HW223571   0.094   2.595   5.453  0.6235 -0.3726  1.3012
 4038SOL     OW23572   3.417   4.085  17.158 -0.2192 -0.2435 -0.3295
 4038SOL    HW123573   3.425   4.067  17.064  0.3345  2.4016 -0.7930
 4038SOL    HW223574   3.490   4.038  17.198 -0.4407 -0.2856  0.0238
 4039SOL     OW23575   2.991   3.796  11.027  0.1461  0.7475 -0.1726
 4039SOL    HW123576   2.997   3.701  11.016 -1.6615  0.6324 -0.0864
 4039SOL    HW223577   2.932   3.809  11.101  0.0886 -0.2725 -0.0491
 4040SOL     OW23578   3.394   4.178  16.039  0.2558 -0.4445 -0.3008
 4040SOL    HW123579   3.359   4.243  15.978 -0.0162  0.2660  0.6209
 4040SOL    HW223580   3.347   4.185  16.122  1.0417 -0.0677  0.1119
 4041SOL     OW23581   3.014   1.105   2.908 -0.3623 -0.0792  0.2080
 4041SOL    HW123582   3.026   1.042   2.979  1.4479 -0.7118 -0.6537
 4041SOL    HW223583   3.011   1.046   2.833  0.5980 -0.3089  0.3601
 4042SOL     OW23584   0.184   2.891   3.550 -0.1479 -0.5156  0.3168
 4042SOL    HW123585   0.166   2.827   3.482 -0.5593  1.6467 -1.6313
 4042SOL    HW223586   0.241   2.954   3.505 -1.3569  0.6303  0.3598
 4043SOL     OW23587   4.005   1.987   8.214 -0.7940 -0.3405  0.0654
 4043SOL    HW123588   3.954   1.907   8.205 -1.5944  0.1928 -0.1288
 4043SOL    HW223589   4.082   1.976   8.158 -1.1017  0.1037 -0.4424
 4044SOL     OW23590   1.890   0.165   7.598 -0.1192 -0.1823  0.0357
 4044SOL    HW123591   1.973   0.159   7.646 -0.7081 -1.2951  0.8843
 4044SOL    HW223592   1.852   0.079   7.611  1.7143 -1.0904 -0.6499
 4045SOL     OW23593   3.849   3.816   3.147  0.0349  0.2474 -0.4096
 4045SOL    HW123594   3.761   3.777   3.143 -0.5899  1.6340 -0.2466
 4045SOL    HW223595   3.825   3.909   3.140 -1.0774 -0.0490 -0.5505
 4046SOL     OW23596   4.393   2.325   6.160 -0.0347  0.3665 -0.3111
 4046SOL    HW123597   4.406   2.243   6.206 -2.0316 -0.9642 -2.1288
 4046SOL    HW223598   4.302   2.322   6.128 -0.8931  4.4111  1.7103
 4047SOL     OW23599   3.696   1.159   8.217 -0.0994 -0.6631 -0.5662
 4047SOL    HW123600   3.760   1.216   8.260  0.1020 -2.4429  1.4553
 4047SOL    HW223601   3.676   1.090   8.280  1.4470 -0.0457  0.6316
 4048SOL     OW23602   2.171   4.723   2.289  0.1449 -0.2042 -0.4210
 4048SOL    HW123603   2.220   4.678   2.221  1.0630  2.4257 -1.4804
 4048SOL    HW223604   2.084   4.685   2.275 -0.2364  0.3972  0.3247
 4049SOL     OW23605   3.655   1.440   5.404 -0.2253 -0.2537  0.1632
 4049SOL    HW123606   3.580   1.454   5.347  0.5425  1.4355 -0.4175
 4049SOL    HW223607   3.726   1.466   5.346  0.3329 -0.2671  0.8325
 4050SOL     OW23608   1.394   3.198  14.281 -0.1126  0.6289  0.3735
 4050SOL    HW123609   1.347   3.146  14.345 -1.3475  0.7753 -0.4223
 4050SOL    HW223610   1.425   3.124  14.230 -2.8807  1.3998 -2.4213
 4051SOL     OW23611   1.067   2.519   6.430  0.3252 -0.1118 -0.3036
 4051SOL    HW123612   1.101   2.448   6.484 -0.0547 -1.2343 -1.5179
 4051SOL    HW223613   1.130   2.590   6.441  0.5548 -0.5724  1.3599
 4052SOL     OW23614   2.633   1.877   6.055  0.4865 -0.2010  0.0384
 4052SOL    HW123615   2.694   1.932   6.105 -1.7483  1.3052  1.1202
 4052SOL    HW223616   2.549   1.904   6.093 -0.7614  0.6677 -3.3848
 4053SOL     OW23617   1.545   0.213   4.760  0.5505 -0.7460 -0.3799
 4053SOL    HW123618   1.476   0.208   4.694 -1.8353 -3.1189  2.3100
 4053SOL    HW223619   1.550   0.121   4.787 -0.4778 -0.7273 -0.1193
 4054SOL     OW23620   1.679   1.264   3.044  0.3714 -0.0404  0.2078
 4054SOL    HW123621   1.757   1.209   3.032  1.2008  0.8576  1.4595
 4054SOL    HW223622   1.614   1.227   2.984 -0.9751  2.2146  0.2770
 4055SOL     OW23623   3.667   0.855   4.768 -0.1770 -0.6673 -0.2689
 4055SOL    HW123624   3.640   0.785   4.827 -0.0294  0.2073  0.8341
 4055SOL    HW223625   3.732   0.807   4.718 -0.9550 -2.7969  0.7770
 4056SOL     OW23626   3.171   3.204   4.363 -0.8311  0.3810 -0.1304
 4056SOL    HW123627   3.258   3.200   4.321 -1.2174  0.6558 -0.9503
 4056SOL    HW223628   3.141   3.114   4.356  2.3237 -0.5727 -1.8331
 4057SOL     OW23629   2.911   1.964   0.267 -0.2320 -0.7032  0.0290
 4057SOL    HW123630   2.842   1.906   0.299  1.1754 -2.0925  0.5279
 4057SOL    HW223631   2.990   1.920   0.296  0.0098 -1.6219 -2.0692
 4058SOL     OW23632   3.249   0.794   2.721  0.1264 -0.6621  0.6704
 4058SOL    HW123633   3.178   0.859   2.722  0.7823  0.0565  0.9776
 4058SOL    HW223634   3.220   0.728   2.658  0.2867 -3.3657  3.4409
 4059SOL     OW23635   2.249   3.919  12.874 -0.3867 -0.2633  0.2755
 4059SOL    HW123636   2.233   3.851  12.809  0.4521 -0.0690 -0.1289
 4059SOL    HW223637   2.285   3.866  12.944 -0.1481  0.4285  0.6789
 4060SOL     OW23638   0.314   2.296   6.217 -0.1510  0.0156  0.0045
 4060SOL    HW123639   0.253   2.326   6.285 -2.0850 -2.6433 -0.5880
 4060SOL    HW223640   0.285   2.205   6.219  1.0377 -0.3563 -0.1326
 4061SOL     OW23641   1.569   1.900  12.133  0.4745 -0.1700 -0.0757
 4061SOL    HW123642   1.491   1.882  12.080  1.5688 -0.6308 -1.5440
 4061SOL    HW223643   1.529   1.901  12.219 -0.2975  1.1242 -0.4593
 4062SOL     OW23644   0.125   4.013  15.512 -0.2021 -0.2365  0.8038
 4062SOL    HW123645   0.034   3.994  15.533 -0.8872 -0.0174 -1.9473
 4062SOL    HW223646   0.169   3.935  15.549 -0.6481  0.1712  2.1787
 4063SOL     OW23647   0.502   0.418   7.122  0.0306  0.4357 -0.1480
 4063SOL    HW123648   0.557   0.468   7.062 -0.2168  0.6311 -0.2125
 4063SOL    HW223649   0.415   0.456   7.108 -0.0209  0.7082  0.8765
 4064SOL     OW23650   1.954   3.613   7.396  0.3566  0.3701  0.1956
 4064SOL    HW123651   1.873   3.563   7.386  0.3438  0.4588 -0.1277
 4064SOL    HW223652   2.014   3.570   7.335  1.1913 -0.1202  1.3747
 4065SOL     OW23653   4.538   1.616   6.703 -0.2530  0.6314 -0.1380
 4065SOL    HW123654   4.478   1.668   6.756 -0.7313  1.8738 -1.9121
 4065SOL    HW223655   4.544   1.658   6.617  0.0360 -1.2484 -1.0580
 4066SOL     OW23656   3.094   3.423   5.852  0.1609 -0.2274 -0.0651
 4066SOL    HW123657   3.104   3.446   5.944 -2.0248 -0.4902  0.2543
 4066SOL    HW223658   3.130   3.502   5.812  0.8528 -1.1524 -1.2669
 4067SOL     OW23659   1.528   4.233   0.891  0.1609  0.3144  0.4720
 4067SOL    HW123660   1.437   4.254   0.873  0.7047  0.2488 -2.2527
 4067SOL    HW223661   1.568   4.265   0.810 -0.9442  0.5053  0.0127
 4068SOL     OW23662   1.758   1.389  14.948  0.3382  0.9010 -0.4261
 4068SOL    HW123663   1.746   1.405  14.855  0.9812  3.7580 -0.0191
 4068SOL    HW223664   1.815   1.464  14.965  0.6185  1.0843 -2.1761
 4069SOL     OW23665   3.315   3.406   7.811 -0.0248  0.9814 -0.4084
 4069SOL    HW123666   3.289   3.474   7.749 -1.8095  1.4524  0.8771
 4069SOL    HW223667   3.385   3.450   7.859  1.6449 -2.6156  0.4851
 4070SOL     OW23668   4.526   0.496   6.603 -0.1450  0.0883  0.2780
 4070SOL    HW123669   4.448   0.443   6.587  0.1084 -0.1888 -0.0552
 4070SOL    HW223670   4.536   0.509   6.697 -3.0478 -0.1247  0.6153
 4071SOL     OW23671   1.321   2.039  17.081 -0.3689  0.6083 -0.0593
 4071SOL    HW123672   1.356   2.004  16.999 -1.3171 -1.2291  0.3110
 4071SOL    HW223673   1.398   2.086  17.112 -1.7144  1.8746  1.4035
 4072SOL     OW23674   4.271   0.821   0.546  0.0217 -1.1114 -0.5032
 4072SOL    HW123675   4.308   0.901   0.509  0.8300 -0.9987  0.5376
 4072SOL    HW223676   4.273   0.751   0.481  1.1199 -1.3568 -0.1905
 4073SOL     OW23677   2.395   1.563   3.525 -0.0476 -0.8349 -0.2201
 4073SOL    HW123678   2.351   1.492   3.477  0.3175 -0.9047 -0.4548
 4073SOL    HW223679   2.436   1.524   3.602 -1.6101 -1.4605  0.2918
 4074SOL     OW23680   1.549   0.619   7.898  0.7719  0.3641  0.1906
 4074SOL    HW123681   1.643   0.628   7.914  0.9865 -2.9689  0.8131
 4074SOL    HW223682   1.527   0.538   7.945  0.4104  0.0945 -0.4362
 4075SOL     OW23683   0.999   3.106  11.848  0.0428 -0.0192  0.9596
 4075SOL    HW123684   1.086   3.130  11.817  0.5694 -0.5303  2.0531
 4075SOL    HW223685   0.988   3.017  11.817  1.2944 -0.1062  0.7578
 4076SOL     OW23686   4.570   0.097  12.451  0.5240  0.5785 -0.0343
 4076SOL    HW123687   4.662   0.072  12.439  0.6880  1.0392  0.2528
 4076SOL    HW223688   4.573   0.117  12.544 -1.2643 -2.7998  0.7428
 4077SOL     OW23689   4.363   3.601   7.168  0.0262  0.3359 -0.1629
 4077SOL    HW123690   4.382   3.677   7.113  0.1698 -0.6539 -1.4763
 4077SOL    HW223691   4.269   3.604   7.183 -0.0785 -0.9029 -0.6289
 4078SOL     OW23692   3.872   2.520   6.204 -0.0694  0.5538 -0.1120
 4078SOL    HW123693   3.949   2.568   6.176 -0.0592  0.8514  0.4197
 4078SOL    HW223694   3.903   2.431   6.187  0.6196  0.3946  1.9215
 4079SOL     OW23695   1.257   0.995   7.769 -0.3676 -0.6676  0.4280
 4079SOL    HW123696   1.183   0.982   7.827  0.5822 -3.0567  1.1126
 4079SOL    HW223697   1.239   1.058   7.699  0.2133 -0.3441  0.5705
 4080SOL     OW23698   2.998   1.758   0.569  0.2788 -0.2085 -0.0180
 4080SOL    HW123699   2.956   1.684   0.525  1.2341 -1.4923  1.2483
 4080SOL    HW223700   2.925   1.777   0.628 -0.5807 -0.8836 -0.8586
 4081SOL     OW23701   1.845   2.312   3.013 -0.3876  0.1408  0.8587
 4081SOL    HW123702   1.869   2.386   3.070  0.6217  0.8524 -0.4823
 4081SOL    HW223703   1.785   2.347   2.947  0.3044 -0.9746 -0.3422
 4082SOL     OW23704   1.836   0.237   3.583 -0.1015 -0.0210  0.0522
 4082SOL    HW123705   1.901   0.167   3.581  0.7147  0.7686 -0.9497
 4082SOL    HW223706   1.883   0.280   3.654  1.5882 -2.1501  0.2324
 4083SOL     OW23707   2.542   0.813   7.931 -0.1371  0.4200 -0.5913
 4083SOL    HW123708   2.465   0.770   7.968  0.1086  0.5924  0.1151
 4083SOL    HW223709   2.519   0.853   7.847 -1.8417 -2.5444 -1.5254
 4084SOL     OW23710   1.201   0.468   0.944 -0.1436  0.0970 -0.5562
 4084SOL    HW123711   1.174   0.419   0.867  0.4615  0.3198 -0.9126
 4084SOL    HW223712   1.160   0.425   1.019  0.8804  0.1301  0.0212
 4085SOL     OW23713   4.547   3.177  17.089  0.5365 -0.2156  0.6515
 4085SOL    HW123714   4.486   3.129  17.032  1.1213 -1.3625  0.9890
 4085SOL    HW223715   4.623   3.175  17.032  0.4226 -1.9579  0.5710
 4086SOL     OW23716   4.052   3.799   3.326 -0.3427  0.6747 -0.0406
 4086SOL    HW123717   4.073   3.709   3.352  3.2811  1.3999 -0.4466
 4086SOL    HW223718   3.960   3.778   3.309 -0.6348  1.1198  1.0003
 4087SOL     OW23719   1.544   2.392   7.026 -0.4242 -0.2948  0.3957
 4087SOL    HW123720   1.598   2.353   6.957 -1.4596  0.3732 -0.8016
 4087SOL    HW223721   1.471   2.332   7.010 -0.3700 -0.2219 -0.1162
 4088SOL     OW23722   3.745   0.087   5.971 -0.5158  0.1435 -0.3378
 4088SOL    HW123723   3.741   0.030   6.048 -0.4584  2.4998  1.3810
 4088SOL    HW223724   3.797   0.035   5.909  1.2655  3.3923 -1.5422
 4089SOL     OW23725   4.005   0.628   7.625 -0.3930 -0.1681  0.5648
 4089SOL    HW123726   3.928   0.581   7.657 -1.3380  0.2514 -1.1157
 4089SOL    HW223727   3.995   0.712   7.670  0.5166  0.0967  0.2839
 4090SOL     OW23728   1.036   1.474  17.113  0.3516 -0.2323 -0.2120
 4090SOL    HW123729   1.064   1.385  17.136 -1.7528 -0.7090  0.5153
 4090SOL    HW223730   0.992   1.504  17.192  1.3161 -0.1170  0.2765
 4091SOL     OW23731   2.962   4.618   8.497 -0.0556 -0.0541 -0.0834
 4091SOL    HW123732   2.960   4.658   8.584 -2.1233 -1.1048  0.3642
 4091SOL    HW223733   2.871   4.641   8.474 -0.2785 -1.9434 -1.0500
 4092SOL     OW23734   0.392   4.380   6.728  0.0651  0.0655 -0.2034
 4092SOL    HW123735   0.384   4.472   6.752 -0.8147 -0.1485  0.3167
 4092SOL    HW223736   0.417   4.342   6.812  0.2461  0.8486  0.0998
 4093SOL     OW23737   2.025   0.492   2.768 -0.3006  0.2614  0.4495
 4093SOL    HW123738   2.111   0.522   2.740 -0.4596  0.2824 -0.0209
 4093SOL    HW223739   2.038   0.507   2.862  1.4963 -2.6025  0.6625
 4094SOL     OW23740   1.963   0.864   8.658  0.4779 -0.3599 -0.0432
 4094SOL    HW123741   1.945   0.868   8.752  0.0238 -0.8796 -0.1106
 4094SOL    HW223742   1.877   0.861   8.617  1.7945 -2.9471 -2.6768
 4095SOL     OW23743   3.853   4.613   6.466  0.7102 -0.6397 -0.1681
 4095SOL    HW123744   3.875   4.533   6.417  1.0756 -0.4518 -0.3078
 4095SOL    HW223745   3.847   4.567   6.550  0.1520 -0.6046 -0.1918
 4096SOL     OW23746   3.836   0.438   3.953 -0.0672 -0.1482  0.2335
 4096SOL    HW123747   3.761   0.457   4.009  0.2151  2.7997 -0.4181
 4096SOL    HW223748   3.825   0.503   3.884  1.2655  1.3106  1.4188
 4097SOL     OW23749   3.076   4.031  15.957  0.4616 -0.0861  0.2608
 4097SOL    HW123750   3.093   4.118  15.922  0.5138 -0.9723 -1.9139
 4097SOL    HW223751   3.040   4.056  16.042  0.8406 -0.0121  0.3975
 4098SOL     OW23752   1.202   3.034   6.838  0.1069  0.1785 -0.4719
 4098SOL    HW123753   1.287   3.075   6.851  0.9409 -1.3357 -1.1077
 4098SOL    HW223754   1.220   2.940   6.847  1.2342  0.1865 -2.5335
 4099SOL     OW23755   3.010   1.238   7.430  0.2655  0.5611 -0.1108
 4099SOL    HW123756   2.926   1.281   7.443  0.7299  2.0293 -1.8450
 4099SOL    HW223757   3.055   1.271   7.508 -1.8823  0.3831  1.1840
 4100SOL     OW23758   3.511   2.132  10.481 -0.4066  0.6196 -0.4306
 4100SOL    HW123759   3.561   2.147  10.562 -1.2887 -0.7669  0.3746
 4100SOL    HW223760   3.435   2.085  10.516  0.1604 -0.6348 -0.8753
 4101SOL     OW23761   0.170   1.363  12.123 -0.4647 -0.0975 -0.2740
 4101SOL    HW123762   0.154   1.292  12.060  0.8531  1.0237 -1.8622
 4101SOL    HW223763   0.224   1.326  12.193 -1.1458 -2.0273 -0.7541
 4102SOL     OW23764   2.380   0.688   5.942  0.0817 -0.4407 -0.3356
 4102SOL    HW123765   2.399   0.594   5.948 -1.8523 -0.8746 -0.7946
 4102SOL    HW223766   2.458   0.728   5.981  0.3686 -0.6193 -0.7289
 4103SOL     OW23767   1.857   2.434   7.229  0.8618  0.1582 -0.4027
 4103SOL    HW123768   1.850   2.343   7.200  0.6409  0.2440 -0.6190
 4103SOL    HW223769   1.791   2.485   7.180 -0.0870 -0.6191  0.0635
 4104SOL     OW23770   3.579   4.306  11.973 -0.2755 -0.3333 -0.5170
 4104SOL    HW123771   3.633   4.303  12.052  0.0379  1.6401 -0.6473
 4104SOL    HW223772   3.576   4.399  11.950 -2.8273 -0.3856 -0.3087
 4105SOL     OW23773   1.309   3.556   3.490  0.0591 -0.5457  0.1898
 4105SOL    HW123774   1.348   3.474   3.521 -0.4809  0.2437  2.9289
 4105SOL    HW223775   1.248   3.519   3.426 -2.8749 -0.5854  3.0460
 4106SOL     OW23776   1.634   0.521   6.044  0.1679 -0.4624 -0.0420
 4106SOL    HW123777   1.707   0.481   6.090 -0.4906 -2.4672 -0.7375
 4106SOL    HW223778   1.656   0.487   5.958 -3.2027 -1.1523 -0.6274
 4107SOL     OW23779   3.443   0.037   5.786 -0.3672 -0.4732 -0.4876
 4107SOL    HW123780   3.455   0.104   5.853  0.5551 -2.0995  0.9988
 4107SOL    HW223781   3.516   0.058   5.727  0.7896 -2.1330  0.3481
 4108SOL     OW23782   1.654   3.098   4.080  0.0913  0.0153 -0.0138
 4108SOL    HW123783   1.727   3.071   4.135  0.6890 -0.3092 -0.9674
 4108SOL    HW223784   1.594   3.024   4.094  1.1601 -0.6933  0.7823
 4109SOL     OW23785   2.626   1.370   6.752  0.4579  0.6571 -0.2605
 4109SOL    HW123786   2.581   1.347   6.833  3.5297  1.7145  1.7564
 4109SOL    HW223787   2.568   1.440   6.722  0.6705 -0.0570 -2.3578
 4110SOL     OW23788   2.684   0.518   0.570 -0.3812  0.1105  0.3401
 4110SOL    HW123789   2.735   0.593   0.540 -0.9115  0.6902  0.8855
 4110SOL    HW223790   2.694   0.446   0.508  2.1390 -0.9433  1.9160
 4111SOL     OW23791   2.563   2.939   3.325 -0.2115 -0.4361 -0.5188
 4111SOL    HW123792   2.639   2.984   3.289 -1.8223  1.8905 -1.0227
 4111SOL    HW223793   2.498   3.006   3.303  1.0572  0.6791 -0.8213
 4112SOL     OW23794   2.591   4.648  16.387  0.7544 -0.5086 -0.3079
 4112SOL    HW123795   2.533   4.639  16.311  1.1452 -1.6624 -0.4694
 4112SOL    HW223796   2.559   4.571  16.434 -0.8924  0.4642  0.1538
 4113SOL     OW23797   3.805   1.273   8.708 -0.1477  0.3053  0.1432
 4113SOL    HW123798   3.870   1.215   8.747 -1.0753 -0.1440  1.0309
 4113SOL    HW223799   3.819   1.351   8.763  1.5021 -0.2520  0.5102
 4114SOL     OW23800   2.518   3.295   3.647 -0.1749 -0.2412 -0.0195
 4114SOL    HW123801   2.522   3.274   3.740  0.2881  2.0354  0.4795
 4114SOL    HW223802   2.603   3.262   3.619 -0.7177 -0.7925 -1.0186
 4115SOL     OW23803   2.104   2.183   4.791 -0.4944  0.7483 -0.1773
 4115SOL    HW123804   2.186   2.134   4.776 -1.6151 -1.4195  0.7824
 4115SOL    HW223805   2.127   2.261   4.840  1.4775  0.1629 -0.1363
 4116SOL     OW23806   1.101   2.786   6.039 -0.0439 -0.0118 -0.7291
 4116SOL    HW123807   1.121   2.816   6.127 -0.8480  1.0437 -0.9039
 4116SOL    HW223808   1.188   2.763   6.008  0.2302 -0.4812  0.4240
 4117SOL     OW23809   3.113   4.647  17.386  0.6732 -0.0667  0.2579
 4117SOL    HW123810   3.208   4.660  17.391  0.9327 -0.8237 -2.5894
 4117SOL    HW223811   3.081   4.696  17.462 -1.4201 -0.1469 -0.5739
 4118SOL     OW23812   2.251   4.665   6.099 -0.0639  0.3117 -0.0034
 4118SOL    HW123813   2.270   4.575   6.075 -0.1642  0.1125  0.6631
 4118SOL    HW223814   2.295   4.673   6.183  1.5242 -1.4668 -0.6657
 4119SOL     OW23815   1.844   0.363   6.200 -0.1199 -0.2868 -0.3111
 4119SOL    HW123816   1.894   0.288   6.233 -2.0368 -1.0392  0.9310
 4119SOL    HW223817   1.787   0.388   6.273  0.3809 -1.2106  0.4043
 4120SOL     OW23818   0.837   2.231   3.952 -0.5943  0.0417  0.2167
 4120SOL    HW123819   0.763   2.271   3.906 -1.9651 -2.9192 -0.1524
 4120SOL    HW223820   0.892   2.195   3.882  1.1411  0.0437  1.5843
 4121SOL     OW23821   0.535   2.914  11.459  0.0810  0.0446 -0.4011
 4121SOL    HW123822   0.521   2.859  11.381 -2.9311 -1.0503  0.9207
 4121SOL    HW223823   0.520   2.999  11.420  0.0605  1.9380  3.7779
 4122SOL     OW23824   0.751   4.569   7.702 -0.0877  0.6966  0.0742
 4122SOL    HW123825   0.756   4.606   7.614 -1.6589 -1.2983 -0.8584
 4122SOL    HW223826   0.810   4.627   7.750  1.8915 -1.3598  0.1463
 4123SOL     OW23827   0.338   2.743   2.336  0.2077 -0.1996  0.1283
 4123SOL    HW123828   0.263   2.799   2.314  1.9097  0.4432 -4.1551
 4123SOL    HW223829   0.304   2.699   2.414  1.1995  1.8257  1.7041
 4124SOL     OW23830   4.609   2.007  13.650  1.0523 -0.0797  0.1506
 4124SOL    HW123831   4.699   2.015  13.619  1.2045 -1.6610  0.1663
 4124SOL    HW223832   4.617   2.044  13.738 -0.4246 -3.1096  1.5732
 4125SOL     OW23833   0.633   0.035   6.882  0.0050  0.0481  0.6312
 4125SOL    HW123834   0.544   4.723   6.874  0.2327 -0.7893  1.8822
 4125SOL    HW223835   0.669   4.698   6.817 -0.3825  0.5399 -0.0482
 4126SOL     OW23836   1.901   4.517   6.549  0.1806  0.5420  0.1947
 4126SOL    HW123837   1.846   4.589   6.581  0.4121  1.0959 -0.6352
 4126SOL    HW223838   1.872   4.445   6.605 -0.8476  1.3562  0.7034
 4127SOL     OW23839   1.431   3.503  12.119 -0.2937 -0.3642 -0.0157
 4127SOL    HW123840   1.374   3.430  12.094 -0.8249  1.0372 -2.9083
 4127SOL    HW223841   1.518   3.472  12.096  0.4052  1.3349  0.3294
 4128SOL     OW23842   4.590   2.045   6.522 -0.3398 -0.0632  0.0199
 4128SOL    HW123843   4.635   2.006   6.597 -0.3631  1.0027  0.5832
 4128SOL    HW223844   4.532   1.977   6.489  0.2061 -1.0139  1.0257
 4129SOL     OW23845   1.245   1.009  15.701 -0.1032  0.4097 -0.0625
 4129SOL    HW123846   1.333   1.046  15.702  0.4010 -0.7977 -0.0837
 4129SOL    HW223847   1.195   1.075  15.652 -0.1962 -0.1185 -0.6795
 4130SOL     OW23848   0.577   1.826   8.847  0.4056  0.1878 -0.1463
 4130SOL    HW123849   0.508   1.870   8.798 -0.1258 -1.4989 -0.9026
 4130SOL    HW223850   0.551   1.840   8.938  1.6041  1.8411 -0.0508
 4131SOL     OW23851   3.141   3.940   8.337  0.0320 -0.3518 -0.7150
 4131SOL    HW123852   3.206   3.879   8.371  1.1097  1.4691  0.5089
 4131SOL    HW223853   3.124   3.885   8.261 -3.4696  1.9627 -1.5876
 4132SOL     OW23854   1.382   0.458   5.007  0.1880  0.0650  0.2636
 4132SOL    HW123855   1.315   0.525   5.024 -1.2864 -1.3078 -0.1330
 4132SOL    HW223856   1.336   0.391   4.957  0.0923  0.5672 -0.3307
 4133SOL     OW23857   2.209   1.350   3.488 -0.1091 -0.1202 -0.3108
 4133SOL    HW123858   2.131   1.302   3.461 -0.0319 -0.4270  0.0097
 4133SOL    HW223859   2.287   1.308   3.450 -0.5543  0.2316 -1.5993
 4134SOL     OW23860   3.449   2.291   7.770 -0.0322 -0.2064 -0.3479
 4134SOL    HW123861   3.412   2.378   7.784  0.7461 -0.1628  1.4418
 4134SOL    HW223862   3.423   2.260   7.857  0.3894 -1.4646 -0.6691
 4135SOL     OW23863   2.338   4.402   6.419  0.4136 -0.1160 -0.1515
 4135SOL    HW123864   2.399   4.447   6.360  0.7060 -0.2813  0.0213
 4135SOL    HW223865   2.386   4.394   6.502 -1.0137  0.8157  0.7529
 4136SOL     OW23866   3.947   4.513   2.465  0.3216  0.3166  0.1101
 4136SOL    HW123867   3.925   4.561   2.545  1.1112 -1.8246  1.6180
 4136SOL    HW223868   3.863   4.526   2.421  1.4461  1.2455 -1.7494
 4137SOL     OW23869   1.716   0.364   5.821 -0.2172 -0.0695 -0.0743
 4137SOL    HW123870   1.787   0.360   5.758  0.0057  1.1674  0.0842
 4137SOL    HW223871   1.725   0.288   5.878 -2.0918 -0.4321 -0.2545
 4138SOL     OW23872   0.640   1.235   6.724 -0.6631  0.1588 -0.0792
 4138SOL    HW123873   0.710   1.295   6.697 -1.1584  0.7516 -0.0481
 4138SOL    HW223874   0.615   1.260   6.813  0.6256  0.6225  0.1553
 4139SOL     OW23875   0.181   0.959   3.295  0.5036  0.2460  0.1954
 4139SOL    HW123876   0.088   0.943   3.279  0.2375  0.5861  1.4097
 4139SOL    HW223877   0.179   0.979   3.389 -0.1241 -0.1453  0.2669
 4140SOL     OW23878   0.232   4.055   2.140 -0.7578  0.5363  0.5245
 4140SOL    HW123879   0.207   3.967   2.114  1.9081  0.3844 -1.5297
 4140SOL    HW223880   0.287   4.087   2.069 -0.3259  1.4368  1.2721
 4141SOL     OW23881   1.242   0.334   6.933 -0.0513 -0.4473  0.5698
 4141SOL    HW123882   1.326   0.301   6.900 -0.2549 -0.2050 -0.1962
 4141SOL    HW223883   1.186   0.324   6.856  0.0612 -0.4753  0.4922
 4142SOL     OW23884   3.877   3.534   3.918 -0.2052  0.0789  0.9028
 4142SOL    HW123885   3.845   3.491   3.998 -0.6505 -1.1811  0.0403
 4142SOL    HW223886   3.786   3.538   3.887 -0.5095 -0.3426  1.7463
 4143SOL     OW23887   2.032   1.196   5.590  0.2443  0.1208 -0.9053
 4143SOL    HW123888   1.962   1.235   5.643 -1.5015 -1.1019 -2.3127
 4143SOL    HW223889   2.016   1.102   5.605 -0.4674  0.0847 -1.8956
 4144SOL     OW23890   3.384   4.543   7.766 -0.0381  0.4717 -0.2754
 4144SOL    HW123891   3.376   4.608   7.836  4.2218 -0.3930  1.0304
 4144SOL    HW223892   3.377   4.595   7.685 -0.1479  0.4308 -0.2913
 4145SOL     OW23893   3.889   0.079   9.350 -0.7840  0.7794 -0.4264
 4145SOL    HW123894   3.932   0.002   9.389  0.2356  0.7898 -1.5200
 4145SOL    HW223895   3.948   0.089   9.275  2.3490 -0.3542  1.8455
 4146SOL     OW23896   0.626   2.505  16.731 -0.5803 -0.0072 -0.1202
 4146SOL    HW123897   0.616   2.447  16.655  0.3374 -0.9823  0.5017
 4146SOL    HW223898   0.534   2.524  16.745 -0.1127  1.9256  0.2952
 4147SOL     OW23899   1.703   1.596   0.317 -0.2416  0.1228  0.5086
 4147SOL    HW123900   1.797   1.591   0.330  0.0485 -0.5406 -1.8708
 4147SOL    HW223901   1.693   1.691   0.308  1.6430  0.2115 -0.6432
 4148SOL     OW23902   1.374   2.007   6.388 -0.9618 -0.8134 -0.3796
 4148SOL    HW123903   1.354   1.961   6.306 -1.7340 -0.1704 -0.5540
 4148SOL    HW223904   1.286   2.003   6.426 -1.1970 -1.2115 -0.9630
 4149SOL     OW23905   0.579   0.746   2.217  0.4101 -0.1014 -0.1947
 4149SOL    HW123906   0.520   0.775   2.147 -0.1676 -1.6281 -0.3549
 4149SOL    HW223907   0.589   0.828   2.264 -1.6616  0.5920 -0.9350
 4150SOL     OW23908   4.473   4.507   2.027 -0.3129 -0.4938  0.2426
 4150SOL    HW123909   4.399   4.466   2.072 -0.4139 -2.2154 -1.4485
 4150SOL    HW223910   4.432   4.509   1.940 -2.7589  0.7775  1.4090
 4151SOL     OW23911   0.313   0.733   6.090  0.5071  0.1987 -0.4091
 4151SOL    HW123912   0.352   0.666   6.146 -0.6101  0.2592  0.4541
 4151SOL    HW223913   0.222   0.731   6.121  0.5179 -0.5312 -0.4109
 4152SOL     OW23914   3.432   2.157  14.547  0.0045  0.1380 -0.0300
 4152SOL    HW123915   3.356   2.168  14.604 -0.1290 -1.0601  0.0166
 4152SOL    HW223916   3.479   2.094  14.603 -0.5266 -0.2927 -0.0744
 4153SOL     OW23917   3.404   3.531   4.901 -0.7604  0.3807  0.1898
 4153SOL    HW123918   3.416   3.539   4.995  0.6621  1.0515 -0.0497
 4153SOL    HW223919   3.324   3.479   4.902  0.8783 -2.1479 -0.2415
 4154SOL     OW23920   2.805   2.313  13.404 -0.0351 -0.1834 -0.3889
 4154SOL    HW123921   2.841   2.274  13.324 -0.5269 -0.8229 -0.2951
 4154SOL    HW223922   2.833   2.250  13.472  3.1576  1.7291  0.0644
 4155SOL     OW23923   3.345   0.421  17.613  0.1827 -0.0621 -0.2648
 4155SOL    HW123924   3.372   0.420  17.522  1.5727 -0.2258  0.1542
 4155SOL    HW223925   3.366   0.512  17.634 -0.0615 -0.4509  1.6891
 4156SOL     OW23926   0.349   2.595   4.673 -0.5733  0.0454  0.0301
 4156SOL    HW123927   0.279   2.578   4.735 -0.3747 -0.8059  0.0145
 4156SOL    HW223928   0.344   2.684   4.638 -0.7866 -0.6719 -1.7547
 4157SOL     OW23929   0.193   3.091   7.971 -0.1076 -0.2288  0.3122
 4157SOL    HW123930   0.220   3.140   8.049  0.5019 -0.1297  0.0429
 4157SOL    HW223931   0.138   3.160   7.934  1.1962  1.7483  2.0614
 4158SOL     OW23932   2.184   3.905  13.473  0.0346  0.1502  0.3509
 4158SOL    HW123933   2.122   3.832  13.479 -1.2700  1.0905 -1.6720
 4158SOL    HW223934   2.187   3.935  13.563 -1.5084  0.7448  0.2117
 4159SOL     OW23935   3.169   2.099   1.336  0.9978  0.5110  0.5621
 4159SOL    HW123936   3.208   2.181   1.365  0.2159  1.2043 -0.3497
 4159SOL    HW223937   3.184   2.037   1.407 -0.0751  0.6675  0.9369
 4160SOL     OW23938   2.938   3.189  12.494  0.2479 -0.2923  0.3204
 4160SOL    HW123939   2.917   3.210  12.403 -0.2988  0.4701  0.6259
 4160SOL    HW223940   2.854   3.213  12.533 -0.3984 -0.9507 -0.6726
 4161SOL     OW23941   1.032   1.307   0.877 -0.2151 -0.7676 -0.4175
 4161SOL    HW123942   1.085   1.294   0.798  2.6370  1.7825  1.0802
 4161SOL    HW223943   0.955   1.253   0.858 -0.5539 -0.8597  1.2919
 4162SOL     OW23944   4.166   2.248   5.893  0.2103 -0.1854  0.5292
 4162SOL    HW123945   4.183   2.330   5.847 -0.5892  0.0913  0.7232
 4162SOL    HW223946   4.232   2.189   5.857  0.3665  0.4262 -0.1756
 4163SOL     OW23947   4.464   4.512   7.734  0.7217  0.4738  0.0306
 4163SOL    HW123948   4.392   4.540   7.791  1.4088  1.9493  0.1796
 4163SOL    HW223949   4.499   4.435   7.779 -3.8270 -1.2601  0.5701
 4164SOL     OW23950   3.022   3.108   5.883  0.8089  0.0386  0.0271
 4164SOL    HW123951   3.037   3.155   5.801 -2.7063 -0.7081 -1.0331
 4164SOL    HW223952   2.928   3.094   5.873  1.1463 -2.5211  0.3145
 4165SOL     OW23953   3.601   2.611  10.041  0.2032 -0.1720 -0.2661
 4165SOL    HW123954   3.561   2.698  10.039 -2.2862 -1.3007  0.2963
 4165SOL    HW223955   3.695   2.622  10.024  0.8556 -3.4600  1.1803
 4166SOL     OW23956   0.506   1.347   5.367 -0.2904  0.8147 -0.4370
 4166SOL    HW123957   0.546   1.419   5.415 -1.6827  0.9408  0.5278
 4166SOL    HW223958   0.460   1.304   5.438 -1.0469  0.5571 -1.0780
 4167SOL     OW23959   4.458   0.136   3.055  0.0845  0.5568  0.0524
 4167SOL    HW123960   4.507   0.130   2.972 -2.1235 -1.0733 -1.1294
 4167SOL    HW223961   4.473   0.051   3.096 -1.4141 -0.1677 -0.8932
 4168SOL     OW23962   3.778   3.763   6.856  0.2822  0.0252  0.0415
 4168SOL    HW123963   3.727   3.843   6.868 -0.9714 -0.9264  1.0070
 4168SOL    HW223964   3.756   3.751   6.763  1.9658  0.2276 -0.3946
 4169SOL     OW23965   3.056   1.789  15.823  0.5637  0.5164  0.1957
 4169SOL    HW123966   3.052   1.724  15.893  2.3869 -0.1851 -0.3277
 4169SOL    HW223967   3.034   1.871  15.866 -0.1003  1.4954 -2.0144
 4170SOL     OW23968   0.217   0.149   5.910 -0.3822  0.3723 -0.2080
 4170SOL    HW123969   0.256   0.157   5.997  0.7749  1.0722 -0.7886
 4170SOL    HW223970   0.142   0.090   5.920 -1.4802  1.6337 -0.9532
 4171SOL     OW23971   0.481   0.527   2.824 -0.2948 -0.4628  0.4621
 4171SOL    HW123972   0.409   0.490   2.772 -0.2454 -1.3710  1.0438
 4171SOL    HW223973   0.484   0.468   2.899  1.4881  0.1779  0.8814
 4172SOL     OW23974   0.726   3.732   5.653  0.4922 -0.0726  0.5106
 4172SOL    HW123975   0.759   3.664   5.594 -2.5773 -0.0111 -1.3359
 4172SOL    HW223976   0.781   3.745   5.730  2.0257  1.3603 -0.8438
 4173SOL     OW23977   3.339   2.935   4.436  0.1367  0.6218 -0.1985
 4173SOL    HW123978   3.370   3.013   4.390 -1.9965  1.0359 -0.9331
 4173SOL    HW223979   3.244   2.943   4.426  0.0136 -0.9495 -0.3994
 4174SOL     OW23980   0.335   1.121   3.754 -0.1867 -1.0690 -0.2456
 4174SOL    HW123981   0.356   1.166   3.835  1.4569 -0.7032 -0.8866
 4174SOL    HW223982   0.387   1.043   3.774 -0.1578 -1.2284 -0.9566
 4175SOL     OW23983   1.703   1.324   5.930 -0.3136 -0.1845  0.0200
 4175SOL    HW123984   1.734   1.414   5.933 -2.0216  0.3467  1.7921
 4175SOL    HW223985   1.663   1.304   6.015 -0.2475 -3.7332 -0.7602
 4176SOL     OW23986   4.328   4.580   7.369  0.0245 -0.0198 -0.2895
 4176SOL    HW123987   4.421   4.585   7.389 -0.2927  1.2095  0.8401
 4176SOL    HW223988   4.289   4.608   7.452 -0.3824  0.8095 -0.7590
 4177SOL     OW23989   0.111   1.470   5.374 -0.0406 -0.0051  0.5706
 4177SOL    HW123990   0.133   1.472   5.468 -3.0377 -0.5090  1.2839
 4177SOL    HW223991   0.024   1.510   5.374  0.4811  1.0679 -2.1095
 4178SOL     OW23992   4.131   2.393   8.598 -0.0309 -0.3220 -0.3307
 4178SOL    HW123993   4.197   2.358   8.657  0.6181 -0.2443 -1.0157
 4178SOL    HW223994   4.091   2.310   8.573 -0.1210 -0.2515 -0.4203
 4179SOL     OW23995   3.077   2.518   8.461 -0.1578 -0.8667 -0.2462
 4179SOL    HW123996   2.990   2.528   8.423 -0.6275  1.2229  1.3808
 4179SOL    HW223997   3.104   2.608   8.481 -0.2333 -1.0351  0.6516
 4180SOL     OW23998   0.837   4.057   3.620  0.4012 -0.7154 -0.0129
 4180SOL    HW123999   0.830   3.970   3.660  3.1474 -1.4160 -1.0857
 4180SOL    HW224000   0.818   4.111   3.697  1.0188  0.1602 -0.4926
 4181SOL     OW24001   0.884   2.148  11.998 -0.5049  0.3398  0.3303
 4181SOL    HW124002   0.819   2.174  11.933 -0.9874 -0.6594  0.4104
 4181SOL    HW224003   0.830   2.139  12.077  0.8436 -1.7074  1.0206
 4182SOL     OW24004   2.241   0.898   8.049  0.5678 -0.1472  0.4174
 4182SOL    HW124005   2.179   0.875   8.118 -1.5399 -0.7960 -1.6947
 4182SOL    HW224006   2.287   0.975   8.084  1.4969  0.0967 -1.3564
 4183SOL     OW24007   4.474   1.724   8.444  0.3005 -0.3437  0.3509
 4183SOL    HW124008   4.504   1.642   8.404 -0.4256  0.6024 -2.1493
 4183SOL    HW224009   4.411   1.761   8.383  0.1298 -0.2910  0.5580
 4184SOL     OW24010   3.094   2.377   3.610  0.5254  0.1162  0.2484
 4184SOL    HW124011   3.032   2.355   3.679  1.0771 -0.9670  0.4042
 4184SOL    HW224012   3.092   2.301   3.552 -0.0745 -0.1147  0.5784
 4185SOL     OW24013   2.024   4.318   5.257 -0.0778 -0.3046  0.0631
 4185SOL    HW124014   1.937   4.358   5.260 -0.2035 -0.5885  0.2207
 4185SOL    HW224015   1.995   4.234   5.220 -1.1493 -0.4147  1.1431
 4186SOL     OW24016   0.854   2.487   2.485  0.2655 -0.4022  1.1573
 4186SOL    HW124017   0.820   2.565   2.443  3.2560 -0.3380 -1.1712
 4186SOL    HW224018   0.830   2.413   2.429 -0.2211  0.1233  0.6795
 4187SOL     OW24019   4.232   4.231   8.851  0.0697  0.1429  0.7511
 4187SOL    HW124020   4.277   4.195   8.927  0.3785 -0.4521  0.2821
 4187SOL    HW224021   4.214   4.323   8.868 -3.5225 -0.7306  1.6566
 4188SOL     OW24022   1.675   0.397   6.706  0.8391  0.8962  0.1956
 4188SOL    HW124023   1.754   0.382   6.759  0.0707  1.3266  1.4627
 4188SOL    HW224024   1.605   0.346   6.748  1.2951  2.1120  2.3973
 4189SOL     OW24025   4.632   4.508   6.115  0.3454  0.1606  0.1920
 4189SOL    HW124026   4.660   4.517   6.206 -0.6717 -0.0677  0.5253
 4189SOL    HW224027   4.538   4.514   6.131  0.0803  1.0861 -1.7049
 4190SOL     OW24028   2.775   3.316   3.186  0.2947 -0.0456 -0.3527
 4190SOL    HW124029   2.785   3.338   3.094 -1.8220 -0.3159 -0.6534
 4190SOL    HW224030   2.814   3.394   3.225 -0.2466 -0.2142  0.5524
 4191SOL     OW24031   2.280   1.314   2.087  0.3087  0.4305 -0.0725
 4191SOL    HW124032   2.358   1.362   2.061  2.2107 -1.0794  2.9473
 4191SOL    HW224033   2.307   1.223   2.073 -0.7976  0.0988 -0.1178
 4192SOL     OW24034   3.660   2.130   1.970  0.3595  0.6101 -0.4465
 4192SOL    HW124035   3.707   2.139   2.054 -2.5312 -0.8322  1.3426
 4192SOL    HW224036   3.703   2.191   1.910 -0.3318  2.3885  0.8410
 4193SOL     OW24037   1.357   4.298   6.895 -0.6111  0.1249  1.0202
 4193SOL    HW124038   1.392   4.233   6.956 -1.1160  0.5357  1.7453
 4193SOL    HW224039   1.280   4.253   6.860  1.1989 -2.9811  1.0169
 4194SOL     OW24040   3.565   0.819  11.018 -0.2009 -0.2219  0.0865
 4194SOL    HW124041   3.581   0.727  10.994 -0.8884 -1.2961  3.7704
 4194SOL    HW224042   3.508   0.854  10.950  1.2397  1.0831 -0.4296
 4195SOL     OW24043   1.368   3.466   4.196 -0.4919  0.6617  0.2394
 4195SOL    HW124044   1.351   3.481   4.289 -1.2108  3.9163 -0.4068
 4195SOL    HW224045   1.436   3.531   4.176  0.7295 -0.7235 -0.0977
 4196SOL     OW24046   2.016   0.392   8.051 -0.1327 -0.0022  0.0848
 4196SOL    HW124047   2.105   0.382   8.085 -0.9887 -1.3395  1.9102
 4196SOL    HW224048   2.009   0.297   8.051 -3.1351  0.2129  3.3850
 4197SOL     OW24049   0.166   4.331  12.060  0.1541 -0.4651  0.0267
 4197SOL    HW124050   0.128   4.413  12.091  0.4579 -1.0764  1.9769
 4197SOL    HW224051   0.161   4.330  11.964  0.3735 -0.2668  0.0146
 4198SOL     OW24052   1.033   1.331  11.169  0.3652 -0.0822 -0.0431
 4198SOL    HW124053   1.082   1.412  11.151 -1.7976  1.5381  1.4065
 4198SOL    HW224054   0.974   1.320  11.095  2.7268  2.4224 -2.3213
 4199SOL     OW24055   4.168   4.587   9.111  1.1272 -0.0069  0.4367
 4199SOL    HW124056   4.248   4.604   9.161  1.9152 -0.5789 -0.6422
 4199SOL    HW224057   4.117   4.533   9.171  1.0071  0.5723  0.8617
 4200SOL     OW24058   2.602   2.545   1.082 -0.4048 -0.2030 -0.2976
 4200SOL    HW124059   2.639   2.458   1.091 -1.1289 -0.5894 -1.0126
 4200SOL    HW224060   2.644   2.581   1.003 -1.0173 -0.4233 -0.7203
 4201SOL     OW24061   3.790   2.331   3.695 -0.2108  0.3417 -0.1057
 4201SOL    HW124062   3.795   2.260   3.631 -0.8063  0.5644 -0.3935
 4201SOL    HW224063   3.740   2.402   3.655  0.4481  1.4769  1.0528
 4202SOL     OW24064   1.797   1.984   7.866 -0.0453  0.4119  0.5023
 4202SOL    HW124065   1.770   2.009   7.778 -0.9394  1.7095  1.1451
 4202SOL    HW224066   1.841   1.902   7.842 -2.1495 -0.3787 -0.5777
 4203SOL     OW24067   3.945   1.698  15.152  0.2419 -0.1058 -0.3349
 4203SOL    HW124068   3.914   1.608  15.151  1.2125 -0.4443 -0.2181
 4203SOL    HW224069   3.863   1.745  15.136 -1.0821 -2.3429 -0.0802
 4204SOL     OW24070   0.016   0.134   4.075 -0.1924  0.0132  1.5328
 4204SOL    HW124071   0.035   0.042   4.094  1.1611 -0.0267 -0.0127
 4204SOL    HW224072   0.080   0.175   4.133  0.3871  0.8381  0.2932
 4205SOL     OW24073   0.876   3.107   6.052  0.0352  0.2436 -0.5881
 4205SOL    HW124074   0.856   3.023   6.012  3.5164 -0.6911 -0.4211
 4205SOL    HW224075   0.793   3.154   6.061 -0.7074 -1.1980  0.0753
 4206SOL     OW24076   2.009   2.636   8.122 -0.2955 -0.1146  0.1014
 4206SOL    HW124077   2.014   2.651   8.216 -0.3931  0.9589 -0.0623
 4206SOL    HW224078   1.918   2.662   8.110 -0.1008 -0.3951 -2.0450
 4207SOL     OW24079   2.523   3.306   2.693  0.3151 -0.3376 -0.0216
 4207SOL    HW124080   2.565   3.288   2.609  1.6189 -0.3903  0.6540
 4207SOL    HW224081   2.598   3.319   2.750  0.7066 -2.1582 -0.1230
 4208SOL     OW24082   4.481   4.090   6.905 -0.0475 -0.1461 -0.2027
 4208SOL    HW124083   4.520   4.165   6.949 -1.0275  1.2695 -1.7425
 4208SOL    HW224084   4.398   4.132   6.885 -0.1411  0.1773  0.8666
 4209SOL     OW24085   4.292   0.666  11.039  0.1508  0.2236  0.1518
 4209SOL    HW124086   4.226   0.731  11.062  0.5367  0.4992  0.4854
 4209SOL    HW224087   4.364   0.710  11.085  1.1234  0.8056 -1.9266
 4210SOL     OW24088   4.191   2.143   4.065 -0.0278  0.1727  0.0900
 4210SOL    HW124089   4.285   2.142   4.046 -0.2899  1.2789 -1.2644
 4210SOL    HW224090   4.160   2.209   4.003  0.9700 -0.1731 -0.7865
 4211SOL     OW24091   2.514   3.925   9.003 -0.6716  0.0133 -0.4206
 4211SOL    HW124092   2.452   3.995   9.022  0.7156  1.4742 -1.3970
 4211SOL    HW224093   2.478   3.894   8.920 -0.3839  1.1438 -0.9621
 4212SOL     OW24094   0.939   1.960   8.221  0.2165  0.1715 -0.4162
 4212SOL    HW124095   0.966   1.991   8.307 -0.7426 -0.5386  0.1451
 4212SOL    HW224096   0.938   1.866   8.239 -1.6507  0.3578  0.4828
 4213SOL     OW24097   1.193   0.022   5.644  0.0055 -0.0676 -0.2867
 4213SOL    HW124098   1.117   0.016   5.587  0.4311 -1.4454 -0.7094
 4213SOL    HW224099   1.173   4.671   5.702 -0.9723  0.7515  0.4076
 4214SOL     OW24100   3.972   4.423   6.263 -0.1531 -0.1210  0.0573
 4214SOL    HW124101   4.029   4.354   6.296 -1.1586 -0.1833  1.6456
 4214SOL    HW224102   3.980   4.402   6.170 -0.3452  3.9253 -0.8753
 4215SOL     OW24103   4.585   1.788   4.207  0.5112 -0.3533  0.1043
 4215SOL    HW124104   4.537   1.798   4.125 -2.0134  0.8654  1.7139
 4215SOL    HW224105   4.669   1.807   4.167 -0.0847  1.6342 -0.2277
 4216SOL     OW24106   0.523   2.005   2.038  0.0699  0.1006  0.1080
 4216SOL    HW124107   0.460   2.074   2.058  2.3757  2.1616  0.3081
 4216SOL    HW224108   0.522   2.015   1.942  0.6755  1.2690  0.2216
 4217SOL     OW24109   0.869   0.572   3.188 -0.0691  0.0054  0.0117
 4217SOL    HW124110   0.874   0.495   3.245 -0.9217  0.9294  1.3615
 4217SOL    HW224111   0.780   0.601   3.210 -0.0185 -0.6435  1.0814
 4218SOL     OW24112   3.488   1.122   4.322  0.4503  0.4860 -0.1631
 4218SOL    HW124113   3.526   1.144   4.407  2.0327 -0.3858 -0.6423
 4218SOL    HW224114   3.400   1.104   4.355  0.2361 -1.3590 -1.7104
 4219SOL     OW24115   4.408   3.921   9.485 -0.1869  0.2199  0.1849
 4219SOL    HW124116   4.392   3.860   9.558  3.4613  1.8338  2.3424
 4219SOL    HW224117   4.501   3.935   9.502  0.2663 -2.8678  0.1850
 4220SOL     OW24118   1.222   0.350   3.341 -0.0988  0.1416  0.3925
 4220SOL    HW124119   1.224   0.298   3.422  1.4205 -2.1712 -1.1404
 4220SOL    HW224120   1.312   0.340   3.311  0.9919  0.5521  3.4697
 4221SOL     OW24121   0.868   3.913   0.496 -0.2876  0.0343  0.2890
 4221SOL    HW124122   0.936   3.952   0.440 -1.6812  1.6890 -0.2523
 4221SOL    HW224123   0.828   3.988   0.539  0.4700 -0.7280  2.3016
 4222SOL     OW24124   3.413   3.677  10.709  0.2624  0.5590 -0.4041
 4222SOL    HW124125   3.357   3.754  10.696  0.2692  0.7127  0.4719
 4222SOL    HW224126   3.380   3.656  10.796  1.7414  0.4757  0.1408
 4223SOL     OW24127   2.465   1.789   4.172 -0.2284  0.5546 -0.2377
 4223SOL    HW124128   2.437   1.700   4.149  0.7178  0.4787 -1.0682
 4223SOL    HW224129   2.467   1.827   4.084  0.1731 -0.1871 -0.5443
 4224SOL     OW24130   4.067   3.722  13.686  0.0892 -0.4696  0.6160
 4224SOL    HW124131   4.026   3.714  13.601  1.0783  2.3886 -0.1338
 4224SOL    HW224132   4.064   3.816  13.704  4.0854 -0.2010  0.0236
 4225SOL     OW24133   2.715   2.435  12.904 -0.1608 -0.5096 -0.4615
 4225SOL    HW124134   2.652   2.364  12.913  1.3216 -1.8502 -0.7652
 4225SOL    HW224135   2.787   2.398  12.852 -0.1873  1.9506 -2.2710
 4226SOL     OW24136   3.414   0.107  10.346 -0.3889  0.3971 -0.5137
 4226SOL    HW124137   3.323   0.137  10.338 -0.8327 -0.7492  0.2087
 4226SOL    HW224138   3.437   0.083  10.257  0.9138 -1.9867  0.4419
 4227SOL     OW24139   2.164   0.182  10.703 -0.9976 -0.5529  0.0527
 4227SOL    HW124140   2.104   0.126  10.653  1.2998 -0.9423 -2.2802
 4227SOL    HW224141   2.153   0.264  10.654 -2.4077  0.4082  1.9801
 4228SOL     OW24142   4.474   0.132   4.588  0.0315 -0.6594  0.0838
 4228SOL    HW124143   4.504   0.163   4.503  2.2242 -0.5565  0.9113
 4228SOL    HW224144   4.548   0.079   4.618  0.0568  0.4137  1.9343
 4229SOL     OW24145   4.664   0.423   4.591  0.5096 -0.6782 -0.0867
 4229SOL    HW124146   4.647   0.465   4.507  2.1363  0.7924  0.3138
 4229SOL    HW224147   4.624   0.341   4.562 -1.0171 -0.8180  2.4000
 4230SOL     OW24148   3.170   2.770   9.508 -0.8117 -0.2420  0.3960
 4230SOL    HW124149   3.125   2.851   9.485  1.2193  0.3727 -1.3218
 4230SOL    HW224150   3.197   2.745   9.420 -0.5311 -0.5341  0.5637
 4231SOL     OW24151   4.289   1.445   3.389  0.2836  1.0482  0.5014
 4231SOL    HW124152   4.361   1.437   3.326 -0.0879 -1.1253  0.3497
 4231SOL    HW224153   4.223   1.408   3.331  1.0184  2.1259 -1.0454
 4232SOL     OW24154   2.141   1.534  11.630 -0.0412  0.1300  0.4246
 4232SOL    HW124155   2.127   1.530  11.725  1.8461 -1.3979  0.6360
 4232SOL    HW224156   2.100   1.453  11.599 -1.1096  1.6585 -2.0723
 4233SOL     OW24157   2.678   4.552   8.907  0.0488  0.0438  0.0834
 4233SOL    HW124158   2.648   4.640   8.885 -0.0226 -0.3881 -1.5603
 4233SOL    HW224159   2.661   4.500   8.828 -1.0564  2.0658 -0.9960
 4234SOL     OW24160   1.590   4.648   4.793  0.1611  0.5055 -0.5097
 4234SOL    HW124161   1.589   4.620   4.702 -0.7735 -0.1429 -0.3001
 4234SOL    HW224162   1.663   4.595   4.827 -3.0601 -2.1918  2.1963
 4235SOL     OW24163   0.962   1.783   2.083 -0.2775  0.2859 -0.7558
 4235SOL    HW124164   0.885   1.830   2.114  0.1338 -0.5485  1.5241
 4235SOL    HW224165   1.010   1.794   2.165  1.1797 -4.8489 -0.9409
 4236SOL     OW24166   0.965   3.075   7.171 -0.1845  0.3953 -0.1132
 4236SOL    HW124167   0.877   3.075   7.209 -0.5432 -0.9295 -0.9794
 4236SOL    HW224168   0.941   3.127   7.095 -2.2662 -0.2333  0.1345
 4237SOL     OW24169   3.949   3.246   9.060 -0.3309  0.3717  0.2183
 4237SOL    HW124170   3.963   3.283   9.147 -1.1071  0.5584  0.2585
 4237SOL    HW224171   3.984   3.326   9.019 -1.9341  0.6900 -0.4989
 4238SOL     OW24172   0.527   2.292   6.067 -0.0950  0.1007 -0.3273
 4238SOL    HW124173   0.596   2.261   6.125 -0.9010  0.3754  0.7669
 4238SOL    HW224174   0.445   2.286   6.116  0.0610  1.6706  0.1403
 4239SOL     OW24175   3.169   4.021   6.376 -0.2327 -0.3473 -0.1791
 4239SOL    HW124176   3.180   4.112   6.348  1.6769  0.1783  2.2501
 4239SOL    HW224177   3.242   3.992   6.321  0.3137 -0.6409  0.7107
 4240SOL     OW24178   1.688   2.899   3.306 -0.2498 -0.3712  0.1172
 4240SOL    HW124179   1.614   2.841   3.288  0.8506 -1.4529 -0.9483
 4240SOL    HW224180   1.669   2.972   3.247 -0.6390 -0.3745  0.2372
 4241SOL     OW24181   2.723   0.544   5.292 -0.7013 -0.1305 -0.3936
 4241SOL    HW124182   2.652   0.577   5.237  0.3887 -0.3625 -1.9276
 4241SOL    HW224183   2.716   0.453   5.264  0.4587 -0.8118  1.6034
 4242SOL     OW24184   3.389   1.577   5.959 -0.2553  0.1110 -0.5610
 4242SOL    HW124185   3.308   1.580   5.908 -0.5930 -0.4932 -0.0662
 4242SOL    HW224186   3.442   1.626   5.897 -0.8018  0.2653 -0.9056
 4243SOL     OW24187   0.479   3.389   1.734 -0.0889  0.9626  0.3647
 4243SOL    HW124188   0.448   3.350   1.816 -0.3684 -0.4127 -0.3912
 4243SOL    HW224189   0.492   3.478   1.767  2.0335  0.3682  1.1555
 4244SOL     OW24190   2.000   3.792   8.360  0.1052  0.1258 -0.2152
 4244SOL    HW124191   2.050   3.844   8.297 -0.2833 -0.2287 -0.8164
 4244SOL    HW224192   1.916   3.839   8.353 -0.0429 -0.1889 -0.5634
 4245SOL     OW24193   3.571   4.126  16.308  0.6959 -0.5850 -0.0012
 4245SOL    HW124194   3.663   4.105  16.291  1.0433 -0.5525  1.8882
 4245SOL    HW224195   3.534   4.066  16.244 -2.3040  0.4924  0.7069
 4246SOL     OW24196   0.968   4.647  11.345 -0.5021 -0.1435 -0.2296
 4246SOL    HW124197   1.055   4.687  11.344 -0.2449 -0.7017  0.2173
 4246SOL    HW224198   0.971   4.580  11.276  0.1734 -1.9762  1.5696
 4247SOL     OW24199   1.951   1.847  12.623  0.7588  0.1048 -0.0947
 4247SOL    HW124200   1.980   1.834  12.533 -0.4887 -0.6375 -0.3945
 4247SOL    HW224201   1.856   1.852  12.614  0.6767 -1.4760 -0.0711
 4248SOL     OW24202   0.637   0.380   6.576 -0.8645  0.7018 -0.0389
 4248SOL    HW124203   0.621   0.349   6.487  0.3698  0.4258 -0.1642
 4248SOL    HW224204   0.587   0.461   6.563 -0.2985  1.4743  2.6896
 4249SOL     OW24205   2.633   4.412   8.645  0.2179  0.2313  0.3811
 4249SOL    HW124206   2.706   4.350   8.638  0.2951  0.4972 -0.9932
 4249SOL    HW224207   2.568   4.357   8.689 -0.1931  1.2271  1.0223
 4250SOL     OW24208   2.155   3.501   2.742  0.3911  0.6502 -0.3751
 4250SOL    HW124209   2.146   3.412   2.709  0.8095  0.4189  0.1383
 4250SOL    HW224210   2.218   3.533   2.678 -0.1232  0.6376 -0.8932
 4251SOL     OW24211   0.906   4.597   7.103  0.1773  0.0381  0.5858
 4251SOL    HW124212   0.829   4.653   7.115 -0.9043 -1.1079 -1.0914
 4251SOL    HW224213   0.923   4.601   7.009  0.8457 -3.3270  0.5849
 4252SOL     OW24214   0.293   4.555  12.227 -0.2082 -0.7356 -0.3843
 4252SOL    HW124215   0.351   4.572  12.152  1.9951  0.5768  1.6022
 4252SOL    HW224216   0.258   4.642  12.244 -0.5814 -0.8837 -0.3921
 4253SOL     OW24217   4.522   3.794  10.261  0.1481  0.6286 -0.1988
 4253SOL    HW124218   4.461   3.862  10.287  0.2824  0.2204  1.1572
 4253SOL    HW224219   4.485   3.781  10.174 -1.0710 -0.0812  0.4343
 4254SOL     OW24220   2.412   3.793   5.880  0.0623  0.2883 -0.7253
 4254SOL    HW124221   2.393   3.718   5.935  1.0766  0.1151 -0.6074
 4254SOL    HW224222   2.380   3.757   5.797  0.6364  0.8931 -1.2157
 4255SOL     OW24223   1.077   0.388   1.188 -0.1130  0.6516  0.0482
 4255SOL    HW124224   0.991   0.366   1.222 -0.5772  1.0680 -0.8713
 4255SOL    HW224225   1.079   0.483   1.201 -0.2339  0.7061 -0.3509
 4256SOL     OW24226   0.082   4.672   1.354 -0.0065  0.5364  0.4599
 4256SOL    HW124227   4.710   4.666   1.352  0.1083 -1.6327  0.9540
 4256SOL    HW224228   0.099   0.016   1.419 -1.6434  1.5878 -0.2025
 4257SOL     OW24229   1.459   3.911   1.694  0.2886 -0.2691 -0.5974
 4257SOL    HW124230   1.501   3.873   1.617 -0.1655 -0.8878 -0.5354
 4257SOL    HW224231   1.401   3.970   1.645 -0.1222  1.7052  2.2765
 4258SOL     OW24232   3.223   3.646   4.310  0.4584 -0.7853  0.3914
 4258SOL    HW124233   3.246   3.607   4.225 -0.0398 -1.3671  0.5268
 4258SOL    HW224234   3.287   3.718   4.309 -1.0570  0.5485  0.3195
 4259SOL     OW24235   1.557   0.171  13.693  0.2182  0.1137  0.3534
 4259SOL    HW124236   1.523   0.255  13.664 -1.3903 -1.7057 -2.9932
 4259SOL    HW224237   1.639   0.172  13.643 -0.3708 -0.4336 -0.6135
 4260SOL     OW24238   0.056   0.608  17.410 -0.4252 -0.1514  0.6594
 4260SOL    HW124239   0.075   0.573  17.497  2.1214  0.4522  0.3620
 4260SOL    HW224240   4.698   0.654  17.430  0.7588  2.0095  0.4576
 4261SOL     OW24241   2.166   1.771   2.165  0.3384 -0.2636  0.8133
 4261SOL    HW124242   2.088   1.812   2.127  0.0339 -1.9583 -0.3656
 4261SOL    HW224243   2.232   1.800   2.102  0.5515  0.0446  1.1767
 4262SOL     OW24244   2.848   1.438   6.494 -0.1399 -0.1518 -0.0520
 4262SOL    HW124245   2.876   1.493   6.421 -1.0601  1.1588  0.5792
 4262SOL    HW224246   2.805   1.360   6.458 -0.4084  0.5084 -1.1469
 4263SOL     OW24247   1.328   4.566   5.217  0.0477  0.2425  0.2638
 4263SOL    HW124248   1.376   4.641   5.184 -3.3756  1.4776 -1.8815
 4263SOL    HW224249   1.243   4.595   5.185  0.9149  0.5665 -1.7250
 4264SOL     OW24250   1.946   0.719   5.952 -0.2616  0.4115  0.6659
 4264SOL    HW124251   2.031   0.696   5.988 -0.0836  1.4157  0.8960
 4264SOL    HW224252   1.910   0.637   5.917  0.2478  0.2747  0.4726
 4265SOL     OW24253   3.555   2.772  14.021  0.4948 -0.0530  0.0185
 4265SOL    HW124254   3.620   2.842  14.013  1.0961 -0.7842 -1.4515
 4265SOL    HW224255   3.484   2.813  13.972  1.1081  0.1341 -0.7160
 4266SOL     OW24256   2.707   4.280   1.695 -0.1754  0.0160  0.2285
 4266SOL    HW124257   2.720   4.189   1.721 -2.4522 -0.9705 -2.0810
 4266SOL    HW224258   2.611   4.284   1.697 -0.1344  1.2726 -0.4857
 4267SOL     OW24259   0.998   1.182   4.395 -0.1224 -0.1494  0.3618
 4267SOL    HW124260   1.068   1.223   4.344  1.5958  0.1759  3.0115
 4267SOL    HW224261   0.983   1.250   4.460  3.1664 -1.0639  2.1001
 4268SOL     OW24262   2.684   1.221   4.568 -0.2852  0.3100  0.6061
 4268SOL    HW124263   2.632   1.164   4.624 -1.2758 -0.2628 -0.9028
 4268SOL    HW224264   2.765   1.225   4.620  0.2829 -2.2001 -0.0722
 4269SOL     OW24265   3.672   0.737   4.271 -0.0056 -0.0415 -0.0613
 4269SOL    HW124266   3.577   0.729   4.262  0.1278 -2.0783  0.3779
 4269SOL    HW224267   3.694   0.777   4.187  3.7616  1.1132  1.4892
 4270SOL     OW24268   2.096   2.626   9.187 -0.4710 -0.0398 -0.3422
 4270SOL    HW124269   2.053   2.704   9.152  0.9339  1.5724  1.5419
 4270SOL    HW224270   2.029   2.589   9.245 -0.5767  2.1658  0.9069
 4271SOL     OW24271   1.975   0.740   0.882  0.2371  0.6777  0.0574
 4271SOL    HW124272   1.977   0.646   0.899 -0.1333  1.3208  3.6643
 4271SOL    HW224273   2.055   0.744   0.829 -0.5354 -1.0040 -1.2193
 4272SOL     OW24274   2.725   1.595   7.963  0.1273 -0.1858 -0.0298
 4272SOL    HW124275   2.770   1.665   8.010 -1.2152  0.2089  0.6755
 4272SOL    HW224276   2.797   1.560   7.910 -0.3239  0.0401 -0.7996
 4273SOL     OW24277   1.461   4.215   2.812  0.4979  0.1635  0.0828
 4273SOL    HW124278   1.432   4.275   2.881 -1.8488 -2.1240  1.0651
 4273SOL    HW224279   1.487   4.136   2.860  0.9782  1.7390  2.4486
 4274SOL     OW24280   2.011   0.651   7.101  0.4115 -0.3376 -0.2905
 4274SOL    HW124281   2.100   0.686   7.094  1.0648 -1.8545  0.5261
 4274SOL    HW224282   2.002   0.591   7.027 -0.7257 -2.4600  1.5915
 4275SOL     OW24283   1.220   2.315  15.671 -0.0274 -0.3267 -0.5671
 4275SOL    HW124284   1.264   2.289  15.591 -1.6622  2.2980 -2.3062
 4275SOL    HW224285   1.288   2.298  15.736  1.7070  2.4159 -1.6738
 4276SOL     OW24286   4.105   1.292  10.508  0.1103 -0.2949 -0.5953
 4276SOL    HW124287   4.046   1.244  10.567 -0.0834 -1.2080 -1.5379
 4276SOL    HW224288   4.156   1.348  10.566 -0.3849  1.1673 -1.5824
 4277SOL     OW24289   2.798   2.867   6.837 -0.3188  0.0174 -0.3501
 4277SOL    HW124290   2.732   2.932   6.860  0.3142  0.6819 -0.3934
 4277SOL    HW224291   2.862   2.888   6.905 -2.5196 -0.6113  1.9044
 4278SOL     OW24292   0.137   0.671   7.948  0.0886 -0.6514 -0.3925
 4278SOL    HW124293   0.210   0.626   7.991  1.1609 -1.6139 -3.2520
 4278SOL    HW224294   0.123   0.745   8.007  3.0934  0.2608 -0.8241
 4279SOL     OW24295   1.966   4.483   4.563 -0.0091  0.2050  0.0427
 4279SOL    HW124296   1.943   4.573   4.542 -1.7415 -0.3516 -0.4676
 4279SOL    HW224297   1.908   4.462   4.637  2.0498  0.8756  1.8543
 4280SOL     OW24298   0.461   0.926  14.512  0.2754  0.3216 -0.1446
 4280SOL    HW124299   0.550   0.912  14.543  1.1497  2.3431 -1.7819
 4280SOL    HW224300   0.440   0.855  14.452 -1.9394 -0.3335  1.4006
 4281SOL     OW24301   4.570   0.836   2.790 -0.2783 -0.2443 -0.0943
 4281SOL    HW124302   4.506   0.889   2.742 -1.6111 -2.0201 -0.2617
 4281SOL    HW224303   4.641   0.899   2.799  0.4872 -1.0278 -0.6124
 4282SOL     OW24304   0.382   4.429   2.510 -0.7295 -0.2642 -0.1497
 4282SOL    HW124305   0.465   4.439   2.463 -0.8538 -0.4886 -0.4165
 4282SOL    HW224306   0.345   4.347   2.477 -0.3900 -0.8719  1.0226
 4283SOL     OW24307   2.136   1.892   5.418 -0.5163 -0.7518  0.2725
 4283SOL    HW124308   2.043   1.888   5.397 -0.3011  1.0410 -0.9519
 4283SOL    HW224309   2.177   1.909   5.333 -1.8073 -2.6903 -0.7367
 4284SOL     OW24310   0.210   1.553   2.400 -0.4389 -0.3225  0.0966
 4284SOL    HW124311   0.265   1.623   2.365 -2.3532  0.4282 -1.4730
 4284SOL    HW224312   0.234   1.547   2.492 -3.0374  0.3873  0.8317
 4285SOL     OW24313   2.659   3.986   8.620  0.1842  0.3176  0.0567
 4285SOL    HW124314   2.741   3.939   8.604  1.2804  2.1408  0.3974
 4285SOL    HW224315   2.629   3.999   8.531  2.3646  2.2709 -0.3746
 4286SOL     OW24316   3.011   4.619  13.271  0.6041 -0.3027 -0.4221
 4286SOL    HW124317   2.945   4.688  13.284  0.0390 -0.4855 -2.3148
 4286SOL    HW224318   3.087   4.672  13.247  0.1343  0.1370 -0.9494
 4287SOL     OW24319   3.489   3.307  11.808  0.1865 -0.0117  0.0985
 4287SOL    HW124320   3.397   3.333  11.816  0.6108  1.5783 -0.2327
 4287SOL    HW224321   3.529   3.391  11.832 -0.4230  0.3269 -0.0486
 4288SOL     OW24322   1.471   3.163  15.640  0.4714  0.0072  1.0040
 4288SOL    HW124323   1.397   3.104  15.629  0.0011  0.3301  2.4421
 4288SOL    HW224324   1.485   3.193  15.550  0.0358 -1.2416  0.5255
 4289SOL     OW24325   4.491   3.250   0.483  0.2730  0.0367 -0.2030
 4289SOL    HW124326   4.502   3.345   0.479 -0.5783  0.1170 -0.8137
 4289SOL    HW224327   4.502   3.226   0.391  0.0585 -1.6622  0.2311
 4290SOL     OW24328   3.451   2.440   7.037  0.3999 -0.2728 -0.2948
 4290SOL    HW124329   3.417   2.508   6.978  0.5979 -0.1312 -0.2456
 4290SOL    HW224330   3.441   2.360   6.986 -1.1697 -1.5304  1.9907
 4291SOL     OW24331   3.184   3.119   6.093 -0.2893  0.1465  0.3434
 4291SOL    HW124332   3.127   3.084   6.161 -0.8406  0.2152 -0.0886
 4291SOL    HW224333   3.121   3.143   6.025 -2.3394 -0.7897  1.9512
 4292SOL     OW24334   3.959   1.202   5.651 -0.0756 -0.1049 -0.1303
 4292SOL    HW124335   3.973   1.231   5.741 -0.6956 -0.8566  0.2174
 4292SOL    HW224336   3.867   1.228   5.649  0.8112  3.0419 -0.7104
 4293SOL     OW24337   2.293   4.304   3.279 -0.6025  0.7810  0.0454
 4293SOL    HW124338   2.332   4.390   3.264  1.6667 -0.1741  0.4256
 4293SOL    HW224339   2.216   4.317   3.334 -2.1669 -0.6813 -1.8063
 4294SOL     OW24340   0.312   4.206   7.790 -0.3791 -0.0871 -0.6062
 4294SOL    HW124341   0.295   4.288   7.744 -1.1840 -0.1413 -0.4095
 4294SOL    HW224342   0.234   4.157   7.763 -0.2877  0.2834 -1.5239
 4295SOL     OW24343   0.368   1.011  10.672  0.7473  0.3957 -0.3117
 4295SOL    HW124344   0.378   0.981  10.582  0.0197 -1.0535  0.0888
 4295SOL    HW224345   0.405   0.930  10.707 -0.2349  0.1174  0.0820
 4296SOL     OW24346   1.615   2.977   6.347  0.1179  0.0039  0.0858
 4296SOL    HW124347   1.652   3.020   6.270  0.6317 -0.9633 -0.1960
 4296SOL    HW224348   1.654   2.892   6.328  3.2028  1.3364  0.5564
 4297SOL     OW24349   4.426   1.131   4.415  0.3223  0.2136 -0.3511
 4297SOL    HW124350   4.470   1.207   4.377  0.4202 -0.7218 -2.1078
 4297SOL    HW224351   4.337   1.164   4.418 -0.6536 -2.2641 -2.1135
 4298SOL     OW24352   2.891   2.125   7.139 -0.1795  0.0303 -0.0110
 4298SOL    HW124353   2.828   2.169   7.081  0.2242 -0.0553 -0.5139
 4298SOL    HW224354   2.970   2.149   7.091 -0.6963 -0.8300 -1.2808
 4299SOL     OW24355   4.051   0.463   8.820  0.8743 -0.0550 -0.2681
 4299SOL    HW124356   3.966   0.467   8.863  1.1026  0.6379  0.1130
 4299SOL    HW224357   4.072   0.371   8.836 -0.2936 -0.5509 -1.5864
 4300SOL     OW24358   2.141   1.781   6.971  0.3139 -0.2735 -0.2301
 4300SOL    HW124359   2.197   1.719   7.018  0.2987 -0.1733 -0.0794
 4300SOL    HW224360   2.153   1.753   6.881  2.9322 -0.7362  0.2501
 4301SOL     OW24361   4.448   2.977   7.471 -0.2474  0.2227  0.0733
 4301SOL    HW124362   4.455   2.882   7.458  5.1530  0.7639 -0.9537
 4301SOL    HW224363   4.436   2.970   7.566  0.2603 -1.4728  0.0252
 4302SOL     OW24364   4.389   1.693   9.698  0.0355 -0.2301 -0.1785
 4302SOL    HW124365   4.333   1.615   9.693  0.9923 -0.9306  0.0375
 4302SOL    HW224366   4.477   1.655   9.698 -0.0167 -0.3393  1.4551
 4303SOL     OW24367   3.065   4.341  11.880 -0.0142 -0.5587  0.0301
 4303SOL    HW124368   3.003   4.292  11.933 -0.1980  0.4446  0.7392
 4303SOL    HW224369   3.018   4.342  11.797  1.4929 -2.8227 -0.8698
 4304SOL     OW24370   4.704   0.939   3.042 -0.3793  0.0620 -0.7731
 4304SOL    HW124371   4.712   0.980   2.956 -1.9365  1.4319 -0.2576
 4304SOL    HW224372   0.008   0.848   3.027 -1.3518 -0.7047  2.0480
 4305SOL     OW24373   0.175   0.103  15.826  0.0562  0.2994 -0.3194
 4305SOL    HW124374   0.132   0.186  15.807 -1.8638 -0.6105  0.1470
 4305SOL    HW224375   0.200   0.115  15.918  1.2268  0.1985 -0.6232
 4306SOL     OW24376   1.814   1.768   4.187 -0.0294  0.5496 -0.8653
 4306SOL    HW124377   1.719   1.757   4.197 -0.1453  1.4739 -0.9758
 4306SOL    HW224378   1.835   1.783   4.279  0.5591 -0.8207 -0.7769
 4307SOL     OW24379   2.876   2.446   6.360  0.5808 -0.1467  0.1735
 4307SOL    HW124380   2.886   2.358   6.396  2.3959  0.5013  1.2572
 4307SOL    HW224381   2.885   2.492   6.444  0.5617  1.2603 -0.5991
 4308SOL     OW24382   0.243   4.448   1.303 -0.6382 -0.1697 -0.3961
 4308SOL    HW124383   0.186   4.421   1.231 -0.2864  0.3227 -0.8595
 4308SOL    HW224384   0.187   4.518   1.338  1.3692  1.4330 -0.3340
 4309SOL     OW24385   4.194   1.659   2.939  0.0150 -0.6053  0.0244
 4309SOL    HW124386   4.149   1.699   3.013  0.2747 -0.2233 -0.0265
 4309SOL    HW224387   4.120   1.619   2.894  1.9614 -4.2365  0.0472
 4310SOL     OW24388   3.661   2.717  10.593  0.0842 -0.2706  0.0149
 4310SOL    HW124389   3.604   2.692  10.666  0.6937  0.0355  0.5997
 4310SOL    HW224390   3.693   2.630  10.570 -1.1200 -0.5998 -0.4255
 4311SOL     OW24391   2.087   4.271   3.051 -0.5333  0.2371  0.3415
 4311SOL    HW124392   2.146   4.298   3.122  0.1524  1.4579 -0.7104
 4311SOL    HW224393   2.138   4.275   2.971  1.9502 -0.7502  1.8553
 4312SOL     OW24394   1.963   0.710   6.546 -0.0103 -0.1272 -0.1178
 4312SOL    HW124395   1.983   0.701   6.452 -0.8764  0.5553 -0.3658
 4312SOL    HW224396   1.919   0.795   6.549  1.4432  0.5862  1.0401
 4313SOL     OW24397   3.813   4.267   9.636 -0.1099 -0.7083  0.4341
 4313SOL    HW124398   3.731   4.235   9.674 -1.1781  0.2184 -1.1172
 4313SOL    HW224399   3.863   4.189   9.612 -0.5015 -0.3728 -1.4196
 4314SOL     OW24400   3.376   4.305   8.779  0.4204  0.5254  0.3545
 4314SOL    HW124401   3.350   4.369   8.714 -0.4952 -0.9248 -0.7178
 4314SOL    HW224402   3.440   4.360   8.824  1.1924 -0.0911  0.0122
 4315SOL     OW24403   3.331   1.398   1.402 -0.3213 -0.4271 -0.0198
 4315SOL    HW124404   3.390   1.379   1.475  1.2272 -1.6086 -1.5890
 4315SOL    HW224405   3.321   1.489   1.430  0.6854 -1.0103  2.2649
 4316SOL     OW24406   0.566   0.329   4.101 -0.1288  0.2566 -0.2110
 4316SOL    HW124407   0.599   0.240   4.100 -0.0375  0.2320  3.6496
 4316SOL    HW224408   0.618   0.369   4.031 -0.0774  2.3270  0.9839
 4317SOL     OW24409   1.725   3.776   3.228  0.2860  0.2802 -0.1955
 4317SOL    HW124410   1.704   3.710   3.163  1.9546 -1.9476  1.5466
 4317SOL    HW224411   1.820   3.793   3.225  0.3081  0.5913  2.1928
 4318SOL     OW24412   2.379   0.623   9.251  0.9119  0.3367  0.0230
 4318SOL    HW124413   2.415   0.538   9.275 -1.7033 -0.3728  1.4155
 4318SOL    HW224414   2.452   0.661   9.202  1.6204  0.5119  1.2260
 4319SOL     OW24415   3.974   1.349   1.109 -0.4136 -0.2767 -0.1199
 4319SOL    HW124416   3.994   1.308   1.025 -1.7082  0.0610 -0.5892
 4319SOL    HW224417   4.051   1.404   1.116 -1.1821  0.8554 -0.5527
 4320SOL     OW24418   4.225   3.041  10.147  0.2680 -0.5359 -0.1481
 4320SOL    HW124419   4.154   2.978  10.131  0.7715 -1.1501  0.0362
 4320SOL    HW224420   4.174   3.093  10.210  1.8060  0.3592  0.3378
 4321SOL     OW24421   2.963   3.385   8.369 -0.5520 -0.0284  0.0005
 4321SOL    HW124422   2.980   3.474   8.401  0.7529  0.6153 -2.4930
 4321SOL    HW224423   3.050   3.346   8.363  0.2283  1.4890  1.3571
 4322SOL     OW24424   1.020   2.518   9.029  0.5021  0.1602 -0.0164
 4322SOL    HW124425   1.084   2.577   8.990  0.2190 -0.1199 -0.8962
 4322SOL    HW224426   0.940   2.559   8.994  0.7914 -0.7363 -1.6782
 4323SOL     OW24427   1.010   0.784  10.483 -0.3536 -0.4225 -0.0463
 4323SOL    HW124428   0.974   0.857  10.532  0.7851  1.6726 -2.3463
 4323SOL    HW224429   0.973   0.705  10.522 -1.3147  0.3295  0.5570
 4324SOL     OW24430   0.609   3.206  17.217  0.4963 -0.4192  0.1921
 4324SOL    HW124431   0.662   3.273  17.260  0.8408  0.4535 -1.6128
 4324SOL    HW224432   0.658   3.133  17.255  1.1833 -0.1008 -0.1027
 4325SOL     OW24433   3.663   2.322   4.436 -0.4677  0.0653  0.1591
 4325SOL    HW124434   3.662   2.228   4.414  0.9847 -0.1017  0.8097
 4325SOL    HW224435   3.703   2.313   4.522  0.6440  0.8188 -0.2797
 4326SOL     OW24436   2.605   4.316   2.237 -0.4568  0.2884 -0.3028
 4326SOL    HW124437   2.667   4.258   2.281 -0.5051  0.3843 -0.1068
 4326SOL    HW224438   2.660   4.393   2.223 -1.1767  1.2963  2.2854
 4327SOL     OW24439   0.677   3.561   6.914 -0.0241 -0.6215  0.5490
 4327SOL    HW124440   0.686   3.562   6.818 -3.1532 -0.4477  0.2633
 4327SOL    HW224441   0.593   3.518   6.924  0.2340 -1.1589  0.4197
 4328SOL     OW24442   0.165   0.860   2.574  0.1851 -0.4698 -0.7337
 4328SOL    HW124443   0.113   0.782   2.557 -0.1430 -0.0257 -1.7557
 4328SOL    HW224444   0.253   0.823   2.562  0.7011  0.9718 -1.3551
 4329SOL     OW24445   1.891   1.153   6.282  0.1253  0.1862 -0.3780
 4329SOL    HW124446   1.893   1.082   6.217  1.7777  0.5710 -0.7554
 4329SOL    HW224447   1.841   1.107   6.349 -0.5496  1.9741  0.3401
 4330SOL     OW24448   1.711   4.717   7.951  0.2535 -0.5684  0.5218
 4330SOL    HW124449   1.684   4.690   8.039  0.6221  2.9007  1.6880
 4330SOL    HW224450   1.646   4.683   7.890  0.7510  0.7132 -0.7250
 4331SOL     OW24451   4.217   0.147   1.309  0.4952 -0.0746  0.0708
 4331SOL    HW124452   4.178   0.060   1.310 -1.0631  0.6307  2.7270
 4331SOL    HW224453   4.145   0.198   1.347  0.8913  1.4235 -1.1684
 4332SOL     OW24454   0.570   2.755   2.207 -0.1129  0.2675 -0.0186
 4332SOL    HW124455   0.503   2.740   2.274  0.1069 -0.7093 -0.0191
 4332SOL    HW224456   0.518   2.721   2.135 -0.8259  0.8693  0.2134
 4333SOL     OW24457   0.649   0.163   2.976  0.3592  0.6172 -0.1739
 4333SOL    HW124458   0.738   0.198   2.967  0.1908  0.1982 -3.4399
 4333SOL    HW224459   0.595   0.238   3.005 -1.2772 -1.6610  2.6977
 4334SOL     OW24460   2.525   4.562   0.743  0.3622 -0.2046  0.8473
 4334SOL    HW124461   2.482   4.595   0.663  0.8452 -1.6489 -0.0198
 4334SOL    HW224462   2.617   4.566   0.718 -0.1407 -0.9732 -1.1986
 4335SOL     OW24463   1.588   2.303   3.553 -0.1605 -0.5069 -0.1751
 4335SOL    HW124464   1.644   2.336   3.623  1.5690 -2.3910 -0.7095
 4335SOL    HW224465   1.651   2.295   3.481 -1.2278  0.7378 -1.2624
 4336SOL     OW24466   3.063   0.530   9.077  0.2101 -0.1379 -0.5173
 4336SOL    HW124467   3.065   0.614   9.031  0.5510  0.7501  1.1428
 4336SOL    HW224468   2.987   0.546   9.133  0.9558 -2.1302  1.0589
 4337SOL     OW24469   3.276   1.210   8.267 -0.0219  0.5782 -0.4165
 4337SOL    HW124470   3.181   1.219   8.257  0.0059  0.7945 -0.4687
 4337SOL    HW224471   3.281   1.173   8.355 -0.0202 -0.2514 -0.7668
 4338SOL     OW24472   1.577   0.095   8.408  0.2583 -0.6632  0.6417
 4338SOL    HW124473   1.488   0.106   8.443 -0.1093  1.9254 -1.0832
 4338SOL    HW224474   1.594   0.182   8.372 -2.1265  0.1204  1.4072
 4339SOL     OW24475   1.451   0.550   7.362 -0.1104  0.5366 -0.1201
 4339SOL    HW124476   1.484   0.561   7.451 -0.5729  1.5428 -0.0655
 4339SOL    HW224477   1.520   0.513   7.307 -0.7558 -1.9295  0.7726
 4340SOL     OW24478   1.733   1.388  17.489 -0.2098  0.1992 -0.2014
 4340SOL    HW124479   1.823   1.398  17.519 -0.5963  0.0688  1.0182
 4340SOL    HW224480   1.738   1.398  17.394  0.6279  0.3221 -0.1444
 4341SOL     OW24481   4.521   1.219   2.214 -0.5587 -0.5336  0.3391
 4341SOL    HW124482   4.502   1.184   2.127 -2.3156  0.3861  0.3678
 4341SOL    HW224483   4.539   1.140   2.266 -0.3487 -0.1444  0.8577
 4342SOL     OW24484   1.553   0.976  13.875 -0.2766  0.6917 -0.2183
 4342SOL    HW124485   1.525   0.917  13.944  0.6097  0.2208 -0.2661
 4342SOL    HW224486   1.506   1.057  13.898  2.8216  2.6307 -0.6850
 4343SOL     OW24487   3.019   3.641   7.019 -0.2320 -0.0233  0.2316
 4343SOL    HW124488   3.010   3.730   7.052  1.1552  0.4368 -0.6298
 4343SOL    HW224489   3.105   3.618   7.056 -0.3949 -1.8971 -0.5116
 4344SOL     OW24490   2.445   0.159  11.821  0.5618  0.0447  0.4628
 4344SOL    HW124491   2.419   0.187  11.733 -1.7046 -0.0749  1.0971
 4344SOL    HW224492   2.379   0.203  11.875  0.6010  0.8223 -0.1187
 4345SOL     OW24493   0.699   0.444   1.973 -0.0748  0.0103 -0.0792
 4345SOL    HW124494   0.605   0.461   1.964 -0.1318 -1.1264 -1.6301
 4345SOL    HW224495   0.722   0.481   1.888 -0.7178  2.2681  0.7080
 4346SOL     OW24496   4.018   4.340   5.902 -0.7982  0.1630  0.0129
 4346SOL    HW124497   4.065   4.391   5.836  0.5234 -0.8819  0.1386
 4346SOL    HW224498   3.931   4.363   5.869 -1.2887  0.9164  1.7913
 4347SOL     OW24499   0.708   4.018   1.949  0.4802  0.7131  0.0083
 4347SOL    HW124500   0.669   4.035   1.864 -1.0551  0.6693  0.7006
 4347SOL    HW224501   0.668   3.934   1.972  0.7621  0.7751  0.7282
 4348SOL     OW24502   2.866   2.546   5.631  0.1303  0.3258  0.1472
 4348SOL    HW124503   2.907   2.460   5.631 -0.8732 -0.1328  3.3699
 4348SOL    HW224504   2.910   2.589   5.557 -3.5408  1.2165 -1.5206
 4349SOL     OW24505   3.822   4.262   3.571  0.3952 -0.1843  0.4213
 4349SOL    HW124506   3.846   4.333   3.630 -1.4106  0.2599  0.5955
 4349SOL    HW224507   3.737   4.293   3.542  1.0139 -1.4380 -2.7786
 4350SOL     OW24508   1.911   0.075   7.178 -0.3602  0.2402 -0.4461
 4350SOL    HW124509   1.843   0.008   7.178 -1.3475  1.2399  0.8080
 4350SOL    HW224510   1.857   0.154   7.185  0.9260  0.8613  2.6862
 4351SOL     OW24511   1.011   0.594   8.350 -0.3176 -0.0007 -0.5580
 4351SOL    HW124512   1.094   0.563   8.385 -1.2398 -2.4668 -0.5724
 4351SOL    HW224513   0.948   0.577   8.420  1.1626 -1.1920  0.4672
 4352SOL     OW24514   3.536   1.612  11.018  0.1957  0.1431 -0.0550
 4352SOL    HW124515   3.463   1.624  10.957 -0.6392 -4.2721  0.0915
 4352SOL    HW224516   3.583   1.695  11.009 -0.5036  0.5161 -0.2657
 4353SOL     OW24517   0.560   0.368   6.300  0.0212  0.1763 -0.6249
 4353SOL    HW124518   0.483   0.393   6.248 -0.2071  0.4353 -0.1638
 4353SOL    HW224519   0.619   0.441   6.282  0.2188  0.6690  1.9497
 4354SOL     OW24520   0.691   0.624   1.743 -0.5893  0.0791  0.0487
 4354SOL    HW124521   0.646   0.620   1.659  1.7648  0.6547 -1.2248
 4354SOL    HW224522   0.748   0.701   1.742 -1.2771  0.5985  0.9135
 4355SOL     OW24523   1.945   2.690   6.332  0.1728  0.4752  0.2490
 4355SOL    HW124524   1.994   2.751   6.387  1.9308 -1.8660  1.2811
 4355SOL    HW224525   1.999   2.611   6.334 -0.0032  0.3963  3.0501
 4356SOL     OW24526   0.754   4.606   8.922  0.0902  0.7729  0.5593
 4356SOL    HW124527   0.676   4.595   8.977  0.0027 -1.3087  0.0185
 4356SOL    HW224528   0.732   4.543   8.853  0.5551 -0.9624  1.9838
 4357SOL     OW24529   3.527   1.742   7.785 -0.0298 -1.3174 -0.1010
 4357SOL    HW124530   3.463   1.813   7.792  0.1879 -1.2783  1.4139
 4357SOL    HW224531   3.571   1.738   7.870  0.6696  2.1232 -0.2856
 4358SOL     OW24532   1.336   3.261  12.019 -0.1164 -0.4183  0.4155
 4358SOL    HW124533   1.358   3.173  11.988 -0.5609 -0.1027 -0.8104
 4358SOL    HW224534   1.321   3.309  11.938 -0.7368 -0.7083  0.3599
 4359SOL     OW24535   2.733   3.656  16.366 -0.5238  0.0040  0.1427
 4359SOL    HW124536   2.779   3.733  16.402  1.5023 -1.4317  0.6049
 4359SOL    HW224537   2.650   3.692  16.335 -1.5612 -2.9417 -0.4786
 4360SOL     OW24538   3.046   2.199   8.021 -0.0166 -0.2507  0.0306
 4360SOL    HW124539   3.056   2.147   7.941 -1.1232 -0.6293  0.1410
 4360SOL    HW224540   2.990   2.268   7.986 -1.1849 -0.3409  1.7227
 4361SOL     OW24541   4.153   0.370   2.488  0.0005 -0.6531 -0.3217
 4361SOL    HW124542   4.184   0.395   2.401  1.9245 -1.7343  0.0557
 4361SOL    HW224543   4.074   0.319   2.471 -0.5198 -0.9967  3.0243
 4362SOL     OW24544   4.116   2.241   1.614  0.1564  0.0954 -0.0266
 4362SOL    HW124545   4.114   2.216   1.521 -2.1184  1.2511 -0.2875
 4362SOL    HW224546   4.114   2.157   1.659  0.4158  0.6005  0.9282
 4363SOL     OW24547   0.069   3.064   1.032  0.1382 -0.0373 -0.8196
 4363SOL    HW124548   0.114   3.143   1.061 -0.9009 -0.2122  1.3096
 4363SOL    HW224549   0.143   3.007   1.010  0.6664  0.0814  0.6348
 4364SOL     OW24550   0.929   0.872   3.888 -0.2370 -0.2291  0.0318
 4364SOL    HW124551   0.918   0.901   3.798  1.4862 -0.1610 -0.1507
 4364SOL    HW224552   1.004   0.923   3.918 -0.5037 -0.4759  1.1170
 4365SOL     OW24553   2.356   3.479  12.180 -0.2533  0.3004 -0.2131
 4365SOL    HW124554   2.273   3.485  12.132 -0.8932 -1.4504  0.6770
 4365SOL    HW224555   2.396   3.559  12.146 -0.7555  0.4728 -0.4075
 4366SOL     OW24556   4.180   2.244   7.805 -0.9839  0.3206 -0.4836
 4366SOL    HW124557   4.215   2.213   7.888 -0.9831  0.6779 -0.3487
 4366SOL    HW224558   4.099   2.286   7.833 -0.0199  2.3735 -0.7197
 4367SOL     OW24559   2.511   2.381  14.900  0.3625 -0.7139  0.3116
 4367SOL    HW124560   2.540   2.472  14.907  0.5124 -0.7895  0.6654
 4367SOL    HW224561   2.415   2.375  14.900  0.3097  0.1386  0.1394
 4368SOL     OW24562   0.632   0.401   3.861 -0.6513 -0.0175  0.1925
 4368SOL    HW124563   0.717   0.439   3.881 -1.1986  1.6448 -0.6479
 4368SOL    HW224564   0.656   0.337   3.793  1.0134  0.1558  0.6191
 4369SOL     OW24565   3.764   2.464  10.553  0.7166  0.1241  0.0457
 4369SOL    HW124566   3.801   2.425  10.474 -0.5804 -1.9260  0.4627
 4369SOL    HW224567   3.839   2.463  10.613  0.0448  1.9491  0.9210
 4370SOL     OW24568   4.699   0.931   1.181  0.7055 -0.4155 -0.2088
 4370SOL    HW124569   4.646   0.985   1.240 -0.8242  0.4716 -2.4197
 4370SOL    HW224570   4.657   0.953   1.098 -1.4856 -2.2006  0.4158
 4371SOL     OW24571   4.090   4.025   2.817  0.3715  0.5939  0.1487
 4371SOL    HW124572   4.120   3.973   2.891 -1.3202 -0.2001  0.2712
 4371SOL    HW224573   4.064   4.102   2.867  1.3224  2.3987 -2.1255
 4372SOL     OW24574   3.362   0.605  10.469 -0.4646  0.2900 -0.0163
 4372SOL    HW124575   3.307   0.679  10.443  0.3999  0.1980 -2.0677
 4372SOL    HW224576   3.324   0.529  10.424  0.0531  0.4413 -0.7117
 4373SOL     OW24577   2.555   1.083   5.682 -0.2901  0.1264 -0.3485
 4373SOL    HW124578   2.482   1.139   5.709 -0.9080 -0.8594  0.0425
 4373SOL    HW224579   2.529   0.997   5.715  1.3988  0.8566  2.8654
 4374SOL     OW24580   1.227   4.095  16.976  0.2243 -0.2135  0.4104
 4374SOL    HW124581   1.289   4.023  16.992  1.3301  0.5381 -0.4911
 4374SOL    HW224582   1.180   4.062  16.899 -1.2791  0.6428  0.9536
 4375SOL     OW24583   4.161   1.664   2.182  0.2230  0.2948  0.1500
 4375SOL    HW124584   4.210   1.637   2.260  0.7904  0.0891 -0.2715
 4375SOL    HW224585   4.209   1.634   2.104  0.6476 -1.3322  1.0272
 4376SOL     OW24586   0.688   0.937  11.136 -0.1343 -0.0050  0.5009
 4376SOL    HW124587   0.742   0.932  11.057  0.5292  1.8297  0.8505
 4376SOL    HW224588   0.610   0.983  11.104 -0.6243 -2.0595 -1.3484
 4377SOL     OW24589   4.592   0.980   2.357 -0.0517 -0.3878  0.6513
 4377SOL    HW124590   4.656   0.922   2.316 -1.0656 -0.0275 -1.4389
 4377SOL    HW224591   4.641   0.999   2.438 -0.8608  1.6917  0.6408
 4378SOL     OW24592   4.712   2.394   7.187  0.3340  0.0142  0.6869
 4378SOL    HW124593   0.062   2.386   7.127 -1.8806  2.2291 -2.2973
 4378SOL    HW224594   4.699   2.303   7.214  2.5279  0.0239  1.8202
 4379SOL     OW24595   0.792   1.295   3.537  0.2267 -0.6140  0.0622
 4379SOL    HW124596   0.837   1.217   3.571 -0.2969 -0.9715 -0.0734
 4379SOL    HW224597   0.706   1.280   3.575  0.9717  0.2325  2.0733
 4380SOL     OW24598   4.367   4.618   8.597  0.2197  0.0497  0.3603
 4380SOL    HW124599   4.274   4.612   8.622  0.5956 -1.7027  1.2792
 4380SOL    HW224600   4.360   4.634   8.503  1.1402  1.6801  0.5707
 4381SOL     OW24601   1.354   2.809   1.012 -0.1781  0.0279  0.1974
 4381SOL    HW124602   1.323   2.724   1.043  1.4577 -0.2922  0.9550
 4381SOL    HW224603   1.288   2.826   0.946  1.6326  1.7027 -1.1561
 4382SOL     OW24604   0.283   2.191   7.325 -0.4981 -0.5513 -0.2034
 4382SOL    HW124605   0.279   2.264   7.386  1.4462 -1.5204  1.0689
 4382SOL    HW224606   0.264   2.235   7.242  0.3125 -1.3781 -0.8225
 4383SOL     OW24607   2.590   3.160   4.848 -0.5199  0.3899  0.1412
 4383SOL    HW124608   2.632   3.223   4.789 -0.1895  0.1749  0.1517
 4383SOL    HW224609   2.502   3.197   4.841 -1.9076 -3.5638 -3.6812
 4384SOL     OW24610   1.596   2.429   5.404 -0.0218  0.3801  0.1384
 4384SOL    HW124611   1.548   2.447   5.324  1.2474  0.5500 -0.5816
 4384SOL    HW224612   1.527   2.386   5.454 -0.5893 -0.4110 -1.3374
 4385SOL     OW24613   2.867   4.718   5.417  0.2187  0.2346  0.2923
 4385SOL    HW124614   2.887   4.653   5.350  2.3556 -0.9046  2.0666
 4385SOL    HW224615   2.783   4.690   5.454 -0.3089 -2.5456 -3.0453
 4386SOL     OW24616   0.920   0.328  16.712 -0.4885 -0.3677 -0.3185
 4386SOL    HW124617   0.929   0.238  16.744  1.3038 -0.1026 -0.0667
 4386SOL    HW224618   1.009   0.329  16.676  0.2727 -1.2752  1.5607
 4387SOL     OW24619   4.628   3.537  10.009  0.7771 -0.2854 -0.1963
 4387SOL    HW124620   4.694   3.511  10.072  0.0889  0.8232  0.9703
 4387SOL    HW224621   4.676   3.599   9.954  0.5441  0.3695  0.3360
 4388SOL     OW24622   1.725   3.984   1.326  0.1016  0.3171 -0.2635
 4388SOL    HW124623   1.766   3.927   1.262  0.0222 -0.8920  0.7594
 4388SOL    HW224624   1.685   4.043   1.262  0.7927  0.7120 -0.3273
 4389SOL     OW24625   2.978   3.744   8.714  0.0577  0.2054  0.4034
 4389SOL    HW124626   3.008   3.678   8.777 -0.8653 -2.7061 -2.1730
 4389SOL    HW224627   2.944   3.808   8.776 -1.5521  2.4094 -2.7475
 4390SOL     OW24628   4.512   0.846   8.868 -0.0061  0.2369 -0.9296
 4390SOL    HW124629   4.594   0.861   8.820  1.4458  0.5158  1.6208
 4390SOL    HW224630   4.531   0.890   8.950 -2.0996 -1.2975  0.3674
 4391SOL     OW24631   1.768   1.760  17.250  0.4095 -0.1469 -0.0791
 4391SOL    HW124632   1.774   1.761  17.346 -4.3982  0.0163  0.2099
 4391SOL    HW224633   1.749   1.668  17.231 -1.5920  0.2434  0.0540
 4392SOL     OW24634   0.902   2.304   6.272 -0.0201 -0.2156  0.2732
 4392SOL    HW124635   0.849   2.383   6.280 -0.8591 -0.6691 -0.7808
 4392SOL    HW224636   0.959   2.318   6.348 -1.6184  0.5204  1.3437
 4393SOL     OW24637   1.553   1.094  13.336 -0.2711  0.6500  0.5440
 4393SOL    HW124638   1.589   1.021  13.287 -1.1819  0.0673  0.7358
 4393SOL    HW224639   1.538   1.063  13.425  0.7882  1.8326  1.1292
 4394SOL     OW24640   1.146   4.222   8.105  0.4366  0.0668  0.0601
 4394SOL    HW124641   1.209   4.153   8.084 -1.4435 -0.7679 -2.9142
 4394SOL    HW224642   1.074   4.167   8.137  0.6397  1.1944  2.3886
 4395SOL     OW24643   0.623   4.419   9.088  0.1556  0.1269  0.2400
 4395SOL    HW124644   0.706   4.381   9.118 -0.8629  0.9158  4.0614
 4395SOL    HW224645   0.567   4.411   9.165  0.7246 -0.0250  0.6438
 4396SOL     OW24646   3.460   0.661   5.160 -0.4400  0.2906  0.1812
 4396SOL    HW124647   3.409   0.582   5.181  0.6044 -0.3280  0.3964
 4396SOL    HW224648   3.472   0.650   5.066 -1.3143  0.2287  0.0761
 4397SOL     OW24649   1.105   2.426   3.989  0.0541 -0.4411  0.0464
 4397SOL    HW124650   1.024   2.376   3.976 -0.2059  0.1324 -0.5336
 4397SOL    HW224651   1.053   2.507   3.988 -0.7653 -0.9258  2.4517
 4398SOL     OW24652   0.938   0.979   2.328  0.0504  0.8580  0.1356
 4398SOL    HW124653   0.923   1.056   2.383 -0.4710  1.0662 -0.3030
 4398SOL    HW224654   0.928   1.011   2.238 -1.5168 -0.4836 -0.1722
 4399SOL     OW24655   0.251   0.774  10.828 -0.3345 -0.0942  0.4348
 4399SOL    HW124656   0.222   0.707  10.766 -1.5476  0.3317  0.5496
 4399SOL    HW224657   0.195   0.845  10.795  1.1640  1.4772  1.2935
 4400SOL     OW24658   0.271   1.849   6.233  0.3354 -0.3572 -0.0706
 4400SOL    HW124659   0.276   1.874   6.326 -0.3292 -0.8567  0.1028
 4400SOL    HW224660   0.276   1.932   6.186  0.0841 -0.9747 -1.1778
 4401SOL     OW24661   2.121   3.259   9.496 -0.3118 -0.1263 -0.7946
 4401SOL    HW124662   2.136   3.349   9.524 -0.2477  0.1383 -1.7022
 4401SOL    HW224663   2.044   3.231   9.546  1.1268 -0.7338  1.0903
 4402SOL     OW24664   4.692   4.449  11.637 -0.0626 -0.4700  0.5059
 4402SOL    HW124665   4.649   4.529  11.665  0.4664 -0.5613  1.5987
 4402SOL    HW224666   0.001   4.471  11.549 -0.1183 -2.9219 -0.1255
 4403SOL     OW24667   3.708   3.533   8.154  0.2604 -0.3765 -0.7364
 4403SOL    HW124668   3.638   3.469   8.161  0.3432 -0.1958  1.9158
 4403SOL    HW224669   3.732   3.542   8.247 -1.1228  1.8823 -0.6024
 4404SOL     OW24670   4.723   4.670   9.232 -0.0246  0.0465 -0.2022
 4404SOL    HW124671   4.687   4.584   9.213  3.5301 -1.5501  0.2029
 4404SOL    HW224672   4.696   4.678   9.323 -4.3300  0.4944 -1.5528
 4405SOL     OW24673   4.647   3.197   4.860 -0.0937 -0.3812 -0.0840
 4405SOL    HW124674   4.632   3.164   4.949  1.3392 -0.1655  0.2224
 4405SOL    HW224675   4.574   3.148   4.821  2.5485 -1.9933 -2.9879
 4406SOL     OW24676   1.912   3.164   7.644  0.2337  0.2660  0.1295
 4406SOL    HW124677   1.945   3.243   7.601  0.9583 -0.7182 -1.1366
 4406SOL    HW224678   1.893   3.116   7.563  1.4043  0.4460 -0.2536
 4407SOL     OW24679   1.685   0.687   6.310  0.1472 -0.1464 -0.0715
 4407SOL    HW124680   1.609   0.696   6.253 -0.8505  0.5241  1.3500
 4407SOL    HW224681   1.648   0.722   6.391 -1.2880 -1.1952 -0.2697
 4408SOL     OW24682   4.494   3.718   5.684 -0.2487 -0.2381  0.0262
 4408SOL    HW124683   4.399   3.723   5.680 -0.0482  0.9071 -3.4535
 4408SOL    HW224684   4.519   3.803   5.720 -1.0502 -0.1417  0.3649
 4409SOL     OW24685   2.868   0.663   8.319  0.1705  0.4150  0.7797
 4409SOL    HW124686   2.910   0.723   8.257 -0.1507 -0.5792 -0.4066
 4409SOL    HW224687   2.831   0.727   8.379 -0.9975  1.3729 -0.9621
 4410SOL     OW24688   4.251   3.041   6.012  0.1722  0.9175 -0.6770
 4410SOL    HW124689   4.282   2.982   5.943 -0.8911 -0.6610  0.1679
 4410SOL    HW224690   4.210   2.987   6.080  0.3379 -0.5661 -1.7628
 4411SOL     OW24691   4.220   4.667   1.542  0.0128  0.4288  0.2357
 4411SOL    HW124692   4.175   4.586   1.565 -0.5642  1.3361  2.3264
 4411SOL    HW224693   4.238   4.643   1.452  3.1355  1.9613  0.4502
 4412SOL     OW24694   2.294   4.375   9.313 -0.0858  0.1701 -0.4107
 4412SOL    HW124695   2.261   4.421   9.391  0.6353  1.9099 -1.1134
 4412SOL    HW224696   2.255   4.288   9.323  1.9706 -0.3984  2.4094
 4413SOL     OW24697   3.594   0.451   4.128  0.0441 -0.5863 -0.2582
 4413SOL    HW124698   3.572   0.470   4.219 -1.2545 -2.0383 -0.2612
 4413SOL    HW224699   3.536   0.375   4.115 -2.4082  1.2735 -0.3640
 4414SOL     OW24700   3.882   1.360   3.536 -0.3899  0.6126 -0.9283
 4414SOL    HW124701   3.919   1.275   3.558 -0.4411  0.4176 -1.5926
 4414SOL    HW224702   3.952   1.422   3.558 -0.4424  0.4446 -0.3026
 4415SOL     OW24703   1.151   1.571  11.169  0.5597 -0.4196  0.0106
 4415SOL    HW124704   1.183   1.583  11.079  2.4642  1.3363  0.9508
 4415SOL    HW224705   1.094   1.648  11.177  0.8867 -0.6215  3.9762
 4416SOL     OW24706   0.244   3.745  16.391 -0.2954 -0.3334 -0.0839
 4416SOL    HW124707   0.244   3.812  16.460 -0.4879  1.5990 -1.9334
 4416SOL    HW224708   0.317   3.692  16.423 -1.0146 -0.6905  0.9736
 4417SOL     OW24709   0.189   3.433   3.734 -0.5288  0.6980 -0.0875
 4417SOL    HW124710   0.095   3.451   3.735 -0.5097  0.5775  2.9391
 4417SOL    HW224711   0.215   3.461   3.822  0.3171 -1.6070  0.3794
 4418SOL     OW24712   0.633   3.778   4.258 -0.4201  0.1808  0.1806
 4418SOL    HW124713   0.574   3.716   4.215 -0.4808 -0.3330  0.9985
 4418SOL    HW224714   0.608   3.864   4.225 -0.5301  1.2164  2.9555
 4419SOL     OW24715   0.061   3.715  14.824 -0.0560  0.3913  0.6647
 4419SOL    HW124716   0.025   3.790  14.873 -1.6613  0.0646 -0.0127
 4419SOL    HW224717   0.118   3.671  14.887 -0.7489  0.3996  1.2996
 4420SOL     OW24718   0.826   3.762   0.241 -0.2127 -0.2020 -0.4589
 4420SOL    HW124719   0.851   3.786   0.330 -1.8948 -0.0139 -0.0268
 4420SOL    HW224720   0.864   3.836   0.195 -0.3587  1.5154  2.1659
 4421SOL     OW24721   4.061   0.813  10.202 -0.1533  0.5097  0.1857
 4421SOL    HW124722   3.982   0.795  10.252  1.5799  1.5624  3.3615
 4421SOL    HW224723   4.054   0.759  10.124 -2.5172 -0.5710  1.1441
 4422SOL     OW24724   1.793   2.775   4.485  0.2437  0.4596 -0.4424
 4422SOL    HW124725   1.829   2.693   4.520  0.1320  0.6307  0.0804
 4422SOL    HW224726   1.705   2.776   4.524  0.4477 -0.0181  0.0299
 4423SOL     OW24727   3.627   1.586  11.295 -0.2250  0.1062  0.0707
 4423SOL    HW124728   3.590   1.599  11.208  0.0876  1.1460  0.0908
 4423SOL    HW224729   3.557   1.613  11.355 -1.8290  2.4338 -2.8200
 4424SOL     OW24730   1.174   1.034  12.867  0.3561  0.4014 -0.3319
 4424SOL    HW124731   1.177   1.130  12.871 -1.0588  0.5756 -2.8631
 4424SOL    HW224732   1.260   1.016  12.903  0.2106  2.7933  1.2223
 4425SOL     OW24733   2.546   1.672   8.165  0.3008  0.2482  0.3039
 4425SOL    HW124734   2.567   1.695   8.075 -0.6161 -3.4846 -0.8552
 4425SOL    HW224735   2.546   1.758   8.207 -1.3564 -0.0971  1.0304
 4426SOL     OW24736   0.019   0.625   4.928  0.1956 -0.5934 -0.0385
 4426SOL    HW124737   0.050   0.537   4.907 -0.6320 -1.1464  1.0834
 4426SOL    HW224738   4.694   0.610   5.009 -0.6546 -0.4797 -0.5207
 4427SOL     OW24739   0.039   0.796  16.882 -0.3473 -0.3071  0.4070
 4427SOL    HW124740   0.043   0.891  16.883 -0.5547 -0.2912 -0.6505
 4427SOL    HW224741   0.082   0.777  16.965 -2.3633  0.6605  1.6805
 4428SOL     OW24742   1.550   0.267  11.669  0.3396  0.7826  0.4586
 4428SOL    HW124743   1.611   0.207  11.625  0.4611  0.7353  0.6925
 4428SOL    HW224744   1.532   0.342  11.612 -1.3415 -0.6217 -0.8527
 4429SOL     OW24745   3.666   1.117   2.963 -0.0539 -0.1397  0.5557
 4429SOL    HW124746   3.700   1.032   2.987 -1.1513 -0.1022  2.2686
 4429SOL    HW224747   3.576   1.100   2.991 -0.3857  0.4767 -0.1256
 4430SOL     OW24748   3.645   4.363   0.857  0.0404  0.6077  0.2546
 4430SOL    HW124749   3.651   4.455   0.881 -0.6036  1.2694 -2.0752
 4430SOL    HW224750   3.551   4.349   0.845 -0.3285  1.8922  1.7904
 4431SOL     OW24751   0.145   4.374   7.158 -1.0142  0.6597  0.3389
 4431SOL    HW124752   0.195   4.444   7.201  0.0554  0.6707 -0.9360
 4431SOL    HW224753   0.147   4.401   7.067  1.6189 -0.4966  0.0453
 4432SOL     OW24754   3.242   1.601   2.868  0.1910  0.4134 -0.0269
 4432SOL    HW124755   3.289   1.675   2.828  0.1912  0.2317 -0.3630
 4432SOL    HW224756   3.274   1.538   2.804 -1.3756  0.0872 -0.4709
 4433SOL     OW24757   4.148   4.607   3.954 -0.0269  0.6927 -0.2528
 4433SOL    HW124758   4.151   4.685   3.899  1.8337 -0.8611 -2.3445
 4433SOL    HW224759   4.062   4.617   3.997 -0.1597  0.2432 -0.4201
 4434SOL     OW24760   3.402   4.170   1.175  0.2155  0.5990  1.0686
 4434SOL    HW124761   3.395   4.257   1.137 -1.4425  0.0494  0.0914
 4434SOL    HW224762   3.359   4.112   1.111  1.6532  1.6349 -0.8293
 4435SOL     OW24763   1.882   2.453  10.266 -0.2625  0.1032  0.5921
 4435SOL    HW124764   1.805   2.396  10.262 -0.4761  0.4228  0.1986
 4435SOL    HW224765   1.899   2.459  10.360 -0.0878 -0.8737  0.6217
 4436SOL     OW24766   1.606   4.264  12.022  0.1076  0.8321 -0.1968
 4436SOL    HW124767   1.574   4.252  12.111  1.7117 -0.7014  0.1689
 4436SOL    HW224768   1.529   4.231  11.975  0.4710 -0.4222  0.0824
 4437SOL     OW24769   2.101   3.070   6.708  0.4578 -0.0112 -0.1255
 4437SOL    HW124770   2.196   3.069   6.693 -0.2858 -2.3902 -4.9037
 4437SOL    HW224771   2.076   3.159   6.684  2.0306  0.9330  1.7493
 4438SOL     OW24772   1.730   2.551  12.917  0.1827 -0.0623 -0.4204
 4438SOL    HW124773   1.784   2.623  12.885 -0.3961 -0.7791 -2.9900
 4438SOL    HW224774   1.696   2.585  13.000  1.8151  0.0460  0.2061
 4439SOL     OW24775   2.463   1.453   0.770 -0.0263  0.0266 -0.3531
 4439SOL    HW124776   2.538   1.413   0.725 -0.5695 -1.3010 -0.0834
 4439SOL    HW224777   2.414   1.485   0.694 -1.0446  0.4501  0.4824
 4440SOL     OW24778   4.086   2.369  16.631  0.4715 -0.2543 -0.1066
 4440SOL    HW124779   4.144   2.444  16.638  1.6420 -1.3914  2.4977
 4440SOL    HW224780   4.010   2.410  16.591  0.0769 -0.4865  0.4107
 4441SOL     OW24781   0.752   3.634   4.508 -0.5426 -0.1306  0.1821
 4441SOL    HW124782   0.835   3.682   4.508 -1.3355  1.2458  1.0607
 4441SOL    HW224783   0.699   3.684   4.445 -0.4391 -0.5171 -0.2139
 4442SOL     OW24784   3.295   2.544  14.995  0.7864 -0.4605 -0.3236
 4442SOL    HW124785   3.378   2.583  15.021  1.2536  1.2807 -4.4187
 4442SOL    HW224786   3.328   2.466  14.951 -0.8004 -2.3689  1.8169
 4443SOL     OW24787   4.508   1.303  12.585  0.2795 -0.4739 -0.0765
 4443SOL    HW124788   4.488   1.353  12.506 -2.1616  0.4198  1.1062
 4443SOL    HW224789   4.598   1.277  12.566 -0.1849 -0.1601 -2.6742
 4444SOL     OW24790   2.106   3.997   3.312  0.5744 -0.0908  0.0358
 4444SOL    HW124791   2.142   4.033   3.393  1.2323 -0.0684 -0.2676
 4444SOL    HW224792   2.176   4.001   3.247  0.9283 -0.6470  0.3833
 4445SOL     OW24793   1.204   4.209   3.900  0.2874 -0.0066 -0.5366
 4445SOL    HW124794   1.222   4.128   3.853 -0.0096  0.1719 -0.9567
 4445SOL    HW224795   1.141   4.168   3.959  0.3133  0.6219 -0.0703
 4446SOL     OW24796   1.508   2.120  10.957  0.5629  0.3351 -0.1516
 4446SOL    HW124797   1.479   2.160  11.039  0.4808 -1.8909  0.9242
 4446SOL    HW224798   1.549   2.039  10.987  1.1952  1.3592  1.6972
 4447SOL     OW24799   0.228   3.273  15.182 -0.1359 -0.4012 -0.8178
 4447SOL    HW124800   0.150   3.256  15.235  1.1975  0.0420  1.2915
 4447SOL    HW224801   0.258   3.356  15.218  0.6965 -0.4470 -1.4081
 4448SOL     OW24802   2.436   2.368   3.747 -0.2445  0.3685 -0.3337
 4448SOL    HW124803   2.383   2.297   3.783  1.0937 -0.4256  0.0779
 4448SOL    HW224804   2.421   2.439   3.810 -1.5618 -0.1579 -0.0437
 4449SOL     OW24805   4.722   2.322   3.116 -0.1171  0.4092 -0.0660
 4449SOL    HW124806   0.014   2.229   3.099  0.4203  0.3373  0.8017
 4449SOL    HW224807   4.710   2.352   3.026 -1.0203 -0.7829 -0.3372
 4450SOL     OW24808   1.966   1.200   4.363 -0.2341  0.3418 -0.4201
 4450SOL    HW124809   2.030   1.130   4.350  0.2477  0.6883  0.0930
 4450SOL    HW224810   1.940   1.167   4.449  1.1389 -2.9895 -1.2911
 4451SOL     OW24811   3.907   3.940  15.963  0.2323  0.4249 -1.1430
 4451SOL    HW124812   3.995   3.978  15.966  0.1527  0.5140  0.3350
 4451SOL    HW224813   3.860   4.010  15.919 -0.8280 -0.5921 -1.6439
 4452SOL     OW24814   0.300   0.162   8.838 -0.3093  0.2545 -0.2074
 4452SOL    HW124815   0.250   0.128   8.912  0.4075 -0.5685 -0.0975
 4452SOL    HW224816   0.284   0.257   8.844 -0.4127  0.2702 -0.7204
 4453SOL     OW24817   3.542   0.104  15.105  0.2476 -0.0400 -0.3605
 4453SOL    HW124818   3.580   0.104  15.017 -0.5003  0.6166 -0.6843
 4453SOL    HW224819   3.566   0.014  15.126  0.4441  0.5835  2.0955
 4454SOL     OW24820   1.416   1.227  16.678 -0.5758 -0.1380 -0.1430
 4454SOL    HW124821   1.465   1.265  16.605 -1.8840 -0.6923 -1.3187
 4454SOL    HW224822   1.382   1.308  16.718  0.4644  0.2951 -0.1453
 4455SOL     OW24823   0.732   3.982   5.899  0.4687  0.6578  0.0789
 4455SOL    HW124824   0.672   3.974   5.826 -0.1478 -0.6492  0.7308
 4455SOL    HW224825   0.818   4.001   5.861  0.0788 -0.3802 -1.3291
 4456SOL     OW24826   1.993   4.356  12.484 -0.1087 -0.2829 -0.4339
 4456SOL    HW124827   1.901   4.367  12.504  0.4101  2.3306  0.5105
 4456SOL    HW224828   1.992   4.309  12.400  1.8317 -3.1199  1.0900
 4457SOL     OW24829   3.957   2.594   1.195  0.3632 -0.2853  0.6568
 4457SOL    HW124830   4.017   2.664   1.168 -0.9597  0.5512 -0.1158
 4457SOL    HW224831   3.983   2.572   1.284 -1.2244 -0.4669  1.0770
 4458SOL     OW24832   2.216   1.327   2.390 -0.1409  0.0062 -0.2610
 4458SOL    HW124833   2.150   1.264   2.420  2.2321 -2.3813 -0.0807
 4458SOL    HW224834   2.241   1.294   2.303 -0.3311 -1.8935  0.4167
 4459SOL     OW24835   4.710   3.278  15.357 -0.0222 -0.1492  0.4580
 4459SOL    HW124836   4.686   3.338  15.426  0.2743 -0.0969  0.5179
 4459SOL    HW224837   4.681   3.192  15.386  1.6976 -1.0984 -0.5730
 4460SOL     OW24838   1.810   3.143   8.582  0.5061  0.1854 -0.2023
 4460SOL    HW124839   1.825   3.138   8.487  2.5653 -0.5613  0.1714
 4460SOL    HW224840   1.816   3.050   8.600 -0.7964  0.2704  0.7293
 4461SOL     OW24841   0.754   1.775   9.145  0.1152  0.4752 -0.5110
 4461SOL    HW124842   0.804   1.749   9.222  0.7085  1.9560 -0.3891
 4461SOL    HW224843   0.821   1.817   9.090 -0.1664  0.0511 -1.1777
 4462SOL     OW24844   3.344   2.171   7.263  0.4235  0.0644 -0.1209
 4462SOL    HW124845   3.439   2.160   7.261  0.2949 -0.6547 -3.2994
 4462SOL    HW224846   3.309   2.106   7.202  1.1088  0.3157 -0.7958
 4463SOL     OW24847   2.133   4.088   2.243 -0.3767 -0.3659 -0.4305
 4463SOL    HW124848   2.167   4.131   2.164 -0.7218 -0.2524 -0.5173
 4463SOL    HW224849   2.071   4.023   2.207 -1.1600  0.8629 -1.3055
 4464SOL     OW24850   2.441   2.688   9.225 -0.1263  0.5368 -0.1290
 4464SOL    HW124851   2.450   2.763   9.166 -0.0729  0.6657  0.0419
 4464SOL    HW224852   2.516   2.697   9.284  1.2081 -0.4363 -1.6754
 4465SOL     OW24853   3.654   0.232   3.843  0.5243  0.1252  0.0528
 4465SOL    HW124854   3.738   0.236   3.888 -0.0681  0.5571  1.1068
 4465SOL    HW224855   3.600   0.181   3.903 -3.9295  2.5331 -1.9234
 4466SOL     OW24856   0.136   4.159   4.047 -0.5333 -0.1461  0.4993
 4466SOL    HW124857   0.163   4.211   4.123 -0.5314  1.8782 -0.8837
 4466SOL    HW224858   0.051   4.118   4.064 -0.2983 -0.5784  0.6154
 4467SOL     OW24859   2.421   4.471   2.377  0.6224  0.0453 -0.4448
 4467SOL    HW124860   2.483   4.400   2.355  0.2385 -0.8096  1.2099
 4467SOL    HW224861   2.364   4.484   2.301 -1.4490 -0.3805  1.0514
 4468SOL     OW24862   0.479   0.618   4.686  0.5385  0.3427 -0.0666
 4468SOL    HW124863   0.409   0.587   4.629 -0.4204  1.3372  0.5435
 4468SOL    HW224864   0.452   0.709   4.702  0.6163  0.0332  1.8387
 4469SOL     OW24865   2.016   2.180   7.514 -0.6038 -0.0315  0.0619
 4469SOL    HW124866   1.941   2.149   7.566  1.4337 -0.9575  2.4263
 4469SOL    HW224867   2.073   2.206   7.585 -1.0837 -0.0742  0.4635
 4470SOL     OW24868   0.469   2.039   1.738 -0.4260 -0.0463  0.1085
 4470SOL    HW124869   0.380   2.013   1.713 -0.8785 -0.0557  1.7117
 4470SOL    HW224870   0.480   2.114   1.680 -1.6677  0.5712  0.6704
 4471SOL     OW24871   2.928   1.588   8.806  0.0938  0.0317  0.0580
 4471SOL    HW124872   2.906   1.569   8.714  0.4645  1.4325 -0.3140
 4471SOL    HW224873   2.881   1.521   8.855 -0.4296 -2.1974 -3.4509
 4472SOL     OW24874   1.026   4.142   5.115 -0.3214 -0.0018 -0.4771
 4472SOL    HW124875   0.978   4.135   5.033  0.4912  0.1819 -0.9704
 4472SOL    HW224876   0.988   4.212   5.167  0.1697 -1.3275  1.6911
 4473SOL     OW24877   0.650   2.238   8.175  0.1988 -0.6092  0.3654
 4473SOL    HW124878   0.714   2.169   8.161 -1.3010 -2.1348  1.0493
 4473SOL    HW224879   0.577   2.198   8.222 -0.5470 -1.5268 -1.5445
 4474SOL     OW24880   4.396   3.629   3.323 -0.3167  0.1017 -0.0607
 4474SOL    HW124881   4.347   3.633   3.241 -3.4418  1.6077  1.9289
 4474SOL    HW224882   4.397   3.533   3.318 -0.5204  0.1393 -0.9062
 4475SOL     OW24883   0.119   1.958   9.185 -0.0494 -0.6217 -0.0044
 4475SOL    HW124884   0.075   1.889   9.235 -1.8727 -0.0407 -0.8390
 4475SOL    HW224885   0.144   2.015   9.257 -1.8695 -2.5484  2.1675
 4476SOL     OW24886   0.846   3.968   4.847 -0.4418  0.0881  0.0617
 4476SOL    HW124887   0.791   4.027   4.899 -1.6365  0.4777 -1.6673
 4476SOL    HW224888   0.789   3.899   4.813 -0.1602 -1.3326  2.4515
 4477SOL     OW24889   2.861   4.525   6.561  0.3746  0.3231 -0.1126
 4477SOL    HW124890   2.867   4.505   6.654 -0.6340  0.3400 -0.0524
 4477SOL    HW224891   2.944   4.572   6.545  1.2961 -1.3158 -0.1330
 4478SOL     OW24892   4.712   2.312   1.856 -0.3838 -0.1981 -0.2683
 4478SOL    HW124893   4.687   2.297   1.765 -0.8549  0.1133 -0.1875
 4478SOL    HW224894   4.654   2.384   1.878 -2.4900 -2.4207  1.3854
 4479SOL     OW24895   2.695   0.487   5.557  0.0550  0.0097 -0.1182
 4479SOL    HW124896   2.704   0.497   5.463  2.4848  1.8591  0.3017
 4479SOL    HW224897   2.621   0.426   5.553  1.0360 -1.0837 -1.7795
 4480SOL     OW24898   1.065   1.657   4.825 -0.0388 -0.2045  0.5594
 4480SOL    HW124899   1.157   1.648   4.803  0.0778  0.7122  0.6717
 4480SOL    HW224900   1.024   1.684   4.743 -0.0751 -0.0849  0.6154
 4481SOL     OW24901   1.973   4.096   5.062 -0.6638 -0.1752  0.3562
 4481SOL    HW124902   1.894   4.083   5.115  0.2673 -0.1539  1.7383
 4481SOL    HW224903   1.956   4.050   4.980 -2.0674 -0.9293  1.0760
 4482SOL     OW24904   0.873   1.645  11.964 -0.2515  0.3260  0.1667
 4482SOL    HW124905   0.778   1.646  11.977 -0.0398 -1.6589  1.7452
 4482SOL    HW224906   0.877   1.582  11.892 -1.8727 -0.7743  1.0435
 4483SOL     OW24907   3.024   4.257   7.188  0.2093  0.5880  0.4897
 4483SOL    HW124908   3.050   4.247   7.096 -3.1118  2.2187 -0.5922
 4483SOL    HW224909   2.929   4.251   7.182  0.2985 -0.5804  0.2620
 4484SOL     OW24910   4.312   4.705  12.434  0.2798 -0.3700 -0.6020
 4484SOL    HW124911   4.394   0.028  12.451  0.1997 -0.5199  0.2104
 4484SOL    HW224912   4.307   4.706  12.338 -0.5655 -1.1696 -0.5593
 4485SOL     OW24913   0.692   1.526   5.158  0.3359 -0.6069  0.0639
 4485SOL    HW124914   0.599   1.522   5.134  0.5008 -1.8564 -0.3740
 4485SOL    HW224915   0.725   1.603   5.113  2.0909  0.4433  3.1644
 4486SOL     OW24916   0.746   2.477   1.004  0.2230 -0.1359 -0.6977
 4486SOL    HW124917   0.690   2.494   0.928  0.8159 -0.7468 -1.2714
 4486SOL    HW224918   0.761   2.383   0.997  0.4177 -0.3307  2.4216
 4487SOL     OW24919   4.193   1.209   9.647  0.1499  0.0620 -0.5764
 4487SOL    HW124920   4.202   1.124   9.603 -2.0601 -1.8905  2.7586
 4487SOL    HW224921   4.148   1.183   9.727  1.4349  2.9282  1.0707
 4488SOL     OW24922   2.791   1.902  11.814  0.1022  0.1282  0.0724
 4488SOL    HW124923   2.830   1.966  11.755 -0.8373  1.4683  0.8985
 4488SOL    HW224924   2.865   1.845  11.832 -1.0536 -1.9593 -1.7947
 4489SOL     OW24925   4.319   2.289   8.773 -0.2941 -0.1100  0.5730
 4489SOL    HW124926   4.387   2.302   8.708 -2.7764 -0.4790 -2.1245
 4489SOL    HW224927   4.385   2.273   8.840 -0.0320  0.6821  0.5096
 4490SOL     OW24928   4.699   1.765   1.675 -0.0044 -0.1906 -0.8495
 4490SOL    HW124929   4.615   1.771   1.629 -1.6350  0.9639  2.2566
 4490SOL    HW224930   4.701   1.853   1.713 -0.9157 -1.1809  1.5043
 4491SOL     OW24931   2.937   3.563   8.140  0.2965  0.2783  0.6035
 4491SOL    HW124932   2.976   3.491   8.190 -2.0712 -0.7076  1.0008
 4491SOL    HW224933   3.010   3.577   8.080 -0.6346 -1.0430 -0.8364
 4492SOL     OW24934   4.704   2.858   8.321 -0.2071 -0.1753  0.2222
 4492SOL    HW124935   0.051   2.803   8.288  0.6883  1.4999 -0.6293
 4492SOL    HW224936   4.661   2.795   8.380 -2.9714  0.5075 -1.0256
 4493SOL     OW24937   1.557   1.037   0.898  0.2027 -0.1570  0.2680
 4493SOL    HW124938   1.592   0.956   0.934  0.8218  1.4478  3.3092
 4493SOL    HW224939   1.472   1.002   0.872  0.7293 -1.7776  0.7245
 4494SOL     OW24940   1.276   1.857   2.143  0.2204  0.2134 -0.4636
 4494SOL    HW124941   1.286   1.785   2.205 -0.2097 -0.6749 -1.4297
 4494SOL    HW224942   1.256   1.932   2.198  2.4338  0.6970 -0.3243
 4495SOL     OW24943   4.130   4.093   5.228  0.0038 -0.1385 -0.1216
 4495SOL    HW124944   4.145   4.073   5.320 -0.8599  1.1007  0.2990
 4495SOL    HW224945   4.139   4.188   5.237 -0.7608 -0.1670  0.9610
 4496SOL     OW24946   3.365   0.497   5.727  0.1576 -0.1790 -0.0718
 4496SOL    HW124947   3.445   0.446   5.740 -0.0459 -0.2232  0.9738
 4496SOL    HW224948   3.374   0.561   5.797 -2.7073 -0.0924  0.2356
 4497SOL     OW24949   2.598   1.553   5.142  0.5501  0.3414 -0.1543
 4497SOL    HW124950   2.558   1.574   5.057  1.4812  0.4953 -0.5597
 4497SOL    HW224951   2.566   1.628   5.192  2.4232  0.5610  0.7357
 4498SOL     OW24952   2.726   0.386  15.103 -0.1881 -0.4999 -0.1707
 4498SOL    HW124953   2.777   0.336  15.039  0.1430 -0.2920 -0.0679
 4498SOL    HW224954   2.696   0.307  15.148  1.0368 -0.5987  0.4772
 4499SOL     OW24955   0.327   3.994   2.953 -0.1549  0.7752 -0.0422
 4499SOL    HW124956   0.380   4.025   2.880 -1.2036  3.3247  0.2746
 4499SOL    HW224957   0.261   4.064   2.954 -0.8920  0.0816 -0.4253
 4500SOL     OW24958   2.731   1.760   8.728  0.5718 -0.4573  0.4335
 4500SOL    HW124959   2.636   1.765   8.728  0.5097 -1.6313  2.1304
 4500SOL    HW224960   2.747   1.674   8.766 -0.5716 -1.1479 -0.6626
 4501SOL     OW24961   4.463   2.837   6.404 -0.2794 -0.1262  0.6365
 4501SOL    HW124962   4.431   2.749   6.382 -1.7092  0.1706  1.5087
 4501SOL    HW224963   4.525   2.821   6.475  0.0067 -0.1853  0.3726
 4502SOL     OW24964   0.547   4.235  13.662  0.5360  0.3181 -0.1908
 4502SOL    HW124965   0.516   4.202  13.746 -0.5991  0.4245 -0.5744
 4502SOL    HW224966   0.580   4.322  13.686  0.6999  1.0531 -3.1080
 4503SOL     OW24967   4.297   4.682   2.851 -0.1929 -0.1219  0.1328
 4503SOL    HW124968   4.381   0.004   2.847 -0.1330 -0.1029  1.6405
 4503SOL    HW224969   4.247   4.718   2.777  1.2999  1.9316  0.1047
 4504SOL     OW24970   1.064   2.722   4.883  0.0226  0.1457  0.2298
 4504SOL    HW124971   0.984   2.671   4.898 -0.9074  1.0466 -1.7190
 4504SOL    HW224972   1.030   2.808   4.860  0.8095  1.0358  2.3579
 4505SOL     OW24973   1.180   1.010   8.629 -0.1334  0.4734  0.0559
 4505SOL    HW124974   1.093   0.972   8.628 -0.3233  0.8905  0.7285
 4505SOL    HW224975   1.158   1.093   8.673 -0.0515  0.6768 -0.2891
 4506SOL     OW24976   2.896   4.403   9.801 -0.0850  0.0324  0.0203
 4506SOL    HW124977   2.953   4.334   9.766 -0.8922 -2.3600  3.5261
 4506SOL    HW224978   2.957   4.458   9.851 -0.8592  1.6063 -0.7747
 4507SOL     OW24979   2.491   2.705   5.307 -0.0818 -0.5410  0.3479
 4507SOL    HW124980   2.519   2.626   5.354  3.1456 -0.8380 -2.1059
 4507SOL    HW224981   2.413   2.736   5.353  0.7249 -0.3727  1.6326
 4508SOL     OW24982   4.619   1.933   6.272  0.4217  0.3378 -0.2752
 4508SOL    HW124983   4.551   1.983   6.227  1.3373  2.7048  1.0141
 4508SOL    HW224984   4.616   1.981   6.354  2.6846  1.7537 -1.0439
 4509SOL     OW24985   1.740   3.061   6.120  0.0799 -0.1103  0.5557
 4509SOL    HW124986   1.708   3.072   6.030 -2.3861  1.4155  1.6344
 4509SOL    HW224987   1.815   3.002   6.109  0.7587  1.0253 -0.8907
 4510SOL     OW24988   3.401   4.178   6.842 -0.2691 -0.0361 -0.2559
 4510SOL    HW124989   3.372   4.109   6.901  0.4842 -0.1252  0.0103
 4510SOL    HW224990   3.404   4.252   6.903  1.7394 -0.9636  0.7856
 4511SOL     OW24991   3.458   4.256  16.529 -0.0277  0.0651  0.3171
 4511SOL    HW124992   3.365   4.234  16.518 -0.1515  0.6219  0.2814
 4511SOL    HW224993   3.500   4.214  16.453 -0.6962  1.4016 -0.7943
 4512SOL     OW24994   2.383   0.795   1.313  0.0063 -0.1544  0.4023
 4512SOL    HW124995   2.350   0.762   1.397 -1.1066 -0.2846 -0.0815
 4512SOL    HW224996   2.469   0.816   1.348 -0.1706  0.6928  0.3223
 4513SOL     OW24997   4.026   2.150  15.973 -0.5593 -0.1695  0.2774
 4513SOL    HW124998   4.070   2.163  16.057  1.2486  0.7940 -0.8296
 4513SOL    HW224999   3.940   2.112  15.992  0.1046 -0.5921  2.4440
 4514SOL     OW25000   0.963   1.881   4.977  0.0486  0.3756  0.2510
 4514SOL    HW125001   0.990   1.795   4.945 -0.2703  0.5221 -0.4305
 4514SOL    HW225002   0.874   1.861   5.006 -0.7317  0.2410 -2.1848
 4515SOL     OW25003   3.404   1.364   0.131 -0.2080 -0.1679  0.2493
 4515SOL    HW125004   3.462   1.315   0.190  1.7936  1.9148  0.0473
 4515SOL    HW225005   3.473   1.419   0.092  1.6750 -2.3004  0.5571
 4516SOL     OW25006   1.620   3.402   8.345 -0.0469 -0.2812 -0.0870
 4516SOL    HW125007   1.566   3.477   8.371 -0.1411 -0.1655 -0.6169
 4516SOL    HW225008   1.609   3.348   8.423 -0.7905  0.5477  0.3772
 4517SOL     OW25009   1.504   1.047  15.788  0.3424 -0.6743 -0.0283
 4517SOL    HW125010   1.501   1.123  15.846 -2.2154 -0.3128 -0.6571
 4517SOL    HW225011   1.473   0.987  15.856 -1.7651  2.1669  1.4935
 4518SOL     OW25012   1.456   1.652  15.362  0.0055  0.1034  0.0982
 4518SOL    HW125013   1.467   1.576  15.304  2.0098  0.9353 -0.5810
 4518SOL    HW225014   1.367   1.631  15.392 -1.4425  1.6102 -3.1264
 4519SOL     OW25015   0.663   2.545   0.729  0.0859  0.2880 -0.4056
 4519SOL    HW125016   0.587   2.496   0.699  1.1950 -2.0342  0.6317
 4519SOL    HW225017   0.640   2.629   0.690 -2.1707  0.6199  1.6476
 4520SOL     OW25018   2.770   3.632   3.142 -0.0054 -0.4981  0.0570
 4520SOL    HW125019   2.842   3.578   3.110 -0.6350 -0.7918 -0.8351
 4520SOL    HW225020   2.696   3.608   3.086 -0.5504 -1.2839  1.0842
 4521SOL     OW25021   3.629   0.451   2.503 -0.3460  0.3920  0.3482
 4521SOL    HW125022   3.545   0.420   2.469  0.4780 -0.6671 -0.6918
 4521SOL    HW225023   3.688   0.436   2.430 -0.2731 -3.1096  1.1449
 4522SOL     OW25024   1.557   3.218   1.599 -0.0531 -0.3721  0.2753
 4522SOL    HW125025   1.578   3.170   1.679  0.6341 -0.7361 -0.1226
 4522SOL    HW225026   1.544   3.149   1.534  0.2194  0.4494 -0.6591
 4523SOL     OW25027   0.659   3.382   8.391 -0.0060  0.4450  0.0182
 4523SOL    HW125028   0.605   3.432   8.330 -1.7290 -0.3039  0.9519
 4523SOL    HW225029   0.594   3.351   8.453  1.9168  0.1624  1.9186
 4524SOL     OW25030   0.438   4.600  15.392  0.1192 -0.6586 -0.1409
 4524SOL    HW125031   0.349   4.569  15.407 -0.1887  0.6444  0.6900
 4524SOL    HW225032   0.487   4.561  15.464  0.4118  0.1112  0.0783
 4525SOL     OW25033   1.850   3.951   3.500  0.0709  0.0501  1.1418
 4525SOL    HW125034   1.931   3.978   3.457 -0.9375  0.0329 -0.7773
 4525SOL    HW225035   1.785   4.016   3.476 -0.9109 -0.6825  1.7883
 4526SOL     OW25036   2.713   2.227   8.241  0.3313  0.4165  0.7024
 4526SOL    HW125037   2.765   2.179   8.177 -0.0589  0.9113  0.0262
 4526SOL    HW225038   2.654   2.166   8.285 -1.3482  0.0190 -2.1129
 4527SOL     OW25039   4.108   1.224   2.119  0.1105  0.4359  0.2285
 4527SOL    HW125040   4.151   1.168   2.183 -0.6551  1.7710  1.9095
 4527SOL    HW225041   4.030   1.250   2.169  2.1240  3.3002  1.8595
 4528SOL     OW25042   3.470   2.201   6.865  0.4046 -0.7155  0.4895
 4528SOL    HW125043   3.501   2.192   6.955  1.5845 -1.4024  0.0047
 4528SOL    HW225044   3.536   2.256   6.822  0.8864 -1.6650  0.0102
 4529SOL     OW25045   0.474   2.250   1.567 -0.2079  0.0763  0.2873
 4529SOL    HW125046   0.527   2.309   1.514  1.3389 -0.4397  1.2609
 4529SOL    HW225047   0.420   2.209   1.499  0.0640  0.8019 -0.3594
 4530SOL     OW25048   2.394   3.217  13.556 -0.2405  0.1470 -0.1208
 4530SOL    HW125049   2.308   3.205  13.596 -0.4077  0.3574 -0.4220
 4530SOL    HW225050   2.428   3.128  13.565 -0.8139 -0.1663 -1.0960
 4531SOL     OW25051   1.144   0.319   0.738  0.8500  0.2385  0.5215
 4531SOL    HW125052   1.125   0.247   0.677 -0.0652  0.3122  0.7218
 4531SOL    HW225053   1.233   0.292   0.762  1.3346  0.8713 -0.5951
 4532SOL     OW25054   0.214   2.070   2.273  0.5237 -0.2076 -0.4577
 4532SOL    HW125055   0.158   2.099   2.344  2.6821 -1.2747  1.6563
 4532SOL    HW225056   0.172   2.130   2.211  2.4230 -1.1857 -2.7464
 4533SOL     OW25057   3.782   0.745  13.524 -0.7192 -0.2505  0.1021
 4533SOL    HW125058   3.692   0.769  13.504  0.2145  0.4558 -3.3173
 4533SOL    HW225059   3.839   0.811  13.483  0.0413  0.1424  1.8092
 4534SOL     OW25060   1.478   1.176   4.336  0.3313 -0.2823  0.3302
 4534SOL    HW125061   1.508   1.087   4.356  0.1193 -0.1254  1.3492
 4534SOL    HW225062   1.514   1.185   4.248 -3.1422  0.4158 -1.0109
 4535SOL     OW25063   3.668   4.522   8.510 -0.3277 -0.0835 -0.6250
 4535SOL    HW125064   3.712   4.457   8.455  0.5317 -1.3757  1.6025
 4535SOL    HW225065   3.729   4.526   8.583 -3.0379 -0.6087  1.6435
 4536SOL     OW25066   0.889   3.806  10.089  0.9464 -0.0674  0.3785
 4536SOL    HW125067   0.917   3.715  10.095  3.1636  0.6008  0.2741
 4536SOL    HW225068   0.796   3.800  10.113  0.6906 -0.6550 -0.7495
 4537SOL     OW25069   3.525   4.418  14.069  0.8701  0.2329  0.3738
 4537SOL    HW125070   3.620   4.427  14.066  0.6399  2.2701 -0.4247
 4537SOL    HW225071   3.515   4.376  14.155  0.4144  2.3571  1.3710
 4538SOL     OW25072   1.727   1.740  16.952  0.1992  0.5170 -0.0566
 4538SOL    HW125073   1.635   1.727  16.976 -0.0677 -2.4624 -2.6443
 4538SOL    HW225074   1.719   1.744  16.857 -0.4604  0.4123 -0.0081
 4539SOL     OW25075   0.831   4.182  16.158  0.3041 -0.0694  0.0494
 4539SOL    HW125076   0.738   4.197  16.138  0.9837  1.8301 -1.6871
 4539SOL    HW225077   0.824   4.178  16.253 -0.0871 -1.5496 -0.0340
 4540SOL     OW25078   3.816   4.664  12.634 -0.0444  0.4399 -0.5578
 4540SOL    HW125079   3.725   4.685  12.612 -0.2391 -0.7155 -0.9064
 4540SOL    HW225080   3.865   0.021  12.619  0.1444  0.3960 -0.1566
 4541SOL     OW25081   2.096   1.124   7.367  0.9788 -0.9432 -0.6075
 4541SOL    HW125082   2.083   1.197   7.306  0.7380 -0.6692 -0.2298
 4541SOL    HW225083   2.160   1.151   7.432 -0.1723 -2.0585  1.0154
 4542SOL     OW25084   2.095   0.169  12.608 -0.0384 -0.1984 -0.1508
 4542SOL    HW125085   2.110   0.074  12.611  1.1708 -0.0494 -1.3678
 4542SOL    HW225086   2.183   0.203  12.588  1.2120 -3.2155  0.2005
 4543SOL     OW25087   1.791   2.170   6.615 -0.5667  0.1973 -0.5181
 4543SOL    HW125088   1.827   2.114   6.685 -0.3481  1.4445  0.3777
 4543SOL    HW225089   1.721   2.211   6.666  0.2119 -0.3835  1.0409
 4544SOL     OW25090   2.340   0.366  14.490 -0.1838  0.4229  0.2096
 4544SOL    HW125091   2.340   0.307  14.414  1.0907 -0.4381  0.8775
 4544SOL    HW225092   2.293   0.307  14.549  0.7793 -0.0983  0.4650
 4545SOL     OW25093   3.498   1.890  11.169 -0.0256  0.3565 -0.1941
 4545SOL    HW125094   3.472   1.974  11.132 -2.4903 -0.2118  0.2507
 4545SOL    HW225095   3.420   1.835  11.156 -0.2251  0.7888 -0.8092
 4546SOL     OW25096   0.539   1.656   1.636 -0.1337 -0.2131 -0.3953
 4546SOL    HW125097   0.534   1.742   1.595 -1.8360 -0.7743 -1.3579
 4546SOL    HW225098   0.609   1.669   1.700 -0.0855  0.7157 -0.6420
 4547SOL     OW25099   2.208   4.258   6.248  0.0772  0.0623  0.6779
 4547SOL    HW125100   2.261   4.295   6.319  0.5774 -0.9327  0.8213
 4547SOL    HW225101   2.129   4.241   6.299 -0.4471  0.5133  0.0277
 4548SOL     OW25102   0.083   0.144  10.448 -0.5918  0.0315 -0.1388
 4548SOL    HW125103   0.003   0.101  10.420  1.6666 -3.8696 -0.5297
 4548SOL    HW225104   0.083   0.219  10.388 -1.6011 -1.0705 -1.5066
 4549SOL     OW25105   2.249   3.770  15.552  0.0420 -0.1372 -0.0044
 4549SOL    HW125106   2.258   3.855  15.595  0.0221 -0.8437  1.3979
 4549SOL    HW225107   2.198   3.718  15.615 -1.7957  1.7691  0.0778
 4550SOL     OW25108   1.541   2.926   7.462 -0.5247 -0.0845 -0.3023
 4550SOL    HW125109   1.485   2.922   7.540  0.7515 -3.2513  0.4475
 4550SOL    HW225110   1.489   2.966   7.392 -1.1293  0.6311  0.5486
 4551SOL     OW25111   0.391   0.456   0.959  0.1046 -0.2635  0.1537
 4551SOL    HW125112   0.392   0.538   1.008  0.6947  0.9575 -1.8989
 4551SOL    HW225113   0.312   0.416   0.997 -0.2623  0.1030 -0.2247
 4552SOL     OW25114   0.112   4.434   0.537  0.8119 -0.1573  0.2355
 4552SOL    HW125115   0.197   4.442   0.579  1.1509 -0.1894 -0.4491
 4552SOL    HW225116   0.057   4.418   0.614 -1.5072  0.5978 -1.2560
 4553SOL     OW25117   3.363   4.159   8.072 -0.4204  0.3717  0.4793
 4553SOL    HW125118   3.269   4.159   8.054 -0.0868 -2.1268 -1.2959
 4553SOL    HW225119   3.373   4.224   8.142 -2.7269  1.5773 -0.3054
 4554SOL     OW25120   1.787   4.503   0.571 -0.5031  0.4033 -0.2296
 4554SOL    HW125121   1.800   4.575   0.632  3.0992 -1.1764  0.8926
 4554SOL    HW225122   1.775   4.427   0.629 -1.8806  0.2868 -0.6637
 4555SOL     OW25123   4.265   4.541   4.209 -0.1525  0.4279  0.3180
 4555SOL    HW125124   4.252   4.448   4.190 -0.3005  0.9632 -2.2656
 4555SOL    HW225125   4.238   4.569   4.121  0.0976  0.3211  0.2096
 4556SOL     OW25126   1.802   0.825   7.217 -0.1989 -0.3986  0.2286
 4556SOL    HW125127   1.885   0.785   7.194 -1.3976 -1.3570 -2.4219
 4556SOL    HW225128   1.814   0.918   7.198  0.1054  0.3118  3.7751
 4557SOL     OW25129   3.720   3.438   7.415  0.1982 -0.3143 -0.0446
 4557SOL    HW125130   3.682   3.396   7.492  0.8919 -2.8624 -1.1167
 4557SOL    HW225131   3.674   3.391   7.346  1.5174 -0.0786 -1.0787
 4558SOL     OW25132   4.556   0.195   2.187  0.1403  0.0855  0.9267
 4558SOL    HW125133   4.589   0.130   2.124 -0.2781  0.4321  0.3495
 4558SOL    HW225134   4.480   0.144   2.215 -0.2423  0.4999  0.6462
 4559SOL     OW25135   3.408   2.779   3.127  0.4230  0.0894 -0.0780
 4559SOL    HW125136   3.411   2.811   3.036 -1.2309  0.6326  0.0694
 4559SOL    HW225137   3.401   2.685   3.106  0.2453  0.4461 -1.5973
 4560SOL     OW25138   3.409   0.745   7.143  0.1578  0.1316  1.2954
 4560SOL    HW125139   3.417   0.836   7.115  0.3482 -0.0833  0.6521
 4560SOL    HW225140   3.477   0.731   7.208 -1.4053 -0.7251  2.7468
 4561SOL     OW25141   1.394   1.751   5.293  0.3488  0.0771 -0.6740
 4561SOL    HW125142   1.385   1.713   5.206  1.6077  1.6080 -1.4701
 4561SOL    HW225143   1.464   1.811   5.269  1.2284 -0.8662 -0.4870
 4562SOL     OW25144   0.428   2.072  12.243 -0.0210 -0.5458 -0.5788
 4562SOL    HW125145   0.420   2.003  12.309 -1.1575 -0.6968 -0.8830
 4562SOL    HW225146   0.343   2.072  12.198 -0.7842 -1.6784  0.8739
 4563SOL     OW25147   3.208   2.259   2.406 -0.3707  0.6066  0.3356
 4563SOL    HW125148   3.167   2.334   2.449 -2.2672 -0.2766  0.0616
 4563SOL    HW225149   3.302   2.274   2.415 -0.4616  1.4425 -0.0960
 4564SOL     OW25150   0.874   1.074   0.825 -1.0340 -0.2919 -0.5326
 4564SOL    HW125151   0.912   1.026   0.751 -0.1169  0.2306 -0.4042
 4564SOL    HW225152   0.791   1.101   0.785 -0.9927  1.4091  0.5415
 4565SOL     OW25153   1.953   0.924  10.505 -0.1047 -1.0320 -0.0362
 4565SOL    HW125154   1.895   0.863  10.459  0.2949 -1.1055 -0.4373
 4565SOL    HW225155   2.022   0.867  10.539 -0.4992 -0.6857  1.3495
 4566SOL     OW25156   3.259   1.783  16.076 -0.2262  0.4350  0.4138
 4566SOL    HW125157   3.312   1.746  16.147 -0.6960 -1.3169 -0.1296
 4566SOL    HW225158   3.229   1.868  16.106 -1.6273 -0.0593  0.3996
 4567SOL     OW25159   3.632   0.524  10.680 -0.1171  0.4051 -0.5873
 4567SOL    HW125160   3.672   0.608  10.658  0.1937  0.2753 -0.5179
 4567SOL    HW225161   3.686   0.492  10.752 -0.5773 -0.2283 -0.5156
 4568SOL     OW25162   0.068   0.895  16.034  0.1554  0.2699 -0.2548
 4568SOL    HW125163   0.024   0.965  15.985  0.3980 -0.8039 -1.9928
 4568SOL    HW225164   0.007   0.884  16.106  0.1315  0.1007 -0.3018
 4569SOL     OW25165   1.210   3.566   2.342 -0.2345  0.1458  0.1945
 4569SOL    HW125166   1.133   3.594   2.293 -2.3900 -0.6380  3.0718
 4569SOL    HW225167   1.274   3.564   2.272 -0.2475  0.5889  0.1713
 4570SOL     OW25168   2.342   4.403   6.053  0.4203 -0.2710  0.0258
 4570SOL    HW125169   2.353   4.321   6.003  1.3932 -0.1685  0.0729
 4570SOL    HW225170   2.286   4.368   6.122  0.6265 -2.0934 -0.7265
 4571SOL     OW25171   1.980   0.170  13.156 -0.3827  0.0857 -0.5923
 4571SOL    HW125172   2.026   0.090  13.183 -1.7446  0.2321  2.1849
 4571SOL    HW225173   2.001   0.175  13.063  1.3228  2.3490 -0.0996
 4572SOL     OW25174   0.525   0.512   5.713 -0.1079 -0.1163 -0.3749
 4572SOL    HW125175   0.486   0.597   5.733 -2.0687 -0.5823 -2.2043
 4572SOL    HW225176   0.442   0.470   5.691 -1.6023  1.4813  2.1592
 4573SOL     OW25177   1.716   4.463  12.427 -0.0253 -0.0202  0.1080
 4573SOL    HW125178   1.731   4.555  12.449  1.0501 -0.2499  0.3362
 4573SOL    HW225179   1.687   4.473  12.337  3.4198  1.3420 -0.8558
 4574SOL     OW25180   2.626   0.446   4.775 -0.0198  0.2662  0.0066
 4574SOL    HW125181   2.608   0.522   4.720  1.7176 -1.1261 -2.5251
 4574SOL    HW225182   2.548   0.447   4.830  0.1796  0.5165  0.2826
 4575SOL     OW25183   2.535   0.310  11.088 -0.0656  0.2357  0.1454
 4575SOL    HW125184   2.629   0.312  11.069  0.1772 -0.0191  1.3129
 4575SOL    HW225185   2.504   0.257  11.014  3.1672  1.9820 -2.4638
 4576SOL     OW25186   4.457   0.770  11.241 -0.0492 -0.4683 -0.2255
 4576SOL    HW125187   4.550   0.750  11.244 -0.3391 -1.6846  0.3614
 4576SOL    HW225188   4.442   0.834  11.311  0.3402 -0.4300 -0.1780
 4577SOL     OW25189   4.282   0.685  13.318 -0.4570 -0.1127 -0.3249
 4577SOL    HW125190   4.237   0.678  13.234  1.3681  0.2177 -1.3399
 4577SOL    HW225191   4.217   0.682  13.388  2.3701  0.9926  2.3327
 4578SOL     OW25192   1.704   4.031   5.125  0.2268  0.1437  0.2604
 4578SOL    HW125193   1.633   3.971   5.103  0.5187  0.0653 -0.4634
 4578SOL    HW225194   1.650   4.108   5.106 -1.1377 -0.5291  1.4251
 4579SOL     OW25195   4.455   1.017   1.310  0.3787  0.0778 -0.3911
 4579SOL    HW125196   4.449   0.933   1.354  0.2144  0.6370  0.6471
 4579SOL    HW225197   4.508   1.076   1.364  0.8959  1.2070 -2.1057
 4580SOL     OW25198   0.089   2.329   7.899  0.1610 -0.3694  0.0903
 4580SOL    HW125199   0.088   2.407   7.844 -2.2236 -0.5688 -0.1482
 4580SOL    HW225200   0.020   2.270   7.868  0.7417 -0.5501 -0.8389
 4581SOL     OW25201   0.956   3.375   5.824 -0.1282  0.2133 -0.6056
 4581SOL    HW125202   0.863   3.397   5.826  0.0626  1.1308 -2.4923
 4581SOL    HW225203   0.956   3.301   5.764 -0.8300 -0.6418  0.4536
 4582SOL     OW25204   0.007   3.320   9.178  0.1865 -0.4395  0.4126
 4582SOL    HW125205   0.099   3.321   9.151 -0.6558  0.1254 -2.4238
 4582SOL    HW225206   4.702   3.411   9.183  0.3916 -0.3464 -0.1031
 4583SOL     OW25207   1.570   2.049   7.089 -0.0371 -0.4028  0.8056
 4583SOL    HW125208   1.486   2.067   7.130  0.5110  1.5540  1.0903
 4583SOL    HW225209   1.633   2.087   7.151  1.4975 -0.4761 -0.6793
 4584SOL     OW25210   1.705   1.088  10.364 -0.5295 -0.0507  0.4237
 4584SOL    HW125211   1.796   1.105  10.389 -1.4601  1.7507  2.5222
 4584SOL    HW225212   1.698   0.993  10.356 -1.6691 -0.1921  2.9219
 4585SOL     OW25213   2.026   2.019   6.931 -0.2460  0.0304  0.0973
 4585SOL    HW125214   2.050   1.936   6.972  0.6071 -0.0538 -0.5833
 4585SOL    HW225215   1.969   1.993   6.858 -1.5802 -1.2169  1.5801
 4586SOL     OW25216   3.019   1.391  11.860  0.3695 -0.4366 -0.3886
 4586SOL    HW125217   2.978   1.328  11.918  0.3706  1.6147  1.8337
 4586SOL    HW225218   2.946   1.394  11.799 -0.0897  0.8250  0.2236
 4587SOL     OW25219   2.664   2.520   3.613 -0.0441 -0.1870  0.1906
 4587SOL    HW125220   2.600   2.506   3.682 -1.2216 -1.5457 -1.1732
 4587SOL    HW225221   2.623   2.578   3.549 -0.1328  0.1697  0.5720
 4588SOL     OW25222   0.759   0.971   6.471 -0.3783  0.1909 -0.3944
 4588SOL    HW125223   0.701   0.945   6.542  0.5938 -1.2240 -0.1104
 4588SOL    HW225224   0.723   0.929   6.393  0.3988 -0.2692 -0.5079
 4589SOL     OW25225   2.038   0.317   3.738  0.2728 -0.2411 -0.3615
 4589SOL    HW125226   2.043   0.285   3.828  2.0117  0.4626 -0.2013
 4589SOL    HW225227   2.127   0.324   3.704 -0.3295  2.3203 -1.3955
 4590SOL     OW25228   1.400   2.041   5.949  0.6922  0.8224 -0.3791
 4590SOL    HW125229   1.357   2.083   6.024 -0.7624  0.1113 -0.8176
 4590SOL    HW225230   1.349   2.074   5.874  0.1330 -0.1404 -0.4170
 4591SOL     OW25231   0.954   0.552   7.438  0.1363 -0.6279 -0.1952
 4591SOL    HW125232   0.876   0.515   7.396 -1.1977  0.6643  1.1986
 4591SOL    HW225233   1.025   0.536   7.375  0.3746  1.5041 -0.4415
 4592SOL     OW25234   0.596   2.612   3.922  0.2601  0.0680 -0.2249
 4592SOL    HW125235   0.630   2.648   3.839  0.9894 -1.2229 -0.4965
 4592SOL    HW225236   0.672   2.563   3.955 -0.2487 -1.7155 -1.6729
 4593SOL     OW25237   0.489   1.343  14.664 -0.1001 -0.1016  0.1822
 4593SOL    HW125238   0.466   1.310  14.577 -0.1922 -0.7348  0.4479
 4593SOL    HW225239   0.584   1.336  14.660 -0.1091 -0.4051  0.4538
 4594SOL     OW25240   2.971   0.854   6.803  0.4733  0.0317 -0.1954
 4594SOL    HW125241   2.940   0.768   6.775  1.0124 -0.5518  1.0028
 4594SOL    HW225242   3.066   0.843   6.805  0.4280 -0.1873  0.8627
 4595SOL     OW25243   2.153   0.716   8.853  0.2673  0.4181 -0.1432
 4595SOL    HW125244   2.058   0.722   8.857  0.3798  1.4243  0.9818
 4595SOL    HW225245   2.177   0.712   8.946  0.7468  2.2340 -0.1885
 4596SOL     OW25246   3.648   2.673   6.238 -0.0948  0.2089  0.3252
 4596SOL    HW125247   3.603   2.604   6.287  0.3482 -0.2644  0.0707
 4596SOL    HW225248   3.735   2.635   6.243 -0.3958 -0.4125  0.8068
 4597SOL     OW25249   1.645   2.476   1.242  0.1714 -0.3228 -0.3443
 4597SOL    HW125250   1.672   2.427   1.320  1.5432  0.6578 -0.1871
 4597SOL    HW225251   1.600   2.549   1.285 -1.1074  1.0348 -4.0135
 4598SOL     OW25252   1.690   3.229  12.312  0.0905  0.5658 -0.3488
 4598SOL    HW125253   1.646   3.154  12.271  0.5340 -0.0544  0.3287
 4598SOL    HW225254   1.619   3.259  12.369 -0.4022 -0.0583 -0.6336
 4599SOL     OW25255   2.845   3.073   4.627  0.2428 -0.6324 -0.5876
 4599SOL    HW125256   2.759   3.081   4.585 -0.8329  0.4257  1.8458
 4599SOL    HW225257   2.853   3.161   4.664 -1.7088 -0.3427 -0.8562
 4600SOL     OW25258   2.026   3.879  17.214  0.0182  0.1383  0.6379
 4600SOL    HW125259   2.007   3.824  17.138  3.1303  0.2197 -0.2145
 4600SOL    HW225260   1.942   3.868  17.258 -0.2132 -2.4124 -0.4453
 4601SOL     OW25261   0.996   1.533   5.888 -0.2841  0.0789 -0.4783
 4601SOL    HW125262   0.987   1.495   5.801 -0.9460 -0.9946  0.0570
 4601SOL    HW225263   1.090   1.548   5.897 -0.0651 -1.3692 -0.2911
 4602SOL     OW25264   2.040   0.891   3.083  0.0471 -0.0025 -0.0179
 4602SOL    HW125265   2.090   0.875   3.003  1.6994  1.1414  0.7766
 4602SOL    HW225266   2.064   0.810   3.128  0.4498 -0.7443 -1.5497
 4603SOL     OW25267   1.148   0.201  12.173  0.0386 -0.4038  0.5067
 4603SOL    HW125268   1.105   0.260  12.112  0.3275 -1.4085 -0.6801
 4603SOL    HW225269   1.067   0.163  12.207 -0.6805 -0.0573 -0.8139
 4604SOL     OW25270   3.847   1.044   2.345  0.1804  0.4886 -0.4812
 4604SOL    HW125271   3.864   1.005   2.431  2.1967  0.3638 -0.9403
 4604SOL    HW225272   3.890   0.980   2.288 -0.7628  0.2308 -0.8901
 4605SOL     OW25273   0.110   4.124   2.565 -0.2405  0.3709 -0.1109
 4605SOL    HW125274   0.118   4.220   2.565 -1.4722  0.4520  2.1008
 4605SOL    HW225275   0.031   4.117   2.618 -0.6114 -1.5639 -0.9346
 4606SOL     OW25276   0.811   3.276   7.035 -0.2060  0.0971  0.2328
 4606SOL    HW125277   0.780   3.217   6.966  0.9605 -1.0194  0.6626
 4606SOL    HW225278   0.840   3.348   6.978 -0.2763  1.4609  1.9117
 4607SOL     OW25279   2.560   2.516  12.076  0.1232  0.7016 -0.6235
 4607SOL    HW125280   2.638   2.556  12.037  1.1509  1.5105  2.3147
 4607SOL    HW225281   2.521   2.463  12.006 -1.0142  2.0306 -0.9848
 4608SOL     OW25282   0.855   3.265   6.642  0.2975  0.4017 -0.1374
 4608SOL    HW125283   0.875   3.264   6.548 -0.6013  0.8736 -0.3284
 4608SOL    HW225284   0.895   3.349   6.662  1.2986 -0.6764  2.4087
 4609SOL     OW25285   1.292   1.673   7.056  0.3430  0.2977 -0.2876
 4609SOL    HW125286   1.387   1.688   7.053  0.5881 -0.8639  1.9198
 4609SOL    HW225287   1.281   1.593   7.004 -0.6801 -0.2698  0.8195
 4610SOL     OW25288   0.130   3.310  15.677 -0.0772 -0.1737  0.0482
 4610SOL    HW125289   0.212   3.317  15.629  0.5042 -2.0702  0.7800
 4610SOL    HW225290   0.095   3.392  15.641  0.7966 -0.8467 -2.2995
 4611SOL     OW25291   3.671   4.594   9.996 -0.3363  0.8462 -0.0904
 4611SOL    HW125292   3.723   4.663  10.038  0.6175 -0.3545  0.7242
 4611SOL    HW225293   3.682   4.518  10.054 -0.4320  1.4538  0.7312
 4612SOL     OW25294   4.353   2.093   6.296 -0.0313 -0.2434 -0.2062
 4612SOL    HW125295   4.260   2.083   6.277 -0.7188  0.8052  2.6260
 4612SOL    HW225296   4.351   2.052   6.382 -1.5155 -0.9013 -0.5482
 4613SOL     OW25297   3.654   1.075   3.945  0.0696 -0.0063 -0.2424
 4613SOL    HW125298   3.688   1.164   3.953  1.8325 -0.5195 -1.9173
 4613SOL    HW225299   3.559   1.089   3.952  0.2005  1.4657 -1.4192
 4614SOL     OW25300   1.880   4.020   6.839 -0.0677  0.4997 -0.5562
 4614SOL    HW125301   1.928   4.038   6.920  2.1744  1.3615 -2.0582
 4614SOL    HW225302   1.898   3.926   6.836 -0.5764  0.4326 -1.3045
 4615SOL     OW25303   0.949   3.987   9.887 -0.1990  0.3002 -0.5560
 4615SOL    HW125304   0.932   3.935   9.966 -0.6887 -0.5287 -1.2101
 4615SOL    HW225305   0.965   4.071   9.930  0.0252  1.0489 -2.1264
 4616SOL     OW25306   3.788   1.622   3.480  0.4501  0.3001  0.0089
 4616SOL    HW125307   3.878   1.610   3.451  0.9610 -0.2149  1.8150
 4616SOL    HW225308   3.763   1.540   3.524  0.2441  1.4241  1.9946
 4617SOL     OW25309   0.555   1.108   7.648  0.1171 -0.4251  0.0189
 4617SOL    HW125310   0.465   1.102   7.616 -0.5332 -0.7667  1.8998
 4617SOL    HW225311   0.616   1.063   7.589  1.1231 -0.4314  1.0699
 4618SOL     OW25312   3.781   0.200   6.875  0.0700  0.3781 -0.4313
 4618SOL    HW125313   3.775   0.173   6.967  1.0594  0.9515 -0.2011
 4618SOL    HW225314   3.874   0.196   6.856  0.7143  0.8501  2.7081
 4619SOL     OW25315   4.186   0.659   0.105  0.4561  0.3496 -0.3810
 4619SOL    HW125316   4.126   0.709   0.161  0.3214 -2.1307  1.6853
 4619SOL    HW225317   4.158   0.567   0.103 -0.4946  0.7044 -2.9388
 4620SOL     OW25318   1.976   2.403  14.296 -0.1805  0.3330 -0.5521
 4620SOL    HW125319   2.014   2.315  14.287 -2.0639 -0.7260  1.6502
 4620SOL    HW225320   1.964   2.431  14.205 -3.7960  0.7131  0.0412
 4621SOL     OW25321   0.829   1.677  10.466 -0.4965  0.7444 -0.4413
 4621SOL    HW125322   0.846   1.744  10.400 -0.3329  2.3717  1.2666
 4621SOL    HW225323   0.887   1.713  10.533  1.0924 -0.8207 -0.9678
 4622SOL     OW25324   0.922   4.319   6.030  0.2865  0.0901 -0.5198
 4622SOL    HW125325   0.838   4.330   5.986 -0.5740  2.6291  1.7811
 4622SOL    HW225326   0.973   4.284   5.957 -0.0136  1.8700 -1.5694
 4623SOL     OW25327   4.361   3.003   0.606  0.1035 -0.0855  0.1376
 4623SOL    HW125328   4.386   3.086   0.567 -2.5747 -0.2086 -1.8195
 4623SOL    HW225329   4.403   2.945   0.543 -1.3433 -0.7606 -0.2223
 4624SOL     OW25330   1.940   3.931   7.968 -0.0234 -0.0175 -0.5277
 4624SOL    HW125331   1.960   4.023   7.986 -0.0486 -0.2315  0.6406
 4624SOL    HW225332   1.970   3.885   8.047  0.9041 -0.8642 -1.3806
 4625SOL     OW25333   3.862   2.274  13.947  0.0228  0.3710  0.0230
 4625SOL    HW125334   3.850   2.185  13.979  1.5371  0.4264  0.7367
 4625SOL    HW225335   3.820   2.330  14.012 -0.9558  1.2476 -1.3572
 4626SOL     OW25336   3.254   0.598   3.756  0.1375 -0.0995  0.4719
 4626SOL    HW125337   3.308   0.523   3.729  1.2034  0.8380 -0.0103
 4626SOL    HW225338   3.318   0.665   3.780  0.8601 -0.1212 -1.3439
 4627SOL     OW25339   4.149   1.852   4.458 -0.5649 -0.2448  0.1359
 4627SOL    HW125340   4.189   1.926   4.503  0.6753 -0.3916 -0.7200
 4627SOL    HW225341   4.093   1.882   4.387  0.8375  3.4105  0.6023
 4628SOL     OW25342   1.253   1.422   6.328 -0.0173  0.1171  0.6078
 4628SOL    HW125343   1.213   1.494   6.280  1.2134 -0.1409 -0.8158
 4628SOL    HW225344   1.171   1.381   6.355  0.7483  0.1143  2.9963
 4629SOL     OW25345   3.608   4.719   3.321 -0.2380 -0.0745 -0.2531
 4629SOL    HW125346   3.586   0.010   3.229  2.0842 -0.8398 -0.9498
 4629SOL    HW225347   3.634   0.087   3.337 -0.1521 -0.1194 -0.1359
 4630SOL     OW25348   3.987   0.401   5.676  0.2614  0.2694  0.9364
 4630SOL    HW125349   4.036   0.466   5.625  2.1350 -0.7873  1.4077
 4630SOL    HW225350   3.900   0.440   5.670 -0.5006 -1.4695  0.7147
 4631SOL     OW25351   2.620   4.400   7.879 -0.6204 -0.3755 -0.4985
 4631SOL    HW125352   2.666   4.331   7.927 -0.5971 -0.0317 -0.0218
 4631SOL    HW225353   2.696   4.459   7.885 -1.0562  0.0972  0.4123
 4632SOL     OW25354   4.198   2.653  10.109  0.4414  0.4791 -0.0471
 4632SOL    HW125355   4.183   2.696  10.193  3.1088  1.7773 -0.2266
 4632SOL    HW225356   4.228   2.726  10.054  2.5168  0.6604  1.3181
 4633SOL     OW25357   0.460   3.065  10.776  0.4907 -0.0418 -0.8587
 4633SOL    HW125358   0.475   2.971  10.774 -0.7095 -0.2710  0.6798
 4633SOL    HW225359   0.542   3.096  10.738  0.8040  0.3253  0.1342
 4634SOL     OW25360   4.439   2.857   1.249  0.3057  0.0388 -0.4889
 4634SOL    HW125361   4.516   2.911   1.264  1.3771 -0.7582 -3.1788
 4634SOL    HW225362   4.375   2.921   1.279 -1.3307 -1.5879 -0.5039
 4635SOL     OW25363   2.145   1.913   1.586  0.0877 -0.3415 -0.2055
 4635SOL    HW125364   2.155   1.827   1.627  1.1579 -0.6412 -1.0912
 4635SOL    HW225365   2.062   1.939   1.626  0.7784  0.8405  0.4685
 4636SOL     OW25366   1.678   1.751  16.684 -0.4777 -0.8373 -0.2768
 4636SOL    HW125367   1.705   1.816  16.619 -1.9702  0.1518  0.0907
 4636SOL    HW225368   1.605   1.706  16.642 -0.0146 -2.5589  0.7450
 4637SOL     OW25369   0.404   3.886   6.158 -0.3500  0.1092  0.0510
 4637SOL    HW125370   0.468   3.936   6.208 -0.2205  1.6848 -1.6614
 4637SOL    HW225371   0.459   3.827   6.106  1.5937  1.5844  0.4381
 4638SOL     OW25372   3.425   1.899   4.381  0.1378 -0.2300 -0.3082
 4638SOL    HW125373   3.443   1.830   4.317  1.1672 -0.1332 -0.1191
 4638SOL    HW225374   3.366   1.855   4.443  1.7134 -0.9300  0.6980
 4639SOL     OW25375   4.617   0.797   4.742  0.4745  0.6303 -1.1480
 4639SOL    HW125376   4.545   0.747   4.703  0.5777  1.3638 -2.2606
 4639SOL    HW225377   4.670   0.728   4.784 -3.6671 -2.7881 -1.5254
 4640SOL     OW25378   4.254   0.120   0.518  0.1133  0.5541  0.5931
 4640SOL    HW125379   4.265   0.026   0.531  0.1763  0.4699 -0.0597
 4640SOL    HW225380   4.324   0.163   0.567  1.2289 -0.8594  0.2323
 4641SOL     OW25381   4.328   1.703   8.910 -0.6258  0.2334 -0.1405
 4641SOL    HW125382   4.412   1.724   8.953 -1.2436  2.0120  0.1888
 4641SOL    HW225383   4.282   1.665   8.984 -0.2833  1.4691  0.7229
 4642SOL     OW25384   4.314   3.605   7.521  0.3334  0.5692 -0.1019
 4642SOL    HW125385   4.394   3.563   7.489  0.3653  1.2677 -0.9514
 4642SOL    HW225386   4.342   3.695   7.503 -0.6661  0.5965 -1.5425
 4643SOL     OW25387   1.602   2.949  14.433  0.6469 -0.1426  0.3580
 4643SOL    HW125388   1.685   2.956  14.479 -0.7256  2.0293  2.5338
 4643SOL    HW225389   1.618   2.986  14.346 -0.8765 -2.6092 -0.9665
 4644SOL     OW25390   3.249   2.008   2.485  0.0042  0.4424  0.6731
 4644SOL    HW125391   3.213   2.090   2.451  0.3013  0.7056  0.9943
 4644SOL    HW225392   3.300   1.970   2.413  0.5714  3.3870 -0.4855
 4645SOL     OW25393   0.423   3.495   8.245  0.2613 -0.1027 -0.5475
 4645SOL    HW125394   0.373   3.454   8.315  0.8837 -1.5020 -0.9332
 4645SOL    HW225395   0.349   3.506   8.186 -0.0723 -2.2886 -0.5261
 4646SOL     OW25396   1.957   3.931   0.342  0.1188 -0.0460  0.2335
 4646SOL    HW125397   1.921   3.844   0.325  1.3605 -0.4222 -0.4779
 4646SOL    HW225398   2.032   3.931   0.282 -0.4451 -1.8096 -0.4718
 4647SOL     OW25399   1.221   4.628   2.514 -0.7480 -0.0716 -0.3796
 4647SOL    HW125400   1.139   4.623   2.465  0.1556 -0.6283 -1.8181
 4647SOL    HW225401   1.293   4.637   2.451  0.8375  0.6328  1.5380
 4648SOL     OW25402   0.022   3.119   6.930 -0.2134 -0.1563 -0.1969
 4648SOL    HW125403   0.072   3.073   6.863  0.3307 -1.4905  1.1311
 4648SOL    HW225404   0.004   3.201   6.884 -0.9264  0.8125  1.7843
 4649SOL     OW25405   4.419   1.029   0.539  0.1763 -0.9704  0.1417
 4649SOL    HW125406   4.484   1.032   0.469  1.1557  0.9918  1.1464
 4649SOL    HW225407   4.435   1.111   0.585 -2.4525  0.1837 -1.0475
 4650SOL     OW25408   4.693   0.099  12.695 -0.2028  0.1374  0.2267
 4650SOL    HW125409   4.705   0.076  12.787  2.4855 -0.3111 -0.2552
 4650SOL    HW225410   0.050   0.065  12.656  0.5859  1.4348  0.7079
 4651SOL     OW25411   0.856   0.489  11.605 -0.3588  0.2103 -0.4270
 4651SOL    HW125412   0.834   0.401  11.573 -1.8783  0.9686 -1.4278
 4651SOL    HW225413   0.880   0.522  11.519  0.5311 -2.6685 -1.2870
 4652SOL     OW25414   3.237   1.811   4.565  0.1292  0.1139  0.1949
 4652SOL    HW125415   3.147   1.808   4.599  0.0381 -2.0871 -0.2022
 4652SOL    HW225416   3.289   1.852   4.633 -1.0287  1.0051  0.5432
 4653SOL     OW25417   0.949   2.160   0.817 -0.2038  0.4031 -0.3121
 4653SOL    HW125418   0.925   2.174   0.909 -2.3135  2.3931 -1.1585
 4653SOL    HW225419   0.877   2.201   0.769  0.1637 -0.5013 -1.6186
 4654SOL     OW25420   3.784   3.801   0.703  0.7540  0.1688 -0.1130
 4654SOL    HW125421   3.845   3.754   0.647  1.4303  2.4619 -1.2911
 4654SOL    HW225422   3.778   3.876   0.644 -2.1302 -0.4866 -0.6686
 4655SOL     OW25423   1.817   1.978   0.046 -0.6641 -0.1003  0.3611
 4655SOL    HW125424   1.875   1.902   0.055  0.2059  0.4677 -0.4122
 4655SOL    HW225425   1.861   2.037   0.107  2.6642  0.5989 -2.6972
 4656SOL     OW25426   2.537   0.875   1.035 -0.1493 -0.4385  0.0075
 4656SOL    HW125427   2.576   0.961   1.023  0.0189 -0.4988  0.1169
 4656SOL    HW225428   2.594   0.844   1.106 -0.2903 -2.7708 -0.8939
 4657SOL     OW25429   1.362   0.618   5.858  0.4062 -0.2805 -0.2728
 4657SOL    HW125430   1.367   0.609   5.953 -2.2715  1.7238  0.0544
 4657SOL    HW225431   1.327   0.531   5.838 -1.3183  0.6281 -1.2266
 4658SOL     OW25432   2.243   0.222   4.997  0.0330 -0.4044 -0.4617
 4658SOL    HW125433   2.312   0.167   4.960  1.8207  1.2379  0.4298
 4658SOL    HW225434   2.197   0.245   4.916 -2.0077 -2.2189  0.1930
 4659SOL     OW25435   4.114   2.649   6.959  0.0586  0.5990  0.1075
 4659SOL    HW125436   4.184   2.636   7.023  0.2178  1.7691  0.1687
 4659SOL    HW225437   4.083   2.726   7.008 -0.3936 -1.3647  2.8932
 4660SOL     OW25438   4.649   0.120   7.353 -0.3281 -0.1811 -0.2643
 4660SOL    HW125439   4.592   0.049   7.382 -1.3909  0.6189 -0.3747
 4660SOL    HW225440   0.001   0.103   7.410  0.1602 -1.1042 -1.1850
 4661SOL     OW25441   0.718   2.964   1.132 -0.2048  0.0928 -0.0155
 4661SOL    HW125442   0.644   2.912   1.163 -0.2538 -0.4414 -1.0517
 4661SOL    HW225443   0.679   3.050   1.116  0.8794  0.3545 -1.2400
 4662SOL     OW25444   0.211   2.803  16.902 -0.7486 -0.0007  0.1287
 4662SOL    HW125445   0.247   2.891  16.911 -1.6791  0.4018 -0.0767
 4662SOL    HW225446   0.122   2.807  16.938 -1.0196  0.3691 -0.5765
 4663SOL     OW25447   0.612   0.981   4.334 -0.0496  0.4497 -0.0015
 4663SOL    HW125448   0.620   0.993   4.429 -1.3084 -4.3014  0.6719
 4663SOL    HW225449   0.701   1.006   4.309  0.1076  0.6829  0.7727
 4664SOL     OW25450   1.999   0.283   4.004 -0.0685  0.1240 -0.6346
 4664SOL    HW125451   2.016   0.196   4.040 -1.5236 -0.0398 -0.3303
 4664SOL    HW225452   1.992   0.327   4.089 -1.8940  0.6723 -1.0621
 4665SOL     OW25453   3.236   4.488  10.033 -0.5081 -0.4081  0.0625
 4665SOL    HW125454   3.204   4.462  10.120 -0.8906 -0.5007 -0.1052
 4665SOL    HW225455   3.317   4.438  10.029 -1.9285 -2.7254  0.7460
 4666SOL     OW25456   1.102   2.141  16.750  0.3610  0.6068 -0.1037
 4666SOL    HW125457   1.115   2.162  16.843  1.2353 -2.9382  0.5802
 4666SOL    HW225458   1.161   2.202  16.705 -0.9464  3.1568  1.6096
 4667SOL     OW25459   4.478   0.936  16.970  0.2298  0.2984  0.4273
 4667SOL    HW125460   4.521   0.869  17.023  0.3357  0.0781  0.0682
 4667SOL    HW225461   4.531   1.011  16.997 -2.6614  2.5331 -0.1100
 4668SOL     OW25462   4.278   4.527  13.148  1.0564  0.1682  0.5415
 4668SOL    HW125463   4.188   4.520  13.180  0.4184 -0.8389 -1.4280
 4668SOL    HW225464   4.279   4.460  13.080 -0.2687  1.0098 -0.3167
 4669SOL     OW25465   3.256   2.062   3.291 -0.3898  0.7448  0.2421
 4669SOL    HW125466   3.168   2.053   3.328 -0.7627 -0.9540 -1.1232
 4669SOL    HW225467   3.275   2.156   3.302  0.0323  0.5547  1.1699
 4670SOL     OW25468   2.214   1.907   8.277 -0.0247 -0.3972 -0.3717
 4670SOL    HW125469   2.257   1.939   8.198  1.7242 -0.7132  0.4409
 4670SOL    HW225470   2.132   1.867   8.250 -0.6662  0.2675  0.5961
 4671SOL     OW25471   3.365   4.595   6.077 -0.0730  0.3897  0.1455
 4671SOL    HW125472   3.315   4.639   6.145  0.8475 -0.1263  1.1575
 4671SOL    HW225473   3.313   4.618   6.000 -2.2266  0.0740  1.5436
 4672SOL     OW25474   0.298   1.631  13.064  0.1137 -0.2370  0.0321
 4672SOL    HW125475   0.206   1.620  13.041 -0.1102  0.0368  0.8043
 4672SOL    HW225476   0.295   1.660  13.155 -2.7080 -3.4512  0.9618
 4673SOL     OW25477   1.884   0.217   3.218 -0.1041  0.2478 -0.3996
 4673SOL    HW125478   1.976   0.230   3.196  0.3202 -1.3420  0.3969
 4673SOL    HW225479   1.891   0.133   3.264 -1.8192  3.1194  5.1033
 4674SOL     OW25480   3.750   1.368   4.855 -0.2107  0.8440  0.1098
 4674SOL    HW125481   3.842   1.388   4.836 -0.0370 -1.5015 -1.4660
 4674SOL    HW225482   3.746   1.273   4.847  0.5210  0.8438 -0.2990
 4675SOL     OW25483   1.856   0.541  12.257 -0.6115  0.1873 -0.7081
 4675SOL    HW125484   1.876   0.473  12.193  0.5779 -0.5857  0.4822
 4675SOL    HW225485   1.813   0.489  12.325  2.2458 -1.3028 -0.0696
 4676SOL     OW25486   1.779   0.240   8.171 -0.2588  0.2458  0.0621
 4676SOL    HW125487   1.791   0.235   8.076 -0.5115  2.6344 -0.0908
 4676SOL    HW225488   1.690   0.268   8.194 -1.2105 -2.9375  0.2177
 4677SOL     OW25489   3.502   0.858  13.552 -0.2715 -0.1313 -0.1399
 4677SOL    HW125490   3.478   0.921  13.620  1.7147  1.0718 -0.5571
 4677SOL    HW225491   3.549   0.913  13.489  1.4592 -1.3635  0.0735
 4678SOL     OW25492   3.354   1.652   3.342  0.0093  0.1577  0.0845
 4678SOL    HW125493   3.423   1.586   3.338 -0.9901 -0.8449 -0.7254
 4678SOL    HW225494   3.393   1.733   3.376  1.3941 -1.0118  1.2859
 4679SOL     OW25495   4.460   0.415   2.940 -0.8482 -0.2449 -0.3281
 4679SOL    HW125496   4.522   0.460   2.997  1.8840 -0.8679 -2.8013
 4679SOL    HW225497   4.458   0.329   2.981  1.9270 -0.0308  0.2846
 4680SOL     OW25498   0.499   4.677   8.088  0.4281  0.0310 -0.2714
 4680SOL    HW125499   0.526   4.720   8.170 -0.3542 -0.5882  0.3084
 4680SOL    HW225500   0.567   4.713   8.031  0.9238  1.9188  1.4898
 4681SOL     OW25501   3.519   4.635   4.712 -0.2916 -0.8075 -0.2642
 4681SOL    HW125502   3.444   4.690   4.733 -0.5189 -1.3483  0.3366
 4681SOL    HW225503   3.568   4.634   4.794 -1.5662  1.7885  0.5273
 4682SOL     OW25504   2.751   3.732   8.558 -0.0137  0.0032  0.1603
 4682SOL    HW125505   2.690   3.689   8.618  0.5845  0.3834  1.0395
 4682SOL    HW225506   2.830   3.726   8.611  2.0221 -0.5434 -2.9426
 4683SOL     OW25507   2.597   3.189  17.631 -0.6146 -1.2106 -0.3327
 4683SOL    HW125508   2.516   3.228  17.598  0.2969  1.1929  0.2325
 4683SOL    HW225509   2.577   3.179   0.029 -2.1948 -0.5793 -0.6013
 4684SOL     OW25510   1.876   1.551   8.912 -0.7349 -0.4605  0.5164
 4684SOL    HW125511   1.827   1.556   8.830  1.3589  0.0844 -0.6711
 4684SOL    HW225512   1.942   1.494   8.875  0.9685  3.1327 -1.9628
 4685SOL     OW25513   0.911   1.397  14.357  0.3509  0.0225  0.2432
 4685SOL    HW125514   0.952   1.439  14.280 -1.6101  2.7539  0.7145
 4685SOL    HW225515   0.894   1.479  14.403 -2.1294 -0.3559 -0.0181
 4686SOL     OW25516   4.317   1.159   8.777 -0.2921  0.3408 -0.5166
 4686SOL    HW125517   4.393   1.196   8.822  0.7497 -1.3306 -0.9399
 4686SOL    HW225518   4.368   1.102   8.721 -0.1602 -0.6314  0.5942
 4687SOL     OW25519   0.431   3.553   7.806 -0.3639  0.2349  0.1379
 4687SOL    HW125520   0.514   3.586   7.771 -0.1589 -1.0090 -0.5408
 4687SOL    HW225521   0.411   3.635   7.851 -2.6844  0.1822 -0.7799
 4688SOL     OW25522   3.185   1.295   5.199 -0.6982  0.0547 -0.5079
 4688SOL    HW125523   3.172   1.200   5.192 -0.4457  0.0426 -0.7825
 4688SOL    HW225524   3.126   1.324   5.130 -1.2601 -0.7233 -0.3588
 4689SOL     OW25525   1.575   1.377  17.110 -0.6013  0.0408  0.4056
 4689SOL    HW125526   1.585   1.407  17.020 -1.2048  2.3766  1.1242
 4689SOL    HW225527   1.550   1.453  17.162 -0.8216 -0.9583  1.7835
 4690SOL     OW25528   2.373   2.002   2.599  0.7524 -0.4697  0.3962
 4690SOL    HW125529   2.303   2.041   2.651  0.5133 -0.3022 -0.0472
 4690SOL    HW225530   2.334   1.974   2.516 -0.3112  0.4751  0.5753
 4691SOL     OW25531   1.703   3.065   9.898 -0.1986 -0.0394  0.1938
 4691SOL    HW125532   1.663   3.025   9.821  0.2422 -3.1671  1.5994
 4691SOL    HW225533   1.773   3.004   9.919 -1.4373 -1.2916  0.6480
 4692SOL     OW25534   1.380   0.673  11.396  0.1525  0.4491  0.3028
 4692SOL    HW125535   1.394   0.768  11.389  0.5694  0.2103 -2.3935
 4692SOL    HW225536   1.307   0.664  11.457  1.5850  0.1962  1.9717
 4693SOL     OW25537   1.512   0.415   3.102 -0.4118 -0.1731 -0.1535
 4693SOL    HW125538   1.474   0.503   3.100 -0.5985 -0.2073  2.0782
 4693SOL    HW225539   1.566   0.417   3.023  0.2473 -0.8667  0.2784
 4694SOL     OW25540   3.398   3.186  17.306 -0.1032 -0.1240 -0.2637
 4694SOL    HW125541   3.425   3.251  17.371  1.3038 -1.4383  0.4584
 4694SOL    HW225542   3.477   3.137  17.283  1.3875  1.6021  1.2139
 4695SOL     OW25543   2.268   3.804  10.426  0.4303  0.2666 -0.4475
 4695SOL    HW125544   2.222   3.833  10.505  4.5495 -0.6584  2.2505
 4695SOL    HW225545   2.278   3.712  10.451 -1.3733  0.4606  0.9268
 4696SOL     OW25546   1.852   1.248  13.816 -0.3561  0.2457  0.1679
 4696SOL    HW125547   1.772   1.274  13.861  1.5292  1.2009  2.9857
 4696SOL    HW225548   1.872   1.331  13.772  0.2893  0.8350  1.5816
 4697SOL     OW25549   3.922   3.344   6.589 -0.4646  0.3196  0.0755
 4697SOL    HW125550   4.016   3.340   6.602 -0.2896 -2.2470 -1.8874
 4697SOL    HW225551   3.892   3.432   6.613 -1.4589  0.1244 -0.4202
 4698SOL     OW25552   4.161   2.317   0.854  0.2092  0.2742 -0.1008
 4698SOL    HW125553   4.231   2.261   0.886  0.1886 -1.6962 -3.5111
 4698SOL    HW225554   4.100   2.266   0.800 -1.7692  1.3264  1.1004
 4699SOL     OW25555   1.287   3.720   8.457 -0.1840  0.2469  0.7893
 4699SOL    HW125556   1.364   3.663   8.459 -0.5943 -0.3393  0.2686
 4699SOL    HW225557   1.303   3.771   8.536 -0.4776  0.7393  0.5257
 4700SOL     OW25558   4.162   3.198   8.590  0.2330 -0.6553  0.2637
 4700SOL    HW125559   4.135   3.267   8.529  0.6453  0.2543  1.1057
 4700SOL    HW225560   4.205   3.258   8.651 -2.7251 -1.2739  2.9377
 4701SOL     OW25561   1.984   0.329   9.432  0.0813 -0.2457  0.1313
 4701SOL    HW125562   1.923   0.342   9.504  3.3283  1.1134  2.6132
 4701SOL    HW225563   2.003   0.417   9.397 -4.2164  1.3267  1.7851
 4702SOL     OW25564   4.483   3.970   8.297  0.9110  0.0956  0.1363
 4702SOL    HW125565   4.544   4.000   8.364 -0.9776  0.8760  1.5294
 4702SOL    HW225566   4.423   3.924   8.355  1.1801 -0.8012 -0.3053
 4703SOL     OW25567   4.065   0.703   9.589 -0.4610  0.2403  0.3966
 4703SOL    HW125568   4.081   0.783   9.538  2.6209 -0.1525  0.7286
 4703SOL    HW225569   4.075   0.747   9.673 -0.2609 -1.9470  1.5089
 4704SOL     OW25570   1.112   2.033   1.396  0.7323 -0.0095 -0.7687
 4704SOL    HW125571   1.069   2.088   1.462 -0.3806 -0.7437 -0.8761
 4704SOL    HW225572   1.185   2.088   1.368  0.7907 -0.7512 -2.0457
 4705SOL     OW25573   2.224   3.506   9.302  0.6290 -0.7834  0.1258
 4705SOL    HW125574   2.200   3.578   9.361 -0.7247  0.9356 -2.5374
 4705SOL    HW225575   2.209   3.540   9.213  1.5767 -2.2168 -0.5660
 4706SOL     OW25576   3.435   0.135   7.311 -0.0126 -0.6080 -0.5340
 4706SOL    HW125577   3.432   0.078   7.234  2.3447  0.3736 -1.3669
 4706SOL    HW225578   3.458   0.215   7.264 -0.0350  0.3508  1.1005
 4707SOL     OW25579   1.020   1.717   8.023  0.5697 -0.7084  0.2967
 4707SOL    HW125580   1.100   1.710   8.076  1.3328  1.0451 -0.6450
 4707SOL    HW225581   0.951   1.722   8.089 -0.7292  0.8419 -1.1830
 4708SOL     OW25582   2.442   1.216   8.176  0.6572 -0.5796  0.5219
 4708SOL    HW125583   2.408   1.286   8.121  2.2612 -0.3364 -0.1542
 4708SOL    HW225584   2.499   1.168   8.117 -0.5863  1.2539 -2.1686
 4709SOL     OW25585   3.415   0.638  10.806  0.4691  0.3995 -0.2407
 4709SOL    HW125586   3.444   0.605  10.721  0.7203 -2.6294  1.0213
 4709SOL    HW225587   3.475   0.589  10.862  1.5465  1.2641 -0.6384
 4710SOL     OW25588   0.629   3.577   5.277  0.7494 -0.3514  0.4333
 4710SOL    HW125589   0.698   3.570   5.211 -0.1540  0.6006 -0.6014
 4710SOL    HW225590   0.590   3.662   5.257  0.3246 -0.7085 -0.2443
 4711SOL     OW25591   2.432   4.107   7.043  0.1744 -0.0454  0.3582
 4711SOL    HW125592   2.460   4.198   7.046  1.1955 -0.3964  1.6779
 4711SOL    HW225593   2.478   4.073   6.967 -1.0717 -0.2738 -0.2973
 4712SOL     OW25594   1.312   1.868   8.425 -0.2833 -0.1078  0.4134
 4712SOL    HW125595   1.271   1.939   8.475 -1.7184 -1.7205  1.5234
 4712SOL    HW225596   1.293   1.881   8.332 -0.5101  0.5447  0.5497
 4713SOL     OW25597   2.922   3.495   5.117  0.2082 -0.2662 -0.3096
 4713SOL    HW125598   2.845   3.444   5.091 -0.1425  0.1725 -0.1405
 4713SOL    HW225599   2.882   3.580   5.134 -0.3190 -1.0644  2.3598
 4714SOL     OW25600   0.182   3.299   8.200 -0.5745 -0.0252  0.2907
 4714SOL    HW125601   0.219   3.334   8.280 -1.0040 -0.2893  0.6081
 4714SOL    HW225602   0.091   3.327   8.202 -0.4510  0.5272 -1.5375
 4715SOL     OW25603   4.081   2.203   2.726 -0.0041  0.1452 -0.2649
 4715SOL    HW125604   4.054   2.144   2.797  0.2730  0.4021  0.0549
 4715SOL    HW225605   4.057   2.292   2.754 -2.3491 -0.1190 -1.4637
 4716SOL     OW25606   3.262   3.419  10.779  0.5379  0.5293  0.0374
 4716SOL    HW125607   3.246   3.337  10.825  0.7323  0.5134  0.0781
 4716SOL    HW225608   3.237   3.484  10.846  1.3735 -0.4547  1.3152
 4717SOL     OW25609   3.597   4.131   4.581  0.4512  0.1441 -0.3934
 4717SOL    HW125610   3.546   4.211   4.591  1.5590  0.6726  1.0092
 4717SOL    HW225611   3.623   4.114   4.672 -0.4737 -1.7574 -0.4820
 4718SOL     OW25612   0.507   0.084   6.081 -0.3539  0.1654 -0.1054
 4718SOL    HW125613   0.456   0.003   6.084 -0.6608  0.3268 -0.9054
 4718SOL    HW225614   0.461   0.127   6.153 -1.7767 -0.2512 -0.7613
 4719SOL     OW25615   0.346   2.506   8.133  0.5321 -0.1965  0.6994
 4719SOL    HW125616   0.426   2.558   8.121 -1.1113  2.2648  0.3707
 4719SOL    HW225617   0.320   2.541   8.218  0.1493  1.7123 -0.1918
 4720SOL     OW25618   3.619   1.049   5.706  0.6362 -0.2116  0.0909
 4720SOL    HW125619   3.635   1.142   5.687  0.4918  0.2231  2.1432
 4720SOL    HW225620   3.661   1.005   5.632 -0.2832  1.9866 -1.7314
 4721SOL     OW25621   1.397   2.250  10.148  0.2916  0.0928 -0.0231
 4721SOL    HW125622   1.319   2.200  10.127  0.8085 -0.7167 -0.0082
 4721SOL    HW225623   1.431   2.209  10.227  1.5428 -0.4288 -0.8133
 4722SOL     OW25624   1.923   2.273   4.605 -0.3125 -0.1408 -0.0745
 4722SOL    HW125625   2.018   2.265   4.618 -0.2093  1.0608 -0.0658
 4722SOL    HW225626   1.894   2.188   4.573  1.5168 -0.0468 -1.9837
 4723SOL     OW25627   4.613   0.690  12.796  0.4748  0.2407  0.2628
 4723SOL    HW125628   4.548   0.635  12.840 -0.7187  0.2546 -1.4716
 4723SOL    HW225629   4.558   0.756  12.754  0.7421 -0.0769 -0.5668
 4724SOL     OW25630   2.789   2.593  12.304 -0.4190  0.1573 -0.4345
 4724SOL    HW125631   2.831   2.578  12.219  1.3333 -1.2602  0.6919
 4724SOL    HW225632   2.757   2.504  12.318  1.5852 -0.5452 -0.3420
 4725SOL     OW25633   3.118   1.059   9.159  0.4056  0.1364  0.4961
 4725SOL    HW125634   3.113   1.051   9.254 -0.2962  0.3115  0.4752
 4725SOL    HW225635   3.123   1.155   9.158 -1.5965  0.2188 -1.0641
 4726SOL     OW25636   3.179   4.704   8.352 -0.3352  0.4703  0.5017
 4726SOL    HW125637   3.099   4.675   8.396  1.4979 -2.0733  2.0883
 4726SOL    HW225638   3.202   0.048   8.416  2.3792 -0.4660  0.4712
 4727SOL     OW25639   4.101   2.649   2.989 -0.3142 -0.1962  1.2441
 4727SOL    HW125640   4.027   2.588   2.998  0.1651 -0.8972  0.4685
 4727SOL    HW225641   4.092   2.684   2.900 -1.3174  0.1960  1.4985
 4728SOL     OW25642   3.630   1.856   5.327 -0.0868 -0.6254 -0.8525
 4728SOL    HW125643   3.581   1.776   5.306 -0.3964 -0.3062 -1.3638
 4728SOL    HW225644   3.647   1.895   5.241 -0.9438 -0.1138 -0.7900
 4729SOL     OW25645   4.329   1.176   4.065  0.7032 -0.0772  0.1044
 4729SOL    HW125646   4.411   1.127   4.070 -0.2272 -1.4464  2.0136
 4729SOL    HW225647   4.272   1.099   4.061  1.2489 -0.4433 -0.7118
 4730SOL     OW25648   0.047   3.623   2.645  0.2128  0.5504 -0.3632
 4730SOL    HW125649   4.678   3.620   2.667  0.6239  0.6150  1.3982
 4730SOL    HW225650   0.074   3.700   2.694  0.6334  0.9049 -1.1504
 4731SOL     OW25651   3.704   3.252   2.405  0.2389  0.4967 -0.7247
 4731SOL    HW125652   3.759   3.328   2.385  1.9978 -1.1326 -2.0636
 4731SOL    HW225653   3.755   3.189   2.355 -3.3851 -3.9169  1.2019
 4732SOL     OW25654   3.873   3.479   3.118 -0.3003  0.0510  0.4625
 4732SOL    HW125655   3.848   3.539   3.048 -2.2901 -0.2627  0.8878
 4732SOL    HW225656   3.812   3.407   3.102 -0.6723  1.2865 -3.5813
 4733SOL     OW25657   4.250   0.665   7.905  0.3947 -0.2680  0.5261
 4733SOL    HW125658   4.303   0.634   7.979  1.2672 -1.9996 -0.8555
 4733SOL    HW225659   4.185   0.596   7.912  0.0598  0.1381  1.4301
 4734SOL     OW25660   1.213   3.284   7.238 -0.2102 -0.1381  0.1540
 4734SOL    HW125661   1.119   3.273   7.253 -0.4889  0.2262 -1.3387
 4734SOL    HW225662   1.215   3.292   7.143 -0.8437 -2.0627 -0.0330
 4735SOL     OW25663   3.918   3.304   9.321 -0.1419  0.2311  0.1364
 4735SOL    HW125664   3.831   3.265   9.325  1.5992 -3.7471  0.1856
 4735SOL    HW225665   3.918   3.312   9.416 -2.6327  1.2493  0.0414
 4736SOL     OW25666   1.866   2.971   2.416  0.2334  0.0404  0.0977
 4736SOL    HW125667   1.822   3.012   2.491  1.5333  1.9870 -0.2265
 4736SOL    HW225668   1.799   2.913   2.379 -2.1269  1.5629  1.9829
 4737SOL     OW25669   2.873   4.029   6.800 -0.1333  0.4276  0.5224
 4737SOL    HW125670   2.825   3.995   6.724  0.7239 -0.2728  0.2990
 4737SOL    HW225671   2.953   4.064   6.760  0.0291 -0.8618 -0.2653
 4738SOL     OW25672   3.354   1.413   2.717  0.4635  0.1832 -0.2295
 4738SOL    HW125673   3.423   1.375   2.770  0.4491 -1.0771 -1.1259
 4738SOL    HW225674   3.337   1.346   2.651 -0.0237 -1.9055  1.9823
 4739SOL     OW25675   4.235   2.219  17.384 -0.0160  0.0727 -0.0566
 4739SOL    HW125676   4.238   2.138  17.435  1.6624 -0.2962 -0.7592
 4739SOL    HW225677   4.280   2.275  17.448  1.3268  0.0799 -1.0200
 4740SOL     OW25678   4.360   3.138   6.336 -0.0304 -0.1879 -0.4856
 4740SOL    HW125679   4.417   3.066   6.365 -1.0206 -0.2891  1.2152
 4740SOL    HW225680   4.296   3.089   6.284 -1.9977  0.2530  1.5146
 4741SOL     OW25681   0.398   1.690   9.368  0.1259 -0.3373 -0.4119
 4741SOL    HW125682   0.456   1.765   9.379 -0.4675  0.5183 -3.2132
 4741SOL    HW225683   0.425   1.649   9.451 -0.3303  2.4221  1.1053
 4742SOL     OW25684   1.892   0.768   8.937 -0.3007 -0.7965  0.3486
 4742SOL    HW125685   1.860   0.719   9.013 -0.7472  0.5612  1.0547
 4742SOL    HW225686   1.849   0.852   8.953  1.9254  0.0948  1.7475
 4743SOL     OW25687   0.303   4.172  15.795 -0.1799  0.6446  0.0069
 4743SOL    HW125688   0.242   4.101  15.778 -0.0285  1.0255 -2.1685
 4743SOL    HW225689   0.301   4.223  15.713  0.8608 -2.7816 -2.1418
 4744SOL     OW25690   4.102   1.269   8.222 -0.2807 -0.5010 -0.0848
 4744SOL    HW125691   4.144   1.186   8.200 -0.0083 -0.0613 -1.2716
 4744SOL    HW225692   4.181   1.321   8.206 -0.3715  0.0895  1.3669
 4745SOL     OW25693   3.256   1.708   3.744 -0.5215  0.3723  0.0726
 4745SOL    HW125694   3.269   1.614   3.753  2.4496  0.8725  1.1986
 4745SOL    HW225695   3.335   1.751   3.778 -0.9479  1.2603 -0.0539
 4746SOL     OW25696   2.063   3.461   1.709  0.3290  0.4410  0.2628
 4746SOL    HW125697   1.997   3.520   1.675 -1.8637 -1.9299  0.4426
 4746SOL    HW225698   2.032   3.375   1.682 -1.1407  0.3336  2.2696
 4747SOL     OW25699   1.633   1.130   7.004 -0.1968 -1.1845  0.0184
 4747SOL    HW125700   1.639   1.179   6.922 -0.7788  0.2032  0.8051
 4747SOL    HW225701   1.544   1.151   7.035 -1.1684 -1.2760 -2.7173
 4748SOL     OW25702   0.174   4.365   6.515 -0.6590 -0.0984 -0.6674
 4748SOL    HW125703   0.121   4.313   6.575  0.7725 -0.8146 -0.0230
 4748SOL    HW225704   0.139   4.452   6.532  0.8248  0.0906  1.4104
 4749SOL     OW25705   4.691   1.800   1.306 -0.2804 -0.1061 -0.4331
 4749SOL    HW125706   4.714   1.744   1.233  0.2375  0.0893 -0.4210
 4749SOL    HW225707   4.596   1.789   1.307 -0.2171 -0.6498 -0.6015
 4750SOL     OW25708   4.251   4.358   2.109  0.4292 -0.0684 -0.3545
 4750SOL    HW125709   4.257   4.311   2.192  0.5053  1.5864  0.5827
 4750SOL    HW225710   4.171   4.320   2.072  0.3949 -0.8180  0.4811
 4751SOL     OW25711   2.676   2.956   5.853 -0.3892 -0.1973  0.3138
 4751SOL    HW125712   2.675   2.893   5.924 -2.7958 -0.9206 -0.3442
 4751SOL    HW225713   2.609   3.016   5.886 -3.1281 -1.6674 -2.5742
 4752SOL     OW25714   3.767   4.429   9.114 -0.2577  0.4379 -0.1561
 4752SOL    HW125715   3.712   4.507   9.123  0.7114  1.0067  0.8604
 4752SOL    HW225716   3.721   4.364   9.167 -2.0443  0.3803 -1.7694
 4753SOL     OW25717   2.051   1.001   6.845 -0.2725 -0.1205  0.5224
 4753SOL    HW125718   2.062   0.906   6.849 -0.4447 -0.1312  0.7528
 4753SOL    HW225719   1.958   1.011   6.827 -0.1005  0.4602 -0.0485
 4754SOL     OW25720   4.607   1.620   0.778 -0.4893  0.1341  0.2798
 4754SOL    HW125721   4.642   1.694   0.729 -1.7354  1.4267  1.3468
 4754SOL    HW225722   4.531   1.594   0.726 -0.0003  0.5164 -0.6389
 4755SOL     OW25723   3.836   4.680   4.711  0.0670  0.2544 -0.1568
 4755SOL    HW125724   3.756   4.656   4.664 -0.5806 -0.8571  1.4920
 4755SOL    HW225725   3.895   4.677   4.636  0.9070 -3.8988  0.6829
 4756SOL     OW25726   3.512   0.073   1.988 -0.3856  0.1927  0.2632
 4756SOL    HW125727   3.500   0.006   1.920  1.2374 -1.9947  2.1526
 4756SOL    HW225728   3.563   0.025   2.053  2.4482 -1.3555 -3.0820
 4757SOL     OW25729   0.794   0.607  13.870  0.3214 -0.6472  0.0635
 4757SOL    HW125730   0.764   0.597  13.960  1.4319  1.6936  0.7076
 4757SOL    HW225731   0.720   0.652  13.829 -1.2545 -1.6223  1.8623
 4758SOL     OW25732   1.597   3.376   0.565 -0.3150  0.1160  0.2580
 4758SOL    HW125733   1.594   3.297   0.511  0.8543  1.4289 -1.7523
 4758SOL    HW225734   1.659   3.358   0.635  1.3717  0.8338 -1.0366
 4759SOL     OW25735   1.310   2.708   7.162  0.0495  0.3881  0.2855
 4759SOL    HW125736   1.383   2.682   7.107 -1.3332 -0.7827 -1.0084
 4759SOL    HW225737   1.263   2.766   7.102  1.5642  1.6980  0.3744
 4760SOL     OW25738   0.837   0.753   2.433  0.5403  0.3923 -0.2374
 4760SOL    HW125739   0.838   0.684   2.367  0.9367  1.3954 -1.2575
 4760SOL    HW225740   0.884   0.827   2.396 -0.7499  2.1013  1.5224
 4761SOL     OW25741   0.951   0.480   0.625  0.2287 -0.0715  0.0587
 4761SOL    HW125742   1.007   0.427   0.680 -0.7176 -0.3305  0.7812
 4761SOL    HW225743   0.989   0.463   0.539  1.0816 -1.3751  0.7080
 4762SOL     OW25744   0.624   3.563   6.624  0.5115  0.2306 -0.1643
 4762SOL    HW125745   0.702   3.595   6.579 -0.9808  2.4782 -1.1404
 4762SOL    HW225746   0.559   3.623   6.588 -0.3855 -0.8445 -0.3537
 4763SOL     OW25747   1.418   3.679  17.089  0.1934 -0.0845  0.3413
 4763SOL    HW125748   1.352   3.685  17.158 -0.7432  1.3912 -0.6572
 4763SOL    HW225749   1.493   3.696  17.146 -0.2553 -0.0655  0.9298
 4764SOL     OW25750   0.453   2.271   2.381  0.3610  0.3603  0.1807
 4764SOL    HW125751   0.464   2.355   2.337  0.5163  1.8845  3.0946
 4764SOL    HW225752   0.359   2.258   2.368  0.4697 -0.7447  0.4504
 4765SOL     OW25753   0.855   1.811   9.853  0.1489 -0.6699 -0.2850
 4765SOL    HW125754   0.869   1.760   9.773  1.5088 -3.0035  1.4468
 4765SOL    HW225755   0.768   1.780   9.879 -0.4144  1.6665  0.5925
 4766SOL     OW25756   2.031   1.289   2.180 -0.3512  0.3247  0.2288
 4766SOL    HW125757   2.049   1.375   2.218 -2.9389  0.7380  0.5506
 4766SOL    HW225758   2.112   1.280   2.129 -0.0458  0.5396  0.6763
 4767SOL     OW25759   1.041   1.985   7.823  0.6763  0.0612 -0.0120
 4767SOL    HW125760   1.068   1.913   7.881 -1.3523  0.3289  1.2534
 4767SOL    HW225761   1.011   1.940   7.744 -1.8943  0.4210  0.7696
 4768SOL     OW25762   2.376   3.433   5.955 -0.1930  0.2093  0.2406
 4768SOL    HW125763   2.281   3.421   5.944 -0.2639  0.2577  0.7644
 4768SOL    HW225764   2.374   3.450   6.049 -2.8671 -1.0752  0.4284
 4769SOL     OW25765   0.986   3.646   2.978 -0.9688 -0.2618  0.3137
 4769SOL    HW125766   0.898   3.626   3.008 -1.8946  1.9973 -0.8777
 4769SOL    HW225767   1.039   3.567   2.991 -1.7550 -0.8339  0.0427
 4770SOL     OW25768   2.460   4.301   0.817 -0.3150  0.1865 -0.2908
 4770SOL    HW125769   2.469   4.392   0.788  4.3630  0.4249  1.7658
 4770SOL    HW225770   2.419   4.325   0.900 -0.2627 -0.4134 -0.0923
 4771SOL     OW25771   4.596   1.189   6.026  0.1234 -0.0101 -0.3914
 4771SOL    HW125772   4.573   1.101   6.055 -0.4147 -0.5288 -2.3911
 4771SOL    HW225773   4.683   1.167   5.994  0.4045  0.0043  0.3545
 4772SOL     OW25774   2.738   1.842  15.317  0.7920  0.0070 -0.8383
 4772SOL    HW125775   2.703   1.908  15.258 -1.4148  0.1349  0.5961
 4772SOL    HW225776   2.662   1.784  15.307  0.6152  0.3182 -1.2891
 4773SOL     OW25777   1.180   2.218   0.716  0.3165 -0.6148 -0.8294
 4773SOL    HW125778   1.234   2.141   0.733  2.2879  0.8139 -0.5796
 4773SOL    HW225779   1.090   2.195   0.738  0.6604 -1.0310  0.1485
 4774SOL     OW25780   4.011   2.451   4.228  0.1100 -0.1739  0.0430
 4774SOL    HW125781   3.955   2.423   4.155 -0.0272  0.6143 -0.1516
 4774SOL    HW225782   3.967   2.521   4.275  2.6102  0.7603  0.9841
 4775SOL     OW25783   1.555   3.664   1.590 -0.0594 -0.3263  0.4399
 4775SOL    HW125784   1.619   3.649   1.521 -0.7440  0.0753 -0.2945
 4775SOL    HW225785   1.477   3.621   1.554  1.4619 -1.5577 -1.3548
 4776SOL     OW25786   0.501   3.100  16.995  0.3372 -0.1772  0.3650
 4776SOL    HW125787   0.534   3.126  17.080  1.2589 -0.7717  0.1876
 4776SOL    HW225788   0.581   3.084  16.945  0.0699  1.4364 -0.6065
 4777SOL     OW25789   4.520   4.613   4.203  0.1312 -0.1054  0.6034
 4777SOL    HW125790   4.427   4.595   4.217  0.3106 -2.9450 -1.8096
 4777SOL    HW225791   4.524   4.631   4.109  1.6558 -0.2304  0.6349
 4778SOL     OW25792   1.020   0.066   8.307  0.0019 -0.2102 -0.4155
 4778SOL    HW125793   1.095   0.023   8.264  0.4180 -0.4990  0.6048
 4778SOL    HW225794   1.067   0.101   8.382 -1.5606  0.9053  0.0390
 4779SOL     OW25795   3.685   1.804   3.287 -0.1387  0.0147  0.2796
 4779SOL    HW125796   3.619   1.839   3.346 -1.0084 -0.0671 -0.6454
 4779SOL    HW225797   3.730   1.755   3.355 -2.9168 -1.1379  1.2863
 4780SOL     OW25798   1.825   2.803  11.071  0.3916  0.3235  0.2323
 4780SOL    HW125799   1.762   2.739  11.035  2.5364 -1.3032 -0.6088
 4780SOL    HW225800   1.902   2.754  11.097  1.1325  0.4425 -1.7268
 4781SOL     OW25801   0.192   1.622   1.788 -0.0522 -0.2344 -0.5930
 4781SOL    HW125802   0.232   1.584   1.710 -1.6325 -1.1431 -0.9597
 4781SOL    HW225803   0.113   1.664   1.754 -0.2299  1.5354  1.9558
 4782SOL     OW25804   1.759   3.646   6.165  0.3653 -0.5494 -0.0933
 4782SOL    HW125805   1.779   3.590   6.240  0.1726 -1.9298 -1.0785
 4782SOL    HW225806   1.729   3.586   6.097 -0.5588  0.6980 -0.8018
 4783SOL     OW25807   0.237   4.441   7.658  0.1148  0.1669  0.2572
 4783SOL    HW125808   0.165   4.450   7.721  0.1523 -2.2687  0.6355
 4783SOL    HW225809   0.260   4.532   7.639  1.0825  0.3322  2.2127
 4784SOL     OW25810   3.664   0.305  10.519  0.5881 -0.5887 -0.8929
 4784SOL    HW125811   3.629   0.385  10.559  1.0906 -1.3271  1.0536
 4784SOL    HW225812   3.742   0.346  10.483  1.2940  1.0642  2.4495
 4785SOL     OW25813   1.376   3.516   4.484 -0.1686 -0.7549  0.5579
 4785SOL    HW125814   1.391   3.422   4.490 -1.0804 -1.0474 -1.6502
 4785SOL    HW225815   1.300   3.518   4.541 -0.1445  2.2101  0.4921
 4786SOL     OW25816   1.844   1.969   2.759  0.1764  0.2720 -0.2142
 4786SOL    HW125817   1.824   1.892   2.705 -1.5564 -0.3721  1.3183
 4786SOL    HW225818   1.891   1.930   2.833 -0.1105  0.5863  0.1347
 4787SOL     OW25819   2.234   2.185   3.252  0.2941 -0.1451  0.2146
 4787SOL    HW125820   2.181   2.151   3.180  0.4039 -0.5635  0.3331
 4787SOL    HW225821   2.169   2.190   3.322 -0.0539  0.3183 -0.1491
 4788SOL     OW25822   0.485   2.221  12.462  0.2716  0.2771  0.7229
 4788SOL    HW125823   0.417   2.187  12.404  3.9913 -2.3359 -2.1453
 4788SOL    HW225824   0.509   2.139  12.506  0.3001 -0.6160 -0.9627
 4789SOL     OW25825   1.586   1.566   8.351  0.1256  0.2770 -0.0153
 4789SOL    HW125826   1.523   1.552   8.422 -0.0487  3.0723  0.3704
 4789SOL    HW225827   1.561   1.658   8.343  0.0632  0.3365  0.8270
 4790SOL     OW25828   2.946   4.056   4.394  0.2233 -0.0912 -0.1152
 4790SOL    HW125829   2.882   3.992   4.362 -0.6428 -0.4245  2.2954
 4790SOL    HW225830   2.949   4.044   4.489 -0.8253 -0.4456 -0.1330
 4791SOL     OW25831   3.939   4.501   3.693 -0.7328  0.2365  0.2006
 4791SOL    HW125832   4.021   4.515   3.647 -0.4068 -0.1491  0.6692
 4791SOL    HW225833   3.903   4.589   3.681  1.4606  1.0527 -0.4282
 4792SOL     OW25834   3.631   2.265  10.698 -0.0453  0.3298  0.6710
 4792SOL    HW125835   3.612   2.337  10.758 -0.9344 -0.0646  0.8533
 4792SOL    HW225836   3.668   2.314  10.625 -0.2556  0.5972  0.7426
 4793SOL     OW25837   1.814   3.198   5.700 -0.3629  0.0255 -0.9527
 4793SOL    HW125838   1.759   3.159   5.632  0.3856  0.4239 -1.7763
 4793SOL    HW225839   1.779   3.149   5.774 -0.4564  1.8147  0.1817
 4794SOL     OW25840   2.424   1.185   8.964  0.2858  0.8861  0.3514
 4794SOL    HW125841   2.375   1.255   8.921 -0.2147  0.3496  0.0459
 4794SOL    HW225842   2.357   1.136   9.012  0.7517  0.6997  0.8079
 4795SOL     OW25843   1.525   1.960   4.540 -0.1779 -0.2851 -0.0504
 4795SOL    HW125844   1.430   1.970   4.543 -0.1247  0.0230  0.6916
 4795SOL    HW225845   1.538   1.907   4.619  1.6726  1.7801  1.0166
 4796SOL     OW25846   1.432   1.892  14.672  0.2489  0.1582 -0.3380
 4796SOL    HW125847   1.355   1.948  14.683  0.7868  1.1470 -1.5541
 4796SOL    HW225848   1.494   1.913  14.742  0.1347 -1.5715  0.2880
 4797SOL     OW25849   4.513   1.677   6.422 -0.4538 -0.3611 -0.2027
 4797SOL    HW125850   4.455   1.648   6.351 -3.7678  0.0038  2.4080
 4797SOL    HW225851   4.589   1.703   6.370  0.3966 -3.5862 -0.6040
 4798SOL     OW25852   1.417   4.478   5.499 -0.5591 -0.2019  0.0064
 4798SOL    HW125853   1.467   4.413   5.448  2.0031  0.4411  1.6789
 4798SOL    HW225854   1.384   4.534   5.429  0.8843 -0.4149 -0.8679
 4799SOL     OW25855   0.056   3.364   0.053 -0.0525 -0.2827  0.2479
 4799SOL    HW125856   4.701   3.323   0.017  0.6551 -0.4547 -1.0827
 4799SOL    HW225857   0.012   3.417   0.120 -0.2938 -0.1928  0.0212
 4800SOL     OW25858   0.460   2.785   7.564 -0.3873  0.5186  0.1007
 4800SOL    HW125859   0.400   2.859   7.557 -0.8414  0.0531 -1.0434
 4800SOL    HW225860   0.544   2.828   7.547 -1.6630  1.4832 -3.7216
 4801SOL     OW25861   4.448   0.386   8.704 -0.0072 -0.1031 -0.8257
 4801SOL    HW125862   4.491   0.463   8.743  0.8220 -1.3532  0.7035
 4801SOL    HW225863   4.516   0.322   8.724  0.9456  1.4101  0.7588
 4802SOL     OW25864   4.653   0.462   3.127 -0.3954  0.5051  0.1864
 4802SOL    HW125865   4.672   0.427   3.214  1.2846  1.4020  0.1830
 4802SOL    HW225866   4.721   0.527   3.109 -0.8641  1.2606  1.1263
 4803SOL     OW25867   3.501   1.997   0.808  0.2362 -0.4244  0.6270
 4803SOL    HW125868   3.411   2.002   0.840  0.3744  3.5325  0.4472
 4803SOL    HW225869   3.490   1.922   0.750 -0.4113  0.5398 -0.4800
 4804SOL     OW25870   0.741   1.516   1.459  0.0758 -0.5716  0.0814
 4804SOL    HW125871   0.668   1.568   1.493 -1.2630 -1.0404 -2.0510
 4804SOL    HW225872   0.704   1.463   1.388  0.8934 -1.4800  0.3377
 4805SOL     OW25873   4.267   0.646   3.570  0.1190 -0.6135  0.6500
 4805SOL    HW125874   4.200   0.607   3.626 -0.9676  0.2441 -0.0284
 4805SOL    HW225875   4.252   0.593   3.492  0.9309  0.9448 -0.5658
 4806SOL     OW25876   1.877   2.301   6.396  0.7614 -0.0319 -0.1004
 4806SOL    HW125877   1.844   2.241   6.463 -1.8203 -0.4660 -1.7619
 4806SOL    HW225878   1.791   2.318   6.356  0.9566 -2.2896 -1.4916
 4807SOL     OW25879   2.829   2.367   2.786  0.0329  0.4662 -0.2941
 4807SOL    HW125880   2.878   2.433   2.835  1.7726 -1.0890  0.0506
 4807SOL    HW225881   2.765   2.422   2.740  2.0085  1.1230 -2.2546
 4808SOL     OW25882   0.026   3.341   2.588  0.3864 -0.0472  0.1610
 4808SOL    HW125883   0.019   3.311   2.678  0.3452  1.9565  0.8340
 4808SOL    HW225884   0.046   3.434   2.600 -0.0942  0.2358 -1.1354
 4809SOL     OW25885   3.636   1.418   2.371 -0.1667  0.1358 -0.2078
 4809SOL    HW125886   3.634   1.483   2.300  3.5852 -0.0449 -0.4998
 4809SOL    HW225887   3.675   1.464   2.445 -0.1557 -0.3650  0.0928
 4810SOL     OW25888   1.068   2.360   4.597  0.9360 -0.1671  0.1489
 4810SOL    HW125889   1.045   2.336   4.507  0.9097  0.7211 -0.0796
 4810SOL    HW225890   1.041   2.281   4.644  1.2560  0.2200  0.9709
 4811SOL     OW25891   0.329   4.239   0.325  0.0408  0.0334 -0.9952
 4811SOL    HW125892   0.365   4.258   0.238 -0.3325  0.1530 -1.1243
 4811SOL    HW225893   0.384   4.298   0.376  0.3390 -0.4579 -0.7484
 4812SOL     OW25894   4.066   3.523   6.797  0.1228 -1.0168  0.2306
 4812SOL    HW125895   4.150   3.477   6.803  1.0445  0.6342  0.0292
 4812SOL    HW225896   4.012   3.470   6.855 -1.1518  1.0935  0.9920
 4813SOL     OW25897   1.248   3.101  13.890  0.6822  0.6320  0.1075
 4813SOL    HW125898   1.271   3.037  13.823 -2.2014  0.3161 -0.5805
 4813SOL    HW225899   1.165   3.069  13.926  1.5891  0.1987  1.8234
 4814SOL     OW25900   0.432   3.468  11.689 -0.3084  0.3735 -0.6210
 4814SOL    HW125901   0.502   3.514  11.734 -0.1436  0.7209 -1.2240
 4814SOL    HW225902   0.430   3.380  11.728  1.3312  0.8313  0.4562
 4815SOL     OW25903   4.375   1.270  15.767 -0.3125  0.0215  0.0640
 4815SOL    HW125904   4.332   1.245  15.685 -2.5363  1.2130  0.8645
 4815SOL    HW225905   4.325   1.351  15.775 -0.2618  0.1541 -0.9087
 4816SOL     OW25906   4.652   1.132   6.500  0.3133  0.0985 -0.2658
 4816SOL    HW125907   4.628   1.092   6.583  0.0519  0.3702 -0.2115
 4816SOL    HW225908   4.635   1.224   6.520  0.2393 -0.1339  0.6993
 4817SOL     OW25909   1.291   3.700  12.282  0.2491 -1.0814 -0.2999
 4817SOL    HW125910   1.332   3.647  12.213 -0.3178 -3.0048  0.8517
 4817SOL    HW225911   1.346   3.674  12.356  0.9688  2.8363  0.5632
 4818SOL     OW25912   4.236   3.645   8.576  1.1633 -0.0113  0.3150
 4818SOL    HW125913   4.157   3.693   8.549 -0.6872 -3.6007 -0.6392
 4818SOL    HW225914   4.302   3.707   8.544  1.6680  0.5849  2.5198
 4819SOL     OW25915   2.907   3.936   2.686  0.1627 -0.1004 -0.1604
 4819SOL    HW125916   2.933   3.996   2.616 -0.8326 -0.9019 -1.2197
 4819SOL    HW225917   2.877   3.996   2.755  1.0443  1.1308 -0.8560
 4820SOL     OW25918   3.248   4.170   8.433 -0.0603  0.5688  0.4060
 4820SOL    HW125919   3.187   4.242   8.447  0.2178  0.2440  3.3291
 4820SOL    HW225920   3.198   4.101   8.389  1.6644 -1.0322  0.9431
 4821SOL     OW25921   1.450   1.475   0.319  0.1189  0.0626  0.4293
 4821SOL    HW125922   1.459   1.536   0.392  3.2168 -0.2636  0.2793
 4821SOL    HW225923   1.539   1.450   0.296  0.3026  1.0153  0.1118
 4822SOL     OW25924   0.324   1.000   1.438  0.1793  0.1145  0.4472
 4822SOL    HW125925   0.282   0.962   1.516 -0.6006 -1.0183 -0.5235
 4822SOL    HW225926   0.294   1.091   1.436  0.9676  0.3190 -1.7190
 4823SOL     OW25927   3.987   1.265   7.966  0.1801  0.1191 -0.1993
 4823SOL    HW125928   4.002   1.275   8.060 -2.0297 -0.5357  0.2126
 4823SOL    HW225929   4.007   1.353   7.933 -0.5306 -0.0842 -1.1987
 4824SOL     OW25930   0.814   1.422   6.650 -0.6589  0.0279 -0.0870
 4824SOL    HW125931   0.784   1.511   6.631  2.6917  1.1621 -0.0643
 4824SOL    HW225932   0.835   1.439   6.742  0.2842 -0.8952 -0.1310
 4825SOL     OW25933   3.159   2.852  12.999  0.9484  0.0170  0.0896
 4825SOL    HW125934   3.100   2.796  12.949 -0.0031 -0.5717  1.8662
 4825SOL    HW225935   3.191   2.788  13.063  1.1993 -0.5742 -0.6224
 4826SOL     OW25936   3.867   0.258  14.145 -0.0005 -1.0855 -0.0349
 4826SOL    HW125937   3.924   0.295  14.078  0.2216 -1.8187 -0.2437
 4826SOL    HW225938   3.843   0.174  14.105  1.0467 -1.2407 -0.3144
 4827SOL     OW25939   4.410   2.717   9.061  0.0165  0.2338  0.2206
 4827SOL    HW125940   4.362   2.658   9.118  1.8460 -0.8026  0.6766
 4827SOL    HW225941   4.449   2.773   9.128  1.2516  0.8766 -1.0093
 4828SOL     OW25942   3.678   0.857   9.190 -0.4345 -0.0435  0.2990
 4828SOL    HW125943   3.705   0.840   9.100 -3.0809  1.3221 -0.7686
 4828SOL    HW225944   3.692   0.951   9.189  2.2420 -0.4554  0.1876
 4829SOL     OW25945   1.705   3.634   1.359 -0.1412  0.0731  0.4841
 4829SOL    HW125946   1.667   3.645   1.271 -0.6236 -2.1396  0.4191
 4829SOL    HW225947   1.762   3.558   1.346 -1.2708 -0.0856 -3.7277
 4830SOL     OW25948   2.981   1.096   5.920 -0.6892  0.2004 -0.0646
 4830SOL    HW125949   2.924   1.148   5.864 -2.0129 -0.3843  0.7506
 4830SOL    HW225950   3.002   1.027   5.857  0.8131  0.8936 -0.3215
 4831SOL     OW25951   0.010   2.633   2.973 -0.0335  0.5554 -0.5076
 4831SOL    HW125952   4.665   2.684   2.930  0.3894  1.7000  0.1989
 4831SOL    HW225953   4.723   2.549   2.928 -0.3183 -0.7087  1.8887
 4832SOL     OW25954   2.460   3.740   1.653 -0.2055  0.2465  0.5740
 4832SOL    HW125955   2.443   3.832   1.636  0.6879  0.2135 -0.5029
 4832SOL    HW225956   2.535   3.737   1.593 -0.3927 -0.6007  0.3810
 4833SOL     OW25957   2.352   0.759   7.429  0.3889  0.2440 -0.0009
 4833SOL    HW125958   2.443   0.727   7.431  0.5875  0.8831  2.4029
 4833SOL    HW225959   2.344   0.789   7.520  0.3693 -0.0835  0.1064
 4834SOL     OW25960   1.224   2.941   2.519  0.2970  0.2934 -0.2716
 4834SOL    HW125961   1.246   3.000   2.447  2.4701 -1.4155 -1.0064
 4834SOL    HW225962   1.158   2.887   2.475 -1.5605  2.7628 -0.5110
 4835SOL     OW25963   1.533   2.517   7.726 -0.0151 -0.4985 -0.3661
 4835SOL    HW125964   1.451   2.484   7.688 -0.3404  0.9534 -0.9282
 4835SOL    HW225965   1.503   2.533   7.816 -1.4619  0.5115 -1.0242
 4836SOL     OW25966   3.697   2.267  12.837 -0.2409  0.0064  0.3555
 4836SOL    HW125967   3.740   2.205  12.778  0.3627 -1.3660  2.2114
 4836SOL    HW225968   3.715   2.221  12.920 -2.6684  0.0997  0.9429
 4837SOL     OW25969   4.166   4.318   5.066  0.0194 -0.1661  0.6188
 4837SOL    HW125970   4.135   4.300   4.977 -0.6562  2.8682  0.2201
 4837SOL    HW225971   4.250   4.358   5.044 -0.5271  1.6803  1.8099
 4838SOL     OW25972   1.088   4.066  11.837  0.2536 -0.0542  0.9643
 4838SOL    HW125973   1.028   4.049  11.764  0.9642  2.0726 -0.1079
 4838SOL    HW225974   1.014   4.079  11.896 -1.1890 -0.2984 -0.7984
 4839SOL     OW25975   4.150   1.905   3.234  0.3808  0.2138  0.4260
 4839SOL    HW125976   4.116   1.947   3.155 -1.6589  0.1831  1.2887
 4839SOL    HW225977   4.118   1.815   3.230  0.6496  0.2331 -2.4800
 4840SOL     OW25978   4.384   4.081   1.843 -0.3259  0.6412  0.0707
 4840SOL    HW125979   4.332   4.157   1.869 -2.6472 -0.8455 -0.2642
 4840SOL    HW225980   4.366   4.086   1.749 -0.5158 -3.0524 -0.0742
 4841SOL     OW25981   4.065   0.958  15.052  0.1421  0.0683 -0.8032
 4841SOL    HW125982   4.073   0.876  15.101  1.1901 -0.5106 -1.9151
 4841SOL    HW225983   4.034   0.925  14.967 -0.4016 -0.1926 -0.4998
 4842SOL     OW25984   3.786   1.249   5.111  0.0886  0.0001 -0.0352
 4842SOL    HW125985   3.856   1.301   5.151 -2.7524  3.1877  0.8001
 4842SOL    HW225986   3.756   1.308   5.042  0.2313  1.5726  1.2585
 4843SOL     OW25987   1.230   3.742  11.345 -0.4915  0.2638  0.0353
 4843SOL    HW125988   1.267   3.670  11.395 -1.6606 -0.8707 -0.7434
 4843SOL    HW225989   1.142   3.709  11.326  0.0836 -1.5900  0.6630
 4844SOL     OW25990   0.546   1.944  11.137 -0.3549  0.2434  1.0457
 4844SOL    HW125991   0.610   1.972  11.202  0.9536 -1.0395  0.3272
 4844SOL    HW225992   0.473   1.927  11.197 -0.5326 -2.7686  0.0188
 4845SOL     OW25993   0.471   3.615   4.650  0.1004 -0.0139 -0.1590
 4845SOL    HW125994   0.444   3.539   4.598  0.9732 -0.6035  0.2540
 4845SOL    HW225995   0.481   3.587   4.741  0.3840 -0.9097 -0.4686
 4846SOL     OW25996   1.808   0.917   6.449  0.3472 -0.0292 -0.0408
 4846SOL    HW125997   1.779   0.855   6.382  0.6521 -1.2441  0.9291
 4846SOL    HW225998   1.722   0.949   6.478  0.5595  0.2468  0.2860
 4847SOL     OW25999   0.042   2.132   8.573 -0.3203 -0.1907  0.0892
 4847SOL    HW126000   0.043   2.072   8.647  0.6052  1.7821  1.6850
 4847SOL    HW226001   0.099   2.199   8.610  1.2828 -0.6300 -1.5802
 4848SOL     OW26002   3.259   3.833   6.730  0.1205 -0.5697 -0.0649
 4848SOL    HW126003   3.334   3.836   6.670 -1.2700  0.9671 -1.7455
 4848SOL    HW226004   3.200   3.899   6.694  3.5857  1.6582 -1.6812
 4849SOL     OW26005   2.738   1.299   3.640 -0.1755  0.0527 -0.1112
 4849SOL    HW126006   2.772   1.278   3.553  0.0222 -0.3450  0.0590
 4849SOL    HW226007   2.804   1.365   3.663  0.6481 -0.7595 -0.1305
 4850SOL     OW26008   1.436   0.783  14.675  0.3941  0.3171  0.6239
 4850SOL    HW126009   1.382   0.716  14.717  1.2885 -2.0077 -1.9155
 4850SOL    HW226010   1.506   0.795  14.739  0.4934  2.6496  0.0609
 4851SOL     OW26011   2.236   3.990  16.630 -0.1694 -0.4580  0.5032
 4851SOL    HW126012   2.155   3.981  16.680 -0.9210  0.6306 -0.5140
 4851SOL    HW226013   2.295   4.026  16.697 -0.1727 -0.5366  0.5490
 4852SOL     OW26014   2.661   0.073   5.800  0.2827 -0.0447 -0.0090
 4852SOL    HW126015   2.617   4.718   5.831  1.6689 -0.1805  1.5769
 4852SOL    HW226016   2.656   0.037   5.711 -0.6684  0.3575 -0.1077
 4853SOL     OW26017   0.835   1.092   1.121 -0.4680  0.4595 -0.0531
 4853SOL    HW126018   0.775   1.090   1.196  1.3935 -1.1856  1.3754
 4853SOL    HW226019   0.779   1.059   1.050  0.0775  0.8182 -0.6544
 4854SOL     OW26020   4.081   3.243   2.414 -0.2002 -0.1916  0.2201
 4854SOL    HW126021   4.018   3.191   2.365 -1.2716 -0.3682  1.8045
 4854SOL    HW226022   4.158   3.207   2.369  2.1628  4.1730  0.7207
 4855SOL     OW26023   2.678   2.921   0.822  0.3439  0.0031  0.1718
 4855SOL    HW126024   2.713   2.846   0.870  0.0983 -1.3251 -1.6992
 4855SOL    HW226025   2.602   2.943   0.876  0.4120  0.3230  0.1386
 4856SOL     OW26026   0.276   1.987   2.648  0.4430  0.0541  0.1114
 4856SOL    HW126027   0.260   1.911   2.705  1.4206 -0.9990 -1.0246
 4856SOL    HW226028   0.323   1.936   2.582  1.1462  2.8190 -1.5190
 4857SOL     OW26029   1.851   0.283   8.685  0.2929  0.3877  0.1763
 4857SOL    HW126030   1.779   0.344   8.671 -0.7213 -0.9162 -0.3300
 4857SOL    HW226031   1.841   0.292   8.779  1.4014  3.1623  0.0345
 4858SOL     OW26032   3.322   2.582   6.814 -0.2072  0.0040  0.2501
 4858SOL    HW126033   3.312   2.656   6.753  0.8216  1.5442  1.9208
 4858SOL    HW226034   3.239   2.538   6.802  0.4979 -1.1369 -0.4269
 4859SOL     OW26035   1.496   0.717   2.025  0.0034 -0.2576  0.6955
 4859SOL    HW126036   1.530   0.646   1.971  0.5365  0.8195 -0.3522
 4859SOL    HW226037   1.407   0.723   1.991  0.5370  1.1827 -0.4003
 4860SOL     OW26038   4.081   0.528   4.755 -0.6858  0.0195  0.0041
 4860SOL    HW126039   4.154   0.490   4.707  0.7433 -0.1501  2.2843
 4860SOL    HW226040   4.095   0.502   4.847  3.6835  1.7446 -0.1735
 4861SOL     OW26041   0.621   1.627  14.166  0.2363 -0.6304  0.0923
 4861SOL    HW126042   0.711   1.640  14.139  0.2022  3.0724  1.8083
 4861SOL    HW226043   0.630   1.548  14.220 -1.3477 -1.2121 -0.4710
 4862SOL     OW26044   0.973   3.572   6.492  0.1153  0.2567 -0.2661
 4862SOL    HW126045   1.006   3.606   6.409 -0.0376  0.2994 -0.3092
 4862SOL    HW226046   0.931   3.647   6.533 -1.1700 -0.0787 -1.0017
 4863SOL     OW26047   0.724   3.052   3.639 -0.2443  0.8488 -0.6803
 4863SOL    HW126048   0.631   3.034   3.629 -0.5217  1.4463  0.8015
 4863SOL    HW226049   0.733   3.129   3.583 -1.5844 -0.3320 -2.5170
 4864SOL     OW26050   3.073   4.603  16.500 -0.5729 -0.7109  0.1215
 4864SOL    HW126051   2.992   4.653  16.487 -0.9173 -0.6010  2.7053
 4864SOL    HW226052   3.051   4.516  16.532 -0.1009 -0.3722  1.3772
 4865SOL     OW26053   2.985   4.381   2.968  0.4591  0.2833  0.1694
 4865SOL    HW126054   2.961   4.452   3.027  0.3044 -2.9169  3.9646
 4865SOL    HW226055   3.075   4.373   3.001  0.7737  3.2338  0.0561
 4866SOL     OW26056   4.438   1.738   5.684  0.1417  0.2150  0.9644
 4866SOL    HW126057   4.497   1.813   5.689  2.5100 -1.5955 -0.0935
 4866SOL    HW226058   4.362   1.774   5.637 -0.0273 -0.7074  0.5416
 4867SOL     OW26059   2.838   2.836   7.145  0.9898  0.0794 -0.5873
 4867SOL    HW126060   2.795   2.903   7.093 -0.7895  0.1761  1.0008
 4867SOL    HW226061   2.812   2.857   7.235  0.8590  0.7614 -0.7807
 4868SOL     OW26062   4.619   0.405   8.051  0.4499  0.0236  0.3245
 4868SOL    HW126063   4.613   0.469   8.121  2.5475  0.3856  0.1795
 4868SOL    HW226064   4.714   0.397   8.044  0.4162 -0.8804  0.9803
 4869SOL     OW26065   4.390   3.705   1.071  0.1633  0.1610 -0.6325
 4869SOL    HW126066   4.356   3.638   1.130 -0.2653 -0.2654 -1.3724
 4869SOL    HW226067   4.393   3.649   0.994 -2.1850 -0.4859 -0.2385
 4870SOL     OW26068   3.568   1.961   2.383 -0.5263  0.5486 -0.1298
 4870SOL    HW126069   3.508   1.921   2.319  0.7984 -0.5915 -0.6626
 4870SOL    HW226070   3.617   2.028   2.335  0.9649 -2.3459 -2.6740
 4871SOL     OW26071   3.924   2.549  10.044  0.0520  0.2151  0.0341
 4871SOL    HW126072   4.003   2.564  10.096  1.4457  1.0730 -2.3378
 4871SOL    HW226073   3.948   2.468   9.998 -0.1456 -0.2975  0.8412
 4872SOL     OW26074   2.221   4.597   8.560  0.3128 -0.2044 -0.0663
 4872SOL    HW126075   2.164   4.671   8.581 -0.0923 -0.5838  0.1806
 4872SOL    HW226076   2.215   4.548   8.643 -1.1470 -1.3103 -0.8188
 4873SOL     OW26077   1.181   1.403   1.468 -0.3422  0.2554  0.1790
 4873SOL    HW126078   1.101   1.456   1.474 -0.1580  0.6863 -1.1537
 4873SOL    HW226079   1.241   1.446   1.528 -1.3559  1.8673  0.0691
 4874SOL     OW26080   1.276   3.705   9.229 -0.2355  0.6410  0.6353
 4874SOL    HW126081   1.186   3.685   9.204 -0.0377 -1.0389  1.3389
 4874SOL    HW226082   1.253   3.763   9.301 -0.6069 -1.0776  1.8813
 4875SOL     OW26083   0.146   0.893  15.146 -0.1465  0.1736  0.6801
 4875SOL    HW126084   0.167   0.934  15.231  1.8981  0.5784 -0.0183
 4875SOL    HW226085   0.126   0.969  15.092  1.1986 -0.9133 -1.3550
 4876SOL     OW26086   3.321   4.171   5.367 -0.2474  0.4191 -0.6598
 4876SOL    HW126087   3.364   4.228   5.431  0.4347 -0.6302 -0.1860
 4876SOL    HW226088   3.240   4.149   5.412  0.3148  2.9678  1.5607
 4877SOL     OW26089   1.448   1.279   0.774  0.2865 -0.0892  0.3739
 4877SOL    HW126090   1.359   1.285   0.738 -0.0088  0.6063  1.2039
 4877SOL    HW226091   1.449   1.218   0.847  0.3209 -0.2996  0.1953
 4878SOL     OW26092   4.622   1.374   4.246 -0.5461  0.9496 -0.5531
 4878SOL    HW126093   4.681   1.449   4.239  0.3403  0.1297 -1.9117
 4878SOL    HW226094   4.670   1.329   4.316  0.7003 -0.1808 -2.1134
 4879SOL     OW26095   1.332   4.074   9.141  0.6145  0.2855  0.6347
 4879SOL    HW126096   1.284   4.011   9.195  0.2020 -0.9123 -1.1361
 4879SOL    HW226097   1.278   4.059   9.063  1.0931  1.4656  0.0830
 4880SOL     OW26098   1.108   1.963   5.192  0.1715  0.6968 -0.3022
 4880SOL    HW126099   1.163   2.038   5.167  3.9568 -2.0809 -0.3162
 4880SOL    HW226100   1.039   1.959   5.125 -0.1463 -1.3209  0.1505
 4881SOL     OW26101   2.152   0.773  10.626  0.9802 -0.4529 -0.4764
 4881SOL    HW126102   2.220   0.745  10.565 -0.3709 -0.9696 -1.7479
 4881SOL    HW226103   2.173   0.710  10.695  0.2744  1.4042  1.4481
 4882SOL     OW26104   1.884   1.247   4.085 -0.3920  0.1101  0.1828
 4882SOL    HW126105   1.914   1.224   4.173  1.2291  0.3972 -0.3080
 4882SOL    HW226106   1.964   1.272   4.040 -1.0474  2.6177  0.3990
 4883SOL     OW26107   1.890   1.466   9.772  0.7970  0.4003  0.0203
 4883SOL    HW126108   1.837   1.542   9.795 -1.1012 -1.1709  0.8385
 4883SOL    HW226109   1.960   1.473   9.837  0.5033  0.4374  0.3266
 4884SOL     OW26110   3.835   3.411  10.414  0.2418  0.6832 -0.5451
 4884SOL    HW126111   3.798   3.327  10.442 -2.1083  1.8692 -0.0790
 4884SOL    HW226112   3.773   3.437  10.345  1.7695 -0.4592 -2.3571
 4885SOL     OW26113   1.088   0.963  12.208  0.3502  0.0620 -0.3932
 4885SOL    HW126114   1.114   0.911  12.132 -0.1400  0.3084 -0.7260
 4885SOL    HW226115   1.009   1.006  12.178 -1.3470 -1.6986  1.5119
 4886SOL     OW26116   1.624   0.673   3.567 -0.5723 -0.4999  0.5366
 4886SOL    HW126117   1.632   0.665   3.662 -0.4672  1.7823  0.7302
 4886SOL    HW226118   1.587   0.588   3.545  0.6651 -1.4388  2.0804
 4887SOL     OW26119   3.802   2.468   4.978  0.1018 -0.3110  0.3189
 4887SOL    HW126120   3.874   2.474   5.041 -1.2844  2.2138  1.6929
 4887SOL    HW226121   3.778   2.376   4.984 -1.1996 -0.1140 -1.9562
 4888SOL     OW26122   1.021   4.334   7.873  0.0505 -0.4840 -0.0026
 4888SOL    HW126123   1.028   4.371   7.960  2.7498  0.2582 -0.5231
 4888SOL    HW226124   0.950   4.385   7.835  1.0050  0.5365 -0.4270
 4889SOL     OW26125   3.484   0.387  12.997 -0.1814  0.0351  0.3171
 4889SOL    HW126126   3.567   0.340  12.999  0.7588  1.6932  0.3476
 4889SOL    HW226127   3.490   0.405  13.091  1.4762 -0.7653  0.3663
 4890SOL     OW26128   0.784   0.350   8.372  0.5381 -0.2811  0.0148
 4890SOL    HW126129   0.830   0.337   8.455  0.5168  0.0630  0.0796
 4890SOL    HW226130   0.741   0.264   8.375  1.5494 -0.7735  0.7461
 4891SOL     OW26131   2.172   4.123  17.242  0.3318 -0.2506 -0.1455
 4891SOL    HW126132   2.169   4.114  17.146  0.2076 -0.3697 -0.1314
 4891SOL    HW226133   2.142   4.035  17.267 -1.3454  0.5361  0.6304
 4892SOL     OW26134   1.617   4.295   5.043  0.2269  0.2244 -0.3159
 4892SOL    HW126135   1.655   4.377   5.074  3.2035 -0.8237 -1.2192
 4892SOL    HW226136   1.606   4.309   4.949 -0.6621  0.3055 -0.2008
 4893SOL     OW26137   2.661   2.429   7.656  0.1344  0.4036 -0.6511
 4893SOL    HW126138   2.708   2.385   7.585 -0.3536 -0.2219 -0.5880
 4893SOL    HW226139   2.598   2.362   7.682  0.4412  0.8811  1.3606
 4894SOL     OW26140   3.388   0.148   1.678 -0.0481 -0.4150 -0.7137
 4894SOL    HW126141   3.342   0.092   1.741 -1.2982 -1.7086 -2.7665
 4894SOL    HW226142   3.419   0.219   1.733 -1.9799  0.8436 -1.2531
 4895SOL     OW26143   1.298   4.012   1.465  0.2122 -0.4813  0.3816
 4895SOL    HW126144   1.277   4.084   1.405  2.4747 -1.3368 -1.4580
 4895SOL    HW226145   1.211   3.990   1.498 -1.2376  0.6682 -2.5746
 4896SOL     OW26146   3.999   3.972   8.872  0.3621  0.2256 -0.5138
 4896SOL    HW126147   3.996   4.056   8.919 -0.0542  1.2350 -2.3321
 4896SOL    HW226148   4.022   4.007   8.786  1.2360  0.0531 -0.3420
 4897SOL     OW26149   4.383   0.633   3.190  0.1840 -0.0403 -0.4685
 4897SOL    HW126150   4.455   0.575   3.165  0.4669 -0.9059  2.3879
 4897SOL    HW226151   4.390   0.704   3.126 -0.8826  0.6730  0.2033
 4898SOL     OW26152   2.940   1.020   7.649 -0.0196 -0.1589 -0.1288
 4898SOL    HW126153   3.034   1.007   7.639 -0.0532 -1.0852  0.8101
 4898SOL    HW226154   2.915   1.100   7.603  1.6324 -0.3327 -1.3385
 4899SOL     OW26155   1.406   1.778   1.527  0.2347 -0.2678 -0.1729
 4899SOL    HW126156   1.398   1.797   1.433  0.9911 -1.4851 -0.4909
 4899SOL    HW226157   1.502   1.785   1.530  0.1874 -0.2719  1.4505
 4900SOL     OW26158   4.104   1.096   1.428 -0.8236  0.1406  0.0975
 4900SOL    HW126159   4.120   1.024   1.489 -0.7159 -0.6346 -0.8492
 4900SOL    HW226160   4.064   1.050   1.354  1.5807 -0.2037 -0.9940
 4901SOL     OW26161   4.500   2.694   2.823 -0.5095  0.2349  0.2916
 4901SOL    HW126162   4.419   2.739   2.848 -2.2735 -1.7413 -1.9349
 4901SOL    HW226163   4.467   2.615   2.781  0.4782  0.5938 -1.1464
 4902SOL     OW26164   2.981   2.643  17.139 -0.3515  0.3901  0.8942
 4902SOL    HW126165   3.001   2.569  17.082 -0.4760  0.3993  0.8377
 4902SOL    HW226166   2.891   2.622  17.167 -1.1841  0.7916 -1.4874
 4903SOL     OW26167   4.411   3.140   8.341  0.0189 -0.0983  0.8284
 4903SOL    HW126168   4.362   3.109   8.265  1.6943  1.6959 -0.9899
 4903SOL    HW226169   4.395   3.063   8.395 -0.3615  2.4980  4.4139
 4904SOL     OW26170   3.664   2.697   7.148  0.2619  0.5745 -0.2061
 4904SOL    HW126171   3.729   2.705   7.217 -0.6544 -1.9157  0.9498
 4904SOL    HW226172   3.656   2.601   7.150 -1.3611  0.7212  0.0485
 4905SOL     OW26173   1.289   0.511   9.112 -0.3221  0.3366 -0.1871
 4905SOL    HW126174   1.241   0.536   9.033  1.3195  0.3171 -1.1968
 4905SOL    HW226175   1.373   0.550   9.090 -0.2201 -0.1710 -0.6963
 4906SOL     OW26176   2.948   1.778  11.531 -0.0531 -0.2992 -0.3665
 4906SOL    HW126177   2.880   1.841  11.506 -0.4556 -0.5901 -0.0091
 4906SOL    HW226178   2.949   1.722  11.454  1.7850 -1.9545  0.8831
 4907SOL     OW26179   4.638   3.704   6.537 -0.5200  0.5848  0.2385
 4907SOL    HW126180   4.716   3.757   6.551 -0.9158  0.7601  1.7119
 4907SOL    HW226181   4.610   3.728   6.448 -1.9393  2.6680  1.2596
 4908SOL     OW26182   1.819   4.215   3.072 -0.8346 -0.1729  0.3181
 4908SOL    HW126183   1.788   4.260   2.993 -3.0750 -2.8110 -0.3172
 4908SOL    HW226184   1.910   4.244   3.086 -0.6310 -0.3043 -0.7250
 4909SOL     OW26185   0.886   2.732   6.601  0.3093  0.3046 -0.8696
 4909SOL    HW126186   0.883   2.667   6.530 -1.6666  0.7553 -1.1913
 4909SOL    HW226187   0.877   2.811   6.549 -1.1234  0.5336 -0.2655
 4910SOL     OW26188   0.369   3.850   5.789  0.1985  0.1924  0.4644
 4910SOL    HW126189   0.349   3.811   5.703 -0.5313 -0.5161  0.9515
 4910SOL    HW226190   0.301   3.800   5.835  2.0368 -1.1625  1.7203
 4911SOL     OW26191   2.204   4.210   2.474 -0.1313 -0.4660  0.4194
 4911SOL    HW126192   2.231   4.273   2.406 -0.3314 -0.9420 -0.1041
 4911SOL    HW226193   2.168   4.147   2.411 -1.5357 -0.3692  1.1242
 4912SOL     OW26194   1.025   4.604   2.322 -0.1498  0.2383 -0.0295
 4912SOL    HW126195   1.063   4.543   2.258 -1.8525  0.2330 -1.0375
 4912SOL    HW226196   1.022   4.684   2.270  2.2466  0.1584 -0.3294
 4913SOL     OW26197   2.711   0.823   6.580  0.4269  0.0542  0.5363
 4913SOL    HW126198   2.692   0.914   6.602  1.7607  0.2203  1.0297
 4913SOL    HW226199   2.649   0.805   6.510 -0.7032 -0.6191  1.7246
 4914SOL     OW26200   0.392   0.479   3.781 -0.7469  0.6481 -0.3027
 4914SOL    HW126201   0.449   0.491   3.705 -0.1083  0.1463  0.0919
 4914SOL    HW226202   0.459   0.436   3.835 -0.0951  0.6549 -1.1167
 4915SOL     OW26203   1.539   4.567   5.730 -0.2785 -0.5674  0.0960
 4915SOL    HW126204   1.509   4.535   5.645 -2.1393 -1.7308  1.1776
 4915SOL    HW226205   1.522   4.659   5.709 -1.1570 -0.9307 -0.8022
 4916SOL     OW26206   1.754   3.091  13.490  0.2709  0.2586 -0.3904
 4916SOL    HW126207   1.673   3.141  13.481 -0.0764 -0.1431  0.4579
 4916SOL    HW226208   1.725   3.005  13.521 -1.0686  0.8895  0.0867
 4917SOL     OW26209   0.658   2.608   5.932 -0.3018  0.4807  0.0377
 4917SOL    HW126210   0.732   2.547   5.936  0.0359  0.9282  0.5222
 4917SOL    HW226211   0.589   2.550   5.965 -0.2873  0.0988 -0.5990
 4918SOL     OW26212   4.028   4.512   6.941 -0.4647  0.3508 -0.2562
 4918SOL    HW126213   4.055   4.422   6.960 -0.8346  0.2817 -0.0517
 4918SOL    HW226214   4.015   4.537   7.033 -1.0721  1.5977 -0.6864
 4919SOL     OW26215   0.912   1.758  11.128 -0.2099 -0.5006 -0.0141
 4919SOL    HW126216   0.899   1.820  11.056  2.1889 -2.2302 -1.9293
 4919SOL    HW226217   0.847   1.688  11.123 -0.1440 -0.6384  0.9744
 4920SOL     OW26218   4.225   2.037   3.673 -0.0230  0.1481  0.0382
 4920SOL    HW126219   4.268   2.045   3.759  0.0289 -0.9486  0.1111
 4920SOL    HW226220   4.292   2.073   3.615  1.1180  1.0992  1.9467
 4921SOL     OW26221   2.634   2.231   3.899 -0.0298 -0.6975  0.2558
 4921SOL    HW126222   2.580   2.301   3.863  0.3586 -0.9947 -0.8937
 4921SOL    HW226223   2.622   2.248   3.993  1.1719 -0.6793  0.4011
 4922SOL     OW26224   1.714   2.358   0.312 -0.4911 -0.0980 -0.0647
 4922SOL    HW126225   1.763   2.285   0.349 -1.0804  0.5885  2.0885
 4922SOL    HW226226   1.695   2.332   0.222  0.5068 -1.0748  0.0136
 4923SOL     OW26227   4.454   3.732   0.729 -0.0841 -0.4288  0.7034
 4923SOL    HW126228   4.438   3.640   0.710 -0.8608  0.0968 -1.1699
 4923SOL    HW226229   4.437   3.773   0.644 -1.5423 -1.1642  0.6410
 4924SOL     OW26230   1.919   0.391  12.656  0.2227 -0.7315  0.4251
 4924SOL    HW126231   1.862   0.345  12.594 -1.0772  1.0144  0.3304
 4924SOL    HW226232   1.984   0.324  12.674 -0.9916 -2.0189  0.0453
 4925SOL     OW26233   1.393   3.229  10.701  0.0188  0.0506  0.6581
 4925SOL    HW126234   1.449   3.157  10.675 -0.4272  0.2758 -0.9459
 4925SOL    HW226235   1.385   3.208  10.794  0.0425  1.4345  0.9866
 4926SOL     OW26236   2.479   2.381   1.864 -0.5642  0.1245 -0.3306
 4926SOL    HW126237   2.429   2.301   1.849 -0.3476  0.0155 -0.4601
 4926SOL    HW226238   2.420   2.438   1.815  0.5198  0.7519 -0.9159
 4927SOL     OW26239   1.974   3.093   4.067  0.1246  0.1239  0.7580
 4927SOL    HW126240   1.960   3.108   3.973 -1.1953  1.1586  1.1095
 4927SOL    HW226241   2.058   3.048   4.073  0.0036 -0.1201  0.6035
 4928SOL     OW26242   0.662   3.304   5.094 -0.4470  0.0342 -0.8194
 4928SOL    HW126243   0.637   3.303   5.187 -0.2570 -1.4420 -0.7821
 4928SOL    HW226244   0.712   3.386   5.092 -2.5602  1.3680  0.6327
 4929SOL     OW26245   4.235   2.987   4.547  0.2958 -0.3569 -0.2994
 4929SOL    HW126246   4.209   2.934   4.472 -0.8728  1.4857 -1.1963
 4929SOL    HW226247   4.192   2.929   4.610 -2.8930  1.3446 -0.8973
 4930SOL     OW26248   3.722   2.525  12.794 -0.1805 -0.0087  0.6006
 4930SOL    HW126249   3.651   2.525  12.730  0.9444  1.5792 -0.6458
 4930SOL    HW226250   3.711   2.432  12.815 -2.3344  0.6002  2.1573
 4931SOL     OW26251   0.152   1.874  17.357  0.5430 -0.1570  0.1380
 4931SOL    HW126252   0.161   1.907  17.446 -2.2374  3.2769 -0.8702
 4931SOL    HW226253   0.208   1.797  17.366 -0.1818 -1.0663 -3.3286
 4932SOL     OW26254   3.328   3.122   7.819 -0.0470 -0.0017  0.4991
 4932SOL    HW126255   3.348   3.215   7.823  1.4910 -0.4358  2.6873
 4932SOL    HW226256   3.418   3.089   7.826  0.0318 -0.7747 -4.3188
 4933SOL     OW26257   2.523   4.611   3.515 -0.4436 -0.5422  0.2768
 4933SOL    HW126258   2.547   4.518   3.518  0.0274 -0.3968  0.9903
 4933SOL    HW226259   2.605   4.650   3.484  0.6638 -1.5923  1.8997
 4934SOL     OW26260   3.706   1.981   3.965 -0.2243  0.0098  0.5620
 4934SOL    HW126261   3.790   1.945   3.993  0.5355  1.4189  0.0719
 4934SOL    HW226262   3.691   2.040   4.038 -1.3479  1.6696 -1.0166
 4935SOL     OW26263   3.660   2.635   5.122  0.1766 -0.4116  0.0102
 4935SOL    HW126264   3.579   2.596   5.087  1.9520 -3.7069 -0.4191
 4935SOL    HW226265   3.722   2.595   5.061 -1.7039 -1.8241 -0.9996
 4936SOL     OW26266   1.101   2.054  13.224 -0.2453  0.5773  0.5414
 4936SOL    HW126267   1.062   2.088  13.143 -0.2822  0.9067  0.6976
 4936SOL    HW226268   1.042   2.085  13.293 -1.0234 -0.0379  0.1703
 4937SOL     OW26269   0.576   4.016   5.684  0.5375 -0.9460  0.7407
 4937SOL    HW126270   0.585   3.921   5.688  0.0900 -1.0093  0.1653
 4937SOL    HW226271   0.488   4.015   5.721 -0.5017 -2.9097 -1.7808
 4938SOL     OW26272   2.269   1.439   4.629  0.2872  0.2662  0.1885
 4938SOL    HW126273   2.187   1.462   4.586  0.3189 -1.1161 -0.6046
 4938SOL    HW226274   2.255   1.351   4.664 -1.2958 -0.0803 -1.3328
 4939SOL     OW26275   2.980   0.020  15.041 -0.2661 -0.6735 -0.8224
 4939SOL    HW126276   3.065   4.701  15.034 -0.1975 -0.5547 -0.7036
 4939SOL    HW226277   2.984   0.045  15.134 -1.7465  2.3802 -1.5761
 4940SOL     OW26278   4.162   1.990   6.814  0.0969  0.0210  1.0519
 4940SOL    HW126279   4.132   1.975   6.724  0.0055  0.1554  1.0597
 4940SOL    HW226280   4.167   2.086   6.816  2.1708 -0.0934  1.3835
 4941SOL     OW26281   0.574   3.392   6.296  0.1716  0.1375  0.3535
 4941SOL    HW126282   0.501   3.449   6.320 -0.9846 -1.4921  0.7419
 4941SOL    HW226283   0.588   3.420   6.205 -0.3394  0.9369  0.5203
 4942SOL     OW26284   1.203   0.565  15.897 -0.0704 -0.4017  0.1570
 4942SOL    HW126285   1.275   0.588  15.839 -1.1250 -0.5640 -1.2163
 4942SOL    HW226286   1.164   0.647  15.927 -0.0013 -0.1558 -0.4192
 4943SOL     OW26287   3.968   1.496   5.669 -0.5888 -0.0559  0.1010
 4943SOL    HW126288   4.019   1.535   5.741  0.5548  0.8272 -1.1967
 4943SOL    HW226289   3.890   1.471   5.719 -0.5094 -0.0867  0.2102
 4944SOL     OW26290   2.476   2.574   2.069 -0.1014 -0.0984  0.0086
 4944SOL    HW126291   2.456   2.517   1.995  0.6883  1.5648 -1.4959
 4944SOL    HW226292   2.403   2.571   2.131  1.4082 -0.1953  1.7969
 4945SOL     OW26293   2.184   4.642   7.729 -0.2694 -0.2452  0.3969
 4945SOL    HW126294   2.142   4.644   7.815  0.4355 -1.2416  0.7645
 4945SOL    HW226295   2.112   4.616   7.672  2.3313 -1.2488 -2.4199
 4946SOL     OW26296   2.540   0.634   4.476  0.0847  0.1112 -0.1620
 4946SOL    HW126297   2.492   0.559   4.442 -2.1543  1.9773 -1.0958
 4946SOL    HW226298   2.498   0.657   4.559 -0.0939  0.4987 -0.3595
 4947SOL     OW26299   2.924   2.915   3.521 -0.6634 -0.2982  0.2080
 4947SOL    HW126300   3.019   2.922   3.523 -1.0115  4.0569  1.4187
 4947SOL    HW226301   2.906   2.857   3.446 -0.4667 -0.0736 -0.0123
 4948SOL     OW26302   1.496   2.693   7.353  0.4499  0.3546 -0.0258
 4948SOL    HW126303   1.411   2.700   7.310  0.2233  0.9779  0.5301
 4948SOL    HW226304   1.499   2.771   7.408 -0.7530  0.2489  0.1733
 4949SOL     OW26305   4.356   3.801  15.655 -0.6667 -0.3537  0.2039
 4949SOL    HW126306   4.320   3.713  15.641 -1.2288  0.0611 -0.9617
 4949SOL    HW226307   4.274   3.850  15.647  0.2627  1.5236  2.3640
 4950SOL     OW26308   1.359   2.371  14.371 -0.3742 -0.3766 -0.3606
 4950SOL    HW126309   1.291   2.309  14.344 -0.4200 -0.7776  0.6477
 4950SOL    HW226310   1.305   2.445  14.344  1.2447  1.0229  0.2156
 4951SOL     OW26311   2.504   0.520   8.716  0.4779 -0.4010 -0.0898
 4951SOL    HW126312   2.409   0.530   8.713  0.4132 -0.9010  0.2077
 4951SOL    HW226313   2.528   0.580   8.645  1.3697 -2.2283 -1.3555
 4952SOL     OW26314   2.107   1.331   9.356  0.2804 -0.4172  0.0531
 4952SOL    HW126315   2.163   1.406   9.375  2.3783 -1.4449 -1.9642
 4952SOL    HW226316   2.022   1.368   9.378  0.9623  1.1120  0.0955
 4953SOL     OW26317   0.052   0.235   9.450 -0.0390  0.0587 -0.1360
 4953SOL    HW126318   4.707   0.168   9.450 -2.4139  2.4649 -0.2108
 4953SOL    HW226319   0.024   0.294   9.380 -0.4595  0.4190  0.3375
 4954SOL     OW26320   0.858   2.495   3.608  0.2633 -0.5703 -0.6215
 4954SOL    HW126321   0.807   2.545   3.672 -1.2710 -0.4428 -1.9531
 4954SOL    HW226322   0.797   2.491   3.534  1.0617  1.4221 -1.3791
 4955SOL     OW26323   3.337   1.468  13.107 -0.5473 -0.0158  0.2024
 4955SOL    HW126324   3.323   1.385  13.061  1.5843  0.1970 -0.8092
 4955SOL    HW226325   3.265   1.526  13.080 -0.0850  0.1223 -0.7188
 4956SOL     OW26326   0.048   3.527   5.397 -0.1044 -0.3019  0.2201
 4956SOL    HW126327   0.023   3.498   5.309  2.3270 -0.3308 -0.4739
 4956SOL    HW226328   0.095   3.608   5.378 -0.2909 -0.2578 -0.0600
 4957SOL     OW26329   4.087   2.219   4.330 -0.3795  0.5828 -0.6659
 4957SOL    HW126330   4.060   2.309   4.317 -1.7014  0.2084 -0.4952
 4957SOL    HW226331   4.136   2.213   4.248 -0.8446  0.7661 -0.9543
 4958SOL     OW26332   1.184   3.117   5.484  0.0440 -0.1107 -0.0475
 4958SOL    HW126333   1.163   3.205   5.452  1.1355  0.6791  1.4351
 4958SOL    HW226334   1.237   3.092   5.409  2.7589  2.6947  0.9155
 4959SOL     OW26335   4.049   2.441   9.266  0.2419 -0.4765  0.6878
 4959SOL    HW126336   3.993   2.395   9.203  0.6352 -0.0181 -0.0012
 4959SOL    HW226337   3.990   2.492   9.323 -0.0711 -0.1313  0.0573
 4960SOL     OW26338   2.946   4.582   0.031  0.1181 -0.4814 -0.2470
 4960SOL    HW126339   2.873   4.581  17.665 -0.1553 -1.2094  0.0816
 4960SOL    HW226340   2.945   4.674   0.055  1.6305 -0.4274 -0.3625
 4961SOL     OW26341   3.739   4.452   4.461  0.0255 -0.4721  0.5292
 4961SOL    HW126342   3.825   4.410   4.459  0.1334 -0.0363 -2.9450
 4961SOL    HW226343   3.704   4.449   4.372  1.8240  1.6453 -0.2286
 4962SOL     OW26344   3.574   1.464   8.514  0.2206  0.3893  0.3459
 4962SOL    HW126345   3.669   1.476   8.519 -0.0227  2.1870  0.7786
 4962SOL    HW226346   3.560   1.460   8.419  2.7957  0.6928 -0.0622
 4963SOL     OW26347   1.960   0.393   5.688 -0.2697  0.1783 -0.0217
 4963SOL    HW126348   2.030   0.328   5.677 -0.5224  0.0759 -1.0558
 4963SOL    HW226349   1.980   0.426   5.776  1.8402 -1.8816  0.2828
 4964SOL     OW26350   3.268   1.568   0.245  0.0415  0.0921  0.3373
 4964SOL    HW126351   3.306   1.494   0.197  0.6697  0.5076  0.2050
 4964SOL    HW226352   3.187   1.532   0.283  1.0979 -0.1191  2.3914
 4965SOL     OW26353   3.983   4.671   7.844 -0.0902  0.3113  0.1894
 4965SOL    HW126354   3.953   4.653   7.933 -1.1632  1.4889  0.0736
 4965SOL    HW226355   3.977   0.043   7.841  0.1139  0.3699  1.7397
 4966SOL     OW26356   3.493   3.425  16.862  0.3836  0.0137  0.1473
 4966SOL    HW126357   3.496   3.438  16.956 -1.1516  1.0346  0.0521
 4966SOL    HW226358   3.497   3.514  16.828 -0.6868 -0.4141 -1.0846
 4967SOL     OW26359   0.494   0.787  10.937  0.7674  1.0535 -0.0199
 4967SOL    HW126360   0.487   0.858  11.000 -1.0773  0.5638  0.3287
 4967SOL    HW226361   0.409   0.788  10.894  0.0124 -1.2484  1.3748
 4968SOL     OW26362   3.884   1.647   2.162  0.7492 -0.0901  0.1637
 4968SOL    HW126363   3.977   1.629   2.151  1.1415  0.4675  2.6245
 4968SOL    HW226364   3.835   1.567   2.144 -3.8011  2.4253  1.1321
 4969SOL     OW26365   1.713   0.903   2.344 -0.2025  0.0709 -0.3341
 4969SOL    HW126366   1.677   0.990   2.363 -0.2357 -0.6227  2.7528
 4969SOL    HW226367   1.762   0.884   2.424 -2.2832 -1.7827  0.4904
 4970SOL     OW26368   3.562   0.703   3.989 -0.5182 -0.3437 -0.2671
 4970SOL    HW126369   3.588   0.612   4.005 -3.4241 -1.2553 -0.7001
 4970SOL    HW226370   3.520   0.718   4.074  1.2512  1.0381  0.3540
 4971SOL     OW26371   0.736   3.470  17.169  0.0908  0.0212  0.2223
 4971SOL    HW126372   0.821   3.447  17.207  0.4277 -0.0179 -0.5649
 4971SOL    HW226373   0.698   3.538  17.224 -0.6598 -0.3886  0.2249
 4972SOL     OW26374   4.458   3.320  15.714  0.2265  0.2524 -0.1044
 4972SOL    HW126375   4.481   3.321  15.807  1.7602  1.0536 -0.5076
 4972SOL    HW226376   4.539   3.284  15.677  0.4490 -0.6622  1.2468
 4973SOL     OW26377   3.406   1.635   2.469  0.1567  0.4105  0.2592
 4973SOL    HW126378   3.470   1.616   2.538  0.1153 -1.4164 -0.1911
 4973SOL    HW226379   3.458   1.621   2.390 -1.2341  1.1164 -0.7669
 4974SOL     OW26380   1.761   0.655   8.691  0.0565 -0.0959 -0.7213
 4974SOL    HW126381   1.794   0.683   8.777 -0.1714 -1.8185 -0.0794
 4974SOL    HW226382   1.716   0.576   8.719  1.7216 -0.6830  0.2902
 4975SOL     OW26383   0.823   0.296  10.833  0.6283 -0.0424 -0.1986
 4975SOL    HW126384   0.729   0.297  10.819  0.5311 -2.0116  0.3871
 4975SOL    HW226385   0.845   0.208  10.863  1.6900  1.4247  3.2989
 4976SOL     OW26386   3.468   3.429  17.125 -0.2970  0.5408 -0.1286
 4976SOL    HW126387   3.541   3.435  17.187 -0.5606 -0.4848  0.2741
 4976SOL    HW226388   3.431   3.349  17.163  1.9986 -1.2150 -1.6673
 4977SOL     OW26389   1.274   0.807  10.554 -0.3666 -0.0743 -0.1195
 4977SOL    HW126390   1.264   0.889  10.602  0.8332 -1.4113  2.4129
 4977SOL    HW226391   1.180   0.794  10.537 -0.4932  0.5913  0.1106
 4978SOL     OW26392   3.676   2.911  17.107  0.3445  0.3340 -0.1736
 4978SOL    HW126393   3.762   2.890  17.071 -0.2975 -0.9059 -0.9880
 4978SOL    HW226394   3.688   2.995  17.151  0.6317 -0.3759  1.0900
 4979SOL     OW26395   3.699   3.490   1.568 -0.4798  0.5698 -0.2618
 4979SOL    HW126396   3.683   3.428   1.639 -1.2689  0.4138 -0.5823
 4979SOL    HW226397   3.717   3.434   1.492 -1.4194  0.8211 -0.6641
 4980SOL     OW26398   1.336   2.636   3.805  0.8679 -0.0179 -0.0728
 4980SOL    HW126399   1.402   2.659   3.740  1.6479 -1.0374  0.3674
 4980SOL    HW226400   1.326   2.543   3.784 -0.8686  0.8852 -3.3326
 4981SOL     OW26401   3.764   3.217   5.128  0.2812  0.0857  0.0363
 4981SOL    HW126402   3.740   3.133   5.167 -1.2371  0.5943  0.2172
 4981SOL    HW226403   3.692   3.252   5.076  2.1290  1.7187 -1.3839
 4982SOL     OW26404   3.736   4.514   7.682  0.0430 -0.0625  0.3805
 4982SOL    HW126405   3.712   4.603   7.657 -0.1694 -0.2864 -0.2203
 4982SOL    HW226406   3.788   4.485   7.607  0.4228 -1.1968  1.0730
 4983SOL     OW26407   3.716   3.523   8.421 -0.0806 -0.7494 -0.3617
 4983SOL    HW126408   3.732   3.614   8.447 -0.7202 -1.2604  1.8022
 4983SOL    HW226409   3.705   3.482   8.506  0.1797  0.8808  0.4587
 4984SOL     OW26410   1.911   4.556   2.342  0.3595 -0.2323  1.0874
 4984SOL    HW126411   1.917   4.558   2.246 -0.3898 -1.8026  1.0037
 4984SOL    HW226412   1.816   4.571   2.347  0.7466  2.5253  0.5743
 4985SOL     OW26413   0.655   3.739   0.519  0.0900  0.2871  0.4458
 4985SOL    HW126414   0.738   3.785   0.504  1.2280 -1.2628  2.0006
 4985SOL    HW226415   0.600   3.815   0.539 -1.1374 -0.0074 -1.9472
 4986SOL     OW26416   3.571   4.293  11.579 -0.1163 -0.0390 -0.4971
 4986SOL    HW126417   3.653   4.318  11.621  0.6125 -1.0489 -1.3431
 4986SOL    HW226418   3.538   4.383  11.573  1.4553  0.5281 -0.5421
 4987SOL     OW26419   4.500   2.076  11.831  0.2947 -0.0111 -0.6067
 4987SOL    HW126420   4.453   2.089  11.748 -0.2554  3.7377  0.2763
 4987SOL    HW226421   4.437   2.019  11.873  0.3296  1.1502  1.0104
 4988SOL     OW26422   0.704   4.374   5.580  0.2542 -0.2118 -0.7283
 4988SOL    HW126423   0.783   4.425   5.594 -0.6604  1.0069  0.0136
 4988SOL    HW226424   0.636   4.433   5.614  1.7715  1.0298  0.1167
 4989SOL     OW26425   1.684   4.678  13.099  0.3476 -0.4099  0.0338
 4989SOL    HW126426   1.729   4.593  13.105 -1.5178 -1.2380  2.4045
 4989SOL    HW226427   1.632   4.665  13.019  0.9720 -0.1684 -0.4100
 4990SOL     OW26428   3.873   1.770  11.614  0.1149 -0.0858  0.6078
 4990SOL    HW126429   3.792   1.796  11.658 -0.1199 -0.8409  0.6236
 4990SOL    HW226430   3.857   1.787  11.522 -0.1244 -0.9900  0.4844
 4991SOL     OW26431   1.072   2.761   5.759 -0.6303  0.1381 -0.1320
 4991SOL    HW126432   1.122   2.842   5.745 -0.4423  0.1439  0.5744
 4991SOL    HW226433   1.046   2.776   5.850  0.4218  1.7884 -0.0922
 4992SOL     OW26434   3.646   0.700   5.365  0.0977 -0.2933  0.6201
 4992SOL    HW126435   3.592   0.708   5.287  0.1527  0.2035  0.6306
 4992SOL    HW226436   3.578   0.707   5.432 -0.2209 -0.0549  0.2742
 4993SOL     OW26437   4.311   0.249  11.086 -0.0458  0.6014  0.0158
 4993SOL    HW126438   4.300   0.215  11.175 -3.0427  0.8708 -0.2449
 4993SOL    HW226439   4.236   0.307  11.071  1.9108  3.2427  0.4340
 4994SOL     OW26440   1.565   2.789   4.906  0.4391  0.0741  0.6049
 4994SOL    HW126441   1.570   2.821   4.996 -0.7155  0.7270  0.4402
 4994SOL    HW226442   1.569   2.873   4.861 -1.8333  0.2814  0.7915
 4995SOL     OW26443   0.380   4.245   3.932 -0.0695 -0.2022 -0.2708
 4995SOL    HW126444   0.285   4.247   3.945 -0.3711 -2.3074 -2.3144
 4995SOL    HW226445   0.408   4.179   3.996 -1.5463 -0.6453 -0.0887
 4996SOL     OW26446   2.910   2.067  13.523  0.4357  0.2918 -0.5073
 4996SOL    HW126447   2.990   2.017  13.541  0.2991  0.5012  0.7037
 4996SOL    HW226448   2.841   2.007  13.552  1.5714 -0.7456  0.0888
 4997SOL     OW26449   1.947   1.525   9.500  0.2742  0.1282  0.0338
 4997SOL    HW126450   2.012   1.585   9.538  0.2225  0.3121 -0.1653
 4997SOL    HW226451   1.911   1.488   9.580  0.2839  0.6370  0.2758
 4998SOL     OW26452   1.601   3.917  15.173  0.0003  0.1205 -0.3544
 4998SOL    HW126453   1.557   3.921  15.088  0.6448 -0.1560 -0.7110
 4998SOL    HW226454   1.657   3.840  15.158 -0.1636 -0.8300  3.9902
 4999SOL     OW26455   1.701   4.613   7.239 -0.4255  0.2995 -0.3880
 4999SOL    HW126456   1.646   4.630   7.315  0.2388  0.0225  0.1569
 4999SOL    HW226457   1.781   4.579   7.279 -0.0527 -0.4649 -1.7937
 5000SOL     OW26458   2.392   2.503   9.048 -0.4083 -0.6556 -0.0283
 5000SOL    HW126459   2.459   2.453   9.094 -0.3722 -0.0164  0.5962
 5000SOL    HW226460   2.397   2.584   9.099 -1.5547 -0.7808  0.3056
 5001SOL     OW26461   2.790   1.167   3.376 -0.3638 -0.3104 -0.2825
 5001SOL    HW126462   2.781   1.102   3.446 -1.2977 -0.8455 -0.9008
 5001SOL    HW226463   2.866   1.130   3.331 -1.3532 -0.7453 -1.6240
 5002SOL     OW26464   4.715   1.174   5.066 -0.1072 -0.1340 -0.3470
 5002SOL    HW126465   0.064   1.182   5.129 -0.3696  2.0128 -0.3249
 5002SOL    HW226466   4.654   1.145   5.134  0.1139 -1.1066 -0.5704
 5003SOL     OW26467   2.520   1.173   7.391  0.0657  0.3639 -0.2931
 5003SOL    HW126468   2.590   1.202   7.449  1.5786 -1.3351 -1.2822
 5003SOL    HW226469   2.558   1.090   7.364 -0.0851  0.5326 -1.0445
 5004SOL     OW26470   0.386   2.334  15.371 -0.1057  0.4651 -0.5884
 5004SOL    HW126471   0.406   2.387  15.448  1.3367 -1.1984  0.1920
 5004SOL    HW226472   0.336   2.272  15.423 -1.4752  2.1095  0.0339
 5005SOL     OW26473   1.026   2.388   5.861  0.0753 -0.1565 -0.4187
 5005SOL    HW126474   0.986   2.418   5.779 -1.4303  2.7989  1.3989
 5005SOL    HW226475   1.083   2.462   5.882  1.4875 -0.4057 -3.3267
 5006SOL     OW26476   1.497   2.160   1.653 -0.0970 -0.2485 -0.5881
 5006SOL    HW126477   1.488   2.067   1.676 -2.3866 -0.6298 -2.9690
 5006SOL    HW226478   1.433   2.205   1.707  1.2503  1.1810 -0.1904
 5007SOL     OW26479   3.158   3.458   2.808 -0.3069  0.2046  0.5158
 5007SOL    HW126480   3.134   3.537   2.759 -1.2612 -0.5057 -0.1534
 5007SOL    HW226481   3.238   3.487   2.851  1.8058  0.1215 -3.4193
 5008SOL     OW26482   1.744   3.772   3.693 -0.3301 -0.5217  0.3025
 5008SOL    HW126483   1.735   3.693   3.639  0.5090  0.6573 -1.5337
 5008SOL    HW226484   1.786   3.820   3.622 -0.9029  0.2610  0.4965
 5009SOL     OW26485   2.225   2.655   6.555  0.0187  0.1333 -0.0842
 5009SOL    HW126486   2.131   2.651   6.571  0.3158  0.6166  1.7512
 5009SOL    HW226487   2.234   2.619   6.467 -0.3051  0.2307 -0.1570
 5010SOL     OW26488   0.722   1.699   2.300 -0.4441  0.7131  0.2589
 5010SOL    HW126489   0.775   1.634   2.252 -1.3749  2.3244 -2.9721
 5010SOL    HW226490   0.734   1.772   2.240 -1.0629  0.8306  0.2772
 5011SOL     OW26491   3.900   1.818   7.773  0.5046  0.1745 -0.5174
 5011SOL    HW126492   3.863   1.890   7.722 -2.6103 -1.1566 -0.1359
 5011SOL    HW226493   3.978   1.857   7.812  0.5515  0.3561 -0.7908
 5012SOL     OW26494   1.863   3.574   2.699  0.0922  0.3241 -0.6250
 5012SOL    HW126495   1.946   3.621   2.701  0.8833 -1.1288  0.9198
 5012SOL    HW226496   1.858   3.547   2.607 -2.4226 -1.4519  0.0268
 5013SOL     OW26497   2.541   3.532   7.273  0.2880  0.4391  0.2134
 5013SOL    HW126498   2.636   3.537   7.258  0.7918 -1.3192  2.8023
 5013SOL    HW226499   2.514   3.616   7.236  0.1603 -0.6510 -2.1181
 5014SOL     OW26500   3.363   0.330   8.723  0.3327 -0.4360 -0.0193
 5014SOL    HW126501   3.312   0.408   8.703 -0.0672 -0.7023 -0.0489
 5014SOL    HW226502   3.389   0.351   8.813 -0.8611 -1.0781  0.4780
 5015SOL     OW26503   3.562   4.473   4.952 -0.4434 -0.4384  0.6392
 5015SOL    HW126504   3.629   4.405   4.959  0.6448  0.4487 -1.3283
 5015SOL    HW226505   3.523   4.470   5.039  2.9249 -3.5494  2.0373
 5016SOL     OW26506   3.631   0.995  16.142 -0.5536 -0.0616 -0.0906
 5016SOL    HW126507   3.650   1.036  16.226 -0.0605  2.7827 -1.5914
 5016SOL    HW226508   3.652   1.067  16.083  2.0284  0.0822  0.9599
 5017SOL     OW26509   3.434   1.841   6.405 -0.5398 -0.7481 -0.2279
 5017SOL    HW126510   3.397   1.913   6.353 -0.4877  0.0453  0.8368
 5017SOL    HW226511   3.359   1.816   6.458  1.3725 -4.5053  0.6454
 5018SOL     OW26512   4.584   2.918   8.068  0.0084  0.1411 -1.0515
 5018SOL    HW126513   4.494   2.887   8.076  1.0436 -2.8218 -0.8266
 5018SOL    HW226514   4.614   2.915   8.159 -1.6097 -1.0248 -0.5670
 5019SOL     OW26515   0.395   1.609  14.376  0.0300  0.2920  0.4276
 5019SOL    HW126516   0.358   1.669  14.311  1.0936  1.7865  1.2018
 5019SOL    HW226517   0.451   1.543  14.334 -1.5856  1.1532 -3.0611
 5020SOL     OW26518   3.249   2.930  11.508 -0.0120  0.0735  0.2086
 5020SOL    HW126519   3.262   3.000  11.572  1.2748  0.3784 -0.3888
 5020SOL    HW226520   3.341   2.911  11.488  0.4909  0.6826  1.9128
 5021SOL     OW26521   2.012   4.489   5.526  0.1232  0.2460 -0.6252
 5021SOL    HW126522   1.939   4.551   5.530 -0.2151 -0.0607 -2.0088
 5021SOL    HW226523   1.959   4.421   5.567  0.7480  0.3679  0.3788
 5022SOL     OW26524   3.827   4.358   3.898 -0.4956 -0.6934 -0.9031
 5022SOL    HW126525   3.838   4.436   3.952 -0.9114 -1.3433  0.1279
 5022SOL    HW226526   3.845   4.401   3.814  1.6347 -1.0355 -0.6178
 5023SOL     OW26527   4.224   1.974   0.623 -0.3046  0.0090 -0.4126
 5023SOL    HW126528   4.132   1.999   0.628 -0.7543 -1.4092 -1.4795
 5023SOL    HW226529   4.230   1.915   0.698 -0.8587 -1.2425 -1.3512
 5024SOL     OW26530   2.631   1.449  12.565 -0.1096  0.0155 -0.0037
 5024SOL    HW126531   2.673   1.511  12.625 -1.0500 -1.7225  2.4871
 5024SOL    HW226532   2.607   1.374  12.620  2.7031 -0.6752  0.2697
 5025SOL     OW26533   1.842   1.728   3.513 -0.5005  0.1923 -0.5401
 5025SOL    HW126534   1.764   1.699   3.560 -2.6232  0.5785 -3.8220
 5025SOL    HW226535   1.875   1.643   3.485  0.9399  0.2674  0.9326
 5026SOL     OW26536   1.079   3.098   0.234  0.0259  0.1392 -0.0758
 5026SOL    HW126537   1.080   3.150   0.314  0.0010 -1.1948  0.8069
 5026SOL    HW226538   1.052   3.160   0.167  2.1300  1.4279  0.2611
 5027SOL     OW26539   4.459   2.572   3.086  0.1285 -0.3721 -0.0659
 5027SOL    HW126540   4.523   2.578   3.015  1.9128  1.1555  1.6872
 5027SOL    HW226541   4.404   2.500   3.056  2.2994 -1.7272 -0.8426
 5028SOL     OW26542   1.083   1.405   5.670  0.3322 -0.4464  0.1873
 5028SOL    HW126543   1.015   1.338   5.670  1.3298 -1.4718  1.7656
 5028SOL    HW226544   1.152   1.364   5.618 -1.3376  0.4675 -2.7550
 5029SOL     OW26545   3.751   0.186   4.809 -0.2498  0.1212 -0.3951
 5029SOL    HW126546   3.760   0.096   4.775  0.4790  0.0042  0.1204
 5029SOL    HW226547   3.665   0.183   4.852 -0.3616  0.1000 -0.6197
 5030SOL     OW26548   1.403   0.931  11.361  0.5809  0.2724 -0.3104
 5030SOL    HW126549   1.474   0.977  11.317 -0.1940  0.6592 -1.1726
 5030SOL    HW226550   1.329   0.992  11.351  0.4939  0.2128 -0.0494
 5031SOL     OW26551   3.519   3.709   2.604 -0.5448  0.4199  0.4855
 5031SOL    HW126552   3.459   3.737   2.535  1.2321 -0.8557 -1.5497
 5031SOL    HW226553   3.499   3.616   2.600  0.5392  0.2087  0.1492
 5032SOL     OW26554   3.806   2.878   4.750  0.3988  0.1198  0.5551
 5032SOL    HW126555   3.727   2.893   4.698  2.0618 -0.8003 -2.2247
 5032SOL    HW226556   3.777   2.790   4.775  1.2044  0.1649  1.6069
 5033SOL     OW26557   4.008   4.011   5.650 -0.0756  0.0624  0.1923
 5033SOL    HW126558   3.913   4.003   5.644 -0.1148  0.5903  0.1000
 5033SOL    HW226559   4.016   4.023   5.745  1.8764 -0.2683  0.0614
 5034SOL     OW26560   4.358   4.662   9.470  0.2267  0.1162 -0.4670
 5034SOL    HW126561   4.305   0.012   9.441  1.2853  1.2317  0.4371
 5034SOL    HW226562   4.291   4.610   9.515 -0.2529  1.8940  0.8792
 5035SOL     OW26563   3.520   1.711   4.220 -0.2651  0.2179  0.1827
 5035SOL    HW126564   3.580   1.683   4.288 -0.3578  0.9585  0.5671
 5035SOL    HW226565   3.576   1.701   4.143  0.2745 -0.9279  0.7184
 5036SOL     OW26566   0.989   4.013   4.343  0.2237  0.1681  0.1490
 5036SOL    HW126567   0.913   4.032   4.398 -0.1179  0.4404 -0.4193
 5036SOL    HW226568   0.953   3.931   4.311  0.0624  0.3838 -0.2225
 5037SOL     OW26569   1.751   3.466   5.611 -0.5182 -0.3123 -0.1474
 5037SOL    HW126570   1.787   3.388   5.652 -0.3559  0.3864  1.0208
 5037SOL    HW226571   1.821   3.465   5.546 -0.2630  0.7756  0.1129
 5038SOL     OW26572   2.381   1.977   4.338  0.4618 -0.7998  0.7950
 5038SOL    HW126573   2.401   1.909   4.274 -1.1132 -0.2302 -0.2961
 5038SOL    HW226574   2.466   2.006   4.369 -0.7908  1.1056  2.4334
 5039SOL     OW26575   2.973   0.686   8.778 -0.0220  0.0541  0.3895
 5039SOL    HW126576   2.994   0.738   8.855  2.2492  2.3019 -1.7220
 5039SOL    HW226577   2.881   0.664   8.787 -0.4449  1.7309  0.1576
 5040SOL     OW26578   2.796   0.767   0.547  0.5043  0.4525  0.8770
 5040SOL    HW126579   2.840   0.851   0.536  1.4549 -0.1085  0.4024
 5040SOL    HW226580   2.749   0.785   0.629  1.8006 -2.0323  2.1835
 5041SOL     OW26581   1.139   4.036   8.631 -0.3664 -0.2808 -0.3571
 5041SOL    HW126582   1.112   4.045   8.723  2.0281 -1.2128  0.4311
 5041SOL    HW226583   1.212   3.975   8.631 -0.0365  0.1195 -0.6481
 5042SOL     OW26584   4.499   2.296   1.517  0.7457 -0.3265  0.3430
 5042SOL    HW126585   4.481   2.367   1.580  0.5557 -1.5320  1.6539
 5042SOL    HW226586   4.462   2.342   1.442  0.4084 -3.5295 -1.4335
 5043SOL     OW26587   2.062   3.003   3.804  0.0863 -0.0445 -0.1371
 5043SOL    HW126588   2.110   2.943   3.747 -0.0020 -1.0245  0.7923
 5043SOL    HW226589   1.986   2.947   3.821  0.2121 -0.4525 -0.9153
 5044SOL     OW26590   0.470   2.872   4.079 -0.2156  0.1914 -0.2503
 5044SOL    HW126591   0.454   2.831   3.993 -0.4963  0.5553 -0.3717
 5044SOL    HW226592   0.376   2.883   4.097  0.0367  1.6667  0.1439
 5045SOL     OW26593   0.724   2.866   0.695 -0.3428 -0.4937  0.3156
 5045SOL    HW126594   0.804   2.917   0.685 -1.0217  0.7564  1.3386
 5045SOL    HW226595   0.666   2.921   0.747 -0.2259  0.0759 -0.1565
 5046SOL     OW26596   2.975   1.730   2.701 -0.0215  0.1485  0.3499
 5046SOL    HW126597   3.048   1.688   2.654 -0.3159 -0.1956  0.2041
 5046SOL    HW226598   2.902   1.735   2.639  1.3344 -0.5874 -1.3050
 5047SOL     OW26599   3.022   2.889   2.251 -0.0310 -0.3528 -0.1856
 5047SOL    HW126600   3.046   2.846   2.169  3.6246 -0.4138  0.9198
 5047SOL    HW226601   3.109   2.895   2.290 -0.3413  1.0680  0.2843
 5048SOL     OW26602   0.974   0.806  12.577 -0.2206  0.0347 -0.0532
 5048SOL    HW126603   1.067   0.819  12.556 -0.4546 -0.4386 -1.3779
 5048SOL    HW226604   0.940   0.876  12.521  0.0698 -0.2120 -0.5430
 5049SOL     OW26605   3.058   1.516  17.157 -0.3067  0.1662 -0.2789
 5049SOL    HW126606   3.054   1.455  17.230  2.0071 -0.3947 -0.6201
 5049SOL    HW226607   3.052   1.594  17.213 -0.0943  0.6524 -0.9353
 5050SOL     OW26608   1.254   0.159   4.910 -0.1283  0.6141  0.5132
 5050SOL    HW126609   1.198   0.186   4.836  0.9408 -1.4799 -1.0596
 5050SOL    HW226610   1.250   0.069   4.877  1.0560  1.1032 -0.9499
 5051SOL     OW26611   0.786   0.875  11.598 -0.8882  0.7485  0.0833
 5051SOL    HW126612   0.869   0.845  11.560 -0.5222  1.6727  0.1611
 5051SOL    HW226613   0.795   0.859  11.692  0.8092  2.0442  0.1580
 5052SOL     OW26614   1.851   3.382   3.539 -0.2303  0.2059 -0.2694
 5052SOL    HW126615   1.909   3.379   3.463  0.6000 -0.1106  0.3643
 5052SOL    HW226616   1.905   3.442   3.590  0.8166  0.8070 -2.1007
 5053SOL     OW26617   1.158   4.355   8.866  0.1228 -0.7246 -0.1466
 5053SOL    HW126618   1.136   4.434   8.915 -0.8053  0.3373 -2.2654
 5053SOL    HW226619   1.216   4.392   8.800 -0.1713 -0.5011 -0.2775
 5054SOL     OW26620   2.247   1.699   3.916  0.3064  0.1674  0.3662
 5054SOL    HW126621   2.184   1.675   3.983  0.2704  0.3884  0.4126
 5054SOL    HW226622   2.240   1.618   3.865 -1.3501  0.1299  0.6728
 5055SOL     OW26623   2.310   3.213   8.167  0.2144 -0.0932  0.5765
 5055SOL    HW126624   2.378   3.242   8.228 -0.5745  1.9975  0.4587
 5055SOL    HW226625   2.255   3.288   8.190 -0.1464  0.2230 -1.3063
 5056SOL     OW26626   3.017   0.810   8.534  0.5274 -0.0609  0.2201
 5056SOL    HW126627   2.981   0.754   8.465  0.2428  0.0405  0.2863
 5056SOL    HW226628   2.991   0.764   8.614  1.1371 -0.3595  0.2493
 5057SOL     OW26629   1.048   4.054   4.063 -0.1912 -0.4566  0.3352
 5057SOL    HW126630   0.953   4.044   4.065 -0.1595 -0.2621  3.1087
 5057SOL    HW226631   1.061   4.062   4.158 -0.7195  0.9751  0.2856
 5058SOL     OW26632   0.434   2.478   5.211 -0.0418 -0.2957  0.1277
 5058SOL    HW126633   0.508   2.450   5.158  0.2425 -1.2103  0.9982
 5058SOL    HW226634   0.384   2.522   5.143 -1.1761 -1.7861 -0.0085
 5059SOL     OW26635   3.194   0.612   5.090  0.7150 -0.4170 -0.1066
 5059SOL    HW126636   3.202   0.683   5.026  0.0112  0.1975  0.4764
 5059SOL    HW226637   3.129   0.562   5.041  0.2389  1.7906 -1.7544
 5060SOL     OW26638   4.525   3.059   0.940  0.1654 -0.5999  0.6156
 5060SOL    HW126639   4.523   3.145   0.981  0.4539 -0.1549 -0.2941
 5060SOL    HW226640   4.604   3.028   0.985  0.3232 -1.4049 -0.2189
 5061SOL     OW26641   2.536   3.502   6.717 -0.7255 -0.4368 -0.5750
 5061SOL    HW126642   2.509   3.538   6.632  0.2739  0.2962 -0.5808
 5061SOL    HW226643   2.621   3.544   6.732  0.9676 -3.1337 -2.5952
 5062SOL     OW26644   2.408   3.971  12.304  0.3559 -0.2835 -0.3307
 5062SOL    HW126645   2.394   4.046  12.246  0.6355  0.7899  0.9791
 5062SOL    HW226646   2.326   3.939  12.341 -0.8436 -0.0883 -2.8684
 5063SOL     OW26647   4.517   4.216   3.489  0.7066 -0.0225 -0.4691
 5063SOL    HW126648   4.569   4.149   3.445  0.5613  0.0901 -0.8056
 5063SOL    HW226649   4.450   4.164   3.536 -1.5569  2.1288 -1.3396
 5064SOL     OW26650   0.321   1.784  14.563  0.0125 -0.4124  0.0771
 5064SOL    HW126651   0.338   1.706  14.511  0.3936  0.2951 -0.8649
 5064SOL    HW226652   0.231   1.802  14.533  0.5978 -0.6180 -1.8275
 5065SOL     OW26653   0.148   0.388   8.232 -0.0742  0.4619 -0.2635
 5065SOL    HW126654   0.194   0.317   8.186  2.3176  2.6893 -1.3451
 5065SOL    HW226655   0.220   0.449   8.215 -0.3864  0.9696  0.2279
 5066SOL     OW26656   0.124   0.926   8.060 -0.4143 -0.0603 -0.1303
 5066SOL    HW126657   0.108   0.958   7.972 -0.9664 -2.9061 -1.0651
 5066SOL    HW226658   0.219   0.937   8.069 -0.3561  0.5362 -1.6473
 5067SOL     OW26659   1.800   4.531   5.034  0.4110 -0.3612  0.2765
 5067SOL    HW126660   1.815   4.513   5.126 -0.5083  1.1275  0.7210
 5067SOL    HW226661   1.799   4.627   5.026 -0.7704 -0.4868 -1.2774
 5068SOL     OW26662   1.876   0.685   9.415 -0.1109  0.1594 -0.4712
 5068SOL    HW126663   1.884   0.653   9.505 -0.4603 -1.8824 -1.1710
 5068SOL    HW226664   1.948   0.641   9.370 -0.7798 -1.0753 -0.3331
 5069SOL     OW26665   0.732   2.751   3.745  0.7499 -0.4058  0.2199
 5069SOL    HW126666   0.809   2.788   3.701  0.4821 -1.0452 -0.7873
 5069SOL    HW226667   0.728   2.814   3.817 -0.0138 -1.1165  0.7889
 5070SOL     OW26668   0.616   0.604   5.416  0.1367  1.1436  0.1773
 5070SOL    HW126669   0.614   0.667   5.488  1.9469  0.0076  1.2150
 5070SOL    HW226670   0.636   0.520   5.456 -0.4399  1.5493  1.3218
 5071SOL     OW26671   2.620   1.133   4.823 -0.1375 -0.0423  0.6051
 5071SOL    HW126672   2.537   1.101   4.859  0.1350 -2.0017 -0.5197
 5071SOL    HW226673   2.647   1.196   4.890 -0.7076  0.1135  0.6887
 5072SOL     OW26674   2.271   0.317   2.287 -0.4179  0.1352  0.0594
 5072SOL    HW126675   2.287   0.264   2.366 -0.8249  0.6947  0.5132
 5072SOL    HW226676   2.340   0.382   2.291 -2.2146  1.9295  1.8049
 5073SOL     OW26677   4.056   0.873   9.782 -0.2741 -0.0791 -0.0942
 5073SOL    HW126678   4.056   0.963   9.815  1.7726  0.1459 -0.6876
 5073SOL    HW226679   3.987   0.837   9.837  0.3339 -0.8254  0.1809
 5074SOL     OW26680   1.765   0.110   5.110  0.0451  1.2257 -0.1007
 5074SOL    HW126681   1.777   0.083   5.201  2.5960  0.2738 -0.7338
 5074SOL    HW226682   1.795   0.201   5.102 -1.3805  1.7771  0.7288
 5075SOL     OW26683   2.249   3.118   0.811 -0.4327  0.4083 -0.4367
 5075SOL    HW126684   2.197   3.167   0.875  0.5331  0.2999  0.4353
 5075SOL    HW226685   2.176   3.070   0.773  1.9134 -3.5458  0.0494
 5076SOL     OW26686   0.564   3.182  14.075 -0.3822  0.0031  0.1665
 5076SOL    HW126687   0.515   3.198  13.995 -0.9405  0.3663  0.5814
 5076SOL    HW226688   0.532   3.102  14.118  1.6496 -0.2537  1.2496
 5077SOL     OW26689   2.261   0.190   4.379 -0.2715  0.3855 -0.0378
 5077SOL    HW126690   2.342   0.161   4.336 -0.6045 -2.9134  1.5614
 5077SOL    HW226691   2.284   0.281   4.396  0.2593  0.1926  0.2621
 5078SOL     OW26692   2.748   3.155  16.664 -0.6541 -0.2026 -0.0084
 5078SOL    HW126693   2.783   3.240  16.694  0.8797 -0.4207 -1.1579
 5078SOL    HW226694   2.808   3.117  16.599 -1.2076  0.0354 -0.6547
 5079SOL     OW26695   0.302   0.360   8.477  0.1752  0.4606  0.0028
 5079SOL    HW126696   0.269   0.333   8.391  3.1506 -0.9097 -0.7205
 5079SOL    HW226697   0.266   0.288   8.529  1.7553 -1.4684 -1.5741
 5080SOL     OW26698   1.430   3.313   8.167 -0.5767 -0.4657  0.4390
 5080SOL    HW126699   1.494   3.330   8.237 -0.9538  1.0645  0.4174
 5080SOL    HW226700   1.349   3.324   8.216 -0.3335  2.6153  0.1701
 5081SOL     OW26701   2.685   1.638  10.983  0.4605  0.1751 -0.3734
 5081SOL    HW126702   2.666   1.723  10.944  1.7861  1.1003  1.0062
 5081SOL    HW226703   2.761   1.615  10.929 -0.5701 -1.4539 -1.1393
 5082SOL     OW26704   1.719   2.313   7.838 -0.2517  0.0746 -0.8960
 5082SOL    HW126705   1.652   2.369   7.798 -0.9567 -0.4568 -0.4509
 5082SOL    HW226706   1.710   2.334   7.931  0.8781  0.3885 -0.8596
 5083SOL     OW26707   2.267   3.862  15.287 -0.3226 -0.5339 -0.3384
 5083SOL    HW126708   2.329   3.789  15.291 -0.0180 -0.2446  0.2003
 5083SOL    HW226709   2.254   3.876  15.380  1.3818 -0.7365 -0.0558
 5084SOL     OW26710   2.165   0.315   6.125 -0.0331  1.1658 -0.0602
 5084SOL    HW126711   2.227   0.350   6.189 -0.7887  1.7547  0.3336
 5084SOL    HW226712   2.117   0.268   6.192 -0.9847  1.6640 -0.3964
 5085SOL     OW26713   2.873   0.042  10.529 -0.1410 -0.0651  0.0781
 5085SOL    HW126714   2.871   0.083  10.615  0.3468 -1.8514  0.9497
 5085SOL    HW226715   2.871   4.671  10.545  1.0078 -0.4541 -2.0173
 5086SOL     OW26716   3.042   2.321   5.664 -0.2255 -0.1775 -0.4107
 5086SOL    HW126717   3.114   2.329   5.726  0.1127  0.0943 -0.8382
 5086SOL    HW226718   3.071   2.266   5.591  1.8897  0.9527 -0.4471
 5087SOL     OW26719   1.611   1.154  14.888 -0.5114 -0.3067  0.2016
 5087SOL    HW126720   1.643   1.111  14.809  1.2441 -0.9303  1.2455
 5087SOL    HW226721   1.653   1.240  14.877  2.2403 -1.6094  0.5447
 5088SOL     OW26722   4.291   1.184   6.003 -0.1069 -0.1794  0.0947
 5088SOL    HW126723   4.375   1.208   6.042 -0.1001 -2.0065  1.1900
 5088SOL    HW226724   4.253   1.116   6.059 -0.2303 -0.7835 -0.7099
 5089SOL     OW26725   4.681   4.077  16.686  0.3359 -0.3866  0.1414
 5089SOL    HW126726   4.599   4.072  16.734  0.3746 -1.8973  0.0597
 5089SOL    HW226727   4.654   4.107  16.600  0.9745 -2.8062 -0.9005
 5090SOL     OW26728   4.645   3.049   7.855 -0.6301  0.1129  0.0011
 5090SOL    HW126729   4.642   2.999   7.936 -1.4157 -1.2664 -0.8688
 5090SOL    HW226730   4.560   3.092   7.861 -0.1084  1.1607 -0.0884
 5091SOL     OW26731   0.014   4.601   3.524 -0.8496 -0.0541 -0.2834
 5091SOL    HW126732   4.648   4.588   3.493 -0.9535  1.3079 -0.5552
 5091SOL    HW226733   0.007   4.549   3.604 -0.7984 -1.5533 -1.2388
 5092SOL     OW26734   1.112   2.800   3.339  0.4114  0.2428 -0.2810
 5092SOL    HW126735   1.128   2.859   3.265  1.0020  0.8080  0.3000
 5092SOL    HW226736   1.170   2.826   3.410  1.2540  0.4424 -1.0340
 5093SOL     OW26737   2.975   1.281   8.501 -0.1370 -0.2915 -0.0309
 5093SOL    HW126738   2.879   1.280   8.496 -0.0310 -2.2767 -1.8105
 5093SOL    HW226739   2.994   1.339   8.428  0.2840  0.1841  0.4572
 5094SOL     OW26740   4.197   1.044   2.298 -0.3768 -0.4883  0.4834
 5094SOL    HW126741   4.259   0.971   2.287 -0.0881 -0.3287  1.0255
 5094SOL    HW226742   4.122   0.987   2.286  0.1626 -1.0356 -0.2991
 5095SOL     OW26743   4.236   2.722   1.833 -0.3501 -0.2828 -0.2511
 5095SOL    HW126744   4.194   2.637   1.821 -0.3812  0.0108 -2.2788
 5095SOL    HW226745   4.266   2.749   1.746 -1.5493  1.1912 -0.2174
 5096SOL     OW26746   4.644   3.222  11.244 -0.2190  0.0300  0.0874
 5096SOL    HW126747   4.581   3.294  11.239  0.9367  1.1640  1.8627
 5096SOL    HW226748   4.596   3.158  11.296  0.3782 -1.8180 -1.6269
 5097SOL     OW26749   1.316   2.604   6.161 -0.5183 -0.3695  0.7714
 5097SOL    HW126750   1.351   2.678   6.113 -0.3921 -0.2714  1.0124
 5097SOL    HW226751   1.285   2.549   6.089 -0.1916 -0.4993  0.7284
 5098SOL     OW26752   1.249   2.851  14.671 -0.1615 -0.5704 -0.0096
 5098SOL    HW126753   1.278   2.824  14.584  0.8155 -1.2648  0.5335
 5098SOL    HW226754   1.324   2.908  14.691 -1.6692  1.6523 -0.6274
 5099SOL     OW26755   2.555   1.429   8.329 -0.6092  0.3309 -0.2045
 5099SOL    HW126756   2.521   1.353   8.282 -1.0130 -0.4197  1.2896
 5099SOL    HW226757   2.589   1.487   8.261  0.1877  1.8389  1.4709
 5100SOL     OW26758   1.478   0.818  13.205  0.6630  0.1280 -0.0685
 5100SOL    HW126759   1.390   0.793  13.233  0.1311  1.2972 -0.7075
 5100SOL    HW226760   1.535   0.746  13.233 -0.1119 -0.3740  0.2017
 5101SOL     OW26761   2.064   2.149   6.143  0.4900  0.2601  0.1633
 5101SOL    HW126762   1.996   2.173   6.080  0.8936  0.9096 -0.0248
 5101SOL    HW226763   2.015   2.171   6.222 -0.2792  0.9289 -0.4967
 5102SOL     OW26764   2.061   0.559   2.477  0.1879 -0.1215  0.3740
 5102SOL    HW126765   2.039   0.642   2.520 -0.6684  0.2887 -0.8654
 5102SOL    HW226766   2.143   0.536   2.521 -1.0597 -2.4945  1.3828
 5103SOL     OW26767   1.326   2.004   0.742  0.0958  0.5574  0.0782
 5103SOL    HW126768   1.269   1.955   0.683 -1.6524  1.3523  1.1286
 5103SOL    HW226769   1.413   1.974   0.715 -0.4612 -0.4410 -0.6294
 5104SOL     OW26770   3.079   0.590   5.640 -0.2350  0.0624 -0.2194
 5104SOL    HW126771   3.144   0.531   5.677 -0.3110  0.0529 -0.1033
 5104SOL    HW226772   3.000   0.570   5.690  0.1268  1.7428  0.9926
 5105SOL     OW26773   2.908   2.212  16.506 -0.3088  0.3942 -0.2015
 5105SOL    HW126774   2.911   2.288  16.565 -1.9565  1.5171 -1.5452
 5105SOL    HW226775   2.871   2.249  16.426  1.6910  0.2366 -1.1749
 5106SOL     OW26776   3.110   0.342   5.797  0.5148 -0.4256  0.4274
 5106SOL    HW126777   3.187   0.351   5.854  0.8609  0.6739 -0.2010
 5106SOL    HW226778   3.144   0.289   5.725  2.0863  0.9391  0.1533
 5107SOL     OW26779   2.411   4.706   6.558  0.0872  0.3730 -0.0015
 5107SOL    HW126780   2.328   0.017   6.590 -0.7570 -2.2321  0.6813
 5107SOL    HW226781   2.464   0.053   6.595  0.8943  0.2245 -0.8895
 5108SOL     OW26782   1.723   3.816   4.466  0.3720  0.0607  0.6358
 5108SOL    HW126783   1.655   3.884   4.472 -0.2917 -0.3642 -1.9929
 5108SOL    HW226784   1.744   3.827   4.374  0.9487  1.2504  0.9096
 5109SOL     OW26785   1.342   1.545  11.367 -0.3275  0.1569  0.2414
 5109SOL    HW126786   1.357   1.637  11.346 -0.6285  0.3075  0.6885
 5109SOL    HW226787   1.267   1.531  11.310  0.0349 -1.0927  0.0846
 5110SOL     OW26788   1.250   3.786  10.357 -0.4089  0.2077 -0.2379
 5110SOL    HW126789   1.303   3.759  10.432  0.2671  0.7108 -0.5387
 5110SOL    HW226790   1.284   3.875  10.357  1.8404 -0.6805 -2.1019
 5111SOL     OW26791   3.589   2.818  17.583 -0.2126  0.4177  0.6850
 5111SOL    HW126792   3.542   2.735  17.587 -1.9249  1.3218 -0.5827
 5111SOL    HW226793   3.611   2.820  17.490  0.0835  0.7665  0.7603
 5112SOL     OW26794   0.074   1.162   0.768  0.2897  0.4370  0.1728
 5112SOL    HW126795   0.101   1.253   0.779  1.2034  0.5464 -2.7509
 5112SOL    HW226796   0.136   1.144   0.697 -0.3009  0.3861 -0.3351
 5113SOL     OW26797   1.945   3.099  12.699 -0.1552 -0.9068 -0.0275
 5113SOL    HW126798   1.976   3.048  12.624 -0.1997 -1.3771  0.2707
 5113SOL    HW226799   2.011   3.166  12.717 -0.1573 -0.8337 -0.2942
 5114SOL     OW26800   2.847   3.046   2.371  0.0131 -0.4146 -0.0048
 5114SOL    HW126801   2.800   3.088   2.299  0.5855 -0.2779 -0.2968
 5114SOL    HW226802   2.919   3.007   2.322 -0.5058 -2.0027  0.4819
 5115SOL     OW26803   0.550   1.252   2.329 -0.0351 -0.2266 -0.5544
 5115SOL    HW126804   0.503   1.308   2.267 -1.5131  2.3799  2.9141
 5115SOL    HW226805   0.483   1.236   2.395  1.9597 -0.7082  1.3522
 5116SOL     OW26806   0.938   2.875  11.238 -0.3777  0.2481 -0.3164
 5116SOL    HW126807   0.938   2.784  11.209 -4.0011  0.2942 -0.3594
 5116SOL    HW226808   1.008   2.869  11.304  0.9597 -1.4459 -1.8957
 5117SOL     OW26809   2.549   3.107  12.163  0.3847 -0.2700  0.6101
 5117SOL    HW126810   2.520   3.168  12.230  0.5911  0.3260  0.1524
 5117SOL    HW226811   2.602   3.157  12.101 -0.9198 -0.5143 -0.7172
 5118SOL     OW26812   0.530   4.090   4.646  0.0020 -0.3439 -0.4211
 5118SOL    HW126813   0.504   3.998   4.636 -1.5374 -0.1071  1.5594
 5118SOL    HW226814   0.539   4.100   4.740 -2.1747  0.1241 -0.2763
 5119SOL     OW26815   1.530   4.158   3.505 -0.5847  0.3809  0.3336
 5119SOL    HW126816   1.597   4.160   3.436  0.0023 -1.4726  0.8509
 5119SOL    HW226817   1.576   4.199   3.578  3.4814 -0.4930 -1.7332
 5120SOL     OW26818   1.165   3.958   2.103  0.0525  0.3462 -0.0919
 5120SOL    HW126819   1.246   3.923   2.139 -0.1744  1.2097  1.2638
 5120SOL    HW226820   1.157   4.034   2.161 -1.1186 -0.2540  0.5361
 5121SOL     OW26821   3.542   2.270   3.850  0.1183 -0.7941 -0.4033
 5121SOL    HW126822   3.622   2.321   3.834 -0.4390  0.0217 -0.5744
 5121SOL    HW226823   3.539   2.274   3.945 -1.1847 -0.7312 -0.4568
 5122SOL     OW26824   1.339   1.395   6.964  0.1233 -0.3269 -0.1019
 5122SOL    HW126825   1.315   1.307   6.935  2.1863 -1.6728  2.3339
 5122SOL    HW226826   1.391   1.366   7.039 -1.0197 -0.3834  0.6648
 5123SOL     OW26827   2.255   3.002   8.719  0.1714  0.1353 -0.1626
 5123SOL    HW126828   2.163   3.014   8.742 -0.2224 -1.0818 -1.0935
 5123SOL    HW226829   2.260   2.911   8.690  0.8950 -0.4093  1.6966
 5124SOL     OW26830   0.018   2.809   2.043 -0.1344 -0.5375 -0.5601
 5124SOL    HW126831   0.066   2.871   1.988 -0.8766 -0.5669 -1.2492
 5124SOL    HW226832   0.028   2.739   1.979 -3.2516 -1.3789 -0.1698
 5125SOL     OW26833   3.416   2.820  10.156 -0.0885  0.2524  0.3065
 5125SOL    HW126834   3.491   2.784  10.204 -1.4203 -1.8803  0.7873
 5125SOL    HW226835   3.401   2.890  10.219  0.9162  0.1694  0.6380
 5126SOL     OW26836   2.611   3.932   5.986  0.0972  0.3227 -0.9717
 5126SOL    HW126837   2.568   3.848   5.971  0.4751 -0.1818  0.8154
 5126SOL    HW226838   2.539   3.986   6.020 -0.2974 -1.6427  1.3214
 5127SOL     OW26839   1.194   2.689  11.128 -0.1879  0.0442  0.0134
 5127SOL    HW126840   1.203   2.595  11.119  1.7193  0.3473 -1.1832
 5127SOL    HW226841   1.197   2.700  11.223  1.1479  2.0078 -0.2547
 5128SOL     OW26842   2.244   2.238  13.603  0.0000  0.7575  0.1882
 5128SOL    HW126843   2.219   2.150  13.577  0.8521  0.4919  0.2702
 5128SOL    HW226844   2.161   2.285  13.603 -1.4235 -1.7749 -1.6764
 5129SOL     OW26845   0.363   0.422   3.447 -0.0812 -0.2725 -0.4625
 5129SOL    HW126846   0.302   0.373   3.502  2.4847 -2.3839  0.5322
 5129SOL    HW226847   0.304   0.473   3.392 -1.0113  0.6776  1.4441
 5130SOL     OW26848   1.483   3.771   4.226  0.4240  0.0394 -0.0605
 5130SOL    HW126849   1.437   3.820   4.158 -1.3910  1.1394  1.9832
 5130SOL    HW226850   1.406   3.774   4.283 -2.1111  0.8932 -3.5337
 5131SOL     OW26851   2.944   0.283   7.788  0.4411  0.3910  0.4398
 5131SOL    HW126852   2.853   0.291   7.759  0.7682 -1.2596 -1.0652
 5131SOL    HW226853   2.977   0.264   7.700 -0.7900  1.3265 -0.2195
 5132SOL     OW26854   3.239   4.220   7.342 -0.1997 -0.5418 -0.3444
 5132SOL    HW126855   3.180   4.247   7.412 -1.6468 -2.5666 -0.7967
 5132SOL    HW226856   3.169   4.195   7.282 -0.0805  0.5980 -0.9596
 5133SOL     OW26857   1.660   0.637   7.077  0.0388  0.7157  0.2485
 5133SOL    HW126858   1.712   0.674   7.149  1.7005 -1.7425  0.2997
 5133SOL    HW226859   1.656   0.544   7.098  4.2574 -0.1054 -2.4729
 5134SOL     OW26860   0.624   1.397   7.651  0.2489  0.4064  0.2117
 5134SOL    HW126861   0.630   1.301   7.661  0.0269  0.3575 -0.1346
 5134SOL    HW226862   0.540   1.406   7.695 -0.9141  0.7053 -2.0745
 5135SOL     OW26863   3.579   3.066   7.354 -0.0656 -0.6671  0.1319
 5135SOL    HW126864   3.601   2.990   7.408  2.5457  0.3483  0.5138
 5135SOL    HW226865   3.518   3.111   7.413 -0.1186 -1.2559  0.5316
 5136SOL     OW26866   0.785   3.874   7.344  0.0480  0.0751  0.0006
 5136SOL    HW126867   0.708   3.851   7.293  0.1415 -0.2331  0.0003
 5136SOL    HW226868   0.743   3.862   7.429  2.0070 -1.4751  0.7656
 5137SOL     OW26869   0.236   0.093   8.319 -0.5398  0.0989  0.2727
 5137SOL    HW126870   0.146   0.063   8.332 -0.8724  0.8323 -0.3152
 5137SOL    HW226871   0.272   0.079   8.407  1.9847 -1.3909 -1.0049
 5138SOL     OW26872   0.621   2.639   5.643 -0.4753 -0.2112 -0.4716
 5138SOL    HW126873   0.541   2.615   5.598 -1.1736 -0.9492  1.1692
 5138SOL    HW226874   0.609   2.627   5.737  2.1733 -0.1948 -0.1160
 5139SOL     OW26875   0.670   0.847   3.981 -0.2355 -0.2039 -0.7740
 5139SOL    HW126876   0.683   0.941   3.991 -0.0259 -0.0273 -2.6363
 5139SOL    HW226877   0.762   0.831   3.957  1.0081  2.0823  2.5883
 5140SOL     OW26878   1.778   3.909  17.313  0.1651 -0.7629  0.0408
 5140SOL    HW126879   1.711   3.846  17.340  0.5944 -1.3270 -0.2248
 5140SOL    HW226880   1.756   3.980  17.374  2.5694  1.9675 -2.3067
 5141SOL     OW26881   2.074   3.553   6.233 -0.9470  0.3422  0.2228
 5141SOL    HW126882   2.088   3.471   6.184 -0.2458  0.4552  0.2305
 5141SOL    HW226883   2.072   3.615   6.160  2.3066  0.6675  0.4157
 5142SOL     OW26884   2.170   2.809   3.393  0.4955 -0.5059 -0.4255
 5142SOL    HW126885   2.177   2.741   3.327  0.4917 -1.3294  0.4236
 5142SOL    HW226886   2.221   2.874   3.345 -1.3671  1.0996 -0.2179
 5143SOL     OW26887   3.451   4.378   6.381 -0.0826 -0.1741 -0.7192
 5143SOL    HW126888   3.509   4.322   6.432 -0.7666 -0.8080 -0.6314
 5143SOL    HW226889   3.451   4.457   6.435 -0.7799 -0.6695  0.0071
 5144SOL     OW26890   3.875   2.348   9.075  0.1277 -0.6374  0.9006
 5144SOL    HW126891   3.779   2.351   9.075  0.1870  1.0534 -1.4730
 5144SOL    HW226892   3.892   2.277   9.013 -2.5832 -0.7622  0.2624
 5145SOL     OW26893   4.596   2.769  15.718 -0.3653 -0.2377  0.2574
 5145SOL    HW126894   4.597   2.775  15.622  1.1135  1.6956  0.4059
 5145SOL    HW226895   4.553   2.846  15.756  0.0339  0.7509 -1.2917
 5146SOL     OW26896   2.571   1.742  16.221 -0.0014  0.0245  0.3719
 5146SOL    HW126897   2.501   1.799  16.190 -1.3507 -0.6705  2.1601
 5146SOL    HW226898   2.529   1.659  16.240 -2.9685  1.1030 -1.5177
 5147SOL     OW26899   4.360   4.235   3.077  0.3391  0.0933 -0.1355
 5147SOL    HW126900   4.311   4.273   3.150  1.2255  0.7259  0.1259
 5147SOL    HW226901   4.336   4.294   3.005  2.3828 -0.0023 -0.8997
 5148SOL     OW26902   3.439   2.198   6.558  0.2571 -0.0708  0.4444
 5148SOL    HW126903   3.440   2.257   6.633  2.8078  2.3477 -1.5181
 5148SOL    HW226904   3.346   2.177   6.552 -0.3702  2.7729  0.1272
 5149SOL     OW26905   0.566   3.074   4.235  0.1291  0.4326  0.0846
 5149SOL    HW126906   0.524   2.992   4.209  0.0784 -0.5840  3.4521
 5149SOL    HW226907   0.659   3.060   4.218  0.8882  2.3558  2.6746
 5150SOL     OW26908   1.885   3.434  11.867 -0.1904 -0.5669 -0.7686
 5150SOL    HW126909   1.961   3.426  11.925  0.4753  0.2365 -1.5486
 5150SOL    HW226910   1.927   3.408  11.785 -1.0978 -0.2405 -1.3375
 5151SOL     OW26911   1.573   3.591   5.353  0.2794 -0.1752  0.2405
 5151SOL    HW126912   1.565   3.645   5.431  1.1594 -1.4750  1.2123
 5151SOL    HW226913   1.527   3.513   5.385 -3.8174  2.2621  0.3490
 5152SOL     OW26914   1.024   2.234  10.638 -0.1834 -0.0857  0.7043
 5152SOL    HW126915   1.091   2.273  10.581  1.1686 -0.0202  2.3348
 5152SOL    HW226916   1.048   2.142  10.633 -1.7472 -0.5239  1.3792
 5153SOL     OW26917   1.995   1.835  14.569 -0.1208 -0.2769  0.0697
 5153SOL    HW126918   2.041   1.775  14.628 -0.3379 -1.3067 -0.8104
 5153SOL    HW226919   1.991   1.781  14.490  0.4038 -1.4407  0.8428
 5154SOL     OW26920   1.449   3.491   7.498 -0.5895 -0.2428 -0.1098
 5154SOL    HW126921   1.362   3.513   7.462 -0.4847 -0.4346 -0.4831
 5154SOL    HW226922   1.472   3.578   7.530 -1.5049 -0.1770  0.3664
 5155SOL     OW26923   3.122   4.344   5.918 -0.5083 -0.5796 -0.0212
 5155SOL    HW126924   3.029   4.357   5.896 -1.2121 -2.0972  2.0468
 5155SOL    HW226925   3.156   4.433   5.906 -3.2283  0.6568  1.4458
 5156SOL     OW26926   2.476   2.498  12.343 -0.2881  0.6325 -0.3520
 5156SOL    HW126927   2.497   2.518  12.252 -2.9718 -1.2380 -1.4089
 5156SOL    HW226928   2.550   2.445  12.371 -1.3073 -2.1623 -2.9915
 5157SOL     OW26929   2.884   0.520   4.397  0.4963 -0.5177 -0.6689
 5157SOL    HW126930   2.887   0.473   4.480  0.2359 -0.8336 -0.8441
 5157SOL    HW226931   2.856   0.445   4.345 -1.5661 -0.5879  0.5773
 5158SOL     OW26932   1.467   1.854  17.597  0.5027 -0.0705 -0.2259
 5158SOL    HW126933   1.415   1.824  17.672 -0.0051  0.2712 -0.4464
 5158SOL    HW226934   1.533   1.784  17.592  0.1212 -0.4486  0.0732
 5159SOL     OW26935   1.745   2.068   7.312  0.2525 -0.7123  0.5812
 5159SOL    HW126936   1.830   2.084   7.271 -0.6430  1.4601 -0.4071
 5159SOL    HW226937   1.755   2.104   7.400 -0.6579  5.0775 -1.6794
 5160SOL     OW26938   0.854   2.519   8.558 -0.1306 -0.1894  0.8500
 5160SOL    HW126939   0.834   2.507   8.465  0.9234  2.1408  0.3068
 5160SOL    HW226940   0.820   2.606   8.575 -1.9149 -0.5890 -0.7277
 5161SOL     OW26941   2.409   0.155  10.892  0.2434 -0.2379  0.1043
 5161SOL    HW126942   2.348   0.200  10.834 -0.0072  0.0680  0.6096
 5161SOL    HW226943   2.420   0.071  10.847 -2.3452  0.1937 -1.2982
 5162SOL     OW26944   1.738   3.440   1.102 -0.2052 -0.2778  0.5574
 5162SOL    HW126945   1.784   3.365   1.140 -0.7867 -2.0429 -2.1944
 5162SOL    HW226946   1.644   3.432   1.114 -0.1361 -1.9763  0.0407
 5163SOL     OW26947   1.216   3.745  15.234  0.2092 -0.0650 -0.0342
 5163SOL    HW126948   1.166   3.754  15.153  1.2559  0.6705 -0.6005
 5163SOL    HW226949   1.266   3.826  15.226  0.1754  0.1190  1.6180
 5164SOL     OW26950   0.717   4.206   7.465 -0.3543 -0.0455 -0.7897
 5164SOL    HW126951   0.745   4.120   7.495  2.1403  0.8334 -0.5221
 5164SOL    HW226952   0.623   4.204   7.480 -0.3088 -1.5468 -0.7583
 5165SOL     OW26953   3.021   1.256   8.206  0.1440 -0.0168  0.4747
 5165SOL    HW126954   2.971   1.337   8.194 -0.5470 -0.5254 -0.1219
 5165SOL    HW226955   3.030   1.229   8.115  0.5681  0.1046  0.4843
 5166SOL     OW26956   1.183   1.024   6.650  0.4045  0.1148  0.4706
 5166SOL    HW126957   1.140   0.946   6.685  1.8008 -0.6212  0.5642
 5166SOL    HW226958   1.124   1.057   6.582  1.9728  0.3901 -0.7582
 5167SOL     OW26959   1.366   4.108   6.583 -0.0278  0.1313 -0.2499
 5167SOL    HW126960   1.286   4.063   6.610 -0.9036  2.9068  1.7289
 5167SOL    HW226961   1.433   4.047   6.615 -1.2102 -0.9990  0.0662
 5168SOL     OW26962   2.627   0.860   1.412 -0.8633  0.1881 -0.0985
 5168SOL    HW126963   2.678   0.913   1.473 -0.5540 -1.3003  0.9497
 5168SOL    HW226964   2.692   0.816   1.356 -0.9869  0.1375 -0.2015
 5169SOL     OW26965   0.923   0.107   4.280  0.1418 -0.2202 -0.0669
 5169SOL    HW126966   0.874   0.182   4.314  0.4826  0.2911 -0.7175
 5169SOL    HW226967   0.948   0.123   4.189  1.6763  1.1872  0.6095
 5170SOL     OW26968   3.413   3.831   7.234  0.1420  0.1592 -0.1969
 5170SOL    HW126969   3.482   3.765   7.243  0.3429  0.4370  0.2611
 5170SOL    HW226970   3.380   3.795   7.152 -2.1562 -0.7043  1.1011
 5171SOL     OW26971   2.405   0.644  15.534 -0.3031 -0.2983 -0.0165
 5171SOL    HW126972   2.381   0.725  15.488  0.4449 -1.3188 -2.2013
 5171SOL    HW226973   2.494   0.630  15.503 -1.1467 -3.5945 -1.0179
 5172SOL     OW26974   4.671   2.238   2.457  0.0443  0.1794  0.2348
 5172SOL    HW126975   4.618   2.230   2.377 -0.4199  0.0353  0.5509
 5172SOL    HW226976   4.680   2.145   2.477  0.4059 -0.4647 -2.9774
 5173SOL     OW26977   3.396   0.248  11.325  0.3251  0.4295 -0.6109
 5173SOL    HW126978   3.346   0.246  11.243 -2.4991  0.4741  1.1001
 5173SOL    HW226979   3.430   0.337  11.325  0.0160  0.5651  1.9634
 5174SOL     OW26980   1.286   3.354   3.763  0.1045  0.2763 -0.7583
 5174SOL    HW126981   1.342   3.321   3.833  0.0311 -0.4321 -1.0312
 5174SOL    HW226982   1.264   3.439   3.800 -0.7945 -1.9937  3.8704
 5175SOL     OW26983   2.084   1.264   8.969 -0.4799  0.2595  0.8051
 5175SOL    HW126984   2.115   1.250   9.058 -1.1342 -0.4397  0.9124
 5175SOL    HW226985   2.166   1.284   8.923 -0.8846 -0.0851 -0.0615
 5176SOL     OW26986   0.287   1.554   4.416  0.4606 -0.0709 -0.1535
 5176SOL    HW126987   0.285   1.631   4.472 -1.0979 -0.3562  0.1943
 5176SOL    HW226988   0.381   1.535   4.420  0.9438  1.9471 -1.5733
 5177SOL     OW26989   2.763   1.424   5.592  0.0075 -0.9924  0.6193
 5177SOL    HW126990   2.763   1.463   5.505 -0.5301  2.2188  2.0724
 5177SOL    HW226991   2.816   1.491   5.634  0.3390  0.1337 -1.6253
 5178SOL     OW26992   1.399   3.767   0.298 -0.4276  0.4867  0.2573
 5178SOL    HW126993   1.461   3.705   0.336 -0.4080  0.1357 -0.3508
 5178SOL    HW226994   1.418   3.751   0.205 -0.0991  0.1980  0.3757
 5179SOL     OW26995   2.802   3.565  12.207 -0.2225 -0.6257 -0.2853
 5179SOL    HW126996   2.811   3.623  12.131  1.1975 -0.2533  0.1685
 5179SOL    HW226997   2.707   3.569  12.217  0.2231  4.6906  1.6224
 5180SOL     OW26998   4.058   2.156  11.533  0.0547  0.4471  0.5135
 5180SOL    HW126999   4.091   2.081  11.582  0.6326 -0.9872 -2.1094
 5180SOL    HW227000   4.091   2.136  11.446 -0.8905  0.9072  0.0475
 5181SOL     OW27001   1.792   1.540   3.928  0.4305 -0.5078 -0.4432
 5181SOL    HW127002   1.773   1.478   3.857  1.5567  0.0128 -1.2134
 5181SOL    HW227003   1.749   1.614   3.886  1.5758  0.4835  0.1144
 5182SOL     OW27004   2.951   0.633  11.668 -0.3601 -0.6066  0.0171
 5182SOL    HW127005   2.985   0.707  11.717  0.0317  0.5616 -2.0253
 5182SOL    HW227006   3.016   0.571  11.701 -2.5937 -2.6777  0.5341
 5183SOL     OW27007   1.693   1.472   7.166  0.4537  0.2542  0.2010
 5183SOL    HW127008   1.625   1.441   7.225  0.1852 -0.5069 -0.5035
 5183SOL    HW227009   1.710   1.559   7.204 -1.1109 -0.1650  1.8502
 5184SOL     OW27010   1.414   3.426   6.768 -0.2108  0.3765 -0.2343
 5184SOL    HW127011   1.444   3.490   6.832 -1.3596 -1.3650  2.0385
 5184SOL    HW227012   1.429   3.348   6.821 -0.9839 -0.1312 -0.7518
 5185SOL     OW27013   1.566   3.895   3.894  0.6702 -0.3381 -0.7552
 5185SOL    HW127014   1.593   3.890   3.803  0.2794 -1.5942 -0.8025
 5185SOL    HW227015   1.619   3.820   3.919  1.4053  0.8122  1.1565
 5186SOL     OW27016   2.117   1.920  11.902  0.3890  0.4791 -0.6184
 5186SOL    HW127017   2.095   1.878  11.818 -1.5443 -1.2915  0.7899
 5186SOL    HW227018   2.062   1.862  11.955  2.3959  0.8187  1.7970
 5187SOL     OW27019   2.083   1.553  14.536  0.0531 -0.8503 -0.0464
 5187SOL    HW127020   2.013   1.574  14.474  1.5702 -1.5619 -2.0072
 5187SOL    HW227021   2.134   1.496  14.478 -0.7847 -1.0632 -0.5683
 5188SOL     OW27022   2.452   2.436   4.454 -0.0059  0.3183  0.1161
 5188SOL    HW127023   2.422   2.346   4.465 -0.3979  0.5546  0.9660
 5188SOL    HW227024   2.545   2.421   4.433 -0.4016 -0.3522 -1.1393
 5189SOL     OW27025   2.580   2.955   8.391  0.6235  0.1518 -0.0882
 5189SOL    HW127026   2.624   2.962   8.307  0.1266 -0.3809 -0.3908
 5189SOL    HW227027   2.624   2.877   8.426 -0.4782 -0.9380 -1.1429
 5190SOL     OW27028   0.230   0.003   4.912  0.4069  0.0793 -0.5607
 5190SOL    HW127029   0.237   4.666   4.986 -1.6381  0.4402 -0.0732
 5190SOL    HW227030   0.217   4.668   4.838 -2.0418  0.1273 -0.1821
 5191SOL     OW27031   0.706   2.539   0.293  0.2709 -0.7234 -0.2037
 5191SOL    HW127032   0.740   2.607   0.352 -0.7094 -0.0977 -0.3587
 5191SOL    HW227033   0.693   2.590   0.213  0.6519  0.2259  0.3284
 5192SOL     OW27034   0.147   4.139   6.897  0.0878 -0.6647  0.8830
 5192SOL    HW127035   0.097   4.057   6.892 -0.9981  0.2805 -3.2120
 5192SOL    HW227036   0.175   4.136   6.989 -0.4478 -1.7895  1.0115
 5193SOL     OW27037   0.980   4.211  15.352  0.1310  0.7416  0.3074
 5193SOL    HW127038   0.912   4.277  15.347 -0.2312  0.2682 -0.9607
 5193SOL    HW227039   0.930   4.133  15.377  1.9187 -0.8339 -0.9202
 5194SOL     OW27040   2.577   4.208  10.200  0.2778  0.2980 -0.2432
 5194SOL    HW127041   2.482   4.211  10.200  0.2659 -0.2457 -1.0272
 5194SOL    HW227042   2.608   4.226  10.111  1.7018 -1.1201 -0.0422
 5195SOL     OW27043   4.309   1.923   8.700 -0.2045 -0.4019  0.4621
 5195SOL    HW127044   4.330   1.830   8.702  2.3330  0.1544 -0.5168
 5195SOL    HW227045   4.391   1.958   8.735 -0.5711  2.0688 -1.1378
 5196SOL     OW27046   4.593   3.292   1.398 -0.5731  0.4090  0.1350
 5196SOL    HW127047   4.610   3.386   1.404 -2.3193  0.7496 -0.2228
 5196SOL    HW227048   4.552   3.289   1.485 -0.4338 -0.4928  0.1643
 5197SOL     OW27049   0.292   2.359  10.466  0.9679  0.2685  0.2847
 5197SOL    HW127050   0.223   2.424  10.453  0.1282 -0.7632 -0.4225
 5197SOL    HW227051   0.273   2.320  10.552 -1.1697 -1.2531 -0.8736
 5198SOL     OW27052   0.863   0.141   0.463  0.8253 -0.4936  0.2707
 5198SOL    HW127053   0.782   0.129   0.415 -0.7566  2.8608  2.0335
 5198SOL    HW227054   0.897   0.221   0.423 -1.5918  0.3618 -0.0706
 5199SOL     OW27055   1.741   1.139   0.376 -0.0336  0.2195  0.0517
 5199SOL    HW127056   1.692   1.099   0.449  1.9708 -2.0860  0.1404
 5199SOL    HW227057   1.813   1.166   0.433 -0.5611 -0.5597  1.1064
 5200SOL     OW27058   0.785   2.718   7.300 -0.3458 -0.0655 -0.0778
 5200SOL    HW127059   0.700   2.730   7.256 -0.3164  0.1976 -0.0662
 5200SOL    HW227060   0.843   2.757   7.234  0.3449 -0.7933  0.1008
 5201SOL     OW27061   1.467   2.133  17.523  0.3542 -0.8991  0.3978
 5201SOL    HW127062   1.550   2.147  17.477  0.7050  1.2787  1.6800
 5201SOL    HW227063   1.462   2.041  17.547 -1.5186 -0.9094 -0.0357
 5202SOL     OW27064   0.260   2.294  15.060 -0.4968  0.0653  0.2591
 5202SOL    HW127065   0.242   2.386  15.040  0.3667 -0.2778 -2.1823
 5202SOL    HW227066   0.170   2.264  15.075 -0.3037 -0.7291 -0.1886
 5203SOL     OW27067   3.672   1.494   7.397  0.2363 -0.4868 -0.3468
 5203SOL    HW127068   3.680   1.518   7.489  0.9809 -0.1674 -0.4973
 5203SOL    HW227069   3.579   1.476   7.385  0.4682 -0.7667 -1.7817
 5204SOL     OW27070   1.825   2.838   3.823  0.0937 -0.4669  0.5799
 5204SOL    HW127071   1.756   2.827   3.889 -1.3770  1.4977 -0.6023
 5204SOL    HW227072   1.866   2.752   3.831 -0.6237 -0.9042 -0.3170
 5205SOL     OW27073   2.808   1.979   4.944  0.0936 -0.5705 -0.3160
 5205SOL    HW127074   2.754   1.971   5.023  0.2134 -1.1161 -0.2867
 5205SOL    HW227075   2.891   1.940   4.972 -0.1363  0.9090  2.4089
 5206SOL     OW27076   0.233   3.493   5.998 -0.1471  0.1691  0.5251
 5206SOL    HW127077   0.241   3.410   5.951  0.0240  1.1248 -1.1710
 5206SOL    HW227078   0.303   3.552   5.969 -0.0019 -0.3882 -0.2797
 5207SOL     OW27079   3.274   3.106   8.650  0.3337  0.6489  0.0862
 5207SOL    HW127080   3.311   3.071   8.569 -1.9812  1.3336 -1.2539
 5207SOL    HW227081   3.301   3.196   8.638 -0.9097  0.8896 -0.9315
 5208SOL     OW27082   3.302   4.291  13.149 -0.0859  0.0115 -0.7371
 5208SOL    HW127083   3.339   4.377  13.129 -0.7572  1.0803  2.7618
 5208SOL    HW227084   3.376   4.234  13.128  1.1105  1.8428 -1.5441
 5209SOL     OW27085   3.094   4.341   7.520 -0.5597 -0.1318 -0.0296
 5209SOL    HW127086   3.143   4.299   7.591 -0.5799 -0.6041 -0.2958
 5209SOL    HW227087   3.014   4.350   7.572 -0.1891  0.5970  0.4130
 5210SOL     OW27088   3.044   0.877   3.968  0.5763  0.1161 -0.3210
 5210SOL    HW127089   3.038   0.906   4.059  0.8291  0.9953 -0.5854
 5210SOL    HW227090   3.054   0.782   3.981 -0.5712  0.2739  1.7373
 5211SOL     OW27091   0.147   3.848   6.495 -0.6008 -0.3600  0.8408
 5211SOL    HW127092   0.218   3.787   6.518 -0.7417 -0.9186 -0.2161
 5211SOL    HW227093   0.186   3.928   6.533  0.7421 -1.0080  0.8402
 5212SOL     OW27094   2.018   4.298   7.528 -0.1461 -0.1127 -0.6205
 5212SOL    HW127095   2.087   4.354   7.493 -1.5705  0.9401 -1.7146
 5212SOL    HW227096   2.070   4.218   7.539 -0.0942  0.1690  1.2679
 5213SOL     OW27097   0.845   2.091  16.660  0.2340 -0.1879  0.3038
 5213SOL    HW127098   0.932   2.123  16.683 -0.1372  1.6849 -0.8773
 5213SOL    HW227099   0.800   2.174  16.643 -0.8773 -1.1007 -1.2349
 5214SOL     OW27100   0.613   1.581   4.267  0.1748 -0.2610 -0.2248
 5214SOL    HW127101   0.589   1.526   4.341  0.1845 -0.6807 -0.5372
 5214SOL    HW227102   0.693   1.537   4.236  0.4613 -0.0494  0.2146
 5215SOL     OW27103   4.293   2.941   6.592 -0.3440 -0.4119 -0.2532
 5215SOL    HW127104   4.366   2.932   6.530  0.4093 -1.7416  0.8351
 5215SOL    HW227105   4.282   2.850   6.621 -1.0282  0.1656  1.2523
 5216SOL     OW27106   3.233   0.829   2.261  0.2311 -0.0908 -0.1927
 5216SOL    HW127107   3.273   0.887   2.325  1.9611 -0.6517 -0.7605
 5216SOL    HW227108   3.212   0.756   2.319 -3.9111 -0.9850 -2.7627
 5217SOL     OW27109   1.407   1.835  12.371 -0.1800 -0.4300 -0.5737
 5217SOL    HW127110   1.422   1.741  12.385 -1.0250 -0.2464  1.5580
 5217SOL    HW227111   1.313   1.840  12.355  0.1642  0.1213 -2.4411
 5218SOL     OW27112   0.867   1.422   4.809 -0.6665  0.4804 -0.2871
 5218SOL    HW127113   0.906   1.401   4.724  1.5120  0.8761  0.6184
 5218SOL    HW227114   0.901   1.511   4.821 -0.6001  0.8204 -3.0754
 5219SOL     OW27115   4.111   2.253   1.350 -0.1705 -0.0259 -0.3943
 5219SOL    HW127116   4.145   2.275   1.264  0.7962  0.1339  0.0320
 5219SOL    HW227117   4.068   2.170   1.328  1.0034 -0.7628  0.1319
 5220SOL     OW27118   2.556   3.494   1.862 -0.5230 -0.2358 -0.5809
 5220SOL    HW127119   2.463   3.514   1.851 -0.0272  3.2142  1.2800
 5220SOL    HW227120   2.590   3.514   1.774  0.7878  0.0972 -0.0018
 5221SOL     OW27121   0.148   1.122   4.823  0.4045 -0.2925 -0.7336
 5221SOL    HW127122   0.104   1.125   4.908  0.8696 -0.5218 -0.4834
 5221SOL    HW227123   0.124   1.207   4.785  2.8822  0.9047  0.4004
 5222SOL     OW27124   2.046   3.567  10.752 -0.1153 -0.2193  0.3198
 5222SOL    HW127125   1.962   3.550  10.709 -0.6687  0.6999  1.0232
 5222SOL    HW227126   2.017   3.568  10.843 -0.9663  2.0405  0.0326
 5223SOL     OW27127   4.367   0.034   2.298  0.0078  0.5502 -0.1087
 5223SOL    HW127128   4.408   4.678   2.331 -1.5618  0.0372  0.6227
 5223SOL    HW227129   4.280   4.723   2.275 -0.0027  0.4981  0.0059
 5224SOL     OW27130   2.743   4.641   4.785 -0.2996  0.4951  0.3388
 5224SOL    HW127131   2.736   0.012   4.772  0.1301  0.3294 -1.0722
 5224SOL    HW227132   2.763   4.604   4.699  1.7036  2.1680  0.0833
 5225SOL     OW27133   1.912   2.857   4.974  0.2041 -0.8421  0.0307
 5225SOL    HW127134   1.912   2.884   4.883  2.8150  1.2929  0.6455
 5225SOL    HW227135   1.883   2.939   5.014  0.8100 -0.2325 -0.7883
 5226SOL     OW27136   2.915   2.634   7.824 -0.0210  0.0820 -0.6323
 5226SOL    HW127137   2.965   2.638   7.742 -0.3211  0.0273 -0.8175
 5226SOL    HW227138   2.978   2.615   7.893  2.4915  1.2244 -2.5942
 5227SOL     OW27139   2.949   1.440   7.837  0.0894  0.4096 -0.2150
 5227SOL    HW127140   3.017   1.463   7.900  0.3040 -0.7243 -0.0203
 5227SOL    HW227141   2.924   1.349   7.855  1.9720 -0.3471 -1.3731
 5228SOL     OW27142   0.837   0.265   7.363  0.1526 -0.1360  0.4810
 5228SOL    HW127143   0.838   0.238   7.271  1.6149  0.3280  0.3676
 5228SOL    HW227144   0.746   0.295   7.368 -0.2015 -0.5949 -2.8428
 5229SOL     OW27145   2.869   3.574   7.310  0.2657  0.2781 -0.0314
 5229SOL    HW127146   2.916   3.649   7.275  1.2794 -0.4094 -0.1334
 5229SOL    HW227147   2.819   3.620   7.378  0.8877  1.1950 -0.2013
 5230SOL     OW27148   0.551   0.882  14.094 -0.1536 -0.5104 -0.2620
 5230SOL    HW127149   0.476   0.889  14.035 -1.2205 -2.1399  0.9380
 5230SOL    HW227150   0.512   0.838  14.169  0.1397 -0.1189  0.1190
 5231SOL     OW27151   0.844   0.418  14.678  0.3140  0.1755  0.1903
 5231SOL    HW127152   0.800   0.438  14.595 -1.2793 -0.3039  0.9364
 5231SOL    HW227153   0.790   0.355  14.725 -0.2568 -0.6274 -1.5630
 5232SOL     OW27154   3.788   2.414   5.501 -0.0090 -0.6590 -0.3765
 5232SOL    HW127155   3.856   2.365   5.548  1.3532  0.7123 -0.9100
 5232SOL    HW227156   3.788   2.496   5.550  1.5042  0.6534 -2.5980
 5233SOL     OW27157   2.779   2.844  12.508 -0.5766  0.1462  0.2366
 5233SOL    HW127158   2.867   2.859  12.543 -0.7227 -1.6615  1.3445
 5233SOL    HW227159   2.792   2.755  12.474  0.5236  0.1693  0.6039
 5234SOL     OW27160   4.526   4.496   2.685  0.6184  0.5161  0.5037
 5234SOL    HW127161   4.438   4.485   2.651  1.6001 -2.3498 -1.0961
 5234SOL    HW227162   4.548   4.576   2.637 -0.3452  1.6253  1.8726
 5235SOL     OW27163   0.988   0.116   2.193 -0.5162  0.2872 -0.6064
 5235SOL    HW127164   1.066   0.170   2.206 -1.3302  0.7684  2.3168
 5235SOL    HW227165   0.930   0.186   2.162  0.8977  1.2015 -1.1872
 5236SOL     OW27166   0.918   4.255   8.610 -0.6627 -0.6960  0.0534
 5236SOL    HW127167   0.993   4.303   8.576 -1.0263  1.6334  2.5745
 5236SOL    HW227168   0.878   4.226   8.528  0.4712 -0.8724 -0.4340
 5237SOL     OW27169   2.618   1.179  11.568 -0.1394 -0.4267 -0.6014
 5237SOL    HW127170   2.602   1.172  11.662 -1.4897  0.0655 -0.7843
 5237SOL    HW227171   2.671   1.104  11.541  0.7867  0.0698 -0.1340
 5238SOL     OW27172   1.662   1.873   3.081  0.3819 -0.3752 -0.0992
 5238SOL    HW127173   1.589   1.934   3.071  0.0237 -0.7405  0.3651
 5238SOL    HW227174   1.688   1.874   3.173 -1.0914 -1.4190  0.3246
 5239SOL     OW27175   4.341   1.967   9.745 -0.0289 -0.1470 -0.6258
 5239SOL    HW127176   4.323   1.876   9.722  0.3239 -0.3248 -0.1901
 5239SOL    HW227177   4.282   2.002   9.678  0.3702 -1.3519 -1.6121
 5240SOL     OW27178   1.216   0.797   4.571 -0.0993  0.4396 -0.2169
 5240SOL    HW127179   1.176   0.884   4.579  2.0236  1.0926  3.0362
 5240SOL    HW227180   1.144   0.733   4.577  0.6468 -0.2747  0.9381
 5241SOL     OW27181   2.353   2.611  17.305  0.1607  0.2651  0.2996
 5241SOL    HW127182   2.325   2.538  17.360  0.7140 -0.8775 -0.9402
 5241SOL    HW227183   2.370   2.575  17.218  0.3944 -0.1507  0.5187
 5242SOL     OW27184   0.210   2.851   3.999  0.1063  0.1462  0.4576
 5242SOL    HW127185   0.194   2.760   4.025 -1.3886  0.2498 -0.0564
 5242SOL    HW227186   0.261   2.830   3.921  0.1626  1.3077  0.1777
 5243SOL     OW27187   1.783   0.682  15.393  0.0206 -0.0699  0.2010
 5243SOL    HW127188   1.860   0.699  15.447 -0.0846  0.9294  0.0288
 5243SOL    HW227189   1.795   0.749  15.326  0.5529  0.1913  0.5622
 5244SOL     OW27190   4.199   1.673   0.300  0.2693  0.6749  0.3192
 5244SOL    HW127191   4.224   1.581   0.302  1.7424  1.0350 -1.9511
 5244SOL    HW227192   4.271   1.713   0.252  1.5788 -0.9016  0.9488
 5245SOL     OW27193   4.079   4.192  12.991  0.1804 -0.0598 -0.4593
 5245SOL    HW127194   4.171   4.210  12.973 -0.1513  0.3810 -1.7264
 5245SOL    HW227195   4.064   4.264  13.052  0.6838 -2.2366  2.2211
 5246SOL     OW27196   1.185   4.240   7.259 -0.1775 -0.1264  0.3518
 5246SOL    HW127197   1.142   4.311   7.211  1.4076 -0.6426 -1.8086
 5246SOL    HW227198   1.142   4.245   7.345 -1.0637 -0.9214 -0.0552
 5247SOL     OW27199   2.005   3.391   0.832 -0.5690 -0.1146  0.1378
 5247SOL    HW127200   1.991   3.319   0.893 -0.8337  0.0217  0.2375
 5247SOL    HW227201   2.085   3.432   0.864  1.0458 -2.1317 -1.3256
 5248SOL     OW27202   1.078   4.658  10.458 -0.2813 -0.0327  0.0372
 5248SOL    HW127203   1.135   4.685  10.531 -0.6299 -1.8219  0.9653
 5248SOL    HW227204   1.005   4.715  10.481 -0.9988 -0.8759 -0.1607
 5249SOL     OW27205   1.294   2.314   4.155 -0.8402 -0.3364  0.0293
 5249SOL    HW127206   1.239   2.357   4.090 -0.7132  1.7592  1.2887
 5249SOL    HW227207   1.279   2.371   4.231  1.8036  1.2593 -0.6312
 5250SOL     OW27208   4.243   3.403   4.452 -0.6838 -0.4459 -0.1490
 5250SOL    HW127209   4.321   3.441   4.493  0.0284  0.2004 -2.0598
 5250SOL    HW227210   4.195   3.486   4.456  0.8376  0.4348  0.0643
 5251SOL     OW27211   2.446   2.866   2.685 -0.1577 -0.6154 -0.3819
 5251SOL    HW127212   2.455   2.890   2.593  0.9236  0.7309  0.0838
 5251SOL    HW227213   2.421   2.951   2.722 -0.0200 -1.4010  1.5190
 5252SOL     OW27214   2.533   3.287   5.785  0.4755  0.4344 -0.0610
 5252SOL    HW127215   2.622   3.322   5.779  0.3389  0.8160  0.1538
 5252SOL    HW227216   2.488   3.362   5.823 -0.8195  0.3524 -1.4219
 5253SOL     OW27217   4.467   1.133   7.429 -0.0046  0.1149  0.3999
 5253SOL    HW127218   4.389   1.078   7.420  0.4270 -0.3396 -0.5982
 5253SOL    HW227219   4.469   1.177   7.344  3.3425  1.0439  0.9767
 5254SOL     OW27220   2.488   1.697   0.544  0.2314 -0.7164 -0.1080
 5254SOL    HW127221   2.551   1.656   0.604 -0.9387 -1.2165  0.7704
 5254SOL    HW227222   2.489   1.628   0.477  2.0033 -0.9335  0.1367
 5255SOL     OW27223   4.498   1.466  16.300  0.1208  0.2100 -0.0668
 5255SOL    HW127224   4.576   1.415  16.323 -1.2357 -0.3109  3.3248
 5255SOL    HW227225   4.449   1.417  16.234  1.9510 -1.1305 -0.4295
 5256SOL     OW27226   1.102   1.606   4.276  0.2168  0.3499 -0.1139
 5256SOL    HW127227   1.168   1.614   4.208  1.2799 -1.1978  0.7400
 5256SOL    HW227228   1.145   1.537   4.326  0.4031 -0.3099 -1.1965
 5257SOL     OW27229   0.820   1.329   2.356  0.1878  0.2678 -0.4024
 5257SOL    HW127230   0.732   1.296   2.341  0.2839  0.7502 -1.9975
 5257SOL    HW227231   0.819   1.316   2.451 -2.4668  1.3528 -0.3006
 5258SOL     OW27232   3.168   3.096   3.222 -0.4411  0.3008 -0.3400
 5258SOL    HW127233   3.133   3.008   3.237 -2.2586  1.5603  2.6402
 5258SOL    HW227234   3.108   3.134   3.158 -1.3287 -1.0136 -0.2754
 5259SOL     OW27235   2.863   4.502   8.006  0.3194  0.3639  0.3433
 5259SOL    HW127236   2.849   4.512   8.100  0.4339 -1.2513  0.5238
 5259SOL    HW227237   2.897   4.590   7.988 -2.0597  1.1355 -0.3783
 5260SOL     OW27238   0.674   3.655   1.689  0.0616  0.0791  0.4242
 5260SOL    HW127239   0.736   3.722   1.660  0.0681 -1.8901 -4.1750
 5260SOL    HW227240   0.704   3.578   1.639  1.2912  1.1371 -0.4746
 5261SOL     OW27241   2.155   1.965   3.952  0.0660  0.0846 -0.0744
 5261SOL    HW127242   2.061   1.946   3.956 -0.6547  3.7125 -0.0475
 5261SOL    HW227243   2.193   1.883   3.920  0.8524  0.7269 -0.7578
 5262SOL     OW27244   1.033   1.652  14.771 -0.1357 -0.0037  0.0882
 5262SOL    HW127245   0.948   1.696  14.769  0.3331  0.8394 -1.3542
 5262SOL    HW227246   1.070   1.652  14.683  0.6740  0.0484  0.4314
 5263SOL     OW27247   1.555   3.864   0.621  0.1960  0.4347  0.0042
 5263SOL    HW127248   1.556   3.907   0.707  0.6931 -1.1310  0.7796
 5263SOL    HW227249   1.648   3.850   0.604 -0.0496  0.4897 -1.3533
 5264SOL     OW27250   1.680   3.245  10.080  1.0960 -0.3982 -0.0793
 5264SOL    HW127251   1.752   3.211  10.134  0.6321 -1.9265 -0.4213
 5264SOL    HW227252   1.679   3.173  10.018  1.9235 -0.1471 -0.3840
 5265SOL     OW27253   3.047   3.121   2.048 -0.1777  0.3865  0.4390
 5265SOL    HW127254   2.993   3.063   2.101  2.3140 -2.6334 -0.2983
 5265SOL    HW227255   3.050   3.194   2.110  0.6012 -0.1329  0.9991
 5266SOL     OW27256   4.522   4.670   1.282 -0.3646 -0.0121 -0.4953
 5266SOL    HW127257   4.532   4.584   1.323  3.4223  0.4348 -0.4610
 5266SOL    HW227258   4.433   4.657   1.250 -0.1081 -2.0723 -0.3836
 5267SOL     OW27259   3.627   3.408  10.618 -0.5685  0.7158  0.0861
 5267SOL    HW127260   3.614   3.423  10.711  0.2128  1.7040  0.0399
 5267SOL    HW227261   3.648   3.498  10.593  1.9824  0.3982  0.9943
 5268SOL     OW27262   3.382   3.966   5.780  0.4342 -0.0715  0.1535
 5268SOL    HW127263   3.388   3.990   5.873  1.6651 -0.8938  0.2961
 5268SOL    HW227264   3.320   4.031   5.749  0.7292  0.9440  1.6734
 5269SOL     OW27265   2.165   3.267  13.691 -0.0367  0.5766  0.1420
 5269SOL    HW127266   2.224   3.219  13.749  1.4899  1.5036 -0.6720
 5269SOL    HW227267   2.083   3.217  13.695  0.0734  0.3061 -1.0204
 5270SOL     OW27268   2.634   0.813   0.777  0.1502  0.3582  0.8118
 5270SOL    HW127269   2.543   0.841   0.791 -0.3867 -1.8941  1.7574
 5270SOL    HW227270   2.664   0.802   0.867 -0.8174 -1.5903  0.8920
 5271SOL     OW27271   1.097   2.480   5.167  0.6503  0.1352 -0.2471
 5271SOL    HW127272   1.052   2.555   5.206 -1.5852 -0.4598 -1.6856
 5271SOL    HW227273   1.167   2.532   5.128  0.0796  1.7458  0.9020
 5272SOL     OW27274   1.477   3.716   0.009  0.2559 -0.2058  0.3466
 5272SOL    HW127275   1.416   3.665  17.652 -1.3917  1.9090  0.2085
 5272SOL    HW227276   1.489   3.783  17.637 -0.3348 -1.6604 -1.2030
 5273SOL     OW27277   0.337   1.714   3.418 -0.1453 -0.4937  0.0484
 5273SOL    HW127278   0.278   1.705   3.343  1.6332 -0.4791 -1.3584
 5273SOL    HW227279   0.278   1.683   3.486  1.8049  0.1926  2.0563
 5274SOL     OW27280   0.569   0.215  10.688  0.1067 -0.1132 -0.1204
 5274SOL    HW127281   0.484   0.192  10.726 -0.8615 -1.6389 -3.1625
 5274SOL    HW227282   0.600   0.129  10.659 -1.4532 -0.5888 -0.3931
 5275SOL     OW27283   3.475   3.923   4.780  0.5090  0.0901 -0.2718
 5275SOL    HW127284   3.415   3.865   4.826  1.1512 -0.8771 -0.6567
 5275SOL    HW227285   3.515   3.960   4.859  2.3689  0.4398 -1.3716
 5276SOL     OW27286   1.367   0.684   2.783  0.1708  0.0884 -0.0362
 5276SOL    HW127287   1.413   0.749   2.731  0.2273 -0.0840 -0.2039
 5276SOL    HW227288   1.413   0.605   2.753 -0.0561  0.2954 -0.9202
 5277SOL     OW27289   1.441   1.754   6.781  0.1267  0.0783 -0.4235
 5277SOL    HW127290   1.463   1.751   6.874  2.7075 -0.0659 -1.0453
 5277SOL    HW227291   1.529   1.768   6.746  0.0180  2.6122  0.3328
 5278SOL     OW27292   2.720   4.022  13.004 -0.0501  0.3395 -1.1120
 5278SOL    HW127293   2.712   3.939  12.956 -0.3834 -0.6759  0.6738
 5278SOL    HW227294   2.778   3.986  13.070  0.1378 -0.2413 -1.5901
 5279SOL     OW27295   2.626   2.724   2.841  0.2221 -0.0843 -0.2071
 5279SOL    HW127296   2.557   2.781   2.808 -0.6961 -0.7736  0.5362
 5279SOL    HW227297   2.645   2.663   2.770 -1.9628  0.4924 -1.2662
 5280SOL     OW27298   2.184   0.201   2.057 -0.3700 -0.1356  0.6258
 5280SOL    HW127299   2.099   0.176   2.093  1.5913 -0.8103  4.7559
 5280SOL    HW227300   2.231   0.236   2.133  0.0265 -0.8354  0.7069
 5281SOL     OW27301   3.776   1.886   9.866 -0.1965  0.3803  0.1115
 5281SOL    HW127302   3.852   1.902   9.811 -0.5250 -2.4344 -1.1596
 5281SOL    HW227303   3.703   1.912   9.809  2.8330  3.5632 -2.3341
 5282SOL     OW27304   4.476   3.475   6.582  0.7330  0.5596 -0.2429
 5282SOL    HW127305   4.414   3.445   6.516 -0.1446 -0.0797  0.8783
 5282SOL    HW227306   4.462   3.569   6.577  0.4930  0.5413  0.0854
 5283SOL     OW27307   4.540   2.982  12.907 -0.0383 -0.0712  0.4470
 5283SOL    HW127308   4.525   2.894  12.872  0.6959 -0.1724  0.3793
 5283SOL    HW227309   4.529   3.034  12.827 -1.3315  0.4613  0.9735
 5284SOL     OW27310   3.258   1.150   2.142  0.5858 -0.0469 -0.2595
 5284SOL    HW127311   3.351   1.146   2.163  0.5049  1.0840  0.3054
 5284SOL    HW227312   3.220   1.083   2.200  1.7764 -1.2769 -0.8988
 5285SOL     OW27313   2.287   0.916   6.592  0.1583 -0.0298  0.1342
 5285SOL    HW127314   2.364   0.893   6.541  1.5566  3.2889  0.6886
 5285SOL    HW227315   2.220   0.887   6.530 -1.6027  0.8554  1.5983
 5286SOL     OW27316   3.618   3.192   8.437 -0.3914 -0.3922  0.4975
 5286SOL    HW127317   3.698   3.167   8.484  0.5899 -0.8127 -1.3858
 5286SOL    HW227318   3.646   3.182   8.346 -2.5226  2.1166 -0.4299
 5287SOL     OW27319   4.650   2.453   3.591  0.4274 -0.4479 -0.2271
 5287SOL    HW127320   4.696   2.534   3.566  0.2636  0.0543  1.0794
 5287SOL    HW227321   4.634   2.425   3.501 -0.3883 -2.3777  0.5259
 5288SOL     OW27322   1.740   3.205   4.720  0.2648 -0.2084  0.6457
 5288SOL    HW127323   1.704   3.288   4.751  0.1637 -0.4593  1.1848
 5288SOL    HW227324   1.770   3.239   4.635 -3.4362  0.7376 -0.2744
 5289SOL     OW27325   3.791   2.886  11.953  0.2097  0.3936  0.4816
 5289SOL    HW127326   3.731   2.960  11.956 -1.7244 -1.1419 -0.3412
 5289SOL    HW227327   3.790   2.864  11.860  1.5647  1.2092  0.2757
 5290SOL     OW27328   0.296   0.496  12.597  0.2050  0.2651 -0.5350
 5290SOL    HW127329   0.304   0.432  12.667 -1.0537 -2.4279 -2.8312
 5290SOL    HW227330   0.264   0.575  12.640 -1.5128 -0.3667 -0.6557
 5291SOL     OW27331   3.771   0.524  15.238  0.5720  1.5844  0.1740
 5291SOL    HW127332   3.765   0.617  15.215 -1.2446  1.1565 -1.1539
 5291SOL    HW227333   3.832   0.488  15.174 -2.3060 -1.5235 -0.8417
 5292SOL     OW27334   1.554   1.428   5.249  0.3264  0.2153 -0.2743
 5292SOL    HW127335   1.490   1.357   5.257 -0.6385  0.9808 -1.2517
 5292SOL    HW227336   1.545   1.452   5.157  2.2475  1.0897 -0.2473
 5293SOL     OW27337   2.352   3.400   6.225  0.5650  0.1524  0.2564
 5293SOL    HW127338   2.339   3.306   6.236 -0.6662  0.2515 -0.2592
 5293SOL    HW227339   2.282   3.430   6.284  0.6081  1.3186 -0.2881
 5294SOL     OW27340   4.320   4.622   6.135  0.1248 -0.1036  0.0935
 5294SOL    HW127341   4.301   4.532   6.160  4.1588 -1.4873 -1.8253
 5294SOL    HW227342   4.233   4.659   6.122  0.8602  2.2348  1.7317
 5295SOL     OW27343   2.058   0.084  11.209 -0.5211 -0.2834 -0.4547
 5295SOL    HW127344   2.132   0.024  11.205 -1.0992 -1.0939  1.0446
 5295SOL    HW227345   2.017   0.052  11.128 -1.2082 -0.0972 -0.1832
 5296SOL     OW27346   4.476   2.377   0.955 -0.0815 -0.1340 -0.1482
 5296SOL    HW127347   4.530   2.359   1.032 -0.1769  1.5782  0.3165
 5296SOL    HW227348   4.524   2.444   0.906 -0.5016  0.9964  0.9891
 5297SOL     OW27349   3.562   0.420   7.851 -0.0713 -0.5030  0.1390
 5297SOL    HW127350   3.536   0.375   7.931  0.6707 -0.5553  0.3478
 5297SOL    HW227351   3.531   0.365   7.779 -1.6667  0.5088  0.0533
 5298SOL     OW27352   4.554   1.557   5.488 -0.4159 -0.0556  0.1652
 5298SOL    HW127353   4.501   1.613   5.432  0.3617  0.1018 -0.4260
 5298SOL    HW227354   4.546   1.597   5.574 -0.7268  1.8301 -0.7314
 5299SOL     OW27355   2.659   2.222   5.956  0.2551 -0.1156 -0.0331
 5299SOL    HW127356   2.718   2.192   5.887  2.3323  0.8224  1.3352
 5299SOL    HW227357   2.680   2.159   6.026 -1.5768 -1.9666 -1.1516
 5300SOL     OW27358   1.427   2.158  10.406  0.3830  0.3112 -0.7171
 5300SOL    HW127359   1.485   2.157  10.483 -1.6437  3.1049  0.8274
 5300SOL    HW227360   1.359   2.213  10.445  0.6490  0.7121 -0.8222
 5301SOL     OW27361   1.490   4.068  17.323 -0.3134  0.2836  0.1200
 5301SOL    HW127362   1.567   4.125  17.328  0.1767 -0.4263  0.7071
 5301SOL    HW227363   1.424   4.112  17.270  0.4541 -1.2340 -2.1073
 5302SOL     OW27364   2.310   4.270   7.464 -0.1012 -0.8059 -0.6758
 5302SOL    HW127365   2.330   4.319   7.544 -1.6847 -1.3572  0.0605
 5302SOL    HW227366   2.367   4.320   7.404  0.8692 -1.4429 -0.2784
 5303SOL     OW27367   1.402   0.982  12.198 -0.0521 -0.0712  0.0637
 5303SOL    HW127368   1.336   0.937  12.146 -0.0863 -0.4536  0.4462
 5303SOL    HW227369   1.487   0.955  12.163  0.9080  3.8686 -0.6466
 5304SOL     OW27370   1.756   0.006  12.488 -0.0015 -0.8057  0.1626
 5304SOL    HW127371   1.761   4.705  12.581  1.8562 -0.4180  0.1575
 5304SOL    HW227372   1.727   0.095  12.508 -0.4190 -0.6180 -1.2535
 5305SOL     OW27373   2.857   2.825   4.738  0.4455  0.5350 -0.0575
 5305SOL    HW127374   2.854   2.895   4.673 -0.3586  1.0297  0.5199
 5305SOL    HW227375   2.891   2.881   4.808  0.9736  0.3450 -0.1570
 5306SOL     OW27376   3.927   4.332   7.899  0.3468 -0.2517  0.0476
 5306SOL    HW127377   3.936   4.368   7.811  1.4627  2.0513  1.0966
 5306SOL    HW227378   3.914   4.412   7.951  0.2260 -2.0729  2.8522
 5307SOL     OW27379   3.999   0.982  13.485  0.4395 -0.0487  0.0606
 5307SOL    HW127380   4.067   0.915  13.493  0.5561 -0.1099 -1.3003
 5307SOL    HW227381   4.045   1.051  13.438 -3.2240  2.5079  0.2684
 5308SOL     OW27382   2.074   0.124   8.029 -0.8823 -0.2530 -0.0358
 5308SOL    HW127383   2.014   0.055   8.002 -0.2703 -0.1176 -1.7049
 5308SOL    HW227384   2.117   0.069   8.095 -0.5682  0.0572  0.0226
 5309SOL     OW27385   3.804   1.605   1.811 -0.5404 -0.3758  0.2085
 5309SOL    HW127386   3.789   1.539   1.879 -1.5579 -0.9802 -0.6042
 5309SOL    HW227387   3.718   1.640   1.790 -0.6765 -0.1145  1.1874
 5310SOL     OW27388   3.505   4.043  16.866 -0.4566 -0.3528 -0.0854
 5310SOL    HW127389   3.593   4.068  16.894 -1.2190  1.7980  0.4290
 5310SOL    HW227390   3.471   4.131  16.851  2.0083  0.4127 -1.0194
 5311SOL     OW27391   2.410   3.727   5.484 -0.3396  0.2080 -0.1544
 5311SOL    HW127392   2.496   3.707   5.446  0.3720  2.4446  0.3329
 5311SOL    HW227393   2.368   3.768   5.408  1.7487 -0.3007 -1.5950
 5312SOL     OW27394   1.810   3.601   6.833  0.1520  0.3444  0.6430
 5312SOL    HW127395   1.874   3.627   6.900  1.9213  4.6685 -2.7098
 5312SOL    HW227396   1.812   3.506   6.824 -1.2713  0.5138 -1.3386
 5313SOL     OW27397   1.895   2.617   2.419  0.1925  0.5469  0.1301
 5313SOL    HW127398   1.835   2.663   2.361 -1.4468 -1.9915 -0.1998
 5313SOL    HW227399   1.898   2.532   2.374 -0.6861  0.4012  0.3559
 5314SOL     OW27400   3.024   0.566  14.461 -0.0131 -0.2694  0.4038
 5314SOL    HW127401   3.012   0.632  14.530  0.8140 -3.5509  3.6750
 5314SOL    HW227402   3.054   0.491  14.512  2.9216  0.5368 -0.1806
 5315SOL     OW27403   0.775   1.580   3.935  0.1030 -0.2584  0.7800
 5315SOL    HW127404   0.804   1.515   3.999  0.8759 -1.2314 -0.5430
 5315SOL    HW227405   0.852   1.636   3.933  0.0960 -0.1844  2.4485
 5316SOL     OW27406   2.019   3.199   1.917  0.0203 -0.4398 -0.0769
 5316SOL    HW127407   1.926   3.219   1.909 -0.0120 -1.0974 -1.4566
 5316SOL    HW227408   2.019   3.124   1.977  0.6819  0.1354  0.6333
 5317SOL     OW27409   2.347   3.527   6.955 -0.6454 -0.3550  0.3944
 5317SOL    HW127410   2.347   3.434   6.979  5.3118 -0.0001  1.7061
 5317SOL    HW227411   2.412   3.512   6.887 -0.5423 -0.8615  0.6089
 5318SOL     OW27412   0.488   2.118   3.081 -0.1357  0.4051 -0.4603
 5318SOL    HW127413   0.481   2.196   3.026 -2.5396 -0.2367 -1.0450
 5318SOL    HW227414   0.573   2.128   3.123  0.6284 -4.2206 -0.8617
 5319SOL     OW27415   4.576   1.520   8.284 -0.0323  0.0008 -0.0193
 5319SOL    HW127416   4.661   1.535   8.326  0.0763  1.0033 -0.6065
 5319SOL    HW227417   4.603   1.473   8.204 -0.6629  1.1010 -0.8758
 5320SOL     OW27418   2.462   1.020   6.176 -0.1223  0.2686 -0.1226
 5320SOL    HW127419   2.525   1.089   6.153  0.5541  0.4692  2.3586
 5320SOL    HW227420   2.404   1.074   6.229 -0.7738  2.4503 -3.0547
 5321SOL     OW27421   2.659   2.559   2.627  0.0871 -0.2191 -0.1256
 5321SOL    HW127422   2.594   2.532   2.562 -0.0881 -3.9545  1.5737
 5321SOL    HW227423   2.705   2.629   2.582  2.1733  0.7073  3.4202
 5322SOL     OW27424   4.617   2.784   7.105  0.5836  0.3824  0.0274
 5322SOL    HW127425   4.525   2.799   7.128  0.6522 -0.2193  0.6633
 5322SOL    HW227426   4.638   2.728   7.179  2.5363  0.5598 -0.3912
 5323SOL     OW27427   3.006   2.564   2.863  0.4922  0.0628 -1.1936
 5323SOL    HW127428   2.987   2.657   2.855  0.1152 -0.0539 -1.6400
 5323SOL    HW227429   3.085   2.546   2.812 -2.3808 -0.3476 -5.4557
 5324SOL     OW27430   4.576   3.274  17.420  0.1817 -0.1061  0.2650
 5324SOL    HW127431   4.563   3.280  17.515  0.6653  0.3913  0.3050
 5324SOL    HW227432   4.671   3.265  17.413  0.2315  0.5740  0.0195
 5325SOL     OW27433   1.068   0.713  16.541 -0.0738  0.3481 -0.7731
 5325SOL    HW127434   1.000   0.669  16.591  0.0143  0.4190 -0.5904
 5325SOL    HW227435   1.031   0.689  16.457  0.1703 -2.1574 -0.1671
 5326SOL     OW27436   3.225   1.059   3.522 -0.0117  0.0073 -0.2404
 5326SOL    HW127437   3.152   1.004   3.551  0.5766 -0.4791  0.3164
 5326SOL    HW227438   3.199   1.082   3.433  1.6627  0.7056 -0.5475
 5327SOL     OW27439   1.314   2.188   7.066  0.9749  0.0290 -0.7044
 5327SOL    HW127440   1.314   2.178   7.161 -0.3592  1.6856 -0.5375
 5327SOL    HW227441   1.261   2.112   7.043 -0.5642  1.0167 -0.4456
 5328SOL     OW27442   3.461   3.511   5.168  0.1385  0.8649  0.2799
 5328SOL    HW127443   3.441   3.444   5.233 -0.3092 -2.8015 -3.6640
 5328SOL    HW227444   3.432   3.587   5.219 -0.9588 -0.1743  1.1741
 5329SOL     OW27445   2.347   2.907   3.952  0.5493  0.1912  0.3116
 5329SOL    HW127446   2.349   2.928   3.859  1.1651  0.9012  0.4832
 5329SOL    HW227447   2.319   2.992   3.986 -0.4906 -0.4129  0.9776
 5330SOL     OW27448   0.683   1.041   5.404 -0.5349  0.4799  0.1539
 5330SOL    HW127449   0.608   1.086   5.363  0.9209  2.9812  0.2631
 5330SOL    HW227450   0.757   1.066   5.348  0.7008 -0.0924  1.5439
 5331SOL     OW27451   2.472   3.555  17.289 -0.0717  0.0135  0.0760
 5331SOL    HW127452   2.549   3.591  17.245  1.3059 -0.7493  1.8264
 5331SOL    HW227453   2.499   3.543  17.380  1.9875 -0.4892 -0.6017
 5332SOL     OW27454   1.928   0.577   3.647  0.6146  0.2450 -0.5718
 5332SOL    HW127455   1.978   0.496   3.657  0.2918  0.0842 -0.2396
 5332SOL    HW227456   2.006   0.631   3.656 -1.4573  2.7849  2.1019
 5333SOL     OW27457   0.180   3.122  10.112 -0.2147  0.1565 -0.3123
 5333SOL    HW127458   0.112   3.055  10.115 -0.9034  0.9210  0.7565
 5333SOL    HW227459   0.257   3.075  10.078  0.1083 -0.6712  1.5945
 5334SOL     OW27460   2.091   2.471   6.345  0.2131 -0.3550  0.0706
 5334SOL    HW127461   2.168   2.437   6.390  0.3418  0.0203  0.1346
 5334SOL    HW227462   2.023   2.413   6.377 -0.9098  0.8928 -0.0438
 5335SOL     OW27463   1.354   2.292   5.532 -0.8373 -0.3091 -0.4390
 5335SOL    HW127464   1.336   2.227   5.464  0.6438 -0.1950 -0.9277
 5335SOL    HW227465   1.367   2.234   5.608  1.0332 -0.9392 -1.2337
 5336SOL     OW27466   2.339   0.493   6.372  0.0420 -0.4974  0.6286
 5336SOL    HW127467   2.405   0.437   6.413  1.5390  0.9771  0.2308
 5336SOL    HW227468   2.386   0.565   6.331 -1.8213 -0.3304 -1.2410
 5337SOL     OW27469   0.590   4.214  15.539 -0.5145  0.2037 -0.1100
 5337SOL    HW127470   0.604   4.300  15.500  0.7220 -0.0138 -0.1253
 5337SOL    HW227471   0.494   4.209  15.546 -0.4023  2.0901  2.5953
 5338SOL     OW27472   3.634   4.676   4.196  0.2939 -0.0942  0.4282
 5338SOL    HW127473   3.597   4.706   4.113 -0.6264  0.6411  1.1189
 5338SOL    HW227474   3.643   4.582   4.183 -0.4942 -0.4316  2.2983
 5339SOL     OW27475   1.532   1.243  15.309 -0.7114 -0.5505  0.1559
 5339SOL    HW127476   1.515   1.268  15.399  0.7156  2.6806 -0.5056
 5339SOL    HW227477   1.577   1.158  15.318  1.5425  0.7292  0.8580
 5340SOL     OW27478   3.586   0.473  10.984  0.0024 -0.4607 -0.2584
 5340SOL    HW127479   3.576   0.395  11.039  1.2923  0.1809  0.8757
 5340SOL    HW227480   3.675   0.461  10.950  0.6853  1.7222  0.7725
 5341SOL     OW27481   1.943   4.324  10.519  0.4094 -0.3232  0.0193
 5341SOL    HW127482   1.947   4.255  10.453  0.5109  1.9454 -2.3270
 5341SOL    HW227483   1.876   4.288  10.577 -0.8165  0.1751 -1.0924
 5342SOL     OW27484   4.181   0.651   1.062 -0.4113 -0.1940 -0.2306
 5342SOL    HW127485   4.185   0.726   1.002 -3.0491 -1.3213 -1.8378
 5342SOL    HW227486   4.093   0.615   1.047 -0.5713 -0.9912  2.4980
 5343SOL     OW27487   2.476   4.586   8.469 -0.6269 -0.0807  0.2067
 5343SOL    HW127488   2.525   4.515   8.511 -1.0080 -0.4038  0.0995
 5343SOL    HW227489   2.387   4.581   8.503 -1.7453  2.1432 -2.3430
 5344SOL     OW27490   2.403   0.206  14.277  0.2418  0.3967  0.0462
 5344SOL    HW127491   2.360   0.127  14.244  0.8598  0.4267 -0.8402
 5344SOL    HW227492   2.462   0.230  14.205 -1.4125 -1.3084 -1.8590
 5345SOL     OW27493   3.924   0.646   7.091 -0.2955  0.1002 -0.3254
 5345SOL    HW127494   3.867   0.604   7.156  0.3621  0.0354  0.2160
 5345SOL    HW227495   3.958   0.721   7.141 -1.9680 -0.4209  1.6219
 5346SOL     OW27496   2.492   0.080   4.255 -0.7701 -0.4079  0.4153
 5346SOL    HW127497   2.547   0.143   4.302  0.5446 -0.9047 -0.4959
 5346SOL    HW227498   2.535   0.073   4.170 -0.9033 -0.2535  0.3345
 5347SOL     OW27499   4.321   2.557  16.634  0.1250  0.4021  0.2159
 5347SOL    HW127500   4.271   2.639  16.626  2.5896  1.8619 -0.3764
 5347SOL    HW227501   4.325   2.548  16.729 -0.3108  0.3103  0.2239
 5348SOL     OW27502   4.664   1.024   9.343  0.0389  0.7990 -0.2003
 5348SOL    HW127503   4.687   1.117   9.344 -1.1375  1.0825  0.4342
 5348SOL    HW227504   0.014   0.978   9.302 -0.1802  2.5603 -2.5947
 5349SOL     OW27505   0.612   1.484  16.067 -0.3142 -0.6946  0.0417
 5349SOL    HW127506   0.592   1.575  16.090  0.3647 -0.7021  0.6376
 5349SOL    HW227507   0.590   1.443  16.151 -0.4000 -1.9453 -0.5863
 5350SOL     OW27508   3.031   0.332   2.587 -0.5545  0.1231  0.0056
 5350SOL    HW127509   3.120   0.329   2.552 -0.0613 -0.8545  1.3207
 5350SOL    HW227510   2.984   0.269   2.533 -0.7489  0.9464 -0.7809
 5351SOL     OW27511   4.153   2.149   3.370 -0.3291 -0.1248 -0.1619
 5351SOL    HW127512   4.076   2.143   3.427 -0.6577  0.4057 -0.5550
 5351SOL    HW227513   4.158   2.060   3.335  0.1690 -0.2113  0.1369
 5352SOL     OW27514   4.531   1.515  17.431 -0.3595  0.0157  0.1521
 5352SOL    HW127515   4.549   1.494  17.339 -0.1843  0.3523  0.1076
 5352SOL    HW227516   4.465   1.584  17.426 -1.0652 -0.6422  0.4821
 5353SOL     OW27517   0.468   0.802   0.418  0.3633 -0.1108 -0.1753
 5353SOL    HW127518   0.472   0.766   0.329  1.0093  2.6768 -1.2775
 5353SOL    HW227519   0.384   0.762   0.440  0.9608 -0.2831  1.7577
 5354SOL     OW27520   4.266   4.631   3.343 -0.6889 -0.0886 -0.4187
 5354SOL    HW127521   4.261   4.720   3.308 -1.1413 -0.2626 -0.7943
 5354SOL    HW227522   4.288   4.589   3.260 -1.0754 -1.4570  0.1668
 5355SOL     OW27523   0.899   2.934   4.855  0.1758  0.3622  0.9259
 5355SOL    HW127524   0.915   3.012   4.908 -0.7899  0.7998  0.5800
 5355SOL    HW227525   0.816   2.912   4.897  0.0017  1.0888  0.9616
 5356SOL     OW27526   2.734   3.397   6.445 -0.0166  0.6163 -0.3323
 5356SOL    HW127527   2.678   3.463   6.486  1.3941  0.6469  1.5484
 5356SOL    HW227528   2.677   3.323   6.423  0.2101  1.0786 -2.4397
 5357SOL     OW27529   3.115   4.559  14.799 -0.1411  0.0743  0.4299
 5357SOL    HW127530   3.201   4.602  14.797 -0.2102  0.1713 -0.7729
 5357SOL    HW227531   3.048   4.628  14.794 -2.4336 -2.2870 -1.4242
 5358SOL     OW27532   0.393   2.569   7.757  0.1764  0.1250 -0.5286
 5358SOL    HW127533   0.406   2.659   7.727 -0.5613  0.6476  0.7152
 5358SOL    HW227534   0.311   2.580   7.805 -0.3879  0.7239 -1.6223
 5359SOL     OW27535   0.416   2.581   6.113  0.2039  0.7935 -0.2342
 5359SOL    HW127536   0.392   2.594   6.205 -0.3869  0.0422 -0.2872
 5359SOL    HW227537   0.401   2.489   6.091  1.8994  0.9374 -1.9799
 5360SOL     OW27538   0.953   4.476   3.719  0.1605  0.0511  0.2890
 5360SOL    HW127539   0.922   4.434   3.800 -3.2207  0.7290 -0.6726
 5360SOL    HW227540   1.048   4.476   3.730 -0.0143 -0.1614  1.9059
 5361SOL     OW27541   2.709   3.292   7.925 -0.2126 -0.3292 -0.0566
 5361SOL    HW127542   2.695   3.239   7.847 -1.7138  0.2961 -0.2194
 5361SOL    HW227543   2.784   3.252   7.969 -0.8430 -2.8994 -1.3191
 5362SOL     OW27544   2.596   0.602  15.186  0.1976  0.0872  0.2148
 5362SOL    HW127545   2.625   0.524  15.139 -0.5939 -0.2433  0.2741
 5362SOL    HW227546   2.615   0.677  15.129 -0.1869  0.8383  1.0713
 5363SOL     OW27547   0.721   4.092  13.464 -0.4432  0.0722  0.0069
 5363SOL    HW127548   0.649   4.128  13.516 -0.1465  1.7392 -0.7451
 5363SOL    HW227549   0.770   4.054  13.537 -1.6904 -2.1775 -0.3224
 5364SOL     OW27550   3.042   2.982   9.378 -0.2363 -0.0056  0.2245
 5364SOL    HW127551   2.959   3.029   9.379  0.6588  1.5779 -0.3989
 5364SOL    HW227552   3.062   3.008   9.288 -0.2273  0.4046  0.3465
 5365SOL     OW27553   1.620   1.135   4.085  0.7091 -0.6788 -0.0385
 5365SOL    HW127554   1.704   1.176   4.063 -0.2487  1.3209 -0.0042
 5365SOL    HW227555   1.649   1.047   4.064 -1.1843 -1.2864 -0.0790
 5366SOL     OW27556   3.457   4.060   3.492  0.2373  0.1600 -0.5244
 5366SOL    HW127557   3.431   4.102   3.574  1.9938  0.6677 -0.2236
 5366SOL    HW227558   3.470   4.135   3.434 -3.6683  1.0132 -0.3288
 5367SOL     OW27559   1.424   2.960  14.122  0.0951 -0.1270 -0.3544
 5367SOL    HW127560   1.368   2.940  14.047 -0.8444  2.2055 -0.2755
 5367SOL    HW227561   1.485   2.887  14.110  1.4338  1.5168 -3.7027
 5368SOL     OW27562   2.939   1.062   3.661 -0.0569  0.0390 -0.5794
 5368SOL    HW127563   2.901   1.103   3.738  0.1715 -3.3133  1.3124
 5368SOL    HW227564   2.868   1.013   3.618 -1.9174  2.4812 -0.2533
 5369SOL     OW27565   4.229   1.782   3.593  0.3080 -0.6797 -0.0683
 5369SOL    HW127566   4.297   1.801   3.527 -0.1693  0.4873 -0.2302
 5369SOL    HW227567   4.221   1.864   3.641  0.1827 -0.8654  0.2264
 5370SOL     OW27568   0.231   2.644   5.909  0.2475  0.1109  0.1375
 5370SOL    HW127569   0.172   2.689   5.969 -1.4950 -0.9642 -0.7595
 5370SOL    HW227570   0.302   2.642   5.973  0.1180 -1.9847  0.2214
 5371SOL     OW27571   2.896   1.817  10.739 -0.7120 -0.2544 -0.1769
 5371SOL    HW127572   2.921   1.733  10.777  1.9140  0.9284  0.7118
 5371SOL    HW227573   2.837   1.848  10.808 -2.2647  1.0522 -2.0891
 5372SOL     OW27574   3.442   3.945  16.614  0.5165  0.1607  0.3531
 5372SOL    HW127575   3.463   3.991  16.695  1.8698 -2.2456  1.3692
 5372SOL    HW227576   3.454   4.019  16.554  0.5299  0.0165  0.1744
 5373SOL     OW27577   0.036   2.543   8.639  0.3871 -0.0046  0.8839
 5373SOL    HW127578   0.099   2.614   8.654  0.3613 -0.1623  1.7389
 5373SOL    HW227579   4.720   2.528   8.725  1.3939  2.6473  1.8288
 5374SOL     OW27580   3.875   0.954   4.101  0.2418  0.0416  0.1497
 5374SOL    HW127581   3.940   1.010   4.059  1.5852 -0.5540  1.4581
 5374SOL    HW227582   3.802   0.979   4.044  1.9143  0.5822 -1.7864
 5375SOL     OW27583   0.126   3.013   8.664 -0.2127 -0.4745  0.1616
 5375SOL    HW127584   0.065   3.028   8.592 -0.0863  0.0757  0.1678
 5375SOL    HW227585   0.207   3.009   8.612  0.0819  1.2681  0.4804
 5376SOL     OW27586   1.631   3.153   6.560 -0.7288  0.2315 -0.2839
 5376SOL    HW127587   1.655   3.141   6.652 -3.5860  0.3991  0.4865
 5376SOL    HW227588   1.627   3.064   6.526 -0.2730  0.4643 -0.9435
 5377SOL     OW27589   2.397   2.989   2.438  0.2223 -0.5731  0.5207
 5377SOL    HW127590   2.325   3.050   2.451 -0.3771 -0.8129 -1.6381
 5377SOL    HW227591   2.341   2.916   2.411  0.0996 -0.1368 -0.3900
 5378SOL     OW27592   1.701   2.344   9.774  0.8204 -0.0341 -0.1814
 5378SOL    HW127593   1.745   2.266   9.809  1.9851 -0.0443 -1.6521
 5378SOL    HW227594   1.694   2.326   9.680  0.5556  1.7599 -0.4924
 5379SOL     OW27595   3.375   1.834   2.810 -0.0192  0.1886 -0.5513
 5379SOL    HW127596   3.354   1.884   2.890 -1.6909 -1.4991  0.0632
 5379SOL    HW227597   3.423   1.905   2.768  1.3546 -1.2304 -1.3462
 5380SOL     OW27598   1.574   2.025  17.218 -0.4413  0.1024  0.3940
 5380SOL    HW127599   1.575   1.941  17.265 -1.1910  0.1814  0.5469
 5380SOL    HW227600   1.662   2.017  17.180  0.5948  0.6377  2.6430
 5381SOL     OW27601   1.266   2.154   2.034 -0.2892 -0.5991 -0.2119
 5381SOL    HW127602   1.261   2.136   2.128 -0.4178  0.2105 -0.0609
 5381SOL    HW227603   1.236   2.076   1.988  1.4163 -1.8822  0.8452
 5382SOL     OW27604   2.858   3.305  12.265  0.0679  0.4863 -0.2021
 5382SOL    HW127605   2.828   3.314  12.175 -0.4964 -1.0871 -0.1543
 5382SOL    HW227606   2.857   3.399  12.285  1.1225  0.7990 -1.5717
 5383SOL     OW27607   0.940   2.628   3.967  0.3670 -0.4948 -0.0891
 5383SOL    HW127608   0.992   2.635   3.887  1.0240  0.2980  0.4142
 5383SOL    HW227609   0.960   2.713   4.006  1.7065  0.1182 -2.1316
 5384SOL     OW27610   0.658   1.563   1.957 -0.3558 -0.0280 -0.0095
 5384SOL    HW127611   0.711   1.555   2.037 -1.8416 -0.9909  0.8826
 5384SOL    HW227612   0.582   1.613   1.985  0.2317  1.2411 -0.7113
 5385SOL     OW27613   2.104   2.161  10.149  0.2607  0.1691  0.7144
 5385SOL    HW127614   2.174   2.224  10.133  0.2753  0.0368  0.2412
 5385SOL    HW227615   2.043   2.188  10.080  1.5066 -1.1985 -0.9366
 5386SOL     OW27616   4.716   3.166   0.678  0.1954 -0.3960 -0.0942
 5386SOL    HW127617   4.637   3.176   0.624 -0.0729 -1.8966  0.0149
 5386SOL    HW227618   0.019   3.255   0.702  0.3797  0.1232 -2.2159
 5387SOL     OW27619   2.481   2.092   7.152  0.7966 -0.2414  0.2295
 5387SOL    HW127620   2.498   2.041   7.231  1.5222  1.1646  0.9780
 5387SOL    HW227621   2.493   2.029   7.081  0.1418 -0.8695  0.6758
 5388SOL     OW27622   3.060   2.068   2.994  0.0066  0.0816 -0.7148
 5388SOL    HW127623   3.097   2.009   2.928 -1.6650 -1.4202 -0.3127
 5388SOL    HW227624   2.998   2.006   3.034  0.5956  0.2574  0.4633
 5389SOL     OW27625   2.784   0.024   3.237 -0.0025 -0.1946  0.3090
 5389SOL    HW127626   2.833   0.103   3.216 -1.8008  0.9478  0.4034
 5389SOL    HW227627   2.800   0.033   3.331  1.2893  0.3738  0.0381
 5390SOL     OW27628   3.143   4.215   4.326  0.1573  0.0521 -0.2027
 5390SOL    HW127629   3.078   4.159   4.369 -0.8266  1.4329  0.0974
 5390SOL    HW227630   3.180   4.269   4.396  1.0049  0.2030 -0.7740
 5391SOL     OW27631   0.427   1.197   4.484  0.5718 -0.0658  0.8943
 5391SOL    HW127632   0.412   1.240   4.568  0.4234  0.3004  0.6814
 5391SOL    HW227633   0.393   1.108   4.494 -0.6645  0.0926 -1.8708
 5392SOL     OW27634   1.094   0.660   3.106 -0.1381  0.0489 -0.9101
 5392SOL    HW127635   1.019   0.624   3.152  0.9271 -1.1569 -0.1229
 5392SOL    HW227636   1.057   0.739   3.066 -3.0443 -0.8388  0.0780
 5393SOL     OW27637   3.699   4.149   9.109 -0.6443  0.0150  0.1426
 5393SOL    HW127638   3.640   4.095   9.056  2.2028 -1.0470 -1.9185
 5393SOL    HW227639   3.657   4.132   9.194 -1.5514 -0.2315 -0.3495
 5394SOL     OW27640   3.152   1.320   4.408 -0.6896  0.0856 -0.8270
 5394SOL    HW127641   3.192   1.386   4.351  2.9616 -1.1806  0.2394
 5394SOL    HW227642   3.127   1.373   4.483 -0.8938  0.6946 -1.3243
 5395SOL     OW27643   3.067   3.327   1.769 -0.1244  0.3356  0.3303
 5395SOL    HW127644   2.971   3.330   1.767 -0.0797  1.5622  0.0564
 5395SOL    HW227645   3.090   3.273   1.845  0.6173 -2.7510 -2.0697
 5396SOL     OW27646   1.702   3.772   2.170  0.5964 -0.6127 -0.1180
 5396SOL    HW127647   1.644   3.729   2.232  1.3724  1.6964  2.2116
 5396SOL    HW227648   1.674   3.740   2.084  1.8465  0.3676 -0.8981
 5397SOL     OW27649   1.179   3.765  16.972 -0.1712  0.5357  0.0886
 5397SOL    HW127650   1.142   3.837  17.024  0.1175  1.4455 -0.9514
 5397SOL    HW227651   1.273   3.770  16.986 -0.1819  1.0435  0.0031
 5398SOL     OW27652   1.401   0.111   3.261  0.3287  0.7728 -0.3545
 5398SOL    HW127653   1.416   0.125   3.168  1.5313 -1.4359 -0.4786
 5398SOL    HW227654   1.488   0.137   3.290  0.6721 -1.1114  0.2755
 5399SOL     OW27655   2.656   0.658  16.307 -0.1655 -0.0775 -0.3682
 5399SOL    HW127656   2.640   0.564  16.321  1.5891 -0.5707 -1.6465
 5399SOL    HW227657   2.675   0.659  16.213  2.8800  2.9423  0.3262
 5400SOL     OW27658   2.174   2.539   7.886  0.5347 -0.0985 -0.5171
 5400SOL    HW127659   2.146   2.594   7.959 -2.6744 -1.6684 -0.5340
 5400SOL    HW227660   2.101   2.477   7.882  1.1877 -1.0575  1.9318
 5401SOL     OW27661   1.515   0.106  10.515  0.2661  0.3215 -0.1519
 5401SOL    HW127662   1.441   0.115  10.455 -0.8546 -1.7181  0.9154
 5401SOL    HW227663   1.488   0.150  10.595  1.0165  1.5337 -0.5617
 5402SOL     OW27664   2.927   2.409   8.242 -0.4575 -0.1807  0.7630
 5402SOL    HW127665   2.846   2.364   8.220 -0.1105  0.2228 -1.3124
 5402SOL    HW227666   2.978   2.339   8.282 -0.7336 -0.2222  1.0395
 5403SOL     OW27667   3.322   4.020   0.947 -0.2623 -0.0863 -0.0240
 5403SOL    HW127668   3.409   3.996   0.915 -0.2511  0.2487 -0.2547
 5403SOL    HW227669   3.273   4.027   0.865  1.3974 -1.3638 -1.1269
 5404SOL     OW27670   4.247   1.519  12.149  0.2117 -0.0091 -0.7240
 5404SOL    HW127671   4.270   1.593  12.205  2.3599  0.0039 -1.6359
 5404SOL    HW227672   4.226   1.574  12.073  4.3280  1.0432 -1.1164
 5405SOL     OW27673   4.068   2.380   0.270  0.2013  0.1211 -0.0906
 5405SOL    HW127674   4.094   2.459   0.318  2.1288 -1.0206  0.7425
 5405SOL    HW227675   4.150   2.332   0.281 -0.8511 -1.2052  1.8361
 5406SOL     OW27676   0.228   0.052   3.418  0.1160  0.1956 -0.5244
 5406SOL    HW127677   0.160   4.713   3.442 -0.7994  0.6884 -1.8599
 5406SOL    HW227678   0.287   4.717   3.371  2.5076  1.7437  0.5653
 5407SOL     OW27679   2.025   0.623   6.291  0.3493  0.6066 -0.2716
 5407SOL    HW127680   2.076   0.649   6.214  2.1522  1.1012  1.0960
 5407SOL    HW227681   1.948   0.585   6.249 -0.8720  1.1335  1.5152
 5408SOL     OW27682   3.416   4.072   7.795  0.0207  0.1008  0.1970
 5408SOL    HW127683   3.468   4.148   7.768 -0.7916  0.6059  0.0537
 5408SOL    HW227684   3.421   4.101   7.886  0.1406 -2.8509  1.1322
 5409SOL     OW27685   3.997   3.566   1.523 -0.4301 -0.0594  0.8164
 5409SOL    HW127686   4.041   3.611   1.595 -0.6522  1.5068 -0.0303
 5409SOL    HW227687   3.904   3.580   1.537 -0.9261 -3.3727  0.9221
 5410SOL     OW27688   0.376   1.408   3.407  0.0846  0.1991  0.0533
 5410SOL    HW127689   0.311   1.449   3.465  1.1780  1.3521  0.4690
 5410SOL    HW227690   0.430   1.357   3.467  1.2948  0.6687 -0.6322
 5411SOL     OW27691   3.177   2.671   5.741 -0.4211 -0.2673  0.0028
 5411SOL    HW127692   3.216   2.752   5.774 -3.5870  0.4662  1.9514
 5411SOL    HW227693   3.207   2.613   5.811 -1.8919 -0.6794  0.3034
 5412SOL     OW27694   1.893   2.982   8.053  0.0002  0.2999 -0.1175
 5412SOL    HW127695   1.808   2.945   8.075  0.5221 -1.4988 -1.1696
 5412SOL    HW227696   1.882   3.008   7.961 -0.9213  0.8552  0.1563
 5413SOL     OW27697   3.277   1.787   7.281 -0.1494  0.4752  0.8217
 5413SOL    HW127698   3.353   1.809   7.227 -1.5482 -0.7566 -1.6814
 5413SOL    HW227699   3.295   1.699   7.313 -1.2451  0.3952  1.2247
 5414SOL     OW27700   0.467   4.259   6.970 -0.5091 -0.3425  0.5989
 5414SOL    HW127701   0.554   4.224   6.951  0.0856  0.6405  1.5118
 5414SOL    HW227702   0.436   4.190   7.028 -1.5706  0.3335  0.8472
 5415SOL     OW27703   1.624   3.243  11.827  0.1170  0.0838  0.4381
 5415SOL    HW127704   1.705   3.260  11.778  1.5729 -0.9403  2.4712
 5415SOL    HW227705   1.630   3.310  11.895  2.7502  1.4326 -1.1008
 5416SOL     OW27706   2.188   1.829  15.167  0.3614  0.1576 -0.5676
 5416SOL    HW127707   2.230   1.744  15.156  1.0234  0.8055 -3.0549
 5416SOL    HW227708   2.122   1.795  15.227 -0.1667  0.5389 -0.9405
 5417SOL     OW27709   0.317   0.513   6.627 -0.3154 -0.1109  0.3914
 5417SOL    HW127710   0.353   0.428   6.652  1.3545  0.0874 -1.3575
 5417SOL    HW227711   0.345   0.565   6.702  2.7669  0.1551 -0.9417
 5418SOL     OW27712   3.460   2.310   5.497 -0.8631  0.1198  0.4392
 5418SOL    HW127713   3.522   2.245   5.530 -0.6176  0.6036  0.9241
 5418SOL    HW227714   3.459   2.381   5.561 -0.8644  0.3236  0.2151
 5419SOL     OW27715   4.532   1.866  12.310 -0.0601  0.0777  0.0637
 5419SOL    HW127716   4.562   1.947  12.269  0.6591 -0.0518  0.3384
 5419SOL    HW227717   4.608   1.850  12.366 -0.3478  1.9923  1.0223
 5420SOL     OW27718   3.131   4.474   5.108 -0.0622 -0.4781 -0.4426
 5420SOL    HW127719   3.170   4.536   5.171  0.5080 -1.7416  0.4397
 5420SOL    HW227720   3.159   4.391   5.146  0.0993  0.1499  0.8280
 5421SOL     OW27721   1.444   4.321   4.054 -0.2061 -0.7267 -0.3407
 5421SOL    HW127722   1.372   4.278   4.008 -0.7395 -1.2075  0.9375
 5421SOL    HW227723   1.510   4.255   4.036  1.8541  1.3025 -0.1330
 5422SOL     OW27724   2.262   4.114   4.769  0.1767  0.4928 -0.1549
 5422SOL    HW127725   2.168   4.119   4.751 -0.1675 -1.2370  1.1569
 5422SOL    HW227726   2.289   4.054   4.699 -1.1488  0.8749 -0.9958
 5423SOL     OW27727   1.330   1.819  11.578 -0.9696 -0.2963  0.3965
 5423SOL    HW127728   1.315   1.758  11.650 -0.1520 -0.2930  0.5764
 5423SOL    HW227729   1.287   1.771  11.507  2.0823 -0.1883 -1.5200
 5424SOL     OW27730   1.161   1.972   3.272  0.0394 -0.1128  0.0356
 5424SOL    HW127731   1.248   2.011   3.267  0.8250 -2.0592 -1.5055
 5424SOL    HW227732   1.171   1.913   3.198  2.8847  0.7027 -0.2164
 5425SOL     OW27733   4.703   1.886  14.452 -0.2961  0.3086 -0.9755
 5425SOL    HW127734   4.657   1.804  14.433  1.6424 -0.5719 -1.8826
 5425SOL    HW227735   0.014   1.922  14.370  0.7531  0.9571 -0.2475
 5426SOL     OW27736   1.871   1.909   3.969 -0.2879  0.3221 -0.0370
 5426SOL    HW127737   1.789   1.895   3.923  0.0224  1.3381 -0.8950
 5426SOL    HW227738   1.850   1.850   4.042 -0.3243  0.8606  0.3917
 5427SOL     OW27739   1.238   1.220   4.796  0.2658 -0.3227 -0.2970
 5427SOL    HW127740   1.283   1.169   4.862  0.5828 -0.0610 -0.3112
 5427SOL    HW227741   1.187   1.267   4.862  0.6137 -0.2828 -0.0600
 5428SOL     OW27742   3.338   3.126   8.141  0.2482  0.4657  0.1991
 5428SOL    HW127743   3.254   3.149   8.102  0.8305 -0.6119 -1.6782
 5428SOL    HW227744   3.361   3.044   8.098 -1.3371 -0.4486  1.1227
 5429SOL     OW27745   3.952   0.612   8.345 -0.6017 -0.0986  0.5190
 5429SOL    HW127746   3.909   0.680   8.397  1.2089  1.4944 -0.0967
 5429SOL    HW227747   4.022   0.658   8.298  1.1065  0.7150  3.9009
 5430SOL     OW27748   4.612   2.129   5.905 -0.4686 -0.1896 -0.6023
 5430SOL    HW127749   4.671   2.178   5.848  0.9078 -0.8967  0.2303
 5430SOL    HW227750   4.560   2.078   5.843 -1.1136  0.7365 -0.8266
 5431SOL     OW27751   0.437   1.186   4.014 -0.2028 -0.5939 -0.2207
 5431SOL    HW127752   0.414   1.186   4.107  2.8590  2.0295  0.5366
 5431SOL    HW227753   0.532   1.171   4.021 -0.5191 -1.4524  2.2984
 5432SOL     OW27754   0.141   2.613   1.189  0.2402  0.0135 -0.1209
 5432SOL    HW127755   0.151   2.669   1.266 -0.2494  0.0490 -0.0830
 5432SOL    HW227756   0.046   2.620   1.175 -0.0605 -1.6767  0.9470
 5433SOL     OW27757   3.366   3.676  11.281  0.2564  0.2291  0.0060
 5433SOL    HW127758   3.339   3.760  11.320 -1.4267 -0.2823 -0.0704
 5433SOL    HW227759   3.290   3.620  11.299 -0.1137  1.5421  2.5935
 5434SOL     OW27760   1.111   2.897   6.325  0.1843  0.3700 -0.3080
 5434SOL    HW127761   1.134   2.964   6.390  0.4877 -0.5135  0.5004
 5434SOL    HW227762   1.067   2.965   6.274 -0.4821  1.1698  1.3248
 5435SOL     OW27763   3.311   0.584   3.464 -0.5538 -0.2928  1.0880
 5435SOL    HW127764   3.354   0.656   3.510 -0.4913 -1.1227  2.3269
 5435SOL    HW227765   3.352   0.507   3.503 -0.1522  0.3107  1.8549
 5436SOL     OW27766   4.464   0.688   5.688 -0.2687  0.1180  0.3745
 5436SOL    HW127767   4.420   0.632   5.752  0.0275 -2.3590 -1.6042
 5436SOL    HW227768   4.500   0.621   5.630  1.0066  1.0684  0.0849
 5437SOL     OW27769   3.422   4.378   2.757 -0.1734  0.4240  0.4376
 5437SOL    HW127770   3.466   4.307   2.805  1.3671  0.2373 -1.2618
 5437SOL    HW227771   3.408   4.336   2.672 -1.7308  1.7346  0.0434
 5438SOL     OW27772   0.576   3.413  11.446 -0.8331 -0.1583  0.0228
 5438SOL    HW127773   0.526   3.453  11.518  0.5816  1.5839  0.0242
 5438SOL    HW227774   0.665   3.429  11.478 -0.9937  0.8430 -0.0263
 5439SOL     OW27775   0.302   0.021   4.218  0.0083  0.6558  0.3250
 5439SOL    HW127776   0.227   4.692   4.190 -0.0613  1.2196 -0.5476
 5439SOL    HW227777   0.346   4.680   4.275 -1.9770 -1.9552 -1.0701
 5440SOL     OW27778   3.112   1.312   7.675  0.4962 -0.2430 -0.4086
 5440SOL    HW127779   3.190   1.356   7.709  0.8963 -0.9838 -0.3495
 5440SOL    HW227780   3.047   1.365   7.720  0.1667 -2.7461  2.0224
 5441SOL     OW27781   2.345   4.127  10.544 -0.0153  0.0281 -0.4349
 5441SOL    HW127782   2.402   4.105  10.618  0.2386 -2.1962 -1.2770
 5441SOL    HW227783   2.282   4.193  10.572 -1.8521 -0.8547 -2.4758
 5442SOL     OW27784   0.449   4.405   7.421 -0.1118  1.0503  0.0727
 5442SOL    HW127785   0.458   4.310   7.419 -0.6561  1.0158 -0.7048
 5442SOL    HW227786   0.388   4.424   7.492 -2.3527 -1.2634 -1.2419
 5443SOL     OW27787   2.111   2.221   7.762  0.4740  0.2821  0.5281
 5443SOL    HW127788   2.154   2.164   7.825  0.6153 -1.2717 -0.9770
 5443SOL    HW227789   2.054   2.270   7.821 -2.1145 -0.5760 -1.2607
 5444SOL     OW27790   4.344   1.919   6.478  0.0028  0.3616  0.6195
 5444SOL    HW127791   4.365   1.826   6.473  1.1008  0.7914 -2.1798
 5444SOL    HW227792   4.253   1.915   6.507  0.2123  1.8309  1.4850
 5445SOL     OW27793   1.506   4.215   2.170 -0.4899  0.2893  0.2013
 5445SOL    HW127794   1.442   4.231   2.101  1.5877  0.4722 -1.6590
 5445SOL    HW227795   1.548   4.134   2.141 -0.2878  0.0216  1.2444
 5446SOL     OW27796   1.111   0.249   6.165  0.3094  0.1070  0.1822
 5446SOL    HW127797   1.099   0.337   6.129 -0.1415 -0.4950 -1.1396
 5446SOL    HW227798   1.168   0.212   6.098 -0.2146  1.1375 -0.8375
 5447SOL     OW27799   1.994   2.217   1.289  0.1114  0.1409 -0.4864
 5447SOL    HW127800   1.912   2.235   1.242  2.0516 -0.3429 -4.0729
 5447SOL    HW227801   1.962   2.163   1.361  1.1693 -0.1615 -0.2398
 5448SOL     OW27802   2.511   0.022   2.825  0.0820 -0.3070 -0.3247
 5448SOL    HW127803   2.459   4.667   2.839  1.3389 -1.0867 -0.0683
 5448SOL    HW227804   2.600   4.713   2.834  0.1562 -0.4136 -1.3627
 5449SOL     OW27805   0.653   2.087   4.132 -0.0288 -0.2364 -0.1851
 5449SOL    HW127806   0.612   2.131   4.206 -0.1178 -1.1272  0.3015
 5449SOL    HW227807   0.697   2.157   4.084  0.0000 -0.3500 -0.3239
 5450SOL     OW27808   0.100   2.409   9.135  0.6885  0.2613  0.2453
 5450SOL    HW127809   0.037   2.390   9.205  0.2017 -0.6696 -0.4353
 5450SOL    HW227810   0.164   2.462   9.180  0.3017  0.5559  0.4463
 5451SOL     OW27811   1.186   1.323  15.616  0.0392 -0.3574 -0.4162
 5451SOL    HW127812   1.161   1.395  15.674 -0.4431  0.7235 -1.9737
 5451SOL    HW227813   1.099   1.282  15.609 -0.5193  0.5678  1.0562
 5452SOL     OW27814   2.728   3.582   1.645  0.1944 -0.0241  0.1748
 5452SOL    HW127815   2.802   3.643   1.649  1.4246 -1.4780 -0.8319
 5452SOL    HW227816   2.685   3.609   1.564 -0.1885  0.4295  0.5252
 5453SOL     OW27817   4.135   1.031   8.567 -0.2651 -0.1930  1.1206
 5453SOL    HW127818   4.174   1.116   8.544 -0.6328 -0.4501 -0.4691
 5453SOL    HW227819   4.218   0.984   8.576  1.7189  3.0740 -0.0610
 5454SOL     OW27820   3.390   3.113  13.024  0.2211 -0.6489 -0.5457
 5454SOL    HW127821   3.331   3.038  13.015 -0.4768 -0.2509  0.8493
 5454SOL    HW227822   3.425   3.122  12.935  0.4165  1.4431 -0.2390
 5455SOL     OW27823   0.776   1.329   0.627  0.7221 -0.1429  0.3285
 5455SOL    HW127824   0.825   1.251   0.600  2.6205  2.0110 -2.4460
 5455SOL    HW227825   0.822   1.391   0.571 -2.3214  0.4657 -1.4819
 5456SOL     OW27826   0.960   0.541   8.091  0.3668  0.2556 -0.1845
 5456SOL    HW127827   0.967   0.569   8.182 -0.3347  1.0645 -0.3794
 5456SOL    HW227828   0.923   0.616   8.045  0.5276  1.6012  1.8955
 5457SOL     OW27829   0.993   0.377   5.379 -0.3498 -0.0475  0.1205
 5457SOL    HW127830   1.041   0.332   5.309 -1.9887  0.6874 -1.4962
 5457SOL    HW227831   1.070   0.384   5.434 -0.6720  0.8099  0.4628
 5458SOL     OW27832   1.451   1.573   3.912  0.5309  0.2071 -0.0766
 5458SOL    HW127833   1.527   1.581   3.854  0.1197  0.0611 -0.6409
 5458SOL    HW227834   1.435   1.479   3.901 -2.4920  0.7133 -0.1333
 5459SOL     OW27835   1.100   3.361   4.280  0.5343  0.3976 -0.1424
 5459SOL    HW127836   1.066   3.333   4.194 -1.0395 -0.1038  0.6434
 5459SOL    HW227837   1.193   3.367   4.257  0.4262  1.8814 -0.1707
 5460SOL     OW27838   4.489   3.823   4.918 -0.0320  0.6310  0.2273
 5460SOL    HW127839   4.510   3.856   5.006 -0.6679  1.4615  0.0658
 5460SOL    HW227840   4.507   3.902   4.868 -0.7584 -0.6692 -2.0797
 5461SOL     OW27841   1.361   1.241   0.104 -0.6140 -0.2316 -0.0118
 5461SOL    HW127842   1.454   1.219   0.101  0.0317  2.6511 -1.2744
 5461SOL    HW227843   1.356   1.332   0.075 -0.0702 -0.3424 -0.4492
 5462SOL     OW27844   1.446   2.748   6.633  0.0203 -0.4126  0.0290
 5462SOL    HW127845   1.408   2.832   6.608 -2.6564 -0.8436  2.6700
 5462SOL    HW227846   1.400   2.697   6.566 -0.8514 -0.4444  0.6489
 5463SOL     OW27847   3.263   0.590   4.073 -0.3923  0.6867 -0.2949
 5463SOL    HW127848   3.279   0.566   3.982  2.9383  0.6256  0.3061
 5463SOL    HW227849   3.192   0.531   4.101  0.3393  0.0141  0.1574
 5464SOL     OW27850   1.027   2.939  13.993 -0.3817 -0.2066 -0.3389
 5464SOL    HW127851   0.940   2.977  14.006 -0.5055 -0.8536  0.7181
 5464SOL    HW227852   1.067   2.944  14.080 -0.0854 -2.7965 -0.3147
 5465SOL     OW27853   3.849   0.928  12.468 -0.7154 -0.5748 -0.0318
 5465SOL    HW127854   3.865   0.894  12.556  0.8560 -3.5292 -1.4754
 5465SOL    HW227855   3.811   1.012  12.496 -0.8316 -0.1340 -1.4919
 5466SOL     OW27856   0.457   3.872   6.657  0.5718 -0.2333  0.6339
 5466SOL    HW127857   0.412   3.938   6.709 -1.1200 -0.5502 -0.4053
 5466SOL    HW227858   0.486   3.929   6.586  1.4811 -1.5315 -0.0394
 5467SOL     OW27859   4.036   1.428  15.353  0.3417  0.5905 -0.1856
 5467SOL    HW127860   3.971   1.386  15.296  0.4542  0.1864 -0.0173
 5467SOL    HW227861   4.120   1.420  15.306  0.4471  1.3202 -0.1129
 5468SOL     OW27862   2.300   2.429   4.068 -0.3161 -0.7547  0.2094
 5468SOL    HW127863   2.392   2.403   4.079 -0.5794 -1.5063  0.5866
 5468SOL    HW227864   2.263   2.341   4.072  0.5269 -1.1508 -0.9059
 5469SOL     OW27865   0.370   0.991   7.894  0.0983 -0.1108  0.4686
 5469SOL    HW127866   0.302   1.047   7.856  0.6589 -1.1796 -2.0660
 5469SOL    HW227867   0.436   1.052   7.926 -1.2688  1.0888  0.9950
 5470SOL     OW27868   4.415   3.183   4.425 -0.0869  0.2197  0.2078
 5470SOL    HW127869   4.377   3.201   4.511  0.8928 -0.4760  0.7785
 5470SOL    HW227870   4.361   3.252   4.386  0.5035  1.6463  1.8887
 5471SOL     OW27871   3.070   4.388  15.067 -0.6956 -0.0370  0.4884
 5471SOL    HW127872   3.111   4.425  14.989 -1.7741  0.8723  0.3561
 5471SOL    HW227873   2.980   4.386  15.035 -0.7814  2.6446  0.6298
 5472SOL     OW27874   0.425   2.690  16.795  0.1962  0.1624  0.2391
 5472SOL    HW127875   0.354   2.727  16.848 -0.4386  1.2785 -1.3936
 5472SOL    HW227876   0.417   2.755  16.725  0.8923  0.1953  0.1823
 5473SOL     OW27877   3.698   2.820   7.873  0.5976  0.3810 -1.0754
 5473SOL    HW127878   3.700   2.807   7.968  2.9521 -1.2518 -1.3465
 5473SOL    HW227879   3.623   2.766   7.850  0.8298 -0.1503 -0.5704
 5474SOL     OW27880   0.638   0.212  11.056 -0.3385  0.1511 -0.8627
 5474SOL    HW127881   0.662   0.171  11.139  0.5303  0.1025 -1.1376
 5474SOL    HW227882   0.655   0.305  11.066  0.8749  0.0609 -2.0343
 5475SOL     OW27883   2.739   0.341   3.030  0.2262 -0.5316 -0.0311
 5475SOL    HW127884   2.719   0.247   3.036 -1.2078 -0.3178 -1.4167
 5475SOL    HW227885   2.724   0.357   2.937  2.8171  0.2549 -0.3063
 5476SOL     OW27886   0.251   0.927   9.014  0.3203 -0.2184 -0.2828
 5476SOL    HW127887   0.244   0.908   8.920  0.9389  1.8666 -0.7304
 5476SOL    HW227888   0.282   1.017   9.022  2.1728 -1.1057  2.4387
 5477SOL     OW27889   0.291   1.004   3.030 -0.0333 -0.1472 -0.4703
 5477SOL    HW127890   0.236   0.998   3.108  1.5720 -0.3924  0.6409
 5477SOL    HW227891   0.242   1.072   2.983  2.6663  1.3258 -1.1472
 5478SOL     OW27892   0.593   0.584   1.486  0.4235 -0.0755 -0.2356
 5478SOL    HW127893   0.632   0.636   1.416  4.2993 -1.9310  0.5362
 5478SOL    HW227894   0.504   0.588   1.453  0.2841  0.3184  0.1922
 5479SOL     OW27895   3.699   2.161   0.695 -0.3501  0.3481 -0.3001
 5479SOL    HW127896   3.638   2.090   0.675  0.0168  0.1420 -0.6856
 5479SOL    HW227897   3.699   2.203   0.609 -2.7781  0.2635 -0.3559
 5480SOL     OW27898   0.673   4.279   4.228  0.2501  0.0716  0.3874
 5480SOL    HW127899   0.689   4.212   4.295  1.0347 -0.2297 -0.0922
 5480SOL    HW227900   0.600   4.317   4.276  0.1463  2.7400 -1.9043
 5481SOL     OW27901   3.602   1.882   4.729 -0.4079 -0.4796  0.1118
 5481SOL    HW127902   3.595   1.789   4.748 -0.0459 -0.4977  0.1500
 5481SOL    HW227903   3.682   1.865   4.680 -0.2496 -1.5200  0.7374
 5482SOL     OW27904   2.357   3.029   3.668  0.3873  0.4481  0.3972
 5482SOL    HW127905   2.386   3.120   3.678  1.5319  0.3486 -1.9681
 5482SOL    HW227906   2.288   3.051   3.605 -0.2235  0.5301  1.1005
 5483SOL     OW27907   1.037   1.269   2.642  0.0705 -0.2200 -0.1644
 5483SOL    HW127908   0.972   1.198   2.643 -1.1686  0.8662 -3.0298
 5483SOL    HW227909   1.019   1.301   2.730  1.7239  0.5313 -0.1120
 5484SOL     OW27910   0.412   4.371  12.396  0.1689  0.1180 -0.0939
 5484SOL    HW127911   0.351   4.304  12.366 -1.1282  1.5191 -0.5622
 5484SOL    HW227912   0.399   4.437  12.328  0.1699 -0.8372 -1.0280
 5485SOL     OW27913   0.029   0.259   7.590  0.1734  0.1972 -0.1511
 5485SOL    HW127914   0.016   0.335   7.647  1.4272 -1.0140  1.7438
 5485SOL    HW227915   0.099   0.293   7.535 -1.0517  3.4203  0.2764
 5486SOL     OW27916   0.735   0.735   6.860  0.4160  0.0759 -0.8761
 5486SOL    HW127917   0.801   0.683   6.814  0.7224 -1.5065  1.3273
 5486SOL    HW227918   0.748   0.821   6.820  0.8172  0.5550  0.2531
 5487SOL     OW27919   2.385   3.906   7.354  0.1598 -0.3579 -0.3101
 5487SOL    HW127920   2.390   3.846   7.279  1.8447 -1.2465  0.4975
 5487SOL    HW227921   2.368   3.840   7.421  2.9746  0.5855  1.3434
 5488SOL     OW27922   3.919   4.540   3.085 -0.5035  0.0954 -0.0310
 5488SOL    HW127923   3.920   4.528   3.180 -0.0729 -0.4884 -0.1168
 5488SOL    HW227924   3.990   4.600   3.063 -0.2615 -0.6087 -1.1533
 5489SOL     OW27925   3.031   4.011  12.020  0.0234  0.1901 -0.1428
 5489SOL    HW127926   2.979   4.088  12.046  3.0270  1.9963  0.5686
 5489SOL    HW227927   3.108   4.055  11.985 -0.6859  1.3486 -0.2525
 5490SOL     OW27928   4.597   1.163   8.836  0.3626 -0.0079  0.5330
 5490SOL    HW127929   4.627   1.107   8.907 -2.8709 -1.8963  0.4102
 5490SOL    HW227930   4.637   1.119   8.761  0.2518  1.9025 -0.6608
 5491SOL     OW27931   0.588   1.222  16.387 -0.4640 -0.6423 -0.1595
 5491SOL    HW127932   0.553   1.230  16.298  0.1298 -1.9527 -0.5223
 5491SOL    HW227933   0.510   1.232  16.441 -0.7919 -0.1739 -0.7243
 5492SOL     OW27934   3.496   4.594   1.800  0.3641  0.0075 -0.0668
 5492SOL    HW127935   3.552   4.652   1.747 -0.1033 -0.4574 -1.0688
 5492SOL    HW227936   3.481   4.524   1.737  2.9417 -0.1077 -0.5778
 5493SOL     OW27937   0.702   1.507  16.647 -0.6423  0.1178 -0.5489
 5493SOL    HW127938   0.734   1.475  16.563  0.8877  0.5549 -0.1350
 5493SOL    HW227939   0.718   1.599  16.629  1.1642  0.2940  1.8884
 5494SOL     OW27940   3.113   3.964   9.365  0.1065  0.0166  0.1544
 5494SOL    HW127941   3.023   3.962   9.397  0.6972 -2.0074  1.7083
 5494SOL    HW227942   3.116   3.916   9.282 -0.1183 -0.7373  0.5777
 5495SOL     OW27943   4.275   1.109   3.036  0.7688  0.3069 -0.1077
 5495SOL    HW127944   4.237   1.195   3.015  0.8895 -0.7303 -4.6470
 5495SOL    HW227945   4.358   1.138   3.075  1.0027 -0.1210 -0.2826
 5496SOL     OW27946   3.004   3.035   9.084  0.7256 -0.2573  0.3901
 5496SOL    HW127947   2.942   3.105   9.106  0.2299 -0.6837  0.3611
 5496SOL    HW227948   2.983   3.033   8.990  2.7372  0.3308 -0.0667
 5497SOL     OW27949   1.157   3.049   0.893  0.0609 -0.0733 -0.2191
 5497SOL    HW127950   1.211   3.092   0.827  1.3724 -2.7674 -0.9116
 5497SOL    HW227951   1.149   2.959   0.862 -1.7062 -0.2251  0.6785
 5498SOL     OW27952   0.850   4.020  13.715 -0.3123  0.0499  0.4739
 5498SOL    HW127953   0.933   4.032  13.762  0.8653 -0.7815 -1.4285
 5498SOL    HW227954   0.791   4.044  13.787  1.9524  3.2005  1.3160
 5499SOL     OW27955   3.573   3.287  12.792 -0.7637  0.2969  0.3620
 5499SOL    HW127956   3.557   3.378  12.765 -1.4003 -0.7504 -2.7621
 5499SOL    HW227957   3.511   3.236  12.740 -0.9984 -0.7143  1.6574
 5500SOL     OW27958   4.221   0.253   7.998 -0.0732  0.0608 -0.7622
 5500SOL    HW127959   4.126   0.256   7.986 -0.6009  2.5784  4.2572
 5500SOL    HW227960   4.230   0.174   8.051 -0.3265  1.3688  1.2248
 5501SOL     OW27961   4.353   0.834   2.309 -0.9209 -0.7473 -0.6758
 5501SOL    HW127962   4.434   0.875   2.341 -1.1768  0.6217 -1.7717
 5501SOL    HW227963   4.362   0.743   2.338 -0.6562 -0.6278 -0.3714
 5502SOL     OW27964   1.670   3.814   4.858  0.1711 -0.3285 -0.3668
 5502SOL    HW127965   1.691   3.749   4.925  1.3469  0.6779  0.2431
 5502SOL    HW227966   1.587   3.781   4.824  0.3474  0.2323 -1.3237
 5503SOL     OW27967   0.205   2.743   8.700  0.4363 -0.0099 -0.0460
 5503SOL    HW127968   0.146   2.762   8.772 -0.0100  0.1936 -0.4626
 5503SOL    HW227969   0.227   2.828   8.663 -2.8844  0.3892 -1.0686
 5504SOL     OW27970   4.108   0.986  12.926  0.3866  0.1987 -0.3889
 5504SOL    HW127971   4.133   1.047  12.857  0.8961  0.8919  0.4103
 5504SOL    HW227972   4.059   1.037  12.991  1.7848  3.3265 -1.7765
 5505SOL     OW27973   4.031   2.984  12.131  0.5385 -0.1704 -0.3132
 5505SOL    HW127974   3.955   2.973  12.073 -1.3969  3.3920  1.5074
 5505SOL    HW227975   4.103   2.980  12.068  0.6909  1.9697 -0.2576
 5506SOL     OW27976   2.829   3.805   3.967 -0.4870 -0.0651 -0.1422
 5506SOL    HW127977   2.787   3.888   3.945  0.0910 -0.3845 -2.4826
 5506SOL    HW227978   2.875   3.835   4.045 -0.0187  1.5956 -1.0675
 5507SOL     OW27979   2.008   4.261   5.837  0.0427  0.1456 -0.5645
 5507SOL    HW127980   2.047   4.332   5.888 -1.4185 -0.3877  1.3189
 5507SOL    HW227981   1.991   4.199   5.908 -0.6014 -1.4963 -2.1388
 5508SOL     OW27982   3.655   1.127  12.932 -0.1076  0.0133  0.3195
 5508SOL    HW127983   3.576   1.116  12.880 -0.2751  2.2704  0.0990
 5508SOL    HW227984   3.662   1.045  12.981  0.7267  0.7790  1.4835
 5509SOL     OW27985   4.195   3.476   2.847  0.2665 -0.3802  0.5669
 5509SOL    HW127986   4.135   3.532   2.798  0.9870 -0.3236 -0.2560
 5509SOL    HW227987   4.178   3.395   2.799 -1.3828 -0.7933  1.8447
 5510SOL     OW27988   3.583   0.584   8.241  0.3350  0.3393 -0.6717
 5510SOL    HW127989   3.586   0.538   8.325  1.9565 -0.0932 -0.9716
 5510SOL    HW227990   3.525   0.655   8.269 -0.8212 -0.4891 -0.9909
 5511SOL     OW27991   2.110   4.355   7.207 -0.0284 -0.2407 -0.5085
 5511SOL    HW127992   2.137   4.264   7.213  0.7796  0.0759  0.5814
 5511SOL    HW227993   2.191   4.386   7.248  0.4842 -1.4039 -0.6533
 5512SOL     OW27994   1.407   1.072  15.028  0.3446  0.2146 -0.5055
 5512SOL    HW127995   1.483   1.097  14.974  1.7820 -2.6951  0.1822
 5512SOL    HW227996   1.432   0.986  15.062  2.2762  0.7310 -0.6287
 5513SOL     OW27997   0.756   0.818  11.888 -0.1765 -0.7626 -0.4423
 5513SOL    HW127998   0.796   0.905  11.886 -0.2300 -0.7296 -0.0987
 5513SOL    HW227999   0.764   0.804  11.982  0.4440  2.4506 -0.0085
 5514SOL     OW28000   3.358   3.685   6.066  0.1061  0.1496 -0.3374
 5514SOL    HW128001   3.400   3.630   6.132 -0.6056  0.4282  0.3525
 5514SOL    HW228002   3.359   3.769   6.113  1.7170 -0.5879  0.9452
 5515SOL     OW28003   1.952   3.437  12.537 -0.2149 -0.1335 -0.0891
 5515SOL    HW128004   1.947   3.494  12.614 -0.1383 -1.4932  0.9198
 5515SOL    HW228005   2.008   3.365  12.565 -1.1545 -0.1423  1.7992
 5516SOL     OW28006   4.321   1.148   7.864 -0.1930 -0.7647  0.1231
 5516SOL    HW128007   4.376   1.207   7.916 -0.9366 -1.6502  1.9227
 5516SOL    HW228008   4.372   1.155   7.783 -0.5366  1.1306  0.0826
 5517SOL     OW28009   3.082   3.729   2.746  0.3944  0.4508 -0.2433
 5517SOL    HW128010   3.114   3.775   2.668  1.1897 -0.3899 -0.4091
 5517SOL    HW228011   2.996   3.772   2.746  0.5616  0.7711 -2.2891
 5518SOL     OW28012   3.679   0.233   3.418  0.2923 -0.4791 -0.6696
 5518SOL    HW128013   3.774   0.243   3.420  0.4672 -2.3014  0.6394
 5518SOL    HW228014   3.658   0.312   3.368  0.7852  0.3870  0.5081
 5519SOL     OW28015   3.323   2.032   5.135  0.5082 -0.3138 -0.1662
 5519SOL    HW128016   3.370   1.996   5.060 -2.8887 -2.5633 -1.2203
 5519SOL    HW228017   3.371   2.114   5.138  1.5154 -0.8374 -1.9147
 5520SOL     OW28018   1.322   3.577  16.305 -0.4388 -0.4845  0.1387
 5520SOL    HW128019   1.383   3.515  16.346  3.7686  3.0122 -0.8517
 5520SOL    HW228020   1.378   3.651  16.282 -1.2476  0.7630  2.1729
 5521SOL     OW28021   0.694   4.008  13.936  0.4590 -0.0927 -0.2983
 5521SOL    HW128022   0.615   3.990  13.885  1.2354 -2.6913 -0.5832
 5521SOL    HW228023   0.664   3.994  14.026  2.1769  0.6544  0.3753
 5522SOL     OW28024   0.502   1.693   6.876  0.3425 -0.6543 -0.2291
 5522SOL    HW128025   0.472   1.750   6.806 -1.7445 -0.7358  0.5948
 5522SOL    HW228026   0.420   1.645   6.894  0.3947 -1.1809 -1.3990
 5523SOL     OW28027   1.477   0.773  15.045  0.2227 -0.3041 -0.3389
 5523SOL    HW128028   1.469   0.794  15.138  2.0840 -0.7882 -0.0631
 5523SOL    HW228029   1.495   0.679  15.038  0.0199 -0.2736 -1.2401
 5524SOL     OW28030   0.747   3.455   5.518 -0.5991  0.6847 -0.9215
 5524SOL    HW128031   0.684   3.384   5.524  0.8356 -0.4994  0.2572
 5524SOL    HW228032   0.708   3.508   5.448 -2.2792 -0.7060 -1.0153
 5525SOL     OW28033   0.890   1.781   2.864  0.5461  0.5411 -0.4621
 5525SOL    HW128034   0.871   1.861   2.913 -1.1893 -0.1129 -0.0760
 5525SOL    HW228035   0.813   1.763   2.810 -0.6146  1.6527  0.8178
 5526SOL     OW28036   4.704   2.652   6.893  0.1395  0.3034  0.4127
 5526SOL    HW128037   4.672   2.706   6.966  1.1473  1.6172 -0.1303
 5526SOL    HW228038   0.074   2.659   6.909  0.0349 -1.5815  1.9013
 5527SOL     OW28039   2.569   1.141   4.308  0.4598  0.3098 -0.4280
 5527SOL    HW128040   2.609   1.191   4.378  0.3026 -0.4970  0.2474
 5527SOL    HW228041   2.644   1.097   4.268  0.0525 -1.8583  1.2089
 5528SOL     OW28042   1.689   0.587   4.670 -0.3412  0.3432 -0.2961
 5528SOL    HW128043   1.740   0.520   4.715 -1.2623 -0.1630 -0.0114
 5528SOL    HW228044   1.597   0.580   4.694 -1.2222  1.9159 -3.1473
 5529SOL     OW28045   2.653   0.938  12.971 -0.1864  0.0040  0.3642
 5529SOL    HW128046   2.629   0.955  13.062 -0.9046 -0.7082  0.3095
 5529SOL    HW228047   2.568   0.916  12.933  1.0203 -0.7507 -1.9086
 5530SOL     OW28048   0.212   2.352   1.142 -0.4551 -0.0738  0.3388
 5530SOL    HW128049   0.217   2.447   1.152  1.9612 -0.2445  0.6811
 5530SOL    HW228050   0.120   2.348   1.166 -0.2493 -1.0165  0.9571
 5531SOL     OW28051   3.995   4.637   0.405  0.1237 -0.5537  0.1140
 5531SOL    HW128052   4.080   4.597   0.390  0.2960 -0.2472  0.2660
 5531SOL    HW228053   3.964   4.566   0.461  2.1292  0.1453  2.1330
 5532SOL     OW28054   0.148   3.577  11.657  0.1956 -0.5453 -0.1746
 5532SOL    HW128055   0.167   3.543  11.570 -3.2524  0.2809 -1.2451
 5532SOL    HW228056   0.237   3.580  11.693 -0.4882  0.4033  1.4352
 5533SOL     OW28057   2.243   0.312   1.112 -0.0216 -0.0179 -0.2540
 5533SOL    HW128058   2.227   0.217   1.107  0.5265 -0.2730  2.9540
 5533SOL    HW228059   2.150   0.334   1.099  0.2945  1.0759 -0.6093
 5534SOL     OW28060   1.192   1.122  11.307  0.4325 -0.7024  0.5842
 5534SOL    HW128061   1.155   1.202  11.271  4.2071  1.1224  0.7212
 5534SOL    HW228062   1.147   1.062  11.247 -0.2693  1.4515 -1.0230
 5535SOL     OW28063   0.302   4.356   9.717  0.0234 -0.0926 -0.4156
 5535SOL    HW128064   0.371   4.419   9.739 -0.3207  1.0330 -2.5614
 5535SOL    HW228065   0.307   4.284   9.780  0.9542  0.4692  0.1549
 5536SOL     OW28066   2.392   4.501   2.884 -0.0727 -0.0382  0.1170
 5536SOL    HW128067   2.473   4.454   2.902 -1.8442 -3.3234 -0.3754
 5536SOL    HW228068   2.333   4.431   2.856 -1.0477 -0.4718  3.2033
 5537SOL     OW28069   3.698   3.776   4.499  0.3158 -0.1645  0.5655
 5537SOL    HW128070   3.682   3.726   4.578 -0.7409 -0.8070 -0.0468
 5537SOL    HW228071   3.612   3.818   4.501  0.2072 -0.4189  1.2207
 5538SOL     OW28072   4.495   2.770   4.714  0.2044  0.4413 -0.0245
 5538SOL    HW128073   4.553   2.695   4.699  1.5311  1.6550 -0.9583
 5538SOL    HW228074   4.435   2.759   4.640  0.1377 -0.2888  0.1383
 5539SOL     OW28075   1.032   1.221  10.568 -0.0827  0.3474 -0.3692
 5539SOL    HW128076   1.042   1.302  10.518  1.3032  1.0105  0.9742
 5539SOL    HW228077   0.949   1.242  10.611  0.0580  0.1129  0.0097
 5540SOL     OW28078   1.977   3.584   3.667 -0.5059  0.2693 -0.2868
 5540SOL    HW128079   2.051   3.640   3.646  1.5143 -3.0268 -1.8129
 5540SOL    HW228080   1.988   3.585   3.762 -0.5765  0.1069 -0.2758
 5541SOL     OW28081   2.007   1.033   9.182 -0.0793  0.4493  0.3041
 5541SOL    HW128082   1.960   1.010   9.102 -0.0652  0.6531  0.2374
 5541SOL    HW228083   1.931   1.054   9.237  0.6225 -1.1210  1.8586
 5542SOL     OW28084   4.477   2.337   5.543 -0.2498  0.1592  0.2553
 5542SOL    HW128085   4.447   2.331   5.634  1.4641  0.3221  0.8313
 5542SOL    HW228086   4.406   2.290   5.498  1.0900 -1.0565 -0.5720
 5543SOL     OW28087   3.691   0.918   7.395 -0.1329 -0.3089  0.1468
 5543SOL    HW128088   3.691   0.829   7.430  3.0071 -0.2785  0.2423
 5543SOL    HW228089   3.765   0.954   7.445  0.7857 -0.6563 -0.9563
 5544SOL     OW28090   0.598   4.243   5.359 -0.2706  0.2564 -0.6807
 5544SOL    HW128091   0.522   4.298   5.378  0.8305  0.7086  2.4105
 5544SOL    HW228092   0.658   4.281   5.423  1.0084  0.6051 -2.0921
 5545SOL     OW28093   3.970   1.855   2.739  0.9801 -0.4287  0.1927
 5545SOL    HW128094   3.958   1.765   2.769  4.5789 -0.1262  2.5628
 5545SOL    HW228095   3.882   1.867   2.701  0.1820 -3.4399  1.0560
 5546SOL     OW28096   2.256   1.525   5.707 -0.3321  0.2652  0.1130
 5546SOL    HW128097   2.257   1.480   5.623  0.0360  0.5602 -0.0412
 5546SOL    HW228098   2.226   1.461   5.771 -0.8212 -0.5474 -0.9452
 5547SOL     OW28099   3.718   4.108   5.941  0.5623 -0.4847  0.6029
 5547SOL    HW128100   3.756   4.035   5.891 -0.3761 -0.6010  0.0589
 5547SOL    HW228101   3.762   4.188   5.912  2.1295 -1.5316  0.1190
 5548SOL     OW28102   3.567   1.296   6.201 -0.2450 -0.1371  0.2036
 5548SOL    HW128103   3.479   1.271   6.228 -0.3021  0.6592  0.7399
 5548SOL    HW228104   3.557   1.311   6.107 -2.2038 -1.3984  0.1996
 5549SOL     OW28105   4.687   0.367   2.346 -0.3722 -0.1447 -0.2705
 5549SOL    HW128106   4.689   0.288   2.400  0.2938 -0.0790 -0.2005
 5549SOL    HW228107   4.651   0.320   2.271  0.8294  1.0042 -1.5518
 5550SOL     OW28108   1.537   0.684   4.389  0.3428 -0.4015  0.6436
 5550SOL    HW128109   1.533   0.637   4.305  0.1546 -1.5216  1.2854
 5550SOL    HW228110   1.502   0.609   4.437  1.8818 -1.8443 -0.4588
 5551SOL     OW28111   0.075   0.999   5.457 -0.6029 -0.0136  0.0254
 5551SOL    HW128112   0.015   0.928   5.477 -0.5102 -0.5147 -1.4695
 5551SOL    HW228113   0.017   1.067   5.489 -2.3755 -0.9332 -1.2465
 5552SOL     OW28114   3.585   3.313  16.627 -0.1574 -0.0828 -1.1001
 5552SOL    HW128115   3.532   3.330  16.705  1.1669  0.0253 -0.2311
 5552SOL    HW228116   3.669   3.354  16.648 -1.0186  0.3230  1.5890
 5553SOL     OW28117   0.135   0.528   3.888  0.0773 -0.0863  0.4232
 5553SOL    HW128118   0.167   0.522   3.978  1.5585 -2.0100 -0.2247
 5553SOL    HW228119   0.217   0.520   3.840  0.9568  0.1658  1.8983
 5554SOL     OW28120   1.671   0.637  13.254 -0.3165 -0.0371  0.2067
 5554SOL    HW128121   1.743   0.595  13.303 -0.6445 -1.4344 -0.5069
 5554SOL    HW228122   1.709   0.632  13.167 -1.5527 -0.2716 -0.3153
 5555SOL     OW28123   1.148   2.423  14.833  0.5970 -0.1985  0.3870
 5555SOL    HW128124   1.192   2.508  14.840 -2.4176  1.3321  0.8040
 5555SOL    HW228125   1.068   2.453  14.789  1.6329  2.3692  0.2477
 5556SOL     OW28126   0.175   0.998   3.561  0.5754 -1.1230  0.0726
 5556SOL    HW128127   0.215   1.060   3.622 -4.0333  1.1417  0.7920
 5556SOL    HW228128   0.171   0.911   3.601 -0.4640 -0.0490  2.3200
 5557SOL     OW28129   0.564   2.837   6.160 -0.6085  0.6124  0.2876
 5557SOL    HW128130   0.531   2.757   6.119  1.5484  0.9376 -2.1514
 5557SOL    HW228131   0.607   2.875   6.083 -3.3754  0.5733 -1.2832
 5558SOL     OW28132   1.989   0.250   6.582  0.0855  0.2109  0.2512
 5558SOL    HW128133   2.018   0.335   6.549  2.4191 -0.7249 -0.1039
 5558SOL    HW228134   1.966   0.258   6.675 -0.1237  0.0889  0.2108
 5559SOL     OW28135   0.329   0.796  16.027 -0.1670  0.4639 -0.5062
 5559SOL    HW128136   0.236   0.813  16.012 -0.1679 -0.4595 -1.6253
 5559SOL    HW228137   0.319   0.741  16.105  0.3041  0.4041 -0.4918
 5560SOL     OW28138   3.140   1.462   7.285 -0.2583  0.7059 -0.4246
 5560SOL    HW128139   3.218   1.496   7.328 -0.6536 -0.4527  1.2253
 5560SOL    HW228140   3.129   1.379   7.332  0.2002  0.8571 -0.0566
 5561SOL     OW28141   2.963   2.452   4.374 -0.4147  0.2861  0.0036
 5561SOL    HW128142   3.004   2.536   4.352 -0.8980  1.2095  2.6376
 5561SOL    HW228143   3.010   2.399   4.309  0.6557  0.8721  0.2972
 5562SOL     OW28144   2.281   4.085   9.912 -0.6900 -0.2143 -0.2307
 5562SOL    HW128145   2.354   4.046   9.961 -0.6340  1.5153  1.0490
 5562SOL    HW228146   2.324   4.100   9.827 -1.1019 -1.3746 -0.6461
 5563SOL     OW28147   3.770   1.078   7.185  0.2691  0.3391 -0.4026
 5563SOL    HW128148   3.724   1.041   7.109 -0.5585 -0.7219  0.6233
 5563SOL    HW228149   3.736   1.016   7.249 -0.2825  0.1589 -0.8686
 5564SOL     OW28150   4.556   2.602   8.847  0.2773  0.2046  0.5325
 5564SOL    HW128151   4.558   2.676   8.786 -1.3407 -1.8372 -1.9419
 5564SOL    HW228152   4.535   2.649   8.928  0.5014 -0.3331  0.9061
 5565SOL     OW28153   0.566   1.227  10.614  0.3382  0.6891  0.4825
 5565SOL    HW128154   0.634   1.201  10.552 -1.8517  0.7934 -2.0121
 5565SOL    HW228155   0.576   1.322  10.614  1.3383  0.5766  1.7530
 5566SOL     OW28156   2.086   0.531   9.309 -0.1340  0.4414 -0.6411
 5566SOL    HW128157   2.083   0.464   9.241 -0.2562 -0.9643  0.7553
 5566SOL    HW228158   2.127   0.603   9.260  0.3427 -0.7918 -2.0438
 5567SOL     OW28159   2.500   3.033   8.888 -0.0340  0.0229 -0.6035
 5567SOL    HW128160   2.457   3.094   8.948  2.9053  1.2932  0.1908
 5567SOL    HW228161   2.447   3.046   8.809 -0.0969 -0.2659 -0.6102
 5568SOL     OW28162   2.641   2.457   5.017 -0.8081 -0.1347 -0.5451
 5568SOL    HW128163   2.675   2.483   4.931 -0.7263  0.6653 -0.2654
 5568SOL    HW228164   2.557   2.414   4.999  0.9809 -4.3290  1.1352
 5569SOL     OW28165   2.208   0.344   7.219 -0.1025  0.0232 -0.3323
 5569SOL    HW128166   2.258   0.305   7.290 -1.4030  0.7064  0.9638
 5569SOL    HW228167   2.141   0.388   7.272 -1.3389 -0.3361 -1.5858
 5570SOL     OW28168   4.317   3.322   3.177  0.2500  0.3756  0.2236
 5570SOL    HW128169   4.353   3.402   3.139  1.8795  0.3608  1.7237
 5570SOL    HW228170   4.225   3.343   3.191  0.1911  0.2822 -0.0136
 5571SOL     OW28171   3.770   0.466  14.310 -0.2988  0.5799  0.2657
 5571SOL    HW128172   3.773   0.404  14.238 -0.3389  0.8678  0.0172
 5571SOL    HW228173   3.809   0.535  14.256 -1.5313 -0.9435 -2.5753
 5572SOL     OW28174   1.001   3.507  15.213 -0.2645 -0.0380 -0.2663
 5572SOL    HW128175   1.014   3.562  15.135 -0.2278 -0.0057 -0.2374
 5572SOL    HW228176   0.988   3.571  15.282  0.3111 -0.1909 -0.0141
 5573SOL     OW28177   0.815   2.050   8.012 -0.1615 -0.5466 -0.4082
 5573SOL    HW128178   0.722   2.029   8.016  0.2029 -1.6142  2.3805
 5573SOL    HW228179   0.861   2.006   8.084 -0.2811  1.6102  0.9904
 5574SOL     OW28180   0.953   2.813  13.455 -0.1223 -0.0856  0.3497
 5574SOL    HW128181   0.985   2.902  13.467  1.4603 -0.5487 -0.3754
 5574SOL    HW228182   0.927   2.787  13.544  1.8122 -1.5893  0.4770
 5575SOL     OW28183   4.153   1.217   4.420  0.0371 -0.2363  0.0616
 5575SOL    HW128184   4.092   1.153   4.386  0.6878  1.3427 -4.0696
 5575SOL    HW228185   4.135   1.196   4.511 -0.2049 -2.2204 -0.4569
 5576SOL     OW28186   1.164   1.057   4.588  0.3295  0.1370  0.6052
 5576SOL    HW128187   1.086   1.075   4.536  1.3644  2.6713 -0.0780
 5576SOL    HW228188   1.177   1.128   4.651 -1.1612 -0.3954  1.5206
 5577SOL     OW28189   1.174   2.415   8.180 -0.1196  0.2475  0.5106
 5577SOL    HW128190   1.117   2.385   8.251  0.0151  0.0059  0.5167
 5577SOL    HW228191   1.179   2.504   8.215  1.4947 -0.0106  0.9525
 5578SOL     OW28192   3.489   1.371   4.977  0.0909 -0.0931 -0.3934
 5578SOL    HW128193   3.578   1.400   4.954  0.5614 -1.4797 -0.3009
 5578SOL    HW228194   3.489   1.288   4.930 -0.5826 -0.0686 -0.4324
 5579SOL     OW28195   4.120   2.372  17.662 -0.2529  0.2086  0.0704
 5579SOL    HW128196   4.216   2.372  17.664 -0.3107  1.6283  2.2150
 5579SOL    HW228197   4.100   2.355   0.058  2.3669 -3.6543 -0.0331
 5580SOL     OW28198   1.423   2.253  15.827  0.1464 -0.2808 -0.3895
 5580SOL    HW128199   1.505   2.302  15.826 -0.1483  0.2221  0.0640
 5580SOL    HW228200   1.400   2.261  15.920  0.2394  2.5407 -0.6191
 5581SOL     OW28201   4.519   1.717   2.180 -0.3249  0.0761 -0.2915
 5581SOL    HW128202   4.497   1.670   2.261 -0.2277 -2.6241 -1.8559
 5581SOL    HW228203   4.581   1.658   2.137  0.0718  0.4816 -0.2714
 5582SOL     OW28204   1.507   1.442   8.626  0.4816 -0.1062  0.1044
 5582SOL    HW128205   1.476   1.442   8.717  1.1828 -1.7001  0.3412
 5582SOL    HW228206   1.588   1.494   8.634 -0.3449  1.4034 -1.3167
 5583SOL     OW28207   0.125   4.230   5.587 -0.7383  0.0074  0.2092
 5583SOL    HW128208   0.063   4.180   5.535  1.3194 -3.3598  1.0161
 5583SOL    HW228209   0.131   4.175   5.665  2.2840  0.4830  0.3264
 5584SOL     OW28210   0.497   0.298   6.793  0.2339 -0.1392 -0.2983
 5584SOL    HW128211   0.529   0.217   6.833  1.9944  1.2543  1.1496
 5584SOL    HW228212   0.563   0.332   6.733 -1.8263  1.0096 -1.9081
 5585SOL     OW28213   0.433   2.040  15.333 -0.3060  0.3914  0.0547
 5585SOL    HW128214   0.400   1.952  15.316 -1.4437  0.5706  1.2444
 5585SOL    HW228215   0.385   2.066  15.412 -2.9843  1.4903 -1.9085
 5586SOL     OW28216   2.091   1.891   0.520 -0.4784  0.3606  0.1410
 5586SOL    HW128217   2.094   1.952   0.593  2.1854 -0.5132  0.7568
 5586SOL    HW228218   2.051   1.820   0.571  1.1839  0.5114  1.6298
 5587SOL     OW28219   3.297   1.581   5.638  0.0960 -0.0873  0.1753
 5587SOL    HW128220   3.212   1.590   5.682  0.8009 -1.3623  1.7779
 5587SOL    HW228221   3.297   1.662   5.585 -1.6080 -0.5627 -0.5623
 5588SOL     OW28222   1.385   1.318   3.809 -0.0374  0.0675 -0.3997
 5588SOL    HW128223   1.447   1.266   3.759 -0.3260 -0.0165 -0.6714
 5588SOL    HW228224   1.327   1.334   3.735  0.4485 -0.8922 -0.9841
 5589SOL     OW28225   4.476   1.142   1.933  0.3348 -0.0570 -0.0490
 5589SOL    HW128226   4.439   1.114   1.850 -1.2374 -1.9028  1.2618
 5589SOL    HW228227   4.500   1.232   1.910 -0.3312 -0.2717 -1.5636
 5590SOL     OW28228   0.044   2.239   1.586  0.0790 -0.5619  0.6421
 5590SOL    HW128229   0.083   2.158   1.554 -1.2847 -1.4233  1.1500
 5590SOL    HW228230   4.677   2.230   1.556 -0.2831  2.0118  0.9734
 5591SOL     OW28231   1.052   1.724   8.382 -0.1151  0.3467 -0.4656
 5591SOL    HW128232   1.081   1.635   8.363  0.4422 -0.3721  3.6924
 5591SOL    HW228233   1.137   1.758   8.411  0.0497 -1.3089  0.9991
 5592SOL     OW28234   0.709   2.264   7.809  0.7025  0.4513 -0.5671
 5592SOL    HW128235   0.723   2.358   7.818  1.0729  0.1287  2.1935
 5592SOL    HW228236   0.625   2.252   7.852  1.5872 -0.2616  0.9693
 5593SOL     OW28237   2.479   2.399   6.331 -0.0493 -0.0223  0.1197
 5593SOL    HW128238   2.506   2.308   6.339 -0.4691 -0.1339  0.2462
 5593SOL    HW228239   2.417   2.396   6.404  0.8243 -1.0281  0.8200
 5594SOL     OW28240   4.383   0.823   2.994 -0.7219 -0.5344 -0.0356
 5594SOL    HW128241   4.355   0.911   3.021  1.3566  0.8748 -2.5222
 5594SOL    HW228242   4.456   0.850   2.939  0.4066 -0.1165  1.6675
 5595SOL     OW28243   4.693   1.252   1.394  0.1301 -0.2396 -0.9001
 5595SOL    HW128244   4.601   1.278   1.391  1.1161  3.0779 -1.5132
 5595SOL    HW228245   4.698   1.224   1.485  0.5185 -0.4156 -0.9723
 5596SOL     OW28246   0.547   0.713  17.596  0.0273  0.3663  0.4732
 5596SOL    HW128247   0.624   0.751  17.553 -1.5003  0.5513 -2.0593
 5596SOL    HW228248   0.512   0.657  17.527  1.4823 -0.8264  0.6947
 5597SOL     OW28249   3.710   4.164   7.956  0.0592 -0.3916 -0.0625
 5597SOL    HW128250   3.687   4.197   8.044  1.4943 -1.7028  0.8048
 5597SOL    HW228251   3.797   4.198   7.936 -0.0297  0.3366  0.7742
 5598SOL     OW28252   1.495   0.017   3.578  0.3755  0.0999  0.8730
 5598SOL    HW128253   1.537   0.062   3.504  1.3874 -2.0216  0.1464
 5598SOL    HW228254   1.527   4.654   3.550 -3.3840 -1.5015  1.5473
 5599SOL     OW28255   4.507   3.514   0.519 -0.2405  0.2214  0.1721
 5599SOL    HW128256   4.585   3.566   0.536 -1.3314  2.4157 -1.4694
 5599SOL    HW228257   4.447   3.578   0.480 -0.6988 -2.0961 -2.8647
 5600SOL     OW28258   3.335   3.701  11.001  0.3834  0.2232  0.1786
 5600SOL    HW128259   3.292   3.616  11.010  0.0517  0.3272 -0.3972
 5600SOL    HW228260   3.327   3.735  11.090  1.6256  3.8276 -1.1054
 5601SOL     OW28261   3.199   4.503   3.886 -0.5121 -0.0118 -0.6709
 5601SOL    HW128262   3.152   4.458   3.816 -0.0712 -1.2866 -0.1537
 5601SOL    HW228263   3.279   4.451   3.878 -0.8112 -0.7003  0.7361
 5602SOL     OW28264   1.727   3.861   7.373 -0.5459  0.0917 -0.2928
 5602SOL    HW128265   1.787   3.832   7.442  0.3242 -1.3942 -1.6852
 5602SOL    HW228266   1.776   3.938   7.345 -1.8780  1.5886  1.4709
 5603SOL     OW28267   3.511   4.178   4.313 -0.2654 -0.5376  0.3454
 5603SOL    HW128268   3.446   4.110   4.292 -1.0697  0.6060 -0.8178
 5603SOL    HW228269   3.524   4.152   4.405  1.0038 -2.2900 -0.3157
 5604SOL     OW28270   0.321   0.744   3.631 -0.1967  0.8370  0.0246
 5604SOL    HW128271   0.349   0.767   3.543 -0.8164  1.4541 -0.0073
 5604SOL    HW228272   0.387   0.675   3.640  0.7189  1.6154 -0.7312
 5605SOL     OW28273   2.010   0.138   6.292 -0.0656 -0.0997 -0.6153
 5605SOL    HW128274   1.929   0.100   6.261 -0.4960 -0.1591  0.5669
 5605SOL    HW228275   1.992   0.132   6.386 -0.6469 -1.4650 -0.8160
 5606SOL     OW28276   1.685   0.411   6.427  0.6784  0.0857  0.5615
 5606SOL    HW128277   1.686   0.394   6.521  3.0382  1.1914  0.7222
 5606SOL    HW228278   1.659   0.504   6.434 -2.5294 -0.7767  0.3864
 5607SOL     OW28279   0.056   1.006   2.783  0.0156  0.6462 -0.2211
 5607SOL    HW128280   0.066   1.082   2.726 -1.6402  2.0778  1.4196
 5607SOL    HW228281   0.097   0.941   2.726 -1.1055 -0.0602 -0.2384
 5608SOL     OW28282   3.076   0.199   5.415 -0.6711 -0.0960 -0.0962
 5608SOL    HW128283   2.990   0.158   5.403  0.8490 -3.2151 -0.1905
 5608SOL    HW228284   3.104   0.208   5.324 -0.3610 -1.0336 -0.0862
 5609SOL     OW28285   3.988   4.664   4.500  0.3961  0.7252 -0.0294
 5609SOL    HW128286   4.082   4.673   4.514  0.3248  1.3893  0.0169
 5609SOL    HW228287   3.978   4.584   4.449  2.9991 -0.7484  1.7842
 5610SOL     OW28288   1.687   0.823   1.839  0.0858 -0.0815  0.3838
 5610SOL    HW128289   1.626   0.820   1.913 -1.8140 -1.8279 -1.2396
 5610SOL    HW228290   1.628   0.820   1.763  0.1989  1.0018  0.2530
 5611SOL     OW28291   0.094   1.425  10.880  0.6356  0.1689  0.5841
 5611SOL    HW128292   0.044   1.481  10.821 -0.8047 -0.7694  0.9325
 5611SOL    HW228293   0.080   1.346  10.828 -1.3351  0.3580  0.8373
 5612SOL     OW28294   3.762   2.951   2.443 -0.3437 -0.0885 -0.7376
 5612SOL    HW128295   3.820   2.974   2.516 -0.5684 -1.2252 -0.1990
 5612SOL    HW228296   3.823   2.985   2.377  0.0527  0.1693 -0.2389
 5613SOL     OW28297   3.456   4.566   0.048  0.0309  0.1865  0.3661
 5613SOL    HW128298   3.504   4.636   0.092 -0.6847  2.8467 -3.0244
 5613SOL    HW228299   3.374   4.553   0.095 -1.2600 -1.3797 -2.2920
 5614SOL     OW28300   2.726   0.667   5.874 -0.2383  0.1225  0.1455
 5614SOL    HW128301   2.700   0.731   5.940  1.4463  0.7373  0.2177
 5614SOL    HW228302   2.763   0.596   5.926  0.9956 -0.0783 -1.0008
 5615SOL     OW28303   3.582   4.545   3.730  0.0252  0.1772 -0.5447
 5615SOL    HW128304   3.643   4.618   3.720 -1.7352  1.8239  0.7666
 5615SOL    HW228305   3.526   4.555   3.654 -0.0112 -1.7333 -0.7742
 5616SOL     OW28306   2.669   1.673   5.863  0.1608 -0.0287  0.3555
 5616SOL    HW128307   2.594   1.700   5.810 -1.4140 -2.3795  1.4147
 5616SOL    HW228308   2.655   1.742   5.928  0.0476 -0.3032  0.6199
 5617SOL     OW28309   0.149   3.226   1.253  0.7700  0.1081  0.1180
 5617SOL    HW128310   0.122   3.294   1.315 -0.0616 -0.3698  0.2762
 5617SOL    HW228311   0.212   3.181   1.309  1.6191 -1.4557 -2.0842
 5618SOL     OW28312   0.433   4.323   2.110  0.2807  0.4457 -0.1294
 5618SOL    HW128313   0.338   4.337   2.103  0.1105  0.0275  1.4755
 5618SOL    HW228314   0.461   4.405   2.069  2.5267 -0.6120 -0.6837
 5619SOL     OW28315   0.440   2.512   0.345 -0.2653  0.2588 -0.1295
 5619SOL    HW128316   0.533   2.490   0.343 -0.1368  0.6788  1.5653
 5619SOL    HW228317   0.399   2.445   0.290  0.9388 -1.0757  0.5993
 5620SOL     OW28318   0.595   0.227   0.365 -0.0016  0.0464  0.5160
 5620SOL    HW128319   0.611   0.295   0.430 -0.5553 -0.1083  0.8116
 5620SOL    HW228320   0.577   0.158   0.428 -1.3108 -2.2663 -2.3866
 5621SOL     OW28321   3.404   3.195   5.933 -0.4973  0.1828  0.5896
 5621SOL    HW128322   3.355   3.273   5.908 -0.0055  0.1361 -0.5345
 5621SOL    HW228323   3.334   3.146   5.977 -0.9955  1.5299  1.2851
 5622SOL     OW28324   4.226   1.824  14.289 -0.3019 -0.4367 -0.7807
 5622SOL    HW128325   4.249   1.906  14.332  1.0458 -1.3839  0.3260
 5622SOL    HW228326   4.303   1.781  14.250 -0.7847 -1.5309 -0.5212
 5623SOL     OW28327   0.812   3.958  15.211 -0.3710 -0.5953  0.3080
 5623SOL    HW128328   0.838   4.036  15.163 -1.7565 -0.2490  0.1442
 5623SOL    HW228329   0.800   3.975  15.304  1.6630 -0.4947  0.5676
 5624SOL     OW28330   1.019   0.279   7.115 -0.0554  0.2248  0.0669
 5624SOL    HW128331   1.080   0.351   7.096  1.6305 -0.8633  1.3403
 5624SOL    HW228332   1.080   0.215   7.152 -0.3861 -0.2298 -0.1792
 5625SOL     OW28333   1.687   2.554  15.095  0.2496 -0.2065  0.6448
 5625SOL    HW128334   1.624   2.488  15.069  0.5806 -0.7698  1.2713
 5625SOL    HW228335   1.765   2.526  15.046  0.3363  0.2517  0.5230
 5626SOL     OW28336   3.579   0.865   2.353  0.3533  0.1309  0.0380
 5626SOL    HW128337   3.633   0.937   2.386 -0.9860  1.0492  0.2232
 5626SOL    HW228338   3.576   0.882   2.259 -1.2321  1.8137  0.3961
 5627SOL     OW28339   0.152   3.677   3.255  0.1241  0.2542 -0.0663
 5627SOL    HW128340   0.138   3.656   3.162  0.7565  1.3048 -0.4042
 5627SOL    HW228341   0.070   3.720   3.279 -1.1389 -1.1485 -1.8831
 5628SOL     OW28342   2.384   2.685   4.356  0.7648 -0.6236  0.0262
 5628SOL    HW128343   2.294   2.690   4.388  0.9846  0.3414  0.4770
 5628SOL    HW228344   2.424   2.609   4.399 -0.8961 -1.1839  0.5847
 5629SOL     OW28345   2.225   4.150   7.850  0.8491  0.1577 -0.4715
 5629SOL    HW128346   2.143   4.176   7.892 -0.2243 -1.2326 -1.7408
 5629SOL    HW228347   2.252   4.233   7.812  1.7434 -0.3577 -0.9382
 5630SOL     OW28348   1.002   3.928   5.797 -0.0131  0.2953  0.0811
 5630SOL    HW128349   1.028   3.905   5.708 -0.0787  0.2463  0.0742
 5630SOL    HW228350   1.039   3.852   5.843 -0.0722  0.3266  0.1807
 5631SOL     OW28351   3.718   3.344   4.730 -0.4132  0.1196 -0.0783
 5631SOL    HW128352   3.771   3.286   4.785  0.4268  2.6331  1.7713
 5631SOL    HW228353   3.634   3.299   4.724 -0.4436  0.3918 -1.6595
 5632SOL     OW28354   2.941   4.240  12.150  0.1686  0.1283  1.0454
 5632SOL    HW128355   2.924   4.334  12.162 -1.2646 -0.1070  0.8797
 5632SOL    HW228356   2.852   4.217  12.173  0.6510 -1.0901  1.6461
 5633SOL     OW28357   1.508   2.726   3.177 -0.0635 -0.1060  0.0828
 5633SOL    HW128358   1.475   2.651   3.228  1.8178 -0.5101  0.6892
 5633SOL    HW228359   1.481   2.695   3.091 -0.5586  0.5461  0.0009
 5634SOL     OW28360   2.786   0.938   7.005 -0.3484 -0.1497 -0.8970
 5634SOL    HW128361   2.847   0.949   6.932 -1.6776  4.3575 -1.3195
 5634SOL    HW228362   2.817   0.999   7.072  0.5833  0.8666 -2.2662
 5635SOL     OW28363   1.915   3.263   0.614 -0.0671  0.2350 -0.2465
 5635SOL    HW128364   1.949   3.308   0.691 -1.1729  2.5784 -1.1257
 5635SOL    HW228365   1.925   3.337   0.553  1.5185  0.4094  0.2195
 5636SOL     OW28366   3.419   4.625   4.370 -0.4228 -0.1208  0.2400
 5636SOL    HW128367   3.438   4.628   4.464 -0.6965  0.4950  0.2778
 5636SOL    HW228368   3.507   4.648   4.340 -0.1337 -1.1995  0.2406
 5637SOL     OW28369   3.812   1.926   6.297 -0.2242  0.5542  0.4399
 5637SOL    HW128370   3.729   1.964   6.325  0.8109  3.6352 -0.6703
 5637SOL    HW228371   3.801   1.833   6.317  2.9765  0.3185  1.0650
 5638SOL     OW28372   1.381   2.026   6.743  0.1445 -0.2746  0.2736
 5638SOL    HW128373   1.451   1.978   6.698  0.1257  0.4498 -0.5238
 5638SOL    HW228374   1.330   1.949   6.769  1.3085 -1.5195 -1.0649
 5639SOL     OW28375   1.086   1.489   3.933  0.1207 -0.0310 -0.3566
 5639SOL    HW128376   1.158   1.539   3.972  0.8867 -0.9147 -0.6308
 5639SOL    HW228377   1.105   1.491   3.839  0.5359  2.2817 -0.2123
 5640SOL     OW28378   3.124   4.438   0.744 -0.4958 -0.3423  0.5695
 5640SOL    HW128379   3.050   4.445   0.684  0.6795  1.4342 -0.6529
 5640SOL    HW228380   3.094   4.493   0.816  1.6467 -0.4820  1.5701
 5641SOL     OW28381   0.568   0.620   6.457 -0.2675  1.3498 -0.1005
 5641SOL    HW128382   0.488   0.638   6.507 -0.8041  0.0690 -0.5098
 5641SOL    HW228383   0.542   0.631   6.366  0.1708 -0.7053 -0.4623
 5642SOL     OW28384   2.773   4.170  17.649  0.0022 -0.4692  0.3058
 5642SOL    HW128385   2.759   4.251  17.599 -3.1829 -0.7145  0.8206
 5642SOL    HW228386   2.862   4.143  17.626  0.3152  0.0745  0.8773
 5643SOL     OW28387   0.724   3.473   1.043  0.1167 -0.1755 -0.7367
 5643SOL    HW128388   0.705   3.527   1.120 -1.8267 -1.5152 -0.2935
 5643SOL    HW228389   0.727   3.533   0.968 -0.2543  0.1283 -0.5097
 5644SOL     OW28390   3.096   1.467   4.618  0.0994 -0.4051  0.2837
 5644SOL    HW128391   3.173   1.468   4.675 -0.9109 -0.2725  1.6239
 5644SOL    HW228392   3.059   1.555   4.622 -0.2821 -0.6593  2.3407
 5645SOL     OW28393   0.561   3.370   4.024  0.2680 -0.3546  0.0174
 5645SOL    HW128394   0.607   3.390   4.106 -0.5277 -2.3576  0.9650
 5645SOL    HW228395   0.571   3.444   3.964  1.7445  1.4231  2.4670
 5646SOL     OW28396   0.708   2.910   2.044  0.3358  0.5937  0.4565
 5646SOL    HW128397   0.708   2.869   1.957  1.6130 -0.6325  1.0298
 5646SOL    HW228398   0.641   2.856   2.085 -0.1763 -0.4575 -1.7483
 5647SOL     OW28399   3.504   3.399   4.182 -0.2853  0.0988 -0.1144
 5647SOL    HW128400   3.520   3.491   4.204  1.1634  0.1484 -1.3422
 5647SOL    HW228401   3.488   3.406   4.088  1.6192  1.6191 -0.3180
 5648SOL     OW28402   3.009   4.355   4.106 -0.2399  0.3865 -0.4347
 5648SOL    HW128403   3.091   4.316   4.137 -0.7178  1.8817  2.7662
 5648SOL    HW228404   2.977   4.300   4.034 -5.1039  0.0628  1.9453
 5649SOL     OW28405   1.079   3.661   4.997  0.3603  0.2601  0.4008
 5649SOL    HW128406   1.111   3.714   4.924  0.4230 -0.9225 -0.4322
 5649SOL    HW228407   1.157   3.617   5.030  0.4564  0.9737  1.1449
 5650SOL     OW28408   2.934   0.318   6.003  0.0894  0.3834 -0.2054
 5650SOL    HW128409   3.006   0.320   5.940  1.2446  1.0359  1.1700
 5650SOL    HW228410   2.858   0.343   5.950 -0.9672  0.7348  1.4891
 5651SOL     OW28411   1.083   3.974   1.824 -0.5103  0.2321  0.1491
 5651SOL    HW128412   1.036   3.891   1.817 -0.8586  0.4217  0.2378
 5651SOL    HW228413   1.158   3.943   1.875 -0.6456 -1.0501 -0.4417
 5652SOL     OW28414   0.244   3.212  12.600  0.2962  0.1599 -0.2261
 5652SOL    HW128415   0.184   3.243  12.669 -0.3811  0.2841 -0.8654
 5652SOL    HW228416   0.319   3.181  12.650 -1.3758 -2.6322  0.5914
 5653SOL     OW28417   0.152   2.227   4.100 -0.0596  0.3135 -0.5555
 5653SOL    HW128418   0.107   2.294   4.048 -0.7405  0.5125  0.2937
 5653SOL    HW228419   0.215   2.191   4.037 -0.8523  1.6954 -2.1277
 5654SOL     OW28420   1.131   2.955  14.249  0.1152 -0.2827 -0.0398
 5654SOL    HW128421   1.218   2.929  14.220  0.2447  0.3153 -0.1839
 5654SOL    HW228422   1.142   3.015  14.322 -2.0120 -0.4998  0.4756
 5655SOL     OW28423   1.323   0.673   1.382 -0.1944  0.3829  0.2331
 5655SOL    HW128424   1.325   0.768   1.378 -0.2099  0.4573  2.0472
 5655SOL    HW228425   1.252   0.663   1.446 -1.5924  0.3997 -1.3159
 5656SOL     OW28426   1.053   2.115   6.152  0.2185  0.1542 -0.2792
 5656SOL    HW128427   1.075   2.072   6.235  1.9471  2.1098  0.2755
 5656SOL    HW228428   0.973   2.161   6.176 -1.1423 -3.5491  2.2554
 5657SOL     OW28429   2.208   2.512   0.748 -0.1244  0.7526  0.2864
 5657SOL    HW128430   2.250   2.597   0.764 -0.6471  1.1530 -0.4924
 5657SOL    HW228431   2.283   2.457   0.726 -0.5430  0.6909 -0.9943
 5658SOL     OW28432   3.658   4.180   7.530 -0.4547  0.2977 -0.2775
 5658SOL    HW128433   3.585   4.155   7.474 -0.8342 -3.3850  1.8579
 5658SOL    HW228434   3.622   4.248   7.586  1.1965  1.7070 -0.9162
 5659SOL     OW28435   3.037   2.533   3.145 -0.4044  0.3713  0.0435
 5659SOL    HW128436   3.129   2.506   3.149 -0.7883 -0.5823  2.6573
 5659SOL    HW228437   3.034   2.556   3.053 -0.2837 -0.2405 -0.1127
 5660SOL     OW28438   0.746   4.420   4.596 -0.2878 -0.3463  0.5321
 5660SOL    HW128439   0.730   4.514   4.584  1.7869  0.0273  0.6785
 5660SOL    HW228440   0.840   4.407   4.611 -0.5531 -3.0041 -0.0646
 5661SOL     OW28441   2.656   1.874  10.558  0.4206  0.3295  0.4485
 5661SOL    HW128442   2.745   1.847  10.581  0.3060 -0.8068 -0.4702
 5661SOL    HW228443   2.594   1.808  10.588 -0.1362  1.3427  1.5277
 5662SOL     OW28444   2.525   2.497   2.402 -0.4585  0.5441  0.8526
 5662SOL    HW128445   2.483   2.535   2.325  1.1329  1.5153  0.4642
 5662SOL    HW228446   2.453   2.436   2.413  0.2136 -0.2661  0.7324
 5663SOL     OW28447   3.479   0.899  11.276 -0.2131 -0.8346 -0.5247
 5663SOL    HW128448   3.512   0.886  11.186  2.0229  2.7342 -0.2266
 5663SOL    HW228449   3.478   0.994  11.288  1.3023 -0.9006  0.1327
 5664SOL     OW28450   0.599   3.483   2.664  0.5992  0.4891 -0.5503
 5664SOL    HW128451   0.612   3.572   2.696  0.2754  0.4985 -0.4471
 5664SOL    HW228452   0.660   3.426   2.712 -0.8456 -1.2608 -0.7715
 5665SOL     OW28453   2.890   0.505  14.731  0.2579 -0.1675 -0.1167
 5665SOL    HW128454   2.951   0.437  14.704  2.1235  1.2713  0.4515
 5665SOL    HW228455   2.940   0.582  14.703 -1.4019  0.9368 -0.0900
 5666SOL     OW28456   1.425   3.269   4.583  0.1513  0.2831 -0.3154
 5666SOL    HW128457   1.365   3.216   4.636  2.9586 -2.0518  0.5034
 5666SOL    HW228458   1.481   3.202   4.545  0.3829  0.6012 -0.5334
 5667SOL     OW28459   1.275   2.367   4.418  0.3561  0.2293 -0.3363
 5667SOL    HW128460   1.363   2.341   4.444  0.5836 -0.2423 -1.5541
 5667SOL    HW228461   1.225   2.377   4.499  0.0835 -1.1698 -0.3247
 5668SOL     OW28462   0.842   3.219   1.881  0.2147  0.6937 -0.6457
 5668SOL    HW128463   0.780   3.165   1.832  2.0826 -1.1819 -0.9388
 5668SOL    HW228464   0.880   3.255   1.801  2.4398  0.6802  0.4152
 5669SOL     OW28465   1.549   2.543  14.528 -0.7271  0.1988 -0.4437
 5669SOL    HW128466   1.481   2.481  14.501 -1.2239  0.2204  0.7387
 5669SOL    HW228467   1.623   2.483  14.528 -1.8157 -1.1477 -0.4976
 5670SOL     OW28468   2.372   2.342  13.389 -0.0927  0.1105 -0.1008
 5670SOL    HW128469   2.354   2.347  13.483 -2.5693  0.2223 -0.5832
 5670SOL    HW228470   2.434   2.414  13.376  0.3529 -0.5704 -1.6720
 5671SOL     OW28471   1.556   2.137   4.748  0.0653  0.7594 -0.1586
 5671SOL    HW128472   1.555   2.117   4.654 -0.8985 -1.0168  0.2328
 5671SOL    HW228473   1.645   2.114   4.777  0.3977  0.9440 -1.0302
 5672SOL     OW28474   1.579   1.247   5.695 -0.8672 -0.2305 -0.0270
 5672SOL    HW128475   1.645   1.230   5.628  1.5664 -1.6658  2.7514
 5672SOL    HW228476   1.631   1.276   5.770 -0.1743 -1.0213 -0.2041
 5673SOL     OW28477   1.005   2.854  13.722 -0.5115 -0.3219 -0.1337
 5673SOL    HW128478   0.991   2.863  13.816 -0.0398 -0.0968 -0.0830
 5673SOL    HW228479   1.079   2.911  13.700  0.2608 -1.7107 -1.1659
 5674SOL     OW28480   3.601   0.307   5.162 -0.1551 -0.0941  0.6584
 5674SOL    HW128481   3.682   0.349   5.133 -0.0432 -0.6802  0.1338
 5674SOL    HW228482   3.579   0.359   5.239 -0.1686  0.9816 -0.0692
 5675SOL     OW28483   1.572   2.068  11.666  0.0914 -0.4646 -0.2888
 5675SOL    HW128484   1.648   2.030  11.710  0.9642  0.3420 -1.0888
 5675SOL    HW228485   1.605   2.146  11.621  0.5004 -1.3200 -1.4843
 5676SOL     OW28486   0.817   0.476   4.114 -0.6665 -0.4382  0.1344
 5676SOL    HW128487   0.859   0.530   4.047 -1.7574  0.7291  0.3802
 5676SOL    HW228488   0.748   0.528   4.155 -1.2010 -0.0789 -1.2475
 5677SOL     OW28489   2.968   2.286  11.992 -0.1149  0.0405 -0.1032
 5677SOL    HW128490   2.921   2.247  11.919 -1.6784  0.2828  0.7748
 5677SOL    HW228491   2.955   2.379  11.971 -0.1212  0.1158  0.2200
 5678SOL     OW28492   2.825   2.971   3.763  0.3376 -0.5162 -0.4618
 5678SOL    HW128493   2.875   2.930   3.692 -1.1836 -1.6003 -0.8916
 5678SOL    HW228494   2.742   2.956   3.719  1.0576 -3.9553 -0.6554
 5679SOL     OW28495   4.398   1.785   5.996  0.3062 -0.4236 -0.0156
 5679SOL    HW128496   4.454   1.850   5.954 -0.6375 -0.1626 -0.8840
 5679SOL    HW228497   4.314   1.803   5.954  1.2106 -1.3145 -2.1761
 5680SOL     OW28498   3.733   2.223   9.345  0.8523  0.3174 -0.7287
 5680SOL    HW128499   3.719   2.250   9.254  0.6699 -0.1828 -0.8488
 5680SOL    HW228500   3.731   2.305   9.393 -1.5510 -0.4898  0.5393
 5681SOL     OW28501   4.117   1.600   1.598 -1.0934  0.0698  0.3871
 5681SOL    HW128502   4.064   1.525   1.626 -0.4225 -0.3535  0.5203
 5681SOL    HW228503   4.207   1.567   1.601 -1.4310 -0.8153  0.9357
 5682SOL     OW28504   3.922   2.693  17.437 -0.5119 -0.4987  0.0651
 5682SOL    HW128505   3.884   2.710  17.523 -0.2532  1.3656 -0.1945
 5682SOL    HW228506   3.974   2.614  17.455 -1.3044 -0.5625  2.0373
 5683SOL     OW28507   4.201   3.990   8.432 -0.0921 -0.3735  0.5540
 5683SOL    HW128508   4.186   4.073   8.479 -0.4975 -0.0184 -0.2013
 5683SOL    HW228509   4.120   3.943   8.450 -0.7754  1.5478  2.6165
 5684SOL     OW28510   4.100   0.547   3.745  0.0060  0.5943  0.1171
 5684SOL    HW128511   4.155   0.563   3.821  0.1977 -0.5372  0.2180
 5684SOL    HW228512   4.015   0.587   3.765 -1.3525 -1.9925 -0.3519
 5685SOL     OW28513   2.463   4.282   5.087  0.1758  0.0372 -0.5388
 5685SOL    HW128514   2.371   4.258   5.071 -0.0888 -0.0480  1.0803
 5685SOL    HW228515   2.493   4.265   4.998  0.5688 -0.0681 -0.3859
 5686SOL     OW28516   4.403   3.498   0.910  0.4913  0.0494  0.2187
 5686SOL    HW128517   4.490   3.473   0.879  0.3702 -0.4256  0.2619
 5686SOL    HW228518   4.397   3.440   0.986 -0.1560 -0.5566 -0.2864
 5687SOL     OW28519   0.785   0.834   2.052  0.0072 -0.2361  0.2926
 5687SOL    HW128520   0.752   0.921   2.075 -0.4787 -0.1216 -0.8728
 5687SOL    HW228521   0.697   0.797   2.042 -0.1236 -0.0523  0.7348
 5688SOL     OW28522   1.270   3.881  17.271 -0.4633  0.6351 -0.3399
 5688SOL    HW128523   1.299   3.797  17.306 -1.2805  0.9068  0.9784
 5688SOL    HW228524   1.354   3.928  17.266  0.5939 -1.2434  0.0598
 5689SOL     OW28525   1.848   3.687   9.698 -0.1532 -0.4056  0.1685
 5689SOL    HW128526   1.793   3.725   9.767 -0.9743  1.0322 -1.2560
 5689SOL    HW228527   1.932   3.710   9.736 -0.9899  1.6544  0.8133
 5690SOL     OW28528   1.481   0.803   3.379 -0.5989  0.7767 -0.2013
 5690SOL    HW128529   1.545   0.768   3.440  2.3163  1.7328 -2.6696
 5690SOL    HW228530   1.475   0.738   3.309  1.2350 -0.8240  1.1567
 5691SOL     OW28531   1.434   0.839  10.953 -0.4718 -0.2906  0.1790
 5691SOL    HW128532   1.460   0.768  11.011  2.7675 -0.0824 -0.9966
 5691SOL    HW228533   1.342   0.819  10.939 -1.2034  1.3854  2.7230
 5692SOL     OW28534   1.633   4.059   6.718  0.1486  0.6839 -1.2393
 5692SOL    HW128535   1.718   4.016   6.723 -0.1488  0.2679  0.3499
 5692SOL    HW228536   1.575   4.005   6.773 -0.1280  1.1392 -1.0822
 5693SOL     OW28537   0.292   3.395   4.001  0.3219  0.2810  0.1518
 5693SOL    HW128538   0.371   3.349   3.972 -0.9253 -1.4393 -0.4835
 5693SOL    HW228539   0.295   3.376   4.095 -1.8473  1.8164  0.5179
 5694SOL     OW28540   1.656   0.451   8.796 -0.1110 -0.4114  0.6428
 5694SOL    HW128541   1.573   0.421   8.759 -0.5480 -0.0743  1.3446
 5694SOL    HW228542   1.641   0.439   8.890  0.0097  0.0325  0.7192
 5695SOL     OW28543   0.966   3.636   2.605  0.0784 -0.0404 -0.3854
 5695SOL    HW128544   0.910   3.558   2.614 -0.2820  0.5502  2.3238
 5695SOL    HW228545   1.006   3.637   2.518  2.2975 -1.0791  0.6007
 5696SOL     OW28546   2.734   4.076   3.982  0.4497  0.0671  0.1932
 5696SOL    HW128547   2.677   4.004   4.007 -0.4558  0.4525 -0.7589
 5696SOL    HW228548   2.680   4.135   3.930  1.0755  0.8813  0.4736
 5697SOL     OW28549   2.144   0.876   5.113 -0.0890  0.3335 -0.3560
 5697SOL    HW128550   2.113   0.821   5.184 -1.5493  1.7349  0.1001
 5697SOL    HW228551   2.213   0.925   5.158 -0.9907  0.6692  0.6530
 5698SOL     OW28552   2.462   2.307   3.284  0.0909  0.3697 -0.0022
 5698SOL    HW128553   2.381   2.261   3.263 -0.7985  1.7980  0.2748
 5698SOL    HW228554   2.412   2.367   3.340  0.0021 -1.4749  1.8799
 5699SOL     OW28555   4.448   3.178   2.585 -0.1215  0.5159  0.0739
 5699SOL    HW128556   4.470   3.261   2.542 -0.7469  0.6625  0.0438
 5699SOL    HW228557   4.537   3.149   2.607  0.0840 -1.0513 -2.9332
 5700SOL     OW28558   1.176   1.163  10.894  0.5734  0.0818 -0.2051
 5700SOL    HW128559   1.162   1.103  10.968  2.9507 -2.4139 -1.7793
 5700SOL    HW228560   1.086   1.185  10.869  1.1425  0.4633 -1.8872
 5701SOL     OW28561   1.537   0.714  15.596  1.0418  0.0615  0.0551
 5701SOL    HW128562   1.567   0.676  15.514 -0.7098  0.1177 -0.6167
 5701SOL    HW228563   1.561   0.806  15.589 -1.4491  0.8298  1.3173
 5702SOL     OW28564   0.426   4.426   6.433 -0.0375 -0.3088 -0.1012
 5702SOL    HW128565   0.451   4.506   6.479 -2.0629  0.1946  0.1106
 5702SOL    HW228566   0.340   4.414   6.473  0.0044  2.7205  0.8399
 5703SOL     OW28567   0.729   2.921   4.632  0.2532 -0.2388  0.2014
 5703SOL    HW128568   0.787   2.928   4.708  1.1995 -0.3022 -0.5165
 5703SOL    HW228569   0.699   2.831   4.637  0.5412 -0.3260  0.3588
 5704SOL     OW28570   4.301   3.854  10.576 -0.4151  0.3258  0.5175
 5704SOL    HW128571   4.267   3.804  10.502 -1.1966 -0.6011  1.4886
 5704SOL    HW228572   4.215   3.876  10.614 -1.8818  0.6020 -2.9545
 5705SOL     OW28573   3.669   2.415   9.546 -0.2182 -0.2145 -0.2789
 5705SOL    HW128574   3.581   2.432   9.578  0.2109 -1.1747  1.3839
 5705SOL    HW228575   3.670   2.321   9.565  1.1768 -0.3816 -1.1652
 5706SOL     OW28576   4.664   2.978   9.893 -0.3393 -0.4020 -0.2899
 5706SOL    HW128577   4.671   2.965   9.987 -0.9216  2.7308  0.1827
 5706SOL    HW228578   4.687   3.071   9.888 -0.7057 -0.2243  1.6000
 5707SOL     OW28579   4.199   4.280   4.192 -0.4482  0.1454  0.3741
 5707SOL    HW128580   4.141   4.243   4.125  1.2038  0.2827 -1.1386
 5707SOL    HW228581   4.212   4.201   4.245 -0.6208 -0.3928 -0.3709
 5708SOL     OW28582   0.094   1.082  13.195  0.6805 -0.0611 -0.6019
 5708SOL    HW128583   0.024   1.087  13.130 -0.4043 -0.3780  0.5396
 5708SOL    HW228584   0.157   1.147  13.164  1.0128 -0.1631 -0.1313
 5709SOL     OW28585   3.793   0.875   4.482 -0.1327  0.0103  0.8167
 5709SOL    HW128586   3.731   0.850   4.414 -0.0132  1.0716  0.3055
 5709SOL    HW228587   3.815   0.793   4.526 -3.8857 -1.5892 -0.3577
 5710SOL     OW28588   3.862   0.016   3.603 -0.0864 -0.2896  0.1467
 5710SOL    HW128589   3.881   0.026   3.510  1.3840 -3.9119  0.0679
 5710SOL    HW228590   3.899   0.099   3.636 -0.7892 -0.2248  0.7563
 5711SOL     OW28591   0.123   0.505  13.417  0.1164  0.3338  0.3210
 5711SOL    HW128592   0.152   0.460  13.337  0.0900 -1.0144  1.0752
 5711SOL    HW228593   0.161   0.592  13.408  2.0135 -0.5383  0.0458
 5712SOL     OW28594   3.369   1.267  12.823  0.1737 -0.4904 -0.3782
 5712SOL    HW128595   3.276   1.277  12.843  1.0366  1.9467  2.3573
 5712SOL    HW228596   3.365   1.172  12.838  0.1709 -0.4425 -0.0810
 5713SOL     OW28597   4.053   2.185   2.036 -0.2335  0.4842  0.2129
 5713SOL    HW128598   4.029   2.134   1.958  0.9311  0.6973 -0.2863
 5713SOL    HW228599   4.068   2.110   2.093 -2.5060 -1.2533 -1.4507
 5714SOL     OW28600   0.202   4.636   4.605  0.8490 -0.1839 -0.0187
 5714SOL    HW128601   0.226   4.587   4.527  4.0084 -1.5307  1.8125
 5714SOL    HW228602   0.259   4.708   4.581  0.1091 -0.0897 -1.4995
 5715SOL     OW28603   0.724   0.777   7.993 -0.3324 -0.0801  0.5165
 5715SOL    HW128604   0.636   0.758   8.027 -1.0872  0.7167 -0.9911
 5715SOL    HW228605   0.712   0.869   7.969 -0.5986 -0.8630 -2.3961
 5716SOL     OW28606   4.233   0.112   7.096 -0.0750 -0.0295 -0.7218
 5716SOL    HW128607   4.275   0.183   7.047 -1.9581  1.6660  0.1336
 5716SOL    HW228608   4.275   0.124   7.181  0.9588  0.9552 -1.3636
 5717SOL     OW28609   1.112   2.842  15.727 -0.0041  0.0865  0.1792
 5717SOL    HW128610   1.091   2.844  15.820  1.6763  1.4230  0.5215
 5717SOL    HW228611   1.039   2.799  15.683 -0.3766  0.1809  0.7102
 5718SOL     OW28612   2.920   1.514   2.229  0.4764 -0.9679 -0.9802
 5718SOL    HW128613   3.001   1.520   2.180  0.5114  0.8931 -0.6681
 5718SOL    HW228614   2.940   1.576   2.299  0.4094 -2.7947  0.6556
 5719SOL     OW28615   1.459   3.838   6.431 -0.2230 -0.0323 -0.0109
 5719SOL    HW128616   1.379   3.815   6.478 -0.9514  0.8348 -0.8340
 5719SOL    HW228617   1.517   3.802   6.498  1.4648  1.9944 -0.3959
 5720SOL     OW28618   2.168   4.191   1.988  0.2258  0.4344  0.4774
 5720SOL    HW128619   2.096   4.243   2.024 -0.3837  0.6797 -1.1206
 5720SOL    HW228620   2.153   4.185   1.894 -0.8532 -1.7138  0.7987
 5721SOL     OW28621   3.249   1.616  13.683  0.0143 -0.4738 -0.8322
 5721SOL    HW128622   3.156   1.625  13.659 -0.1410 -0.3726 -0.1959
 5721SOL    HW228623   3.276   1.601  13.593  0.3051 -1.6116 -0.5462
 5722SOL     OW28624   4.459   3.504   4.553 -0.2972 -0.0893  0.1457
 5722SOL    HW128625   4.489   3.475   4.639  1.8474  1.6508 -0.0150
 5722SOL    HW228626   4.500   3.590   4.557 -0.3897 -0.0263 -0.2131
 5723SOL     OW28627   3.227   3.213   7.364  0.3782 -0.0486 -0.3942
 5723SOL    HW128628   3.254   3.141   7.421  1.7073 -0.1534 -1.1468
 5723SOL    HW228629   3.147   3.243   7.406  0.5690 -0.2291  0.1073
 5724SOL     OW28630   3.756   0.004  11.688 -0.4843  0.8156  0.0618
 5724SOL    HW128631   3.839   0.035  11.724  1.5693 -2.0522 -2.1734
 5724SOL    HW228632   3.718   0.089  11.667 -0.5799  0.3048 -1.8522
 5725SOL     OW28633   2.453   0.250  15.489 -0.0208  0.7586 -0.6553
 5725SOL    HW128634   2.519   0.318  15.477  2.0488 -1.3559 -1.1400
 5725SOL    HW228635   2.458   0.239  15.584 -0.3099 -0.0600 -0.7325
 5726SOL     OW28636   3.809   1.821   4.551 -0.6135 -0.0702 -0.2062
 5726SOL    HW128637   3.826   1.909   4.518  2.5045 -0.7618 -0.4683
 5726SOL    HW228638   3.790   1.774   4.470 -2.1659  0.4081 -0.1181
 5727SOL     OW28639   1.914   2.857   5.715 -0.3054 -0.0658  0.1353
 5727SOL    HW128640   1.958   2.781   5.678  0.6689  1.0732 -1.0253
 5727SOL    HW228641   1.979   2.889   5.778  0.8716  1.2900 -1.7741
 5728SOL     OW28642   2.444   2.518  12.828  0.1703 -0.2445 -0.3778
 5728SOL    HW128643   2.514   2.455  12.849  1.8027  1.0051 -2.0821
 5728SOL    HW228644   2.477   2.555  12.746  0.8486  1.0118  0.4595
 5729SOL     OW28645   4.641   0.493  13.618 -0.1532  0.7648 -0.7398
 5729SOL    HW128646   4.599   0.540  13.546 -2.2287 -0.5426 -0.3842
 5729SOL    HW228647   0.003   0.524  13.588 -0.5372  1.2531 -1.3311
 5730SOL     OW28648   1.619   1.818   3.852 -1.0231 -0.4479  0.3837
 5730SOL    HW128649   1.532   1.783   3.868 -1.2813  0.3703  0.7674
 5730SOL    HW228650   1.607   1.869   3.771 -0.0646  1.2211  1.2948
 5731SOL     OW28651   3.594   4.717   5.294  0.5339  0.2574 -0.2998
 5731SOL    HW128652   3.533   0.057   5.330 -0.8913 -0.9162 -0.6566
 5731SOL    HW228653   3.539   4.644   5.265 -4.0469  3.2200  0.9852
 5732SOL     OW28654   4.429   2.303   6.480  0.2892  0.4701  0.6622
 5732SOL    HW128655   4.336   2.314   6.499  0.1395 -0.4537  0.4817
 5732SOL    HW228656   4.435   2.242   6.406 -2.1708  1.1252 -0.0578
 5733SOL     OW28657   1.835   1.090   7.473  0.0725 -0.6619 -0.2840
 5733SOL    HW128658   1.812   1.122   7.385  0.5189  2.9205  0.8913
 5733SOL    HW228659   1.927   1.074   7.452 -0.0821 -1.4396 -0.3778
 5734SOL     OW28660   2.911   3.939   7.527 -0.6131 -0.1694  0.2910
 5734SOL    HW128661   2.906   3.906   7.617  0.7431 -1.1793  0.0015
 5734SOL    HW228662   2.872   4.025   7.538  0.6525  0.5462 -0.8395
 5735SOL     OW28663   1.233   0.671   7.752 -0.2204  0.0274 -0.3260
 5735SOL    HW128664   1.185   0.595   7.718  1.5980 -0.2498 -2.2239
 5735SOL    HW228665   1.291   0.681   7.677 -4.1133  2.7761 -2.9485
 5736SOL     OW28666   2.154   4.335   8.169  0.2500 -0.4617 -0.2383
 5736SOL    HW128667   2.243   4.355   8.140  0.5275  0.6558  1.3603
 5736SOL    HW228668   2.117   4.419   8.198 -0.1856 -0.3737 -1.0658
 5737SOL     OW28669   0.679   4.552   3.472 -0.1967 -0.0187  0.0826
 5737SOL    HW128670   0.759   4.499   3.471 -1.2540 -1.6338  1.1443
 5737SOL    HW228671   0.713   4.642   3.472 -1.0886  0.3103  4.0581
 5738SOL     OW28672   4.428   0.102   8.972  0.0983 -0.5837  0.4764
 5738SOL    HW128673   4.455   0.061   9.054  0.5474 -0.7013  0.2717
 5738SOL    HW228674   4.481   0.054   8.908  0.6352 -3.4471  3.0677
 5739SOL     OW28675   2.159   4.388   3.733 -0.0192  0.0700 -0.6271
 5739SOL    HW128676   2.243   4.407   3.775 -0.6720 -1.1534  1.1921
 5739SOL    HW228677   2.100   4.423   3.800  0.4375  1.6758 -1.0545
 5740SOL     OW28678   2.127   3.674   9.726  0.2766 -0.4549 -0.2139
 5740SOL    HW128679   2.183   3.692   9.801  1.9100 -1.6173 -1.1347
 5740SOL    HW228680   2.163   3.590   9.697 -0.9958 -0.2030 -2.4720
 5741SOL     OW28681   1.608   2.972   5.138  0.4130  0.0875 -0.1275
 5741SOL    HW128682   1.671   2.931   5.197  0.0036  2.1805  1.7378
 5741SOL    HW228683   1.662   3.032   5.086  1.1972 -0.8524 -0.3937
 5742SOL     OW28684   3.158   2.473   5.304  0.0629 -0.2866  0.1603
 5742SOL    HW128685   3.104   2.499   5.229  0.2132  2.8113  1.1004
 5742SOL    HW228686   3.135   2.528   5.378  0.6740 -0.7039  0.6573
 5743SOL     OW28687   1.943   1.212   9.667  0.2303 -0.2910  0.2956
 5743SOL    HW128688   2.002   1.266   9.615 -0.7233  0.9853  0.5339
 5743SOL    HW228689   1.918   1.266   9.741 -0.4971  0.8762 -0.8118
 5744SOL     OW28690   2.114   2.651   4.477  0.6718  0.3101 -0.0096
 5744SOL    HW128691   2.131   2.569   4.431  1.2911 -0.2147  1.1465
 5744SOL    HW228692   2.045   2.626   4.538 -0.7597  2.2285 -0.8371
 5745SOL     OW28693   0.327   4.611   9.150 -0.1045 -0.1151 -0.6398
 5745SOL    HW128694   0.376   4.563   9.217 -1.7475  0.4137  0.9360
 5745SOL    HW228695   0.289   4.678   9.207 -1.1818 -0.7291 -0.6341
 5746SOL     OW28696   3.278   4.463   8.282 -0.1189 -0.1299 -0.4758
 5746SOL    HW128697   3.228   4.539   8.312  0.2627 -0.1403  0.1857
 5746SOL    HW228698   3.337   4.444   8.355 -0.2795 -0.7361 -0.5049
 5747SOL     OW28699   4.313   2.577   9.259 -0.4601  0.0890  0.1634
 5747SOL    HW128700   4.233   2.527   9.275  0.2307 -0.4781  1.7534
 5747SOL    HW228701   4.375   2.542   9.323  0.3796 -1.0004 -1.2539
 5748SOL     OW28702   0.647   1.369   8.398  0.5061  0.3990 -0.1346
 5748SOL    HW128703   0.660   1.379   8.492 -1.5625  1.8789 -0.0204
 5748SOL    HW228704   0.735   1.389   8.366  0.3507  0.4488 -0.5320
 5749SOL     OW28705   3.313   2.209   8.016  0.5931 -0.5556  0.5232
 5749SOL    HW128706   3.219   2.199   8.030  0.8381 -0.2800  2.2924
 5749SOL    HW228707   3.324   2.282   8.076  1.6243 -1.1913  1.1137
 5750SOL     OW28708   4.012   1.494   7.537  0.4225 -0.0805 -0.3353
 5750SOL    HW128709   3.950   1.421   7.537 -0.4928  0.7045 -0.7536
 5750SOL    HW228710   3.942   1.559   7.539 -0.4165 -0.9477 -1.9722
 5751SOL     OW28711   0.186   1.280   5.220 -0.2100 -0.0158  0.2066
 5751SOL    HW128712   0.144   1.330   5.290 -1.2012  0.9029 -1.0570
 5751SOL    HW228713   0.258   1.333   5.188 -1.9322  0.8000 -2.2540
 5752SOL     OW28714   3.979   3.102   4.536  0.1147  0.0002 -0.0065
 5752SOL    HW128715   3.950   3.089   4.626 -3.3187 -0.7690 -1.2418
 5752SOL    HW228716   4.074   3.090   4.530  0.0983 -0.1321 -0.0053
 5753SOL     OW28717   3.199   4.264   2.210 -0.2076  0.5562 -0.0503
 5753SOL    HW128718   3.127   4.259   2.147  0.9383  1.5890 -1.4520
 5753SOL    HW228719   3.155   4.305   2.284  0.1381  3.0172 -1.2186
 5754SOL     OW28720   1.014   0.348  15.990  0.1301  0.2248  0.0102
 5754SOL    HW128721   1.071   0.283  16.032 -0.5204 -1.3083 -1.4992
 5754SOL    HW228722   1.077   0.410  15.954  0.6222  0.6334  1.5427
 5755SOL     OW28723   1.354   2.276  11.597  0.3589  0.0224 -0.2164
 5755SOL    HW128724   1.447   2.294  11.605 -0.4638  3.6921  1.2136
 5755SOL    HW228725   1.301   2.353  11.619  1.1664  0.6314 -0.4464
 5756SOL     OW28726   3.535   2.997  13.243  0.1716 -0.2613 -0.0032
 5756SOL    HW128727   3.442   2.980  13.258 -0.0823 -0.1240 -1.4388
 5756SOL    HW228728   3.544   3.052  13.166  1.0067 -0.5096 -0.0779
 5757SOL     OW28729   0.133   0.010  12.396 -0.2563 -0.3974  0.4896
 5757SOL    HW128730   0.141   0.099  12.431  1.6712 -0.5820  0.5369
 5757SOL    HW228731   0.194   4.689  12.455  2.9396 -0.1508 -2.5710
 5758SOL     OW28732   3.404   1.499   8.226  0.1419 -0.2861 -0.5108
 5758SOL    HW128733   3.495   1.495   8.194 -0.0889  0.9196 -1.3518
 5758SOL    HW228734   3.393   1.410   8.259  1.9028  0.2263  1.4406
 5759SOL     OW28735   4.503   0.893   5.155 -0.5443  0.1336  0.0497
 5759SOL    HW128736   4.496   0.970   5.212  0.4990  0.4202 -0.2058
 5759SOL    HW228737   4.460   0.928   5.078 -0.3755 -1.1326 -0.6189
 5760SOL     OW28738   4.551   2.095   2.816  0.0307  0.5161 -0.1642
 5760SOL    HW128739   4.489   2.109   2.745  1.4096  1.2395 -1.2327
 5760SOL    HW228740   4.491   2.044   2.870  1.1562  0.1999  0.7800
 5761SOL     OW28741   0.060   1.253   2.163  0.0067 -0.5574  0.4016
 5761SOL    HW128742   0.086   1.198   2.238 -1.8944 -1.8348  0.1458
 5761SOL    HW228743   4.693   1.271   2.190 -0.4486  0.0577 -1.5985
 5762SOL     OW28744   2.427   3.752   7.108 -0.7508  0.3328 -0.5033
 5762SOL    HW128745   2.511   3.784   7.075  0.5006 -0.0393  2.3187
 5762SOL    HW228746   2.409   3.680   7.049 -0.6096 -1.0898  1.1902
 5763SOL     OW28747   3.586   4.222  15.774  0.9242  0.5784  0.0893
 5763SOL    HW128748   3.523   4.281  15.814 -0.9537 -1.6310  0.3961
 5763SOL    HW228749   3.626   4.284  15.713 -0.0302  1.3475  0.2429
 5764SOL     OW28750   4.611   3.883   7.417 -0.1698  0.3405  0.4235
 5764SOL    HW128751   4.611   3.808   7.477  0.4942  0.0417  0.0466
 5764SOL    HW228752   4.517   3.905   7.413 -0.2639 -0.0268  0.6423
 5765SOL     OW28753   4.028   4.425  16.903 -0.4964 -0.5066 -0.2805
 5765SOL    HW128754   3.940   4.432  16.867 -1.2596 -0.0566  1.6793
 5765SOL    HW228755   4.035   4.490  16.972  0.3882 -1.0752  0.1716
 5766SOL     OW28756   0.837   2.593   1.645 -0.1159  0.2091  0.1103
 5766SOL    HW128757   0.807   2.506   1.672 -1.6533  0.8991  0.6125
 5766SOL    HW228758   0.880   2.575   1.562  1.1853 -1.6667  1.1852
 5767SOL     OW28759   4.638   2.792   6.631  0.1989  0.4903  0.2465
 5767SOL    HW128760   4.682   2.714   6.597 -0.0145  1.1769 -1.6025
 5767SOL    HW228761   4.649   2.784   6.726 -0.4902  2.2448  0.4610
 5768SOL     OW28762   1.295   2.898  13.691 -0.1197 -0.3003 -0.3655
 5768SOL    HW128763   1.388   2.916  13.697  0.0683 -0.8742 -1.5206
 5768SOL    HW228764   1.291   2.807  13.721  0.9337 -0.5286 -0.9322
 5769SOL     OW28765   2.054   1.816  11.664  0.4221 -0.5289 -0.4555
 5769SOL    HW128766   2.016   1.773  11.588 -0.2371 -1.4348  0.3819
 5769SOL    HW228767   2.146   1.805  11.641  0.0018  1.5067 -3.1298
 5770SOL     OW28768   3.177   2.779   8.480 -0.1514  0.1005 -0.8276
 5770SOL    HW128769   3.206   2.775   8.571 -0.8950  0.1709 -0.5884
 5770SOL    HW228770   3.144   2.869   8.478  1.1735  0.6343  0.9004
 5771SOL     OW28771   2.107   0.920   6.367  0.0001  0.2201 -0.3566
 5771SOL    HW128772   2.018   0.953   6.352 -0.2955 -0.0466  0.7409
 5771SOL    HW228773   2.108   0.844   6.310 -0.2682 -1.5069  1.9412
 5772SOL     OW28774   4.203   1.514   9.093 -0.2266 -0.2539 -0.1060
 5772SOL    HW128775   4.283   1.463   9.079 -0.1036 -0.3790  0.9892
 5772SOL    HW228776   4.202   1.526   9.188  0.6584 -2.4233  0.1802
 5773SOL     OW28777   0.556   4.142   7.975  0.5780 -0.9370  0.6883
 5773SOL    HW128778   0.481   4.149   7.916  1.5321 -1.2295 -0.5560
 5773SOL    HW228779   0.619   4.209   7.946 -0.5438 -0.8345 -1.5046
 5774SOL     OW28780   2.263   3.517   7.939  0.0955 -0.4252 -0.2045
 5774SOL    HW128781   2.265   3.570   7.860  1.6183 -0.6000 -0.2891
 5774SOL    HW228782   2.358   3.521   7.951  0.1450 -1.1529 -0.3470
 5775SOL     OW28783   0.470   1.242   0.312 -0.4094  0.0199  0.5044
 5775SOL    HW128784   0.543   1.202   0.359 -0.2532  0.5014  0.6733
 5775SOL    HW228785   0.404   1.173   0.321 -1.2777  0.7449 -0.1881
 5776SOL     OW28786   2.153   0.213   5.685 -0.4576  0.9693 -0.4769
 5776SOL    HW128787   2.156   0.177   5.773  0.7739 -0.2688 -1.0218
 5776SOL    HW228788   2.186   0.147   5.624 -0.4250  0.1358  0.4625
 5777SOL     OW28789   0.770   0.759   1.279 -0.6461  0.6151  0.2639
 5777SOL    HW128790   0.696   0.734   1.223  0.5946 -0.2071 -1.0187
 5777SOL    HW228791   0.798   0.842   1.242  0.6583 -1.1231 -2.6548
 5778SOL     OW28792   2.850   1.875   2.504 -0.0839 -0.0573  0.5316
 5778SOL    HW128793   2.762   1.874   2.466  0.8912  1.1946 -1.8117
 5778SOL    HW228794   2.859   1.964   2.538 -3.6764  0.4069  0.3288
 5779SOL     OW28795   4.552   2.270   8.951 -0.9549 -0.4810  0.2968
 5779SOL    HW128796   4.550   2.290   9.045  1.2287 -0.5230  0.3575
 5779SOL    HW228797   4.586   2.356   8.926 -1.2780  0.0747  1.7615
 5780SOL     OW28798   1.778   1.222   0.893  0.3556  0.0092  0.7145
 5780SOL    HW128799   1.847   1.184   0.947  0.4386 -0.0276  0.5827
 5780SOL    HW228800   1.712   1.152   0.895 -0.2907  0.6880  3.4837
 5781SOL     OW28801   0.383   1.179  11.452  0.0755  0.2022  0.2543
 5781SOL    HW128802   0.466   1.133  11.458  0.5321  1.2020  1.4267
 5781SOL    HW228803   0.414   1.257  11.497 -4.4110  1.4651  1.1903
 5782SOL     OW28804   1.051   3.748   8.234 -0.1408  0.3979 -0.1170
 5782SOL    HW128805   0.978   3.691   8.209  0.1927  0.3237 -0.8979
 5782SOL    HW228806   1.038   3.751   8.329  0.0518  0.2445 -0.0884
 5783SOL     OW28807   0.824   0.128  12.058 -0.1698  0.2031  0.2466
 5783SOL    HW128808   0.850   0.207  12.106  0.9097  0.4617 -0.7721
 5783SOL    HW228809   0.790   0.156  11.974  1.2987  0.0960 -0.3947
 5784SOL     OW28810   0.678   2.516   6.375  0.1919  0.0948  0.0148
 5784SOL    HW128811   0.590   2.553   6.378 -0.5879 -1.9101  2.0064
 5784SOL    HW228812   0.730   2.588   6.341 -0.5798 -0.3620 -2.1494
 5785SOL     OW28813   0.831   0.773   4.572 -0.2957 -0.0014 -0.9101
 5785SOL    HW128814   0.859   0.773   4.481  2.0350 -0.5590 -0.2014
 5785SOL    HW228815   0.752   0.826   4.579 -0.7989 -0.7639 -0.8655
 5786SOL     OW28816   1.044   0.766   5.617 -0.2771  0.3932 -0.3022
 5786SOL    HW128817   1.035   0.808   5.702 -0.2856  0.5370 -0.3737
 5786SOL    HW228818   1.120   0.709   5.629 -0.6208 -0.0056 -0.0044
 5787SOL     OW28819   3.100   1.810   8.896 -0.2655  0.0959  0.2750
 5787SOL    HW128820   3.098   1.840   8.987 -0.6833 -1.0603  0.6570
 5787SOL    HW228821   3.033   1.742   8.888  1.0263 -1.2144  0.4778
 5788SOL     OW28822   1.134   0.377  13.187 -0.4036  0.2967  0.2351
 5788SOL    HW128823   1.134   0.307  13.121  1.6751  1.2679 -0.8263
 5788SOL    HW228824   1.063   0.426  13.145  1.2944  2.2868 -0.3036
 5789SOL     OW28825   1.104   3.419  16.310 -0.5034 -1.1563 -0.8701
 5789SOL    HW128826   1.061   3.473  16.376 -0.9669 -0.4677 -1.7393
 5789SOL    HW228827   1.178   3.475  16.289 -1.4462  0.5345  0.3685
 5790SOL     OW28828   1.251   4.677   8.202 -0.0408 -0.6166 -0.2516
 5790SOL    HW128829   1.286   0.039   8.178 -0.4109  0.0339  1.4841
 5790SOL    HW228830   1.329   4.626   8.226 -0.8743 -0.8943  1.9102
 5791SOL     OW28831   4.297   2.750   3.167 -0.1762 -0.5283  0.7246
 5791SOL    HW128832   4.225   2.737   3.105  0.4813  2.6542 -0.7267
 5791SOL    HW228833   4.359   2.684   3.135  1.9492  1.1625  1.3527
 5792SOL     OW28834   2.118   1.304   3.986 -0.4269 -0.2147 -0.0478
 5792SOL    HW128835   2.148   1.348   3.907 -2.0568 -0.3022 -0.6984
 5792SOL    HW228836   2.199   1.298   4.037 -1.3041 -0.8158  1.2841
 5793SOL     OW28837   3.140   0.673   7.209 -0.4126  0.2008 -0.6685
 5793SOL    HW128838   3.222   0.640   7.174 -0.4012 -0.8949  0.3831
 5793SOL    HW228839   3.174   0.748   7.258 -3.0110  0.3701  0.9233
 5794SOL     OW28840   3.858   0.339  12.878 -0.2748 -0.4534  0.1061
 5794SOL    HW128841   3.926   0.407  12.874 -0.5479 -0.2660 -1.2542
 5794SOL    HW228842   3.831   0.347  12.970 -1.6132 -0.1468 -0.3293
 5795SOL     OW28843   4.114   0.272  15.220 -0.1174  0.1945 -0.2079
 5795SOL    HW128844   4.113   0.344  15.282 -1.7887  0.8774 -1.0584
 5795SOL    HW228845   4.040   0.287  15.163  0.0615 -0.4304 -0.6087
 5796SOL     OW28846   2.525   0.718   8.520 -0.0158 -0.1992  0.2528
 5796SOL    HW128847   2.472   0.794   8.544 -0.4277 -0.6126  0.6655
 5796SOL    HW228848   2.612   0.758   8.523  1.0727 -2.5706  0.7263
 5797SOL     OW28849   2.754   1.033  10.489  0.1719 -0.1084 -0.1686
 5797SOL    HW128850   2.843   1.057  10.516  0.1178  1.2116 -1.1815
 5797SOL    HW228851   2.742   1.085  10.410 -1.1125  1.1830  0.8653
 5798SOL     OW28852   1.246   3.223   3.077  0.2947 -0.3261  0.5417
 5798SOL    HW128853   1.277   3.287   3.142  1.8465 -1.1034  0.5470
 5798SOL    HW228854   1.272   3.144   3.123  1.3037 -0.3088 -0.0094
 5799SOL     OW28855   3.677   1.093   3.355 -0.5117 -0.2271  0.3103
 5799SOL    HW128856   3.662   1.023   3.419  1.4179 -1.9263 -1.0839
 5799SOL    HW228857   3.589   1.114   3.325 -1.1891 -3.9295 -0.3809
 5800SOL     OW28858   1.890   3.330  12.918  0.5620  0.6104  0.3382
 5800SOL    HW128859   1.865   3.238  12.921 -0.0145  0.7926  1.1541
 5800SOL    HW228860   1.917   3.347  13.009 -0.5162  0.9067  0.6006
 5801SOL     OW28861   0.784   1.634   7.820  0.0360  0.3767  0.0231
 5801SOL    HW128862   0.820   1.616   7.906  0.2860 -2.0506 -0.5817
 5801SOL    HW228863   0.758   1.551   7.779 -0.3043  0.8018 -0.6298
 5802SOL     OW28864   2.139   1.867  10.439 -0.0131 -0.7923 -0.1683
 5802SOL    HW128865   2.110   1.839  10.526 -2.9159  1.5244 -0.4086
 5802SOL    HW228866   2.122   1.960  10.447  3.0290 -0.2620  0.0741
 5803SOL     OW28867   4.257   0.991   4.848 -0.2850 -0.5039  0.4726
 5803SOL    HW128868   4.350   1.003   4.865 -0.3070  1.0634 -0.5064
 5803SOL    HW228869   4.259   0.953   4.760  2.1994 -1.8369  1.1000
 5804SOL     OW28870   3.689   4.401  12.200 -0.0246  0.4771 -0.6200
 5804SOL    HW128871   3.780   4.420  12.181  0.2458 -0.3936 -0.1969
 5804SOL    HW228872   3.663   4.490  12.222  0.1119 -0.3377  2.9563
 5805SOL     OW28873   2.272   3.288   7.258  0.7070 -0.0774  0.3331
 5805SOL    HW128874   2.336   3.217   7.255 -0.2543 -0.9477  0.1474
 5805SOL    HW228875   2.249   3.276   7.350  0.1783  1.5470  0.4117
 5806SOL     OW28876   2.820   0.703   2.688 -0.4909 -0.0158 -0.5575
 5806SOL    HW128877   2.725   0.712   2.678 -0.3662  1.2083 -0.6786
 5806SOL    HW228878   2.853   0.680   2.601  0.1596  0.7050 -0.5077
 5807SOL     OW28879   2.719   2.000  12.068 -0.1371 -0.1547 -0.1876
 5807SOL    HW128880   2.709   1.984  11.974  1.4206  0.8031 -0.5183
 5807SOL    HW228881   2.789   1.936  12.083  0.3190  0.2652 -0.5487
 5808SOL     OW28882   3.134   1.816   6.689  0.4898  0.2548  0.0833
 5808SOL    HW128883   3.051   1.775   6.712  0.4547  1.2866  1.8375
 5808SOL    HW228884   3.187   1.780   6.760 -0.4834  0.6078  0.9912
 5809SOL     OW28885   3.833   1.573   9.373  0.0257  0.3368 -0.3963
 5809SOL    HW128886   3.806   1.539   9.287 -0.7234 -0.4572  0.1508
 5809SOL    HW228887   3.757   1.539   9.421 -0.9518  2.0827 -0.6928
 5810SOL     OW28888   1.660   3.719   8.077 -0.6233 -0.1909 -0.3780
 5810SOL    HW128889   1.678   3.627   8.059 -0.8164 -0.3102  0.0297
 5810SOL    HW228890   1.748   3.758   8.074 -0.3505 -0.6391  1.9160
 5811SOL     OW28891   3.213   0.161   3.780  0.7003  0.4871 -0.3764
 5811SOL    HW128892   3.220   0.066   3.775 -2.2704  0.2410  0.5332
 5811SOL    HW228893   3.246   0.184   3.693 -1.1792 -0.0192 -1.2226
 5812SOL     OW28894   3.027   4.100   2.508  0.1623  0.6124  0.2824
 5812SOL    HW128895   3.073   4.149   2.575 -0.2890 -0.2291  1.1997
 5812SOL    HW228896   3.109   4.079   2.463 -0.8141 -0.4099 -1.0359
 5813SOL     OW28897   2.420   1.286   6.912  0.3837  0.2081  0.0885
 5813SOL    HW128898   2.388   1.220   6.851  0.1097  0.7963 -0.4032
 5813SOL    HW228899   2.341   1.336   6.931  0.4506  0.6209 -0.7298
 5814SOL     OW28900   0.794   3.665   8.244  0.1286 -0.3155 -0.1071
 5814SOL    HW128901   0.731   3.648   8.174  0.1460  1.4807 -0.5545
 5814SOL    HW228902   0.776   3.752   8.279 -0.3083 -0.2030 -0.6208
 5815SOL     OW28903   0.770   0.604  12.432  0.2338  0.5434 -0.2266
 5815SOL    HW128904   0.754   0.698  12.428  3.5556  1.1191  0.3769
 5815SOL    HW228905   0.859   0.613  12.464  0.6777 -0.1847 -1.2464
 5816SOL     OW28906   4.178   4.545   2.292  0.4560  0.0498  0.5592
 5816SOL    HW128907   4.100   4.503   2.328 -0.6375 -0.2771 -2.2527
 5816SOL    HW228908   4.197   4.504   2.208 -0.0674  2.3331 -0.6504
 5817SOL     OW28909   4.316   4.053  11.908  0.3092 -0.6064 -0.6521
 5817SOL    HW128910   4.382   4.064  11.840 -0.7124 -0.0328 -1.5419
 5817SOL    HW228911   4.372   4.061  11.986  0.3392  0.4031 -0.7792
 5818SOL     OW28912   3.471   2.345  13.762  0.2983  0.0726 -0.3799
 5818SOL    HW128913   3.452   2.259  13.800 -2.3539  1.4321  1.3846
 5818SOL    HW228914   3.436   2.345  13.673 -2.0681  1.2492  0.5533
 5819SOL     OW28915   1.147   3.470   6.003 -0.1226  0.0878  0.2709
 5819SOL    HW128916   1.093   3.425   5.938  2.7624 -3.0979  0.0920
 5819SOL    HW228917   1.128   3.417   6.080  0.2347  0.0549  0.3354
 5820SOL     OW28918   4.137   1.702  11.974 -0.1619  0.0270 -0.1159
 5820SOL    HW128919   4.081   1.651  11.915  0.2317  2.1174 -2.2645
 5820SOL    HW228920   4.076   1.769  12.005  0.7917  1.6688 -1.7755
 5821SOL     OW28921   1.257   1.571  10.652  0.5599  0.4423 -0.2320
 5821SOL    HW128922   1.236   1.528  10.569  0.7641 -0.3915  0.1439
 5821SOL    HW228923   1.352   1.587  10.650  0.5937  0.2802  0.0859
 5822SOL     OW28924   1.538   4.483   3.588 -0.0211 -0.7329  0.4544
 5822SOL    HW128925   1.578   4.423   3.524  0.2283  0.3942 -0.4491
 5822SOL    HW228926   1.584   4.460   3.669 -0.4003 -1.1238  0.5612
 5823SOL     OW28927   1.570   1.390  11.482 -0.3324 -0.0524  0.2161
 5823SOL    HW128928   1.495   1.388  11.422 -2.1345  0.5265  2.4437
 5823SOL    HW228929   1.558   1.480  11.512 -2.0609 -0.0237 -0.5485
 5824SOL     OW28930   1.951   2.090  15.164 -0.1859  0.6162 -0.0872
 5824SOL    HW128931   1.890   2.020  15.186 -0.1537  0.0959 -1.6173
 5824SOL    HW228932   1.917   2.160  15.220 -2.6451 -0.2639 -0.4693
 5825SOL     OW28933   3.212   0.205   5.186  0.8994  0.1842 -0.3813
 5825SOL    HW128934   3.146   0.187   5.119  0.0858  4.0335 -0.6447
 5825SOL    HW228935   3.240   0.293   5.163 -0.8595  0.7649 -0.3503
 5826SOL     OW28936   2.051   3.820   6.405 -0.9071 -0.2025  0.0182
 5826SOL    HW128937   2.079   3.780   6.487 -2.9295 -1.1349  0.2600
 5826SOL    HW228938   2.134   3.823   6.358  0.3418  2.0669  2.3394
 5827SOL     OW28939   0.552   2.845   3.439  0.0650  0.2806  0.6003
 5827SOL    HW128940   0.524   2.936   3.443  0.5395  0.4537  0.0581
 5827SOL    HW228941   0.500   2.798   3.504  0.7523 -0.1810  0.8153
 5828SOL     OW28942   3.290   3.121   4.065 -0.7533  0.1135  0.1269
 5828SOL    HW128943   3.369   3.176   4.070 -0.2184 -0.5194 -1.3521
 5828SOL    HW228944   3.314   3.039   4.109  1.9157 -0.1309 -1.7848
 5829SOL     OW28945   2.293   0.339   8.074  0.0627  0.0097 -0.5518
 5829SOL    HW128946   2.321   0.430   8.066  0.2783  0.0445  0.5618
 5829SOL    HW228947   2.376   0.300   8.047 -0.5719 -1.4209 -0.4586
 5830SOL     OW28948   0.574   3.851   7.551  0.2529 -0.0833  0.0153
 5830SOL    HW128949   0.574   3.824   7.643 -0.8633 -0.5687 -0.1349
 5830SOL    HW228950   0.574   3.767   7.505 -3.0393 -0.5730  0.9649
 5831SOL     OW28951   2.706   0.227   9.115  0.1601  0.0192 -0.1581
 5831SOL    HW128952   2.779   0.169   9.135  0.8914  0.0069 -2.8557
 5831SOL    HW228953   2.685   0.193   9.028  1.2736 -0.8972 -0.0626
 5832SOL     OW28954   2.644   2.648   7.820  0.5534 -0.5717  0.1430
 5832SOL    HW128955   2.737   2.664   7.805  0.0686  1.6247 -0.5300
 5832SOL    HW228956   2.624   2.560   7.787 -0.3127  0.4921 -2.1309
 5833SOL     OW28957   0.605   4.339   6.249 -0.0357  0.8104  0.1736
 5833SOL    HW128958   0.533   4.352   6.311  0.8959 -1.5847  1.7839
 5833SOL    HW228959   0.627   4.429   6.228 -3.0021  1.4055 -0.4921
 5834SOL     OW28960   2.029   2.958   7.780 -0.8948  0.0671 -0.0373
 5834SOL    HW128961   2.029   2.876   7.732  2.5825 -0.6117  1.1170
 5834SOL    HW228962   1.979   3.020   7.726  0.1450  1.5530  0.7008
 5835SOL     OW28963   1.779   0.010   0.122  0.3578  0.0769 -0.1693
 5835SOL    HW128964   1.795   4.662   0.061 -2.2172 -0.1517 -0.5625
 5835SOL    HW228965   1.770   4.679   0.200  3.5060 -1.4222 -0.8435
 5836SOL     OW28966   3.716   2.859   8.150 -0.1498 -0.0671  0.3540
 5836SOL    HW128967   3.716   2.781   8.206  0.0284  0.0033  0.4523
 5836SOL    HW228968   3.697   2.926   8.216 -0.2301  1.4880 -1.2591
 5837SOL     OW28969   1.923   2.971   7.453  0.7466  0.2176  0.5766
 5837SOL    HW128970   1.987   2.954   7.384  1.9085 -0.5284  1.8594
 5837SOL    HW228971   1.918   2.889   7.502 -1.5636  0.8436  1.4050
 5838SOL     OW28972   2.912   4.384   5.440 -0.0905  0.0944  0.1508
 5838SOL    HW128973   2.822   4.372   5.470  0.1243 -0.8415  0.4072
 5838SOL    HW228974   2.896   4.424   5.354  1.3828  0.3046 -0.0127
 5839SOL     OW28975   3.070   2.669  16.422  0.2877 -0.4806  0.4004
 5839SOL    HW128976   3.101   2.584  16.451 -0.4151 -1.9038 -3.0844
 5839SOL    HW228977   3.052   2.648  16.331 -0.5196  0.9405  0.2232
 5840SOL     OW28978   0.130   2.093   7.628 -0.7179 -0.1777 -0.2032
 5840SOL    HW128979   0.184   2.141   7.691 -2.2231 -0.4404  1.2709
 5840SOL    HW228980   0.207   2.047   7.594  0.0676  0.8439  0.1805
 5841SOL     OW28981   1.115   2.148  15.353 -0.2001  0.3415 -0.4155
 5841SOL    HW128982   1.152   2.144  15.265 -0.3074 -1.3750 -0.3884
 5841SOL    HW228983   1.193   2.175  15.402 -0.9944 -0.7836  1.5002
 5842SOL     OW28984   2.559   3.054   4.483 -0.2773 -0.2060 -0.4653
 5842SOL    HW128985   2.579   3.061   4.390 -0.7486  0.1190 -0.5455
 5842SOL    HW228986   2.488   3.117   4.493  0.9461  1.3538 -1.7073
 5843SOL     OW28987   0.496   1.707   1.082  0.2959  0.0858 -0.3158
 5843SOL    HW128988   0.565   1.740   1.025  1.7949 -0.7874  0.9873
 5843SOL    HW228989   0.440   1.784   1.093 -0.3795 -0.2981 -1.1206
 5844SOL     OW28990   2.736   1.631  16.492 -0.5828 -0.2878  0.3419
 5844SOL    HW128991   2.768   1.666  16.576 -0.9514 -0.7511  0.6729
 5844SOL    HW228992   2.737   1.713  16.442 -1.8597 -0.2869  0.3312
 5845SOL     OW28993   3.926   3.991   6.544  0.4008  0.2796  0.2252
 5845SOL    HW128994   3.866   3.919   6.561  0.8799 -0.5325 -1.5356
 5845SOL    HW228995   3.915   3.992   6.449 -1.7820  1.4086  0.4803
 5846SOL     OW28996   2.020   1.792  12.374 -0.3065  0.2193  0.4484
 5846SOL    HW128997   1.943   1.777  12.320  0.7968  1.8515 -1.5781
 5846SOL    HW228998   2.091   1.774  12.313  1.0099  1.1412  1.6898
 5847SOL     OW28999   0.571   1.457   4.491 -0.1087 -0.7002  0.3255
 5847SOL    HW129000   0.544   1.368   4.471 -0.3953 -0.7996  1.1447
 5847SOL    HW229001   0.599   1.442   4.582 -1.4197  0.2637  0.9005
 5848SOL     OW29002   3.367   2.710   3.752 -0.0228  0.3942 -0.3221
 5848SOL    HW129003   3.375   2.664   3.836  0.5029  2.1500  0.5813
 5848SOL    HW229004   3.305   2.652   3.708  0.2735 -0.1008 -0.1048
 5849SOL     OW29005   3.909   2.063   4.477 -0.2463 -0.5020 -0.5121
 5849SOL    HW129006   3.968   2.090   4.407 -0.0380 -1.8498 -0.8550
 5849SOL    HW229007   3.923   2.136   4.538 -0.8450 -1.1480  0.3932
 5850SOL     OW29008   0.056   2.521   5.036  0.1466 -0.4987  0.0184
 5850SOL    HW129009   0.110   2.448   5.005 -1.9448 -2.0985  0.1323
 5850SOL    HW229010   4.702   2.515   4.979 -0.0644  0.7360  0.1852
 5851SOL     OW29011   0.022   1.860   4.452  0.2184 -0.2125  0.1195
 5851SOL    HW129012   4.657   1.878   4.484  0.9349 -1.2014  2.6436
 5851SOL    HW229013   4.716   1.792   4.390  0.3014  0.1690 -0.3407
 5852SOL     OW29014   0.892   1.906   1.362 -0.1290  0.7471 -0.0894
 5852SOL    HW129015   0.898   1.876   1.452  1.0464 -0.0331 -0.4290
 5852SOL    HW229016   0.979   1.944   1.357 -0.5892  1.9462  1.1579
 5853SOL     OW29017   0.935   1.268  15.639 -0.1687  0.1650  0.4448
 5853SOL    HW129018   0.934   1.354  15.680  1.0745  0.0694  0.6729
 5853SOL    HW229019   0.908   1.218  15.716 -0.0936 -0.2786  0.1857
 5854SOL     OW29020   1.443   0.783   7.140  0.0049  0.6931  0.5882
 5854SOL    HW129021   1.517   0.722   7.142 -0.5427 -0.0283 -1.3763
 5854SOL    HW229022   1.370   0.726   7.118  1.1765 -0.5445 -0.0689
 5855SOL     OW29023   1.997   2.565  12.331 -0.1466  0.2050  0.1669
 5855SOL    HW129024   2.020   2.483  12.373 -1.1804 -0.5567 -0.7320
 5855SOL    HW229025   1.933   2.604  12.391  1.0880  3.1895 -0.4356
 5856SOL     OW29026   0.536   4.329  13.386  0.0782  0.1708 -0.4543
 5856SOL    HW129027   0.628   4.342  13.364  0.2382 -0.7878 -0.3357
 5856SOL    HW229028   0.535   4.310  13.480  2.0040  0.4205 -0.3933
 5857SOL     OW29029   3.144   0.784  13.870 -0.0049  0.1031  0.0451
 5857SOL    HW129030   3.140   0.808  13.963 -0.2143  0.5420 -0.0750
 5857SOL    HW229031   3.224   0.732  13.870 -0.8806 -1.2516  0.9977
 5858SOL     OW29032   1.285   2.684   5.040 -0.0999  0.2253 -0.1703
 5858SOL    HW129033   1.329   2.766   5.059  1.2653 -0.5806  0.1457
 5858SOL    HW229034   1.204   2.703   4.993  0.7413  0.9239 -1.3294
 5859SOL     OW29035   0.475   1.783   9.098  0.4864 -0.3639  0.3540
 5859SOL    HW129036   0.568   1.769   9.117  0.8482 -0.3375 -1.4372
 5859SOL    HW229037   0.426   1.753   9.174 -1.2218  0.0041 -0.6052
 5860SOL     OW29038   1.470   4.601   7.826  0.1845 -0.1288 -0.3194
 5860SOL    HW129039   1.426   4.518   7.846  1.6780 -0.5320  1.3736
 5860SOL    HW229040   1.399   4.645   7.780 -1.3610 -0.4890  1.6754
 5861SOL     OW29041   3.782   3.634  13.164  0.1670 -0.3254 -0.7701
 5861SOL    HW129042   3.733   3.552  13.161 -0.0177 -0.2685  0.5009
 5861SOL    HW229043   3.711   3.695  13.183  0.6267  0.2681 -0.9642
 5862SOL     OW29044   3.088   0.550   0.093 -0.3974  1.2940 -0.4878
 5862SOL    HW129045   3.082   0.626   0.036 -0.9179  1.3208 -0.3937
 5862SOL    HW229046   3.184   0.543   0.099 -0.5676 -0.6647 -0.0666
 5863SOL     OW29047   1.017   3.729  13.921 -1.0682  0.0813  0.0926
 5863SOL    HW129048   1.113   3.739  13.916 -1.0390 -0.3838 -0.2828
 5863SOL    HW229049   0.991   3.747  14.012  0.1059  0.5759  0.3341
 5864SOL     OW29050   3.951   0.889   6.492  0.2205 -0.4364 -0.1432
 5864SOL    HW129051   3.986   0.834   6.562  1.3780  0.9680  0.4028
 5864SOL    HW229052   3.921   0.964   6.544  1.4706  0.9235 -1.3441
 5865SOL     OW29053   4.555   4.446   9.203 -0.0254 -0.4658 -0.2282
 5865SOL    HW129054   4.537   4.394   9.282  0.4579  1.2105  0.9881
 5865SOL    HW229055   4.579   4.376   9.142 -3.8522 -2.0093 -0.0084
 5866SOL     OW29056   3.963   2.975   0.038  0.3722  0.1190  0.1895
 5866SOL    HW129057   3.879   3.017   0.058  0.5078  0.8479 -0.7578
 5866SOL    HW229058   3.939   2.884   0.056  0.3970 -0.0893 -0.8206
 5867SOL     OW29059   3.502   3.951  15.892 -0.2759  1.4120  0.0895
 5867SOL    HW129060   3.472   4.037  15.919  1.2575  1.6828  0.9454
 5867SOL    HW229061   3.438   3.888  15.925  0.8413 -0.3730 -1.1152
 5868SOL     OW29062   4.218   4.316   5.587  0.4510 -0.1611  0.2402
 5868SOL    HW129063   4.133   4.358   5.573  2.0576  3.4041  1.0598
 5868SOL    HW229064   4.274   4.388   5.618 -0.7615  0.0056  2.0087
 5869SOL     OW29065   3.529   2.589  10.788 -0.6683  0.1832 -0.2746
 5869SOL    HW129066   3.452   2.552  10.831 -1.1714  0.7881 -0.6653
 5869SOL    HW229067   3.591   2.550  10.850 -1.6698 -2.4184 -0.9195
 5870SOL     OW29068   3.172   0.184   8.980  0.1536 -0.3647 -0.3875
 5870SOL    HW129069   3.241   0.246   9.002 -0.5283  0.9553 -1.9925
 5870SOL    HW229070   3.125   0.238   8.917 -0.0977  0.8940  0.8848
 5871SOL     OW29071   2.162   3.854   4.406 -0.9868  0.1403 -0.1317
 5871SOL    HW129072   2.230   3.869   4.340 -2.2392  1.9081 -1.0044
 5871SOL    HW229073   2.209   3.882   4.485 -1.7105  1.8849 -0.3168
 5872SOL     OW29074   1.234   0.896   0.939 -0.0285  0.0231  0.2641
 5872SOL    HW129075   1.283   0.845   1.003 -0.1727 -1.7611 -1.0452
 5872SOL    HW229076   1.149   0.851   0.945  0.8148 -1.3074  2.0753
 5873SOL     OW29077   1.055   4.719   5.205 -0.2857  0.4754 -0.0988
 5873SOL    HW129078   0.972   4.704   5.251  0.1559  1.0920  0.9129
 5873SOL    HW229079   1.039   4.703   5.112 -2.8975 -1.3396  0.6586
 5874SOL     OW29080   0.056   2.834  10.410 -0.0241 -0.1359 -0.3381
 5874SOL    HW129081   0.148   2.824  10.388  0.2305 -1.9769  1.6166
 5874SOL    HW229082   0.048   2.751  10.457  0.5539  0.5811  1.0281
 5875SOL     OW29083   2.301   3.454   9.661  0.2927 -0.2093 -0.9338
 5875SOL    HW129084   2.379   3.453   9.605  2.0936  2.1713  1.5176
 5875SOL    HW229085   2.330   3.387   9.724  1.4261  0.2327 -0.9934
 5876SOL     OW29086   3.262   1.410  12.022  0.0257 -0.3674 -0.1558
 5876SOL    HW129087   3.224   1.435  12.106 -2.1928  1.0616 -1.5675
 5876SOL    HW229088   3.181   1.416  11.971  0.5763  2.0243 -0.7550
 5877SOL     OW29089   1.633   3.284  16.007 -0.2444 -0.4275 -0.0779
 5877SOL    HW129090   1.580   3.317  16.079 -1.3696 -1.2553 -0.5394
 5877SOL    HW229091   1.665   3.368  15.973  0.5776 -0.6057  0.2509
 5878SOL     OW29092   2.225   4.058   8.745  0.2971 -0.1027 -0.5003
 5878SOL    HW129093   2.271   4.095   8.820 -0.3385  0.6288 -0.4644
 5878SOL    HW229094   2.186   3.981   8.788 -1.1346  0.9965  0.1774
 5879SOL     OW29095   2.126   1.714   9.705  0.1717  0.2381 -0.3692
 5879SOL    HW129096   2.077   1.683   9.782 -3.4743  0.5522 -2.5411
 5879SOL    HW229097   2.154   1.803   9.724 -3.7683  1.5358 -0.6270
 5880SOL     OW29098   3.019   1.725   2.368  0.0410  0.7747 -0.2832
 5880SOL    HW129099   2.957   1.783   2.413  1.4492  1.6359  0.5610
 5880SOL    HW229100   3.095   1.727   2.426  0.3777  0.3273 -0.7149
 5881SOL     OW29101   4.530   3.688   7.821  0.2621 -0.0543  0.5102
 5881SOL    HW129102   4.476   3.762   7.791  0.2268 -0.4480 -0.4012
 5881SOL    HW229103   4.536   3.712   7.913 -1.9301  0.1823  0.5889
 5882SOL     OW29104   2.232   3.829   2.506 -0.1319 -0.3521 -0.0450
 5882SOL    HW129105   2.263   3.886   2.576  0.6137 -1.6625  0.6820
 5882SOL    HW229106   2.304   3.766   2.504 -0.2248 -0.3897 -1.7232
 5883SOL     OW29107   2.906   4.482   5.768 -0.7552 -0.5159 -0.9231
 5883SOL    HW129108   2.946   4.562   5.735  0.2173 -0.4034  0.5092
 5883SOL    HW229109   2.852   4.442   5.700 -1.4464 -1.2179  0.0170
 5884SOL     OW29110   1.982   4.198   8.000 -0.0384  0.2072  0.3240
 5884SOL    HW129111   2.042   4.244   8.059 -1.7585  0.9528  1.5099
 5884SOL    HW229112   1.907   4.255   8.019 -0.7332 -0.2907 -0.8776
 5885SOL     OW29113   1.649   1.843  12.588 -0.5638  0.0982  0.0417
 5885SOL    HW129114   1.611   1.872  12.505 -2.0290 -0.1690  0.6195
 5885SOL    HW229115   1.645   1.926  12.636 -0.2434  0.8041 -1.1571
 5886SOL     OW29116   0.321   1.763   5.613  0.3976  0.1479  0.1587
 5886SOL    HW129117   0.328   1.819   5.535  1.6511 -0.8223 -0.4191
 5886SOL    HW229118   0.391   1.800   5.666 -0.9136  0.7902  1.4653
 5887SOL     OW29119   2.027   1.629   4.052 -0.6709  0.5127 -0.2222
 5887SOL    HW129120   1.976   1.683   4.112 -1.2985  1.8799 -1.9771
 5887SOL    HW229121   1.954   1.593   4.002 -0.7906 -0.1435  0.4299
 5888SOL     OW29122   0.809   2.431   6.942  0.1265 -0.4326  1.0341
 5888SOL    HW129123   0.721   2.468   6.936 -0.6828 -2.0423  3.3216
 5888SOL    HW229124   0.822   2.432   7.037 -0.7526  1.1441  1.1364
 5889SOL     OW29125   1.547   1.305  12.278 -0.3937  0.0615 -0.8431
 5889SOL    HW129126   1.468   1.357  12.263 -0.4059  0.6067  1.1786
 5889SOL    HW229127   1.553   1.252  12.198 -2.1837 -0.2854 -0.7542
 5890SOL     OW29128   0.619   4.055   1.660 -0.6265  0.2045  0.1937
 5890SOL    HW129129   0.528   4.081   1.667 -0.7521  0.1008 -0.9631
 5890SOL    HW229130   0.617   3.982   1.597 -1.1575  0.0944  0.3411
 5891SOL     OW29131   1.045   4.068   7.805 -0.3321  0.5702 -0.2349
 5891SOL    HW129132   1.123   4.041   7.854  0.5617  0.4627 -1.7138
 5891SOL    HW229133   1.054   4.157   7.839  1.8004  0.6617 -0.9864
 5892SOL     OW29134   0.650   4.441   8.126  0.0306 -0.0018  0.5869
 5892SOL    HW129135   0.590   4.515   8.127 -0.2514 -0.2427  1.8334
 5892SOL    HW229136   0.663   4.415   8.035  0.5311  1.4121  0.2666
 5893SOL     OW29137   0.969   4.652   7.880  0.0378 -0.0342 -0.0782
 5893SOL    HW129138   1.059   4.649   7.848 -1.0297 -1.1015 -2.9207
 5893SOL    HW229139   0.986   4.611   7.965 -1.0207  1.1068  0.6957
 5894SOL     OW29140   4.488   2.099  10.811  0.0099  0.6467  0.1389
 5894SOL    HW129141   4.396   2.116  10.789  0.3290  0.3565 -1.3683
 5894SOL    HW229142   4.522   2.182  10.845  0.7030 -0.3357  1.8706
 5895SOL     OW29143   3.943   0.214   2.417 -0.1495 -0.4281  0.1153
 5895SOL    HW129144   3.892   0.276   2.365  0.9075  0.4378  0.1239
 5895SOL    HW229145   3.885   0.146   2.382 -1.4285  1.3245 -1.1800
 5896SOL     OW29146   3.826   3.439  11.087 -0.1006 -1.0556  0.3794
 5896SOL    HW129147   3.761   3.441  11.016 -1.2858 -0.3123  1.4969
 5896SOL    HW229148   3.771   3.459  11.163 -0.7292  0.0950 -0.3785
 5897SOL     OW29149   1.806   0.980   9.610  0.4902 -0.4598 -0.2003
 5897SOL    HW129150   1.843   1.067   9.617 -0.3483 -0.0863 -0.4342
 5897SOL    HW229151   1.840   0.951   9.695  0.5007  1.1027  0.3141
 5898SOL     OW29152   2.760   1.920   3.970  1.0254  0.0531 -0.0559
 5898SOL    HW129153   2.832   1.971   4.006  0.0759  1.7990 -0.6719
 5898SOL    HW229154   2.721   1.979   3.905  0.1343  0.2848  0.6942
 5899SOL     OW29155   4.510   1.676   2.732  0.0076  0.5789 -0.5099
 5899SOL    HW129156   4.421   1.686   2.699 -0.0235 -1.3132 -1.0172
 5899SOL    HW229157   4.563   1.673   2.652 -1.2533 -3.7599 -1.1899
 5900SOL     OW29158   4.225   0.250  13.538  0.0158  0.0043 -0.5560
 5900SOL    HW129159   4.137   0.264  13.573 -0.4942  1.2370 -2.3674
 5900SOL    HW229160   4.240   0.156  13.552 -1.5697  0.0224  1.2592
 5901SOL     OW29161   4.394   1.547  15.977 -0.0059  0.1169  0.2217
 5901SOL    HW129162   4.364   1.489  16.047  0.2061  2.1011  1.9777
 5901SOL    HW229163   4.331   1.537  15.906 -0.1528  2.3132  0.0464
 5902SOL     OW29164   0.611   1.185   6.192 -0.2353  0.2026 -0.2729
 5902SOL    HW129165   0.549   1.158   6.260  2.1107 -1.3715  1.2464
 5902SOL    HW229166   0.557   1.187   6.113 -0.9278  1.9314  0.2376
 5903SOL     OW29167   1.902   3.660   1.562 -0.5741  0.4447  0.0679
 5903SOL    HW129168   1.950   3.733   1.523  1.5587 -0.8598  0.3037
 5903SOL    HW229169   1.812   3.668   1.530  0.3894  0.9576 -2.5291
 5904SOL     OW29170   2.112   2.405   4.357  0.1986  0.2471 -0.0819
 5904SOL    HW129171   2.030   2.359   4.338  0.1169  0.8940 -1.2970
 5904SOL    HW229172   2.180   2.339   4.343 -1.6051 -1.4305 -0.7609
 5905SOL     OW29173   0.583   4.661   8.706 -0.0059  0.2569  0.0121
 5905SOL    HW129174   0.553   4.667   8.796  0.2229  0.2399  0.0881
 5905SOL    HW229175   0.672   4.625   8.705  0.6265  1.7782  1.4622
 5906SOL     OW29176   4.283   2.561  16.925 -0.4888 -0.2560  0.1697
 5906SOL    HW129177   4.217   2.493  16.938 -1.0714  0.0346 -1.2320
 5906SOL    HW229178   4.230   2.640  16.916 -1.4006 -0.9304 -0.3680
 5907SOL     OW29179   4.084   3.464  10.281  0.5368 -0.0188  0.0319
 5907SOL    HW129180   3.998   3.470  10.322  0.4275 -2.4934  0.1878
 5907SOL    HW229181   4.097   3.369  10.272 -1.4439 -0.3281  0.5406
 5908SOL     OW29182   2.644   2.884  11.851  0.1220 -0.2503 -0.3918
 5908SOL    HW129183   2.706   2.952  11.881 -0.3951  0.1257 -0.1737
 5908SOL    HW229184   2.651   2.823  11.924  0.2568  2.2074  1.6752
 5909SOL     OW29185   4.598   3.651   3.879 -0.1291 -1.2662 -0.3873
 5909SOL    HW129186   4.607   3.746   3.886  0.5605 -1.5074  2.0274
 5909SOL    HW229187   4.664   3.620   3.941  0.3596 -0.0411 -0.3016
 5910SOL     OW29188   0.415   3.118  12.408  0.3826  0.1015  0.0798
 5910SOL    HW129189   0.452   3.073  12.484 -0.9738  2.2100  2.0234
 5910SOL    HW229190   0.327   3.147  12.433 -0.3985 -2.1605 -0.1389
 5911SOL     OW29191   1.315   1.627   0.861 -0.1362  0.1467 -0.4458
 5911SOL    HW129192   1.286   1.596   0.775 -0.6161 -0.9539  0.1038
 5911SOL    HW229193   1.231   1.623   0.906 -0.7039  0.2949 -1.4967
 5912SOL     OW29194   1.881   2.540   0.411 -0.2019 -0.3744  0.3198
 5912SOL    HW129195   1.809   2.480   0.390  1.3412 -1.0987 -2.8792
 5912SOL    HW229196   1.871   2.595   0.333 -0.9917 -1.6071 -0.4355
 5913SOL     OW29197   0.227   3.402   2.984  0.1780  0.0952 -0.1381
 5913SOL    HW129198   0.136   3.403   2.955  0.0936  1.6603  0.1861
 5913SOL    HW229199   0.274   3.450   2.917 -0.9721 -0.0738 -1.0745
 5914SOL     OW29200   1.510   0.651  15.890  0.2692 -0.3160 -0.3422
 5914SOL    HW129201   1.498   0.726  15.950 -1.1769 -0.9316  0.1165
 5914SOL    HW229202   1.506   0.690  15.803  1.1001  1.0061  0.2085
 5915SOL     OW29203   1.540   4.024   4.521 -0.3692  0.0222  0.3646
 5915SOL    HW129204   1.569   4.084   4.452  0.3578 -1.7281 -0.8536
 5915SOL    HW229205   1.462   4.075   4.545  0.8286  1.8164  0.4153
 5916SOL     OW29206   2.012   1.174   2.539  0.3522  0.4268 -0.3676
 5916SOL    HW129207   1.966   1.091   2.555  2.1400 -0.3064  1.0310
 5916SOL    HW229208   2.041   1.189   2.629  2.1281 -3.2022 -0.3070
 5917SOL     OW29209   2.374   3.125  10.535  0.2009 -0.1756 -0.1027
 5917SOL    HW129210   2.456   3.118  10.583  0.0829 -0.4892  0.0569
 5917SOL    HW229211   2.333   3.058  10.590 -1.1490 -0.4045 -1.3631
 5918SOL     OW29212   0.489   1.726   2.801  0.5280 -0.0929 -0.4346
 5918SOL    HW129213   0.394   1.731   2.804  0.6900  2.6621 -0.0458
 5918SOL    HW229214   0.505   1.633   2.820  0.0593 -0.4138 -1.5998
 5919SOL     OW29215   3.757   1.918   8.868  0.1814  0.2618 -0.6300
 5919SOL    HW129216   3.818   1.847   8.884  0.4465  1.1520  2.3886
 5919SOL    HW229217   3.696   1.878   8.806  1.1723  0.5340 -1.7718
 5920SOL     OW29218   1.467   2.083   4.113  0.0415  0.2381 -1.1420
 5920SOL    HW129219   1.403   2.145   4.148  1.5187  2.2081 -1.9228
 5920SOL    HW229220   1.425   2.003   4.142  1.2007 -0.3220 -1.0090
 5921SOL     OW29221   3.712   2.230   4.686  0.2064  0.1346 -0.1642
 5921SOL    HW129222   3.710   2.196   4.775  1.2824  1.3217  0.3105
 5921SOL    HW229223   3.803   2.257   4.678  0.5960 -0.9042  0.8381
 5922SOL     OW29224   0.038   4.213   6.203  0.6032  0.2352 -0.2607
 5922SOL    HW129225   4.700   4.202   6.276  0.2718 -1.3527 -0.7796
 5922SOL    HW229226   0.101   4.149   6.235 -0.2683 -0.5706 -0.1675
 5923SOL     OW29227   4.327   2.660   4.527 -0.1944 -0.8446 -0.2788
 5923SOL    HW129228   4.342   2.592   4.461  0.2279 -1.7930  0.7963
 5923SOL    HW229229   4.280   2.723   4.473 -0.1142 -1.1877 -0.7511
 5924SOL     OW29230   3.327   2.438   5.889  0.5285 -1.0042 -0.2252
 5924SOL    HW129231   3.408   2.422   5.842  1.3928 -2.0455  1.6289
 5924SOL    HW229232   3.348   2.440   5.983 -1.6968  1.6866  0.2342
 5925SOL     OW29233   2.410   0.191   9.948 -0.1218 -0.7267 -0.4599
 5925SOL    HW129234   2.494   0.216   9.984  0.2285 -0.4072 -1.4891
 5925SOL    HW229235   2.347   0.217  10.015  1.9500  1.0227  0.7891
 5926SOL     OW29236   4.186   4.410   9.610  0.1200  0.1590 -0.4246
 5926SOL    HW129237   4.138   4.404   9.692  1.4987  0.9611  0.4436
 5926SOL    HW229238   4.212   4.321   9.586 -2.6336 -1.4971  2.8052
 5927SOL     OW29239   1.721   3.602  14.324 -0.4441  1.0229  0.8949
 5927SOL    HW129240   1.660   3.629  14.255 -0.4484 -0.9197  0.1249
 5927SOL    HW229241   1.663   3.541  14.370 -0.3473  1.3159  1.3995
 5928SOL     OW29242   2.284   2.137   1.543  0.7374 -0.3808 -0.5355
 5928SOL    HW129243   2.226   2.061   1.549 -1.1988  1.1517  0.0763
 5928SOL    HW229244   2.288   2.174   1.631 -3.0047 -0.1814 -0.4311
 5929SOL     OW29245   4.351   2.160   2.644  0.4666  0.7258  0.1728
 5929SOL    HW129246   4.332   2.191   2.556 -1.5105 -0.3729  0.2125
 5929SOL    HW229247   4.264   2.175   2.682  0.3379  0.8922 -0.1853
 5930SOL     OW29248   1.826   2.694   1.445 -0.6187 -0.0134 -0.1888
 5930SOL    HW129249   1.827   2.605   1.480 -0.8355  1.0689  2.5728
 5930SOL    HW229250   1.757   2.733   1.499 -0.8537  1.3046 -1.4628
 5931SOL     OW29251   0.385   1.257   5.624 -0.1727  0.1599 -0.0546
 5931SOL    HW129252   0.297   1.292   5.636 -0.3826 -0.2913 -0.3046
 5931SOL    HW229253   0.362   1.164   5.623 -2.4832  0.7322  0.2188
 5932SOL     OW29254   0.370   1.962  11.331  0.0163  0.1171  0.3081
 5932SOL    HW129255   0.353   2.054  11.351 -1.0263 -0.1383  0.5858
 5932SOL    HW229256   0.368   1.925  11.419  1.3675  1.6231  0.9611
 5933SOL     OW29257   0.101   0.874  13.825  0.3771 -0.0170  0.0343
 5933SOL    HW129258   0.024   0.818  13.814  0.4183  0.1180 -0.9254
 5933SOL    HW229259   0.048   0.954  13.821 -0.2933 -0.4743 -0.1805
 5934SOL     OW29260   1.523   1.069   7.595 -0.3105 -0.1018  0.5699
 5934SOL    HW129261   1.516   1.034   7.506 -2.0422 -0.3518  0.8079
 5934SOL    HW229262   1.508   0.990   7.647  0.3280 -0.7248 -0.1820
 5935SOL     OW29263   3.207   1.932   7.504  0.2245 -0.5126 -0.2415
 5935SOL    HW129264   3.132   1.978   7.467  0.2120  0.5342  1.1005
 5935SOL    HW229265   3.244   1.897   7.423  1.1346 -0.5825  0.2068
 5936SOL     OW29266   1.476   1.240  15.950 -0.3860  0.1252  0.2280
 5936SOL    HW129267   1.433   1.323  15.969  0.4342 -0.2346  3.6778
 5936SOL    HW229268   1.560   1.246  15.997  0.8526 -0.7412 -1.8573
 5937SOL     OW29269   0.945   4.552   9.197 -0.3453 -0.9892 -0.6432
 5937SOL    HW129270   0.895   4.471   9.201 -0.0666 -1.2131 -1.6608
 5937SOL    HW229271   0.996   4.540   9.277 -0.5001  0.7452 -0.2723
 5938SOL     OW29272   4.041   0.598  11.535  0.1993  0.3111  0.0900
 5938SOL    HW129273   4.052   0.693  11.527 -3.1494  0.7285  0.4006
 5938SOL    HW229274   4.098   0.563  11.466  0.5366 -1.4866  1.2795
 5939SOL     OW29275   2.578   3.331   3.930  0.3161 -0.1652  0.3934
 5939SOL    HW129276   2.644   3.401   3.932 -2.0437  2.1400 -1.7471
 5939SOL    HW229277   2.613   3.263   3.987  1.3934  1.3294  1.5285
 5940SOL     OW29278   0.771   3.558   9.261  0.1622  0.0515  0.4869
 5940SOL    HW129279   0.725   3.545   9.178  1.1578 -2.2959  0.3010
 5940SOL    HW229280   0.713   3.514   9.322  0.1384 -1.6727 -0.7703
 5941SOL     OW29281   4.040   4.462   7.682 -0.8083 -0.0194  0.5496
 5941SOL    HW129282   4.031   4.538   7.740  2.1938 -0.0421  1.0392
 5941SOL    HW229283   4.097   4.510   7.622  1.6158 -0.7594  2.2634
 5942SOL     OW29284   1.424   0.005   3.003  0.5778 -0.0950  0.1812
 5942SOL    HW129285   1.393   4.664   2.940  1.0221  1.2808 -1.4465
 5942SOL    HW229286   1.491   4.681   3.052  1.1180  0.5419  0.0570
 5943SOL     OW29287   4.142   3.276   5.941 -0.1257  0.5730 -0.2655
 5943SOL    HW129288   4.051   3.253   5.958  0.5747 -2.5896 -0.7663
 5943SOL    HW229289   4.186   3.198   5.973 -1.4748  0.1384  0.5457
 5944SOL     OW29290   1.254   2.035  14.957  0.2260  0.1446  0.2551
 5944SOL    HW129291   1.269   2.126  14.985 -1.5140  0.4317  0.2608
 5944SOL    HW229292   1.185   2.041  14.891  0.6420 -0.5927 -0.2472
 5945SOL     OW29293   1.004   4.704   4.509  0.5845  0.5433 -0.1470
 5945SOL    HW129294   0.921   4.704   4.557 -0.0769 -0.6650 -1.2775
 5945SOL    HW229295   0.979   0.004   4.420 -4.0104 -2.4194  0.3171
 5946SOL     OW29296   2.080   0.835   7.430  0.0272  0.0461 -0.2377
 5946SOL    HW129297   2.164   0.805   7.464 -0.2848 -1.1909 -0.5856
 5946SOL    HW229298   2.101   0.911   7.376 -0.6657  0.0846 -0.4484
 5947SOL     OW29299   3.717   3.270   3.688  0.0097  0.0053 -0.6246
 5947SOL    HW129300   3.737   3.353   3.645  0.7040 -0.1872 -0.6798
 5947SOL    HW229301   3.783   3.268   3.757  0.3038 -2.5459 -0.9967
 5948SOL     OW29302   0.187   3.876   4.450  0.3107  0.2532 -0.0315
 5948SOL    HW129303   0.145   3.942   4.506 -0.9111 -0.0363 -0.6219
 5948SOL    HW229304   0.255   3.928   4.406 -1.0354  1.9246 -0.1629
 5949SOL     OW29305   2.625   3.165   2.482 -0.3364  0.0169 -0.1479
 5949SOL    HW129306   2.706   3.119   2.463  0.0092  1.1206 -1.3616
 5949SOL    HW229307   2.561   3.101   2.450  0.9394 -0.7896 -1.0371
 5950SOL     OW29308   2.976   0.009  13.618 -0.0236 -0.8658 -0.5826
 5950SOL    HW129309   2.891   4.700  13.588 -1.0098 -0.1507  1.4592
 5950SOL    HW229310   2.961   0.011  13.713 -2.6162 -1.5441 -0.9743
 5951SOL     OW29311   4.504   3.739   2.214 -0.6023 -0.1711  0.4143
 5951SOL    HW129312   4.567   3.749   2.286 -0.8992 -4.0296  1.2109
 5951SOL    HW229313   4.454   3.666   2.251 -0.0253 -0.0645  1.4126
 5952SOL     OW29314   1.550   2.221   2.439 -0.3275 -0.2936  0.1726
 5952SOL    HW129315   1.508   2.136   2.427 -1.6519  0.3459  0.3051
 5952SOL    HW229316   1.560   2.222   2.535  0.3862 -0.2074  0.1018
 5953SOL     OW29317   0.737   1.787   6.999 -0.0517  0.1637 -0.1478
 5953SOL    HW129318   0.700   1.875   7.010  2.5181  1.5724 -2.8659
 5953SOL    HW229319   0.669   1.737   6.955  0.0449  0.5333 -0.7139
 5954SOL     OW29320   4.462   2.276   9.986  0.2396 -0.2019  0.0905
 5954SOL    HW129321   4.427   2.308  10.069 -1.2608 -0.2018 -0.5477
 5954SOL    HW229322   4.409   2.197   9.976  0.2885 -0.3298  0.8166
 5955SOL     OW29323   2.046   2.613   6.945 -0.0036  0.4559 -0.1863
 5955SOL    HW129324   2.017   2.658   7.024 -0.1055  0.8748 -0.4652
 5955SOL    HW229325   1.971   2.626   6.886  1.4690  1.4492 -1.8466
 5956SOL     OW29326   0.412   1.785   4.525  0.2112  0.4915 -0.4487
 5956SOL    HW129327   0.506   1.773   4.510  0.5610  0.8680  1.3410
 5956SOL    HW229328   0.416   1.870   4.481 -1.7930  0.0529 -1.4688
 5957SOL     OW29329   0.084   2.872   2.296  0.1045 -0.5337  0.3249
 5957SOL    HW129330   0.041   2.857   2.211  1.6261  1.4136 -0.7871
 5957SOL    HW229331   0.032   2.811   2.347 -2.3935  0.9669 -0.4523
 5958SOL     OW29332   1.613   3.514   3.306  0.2137  0.8452 -0.5715
 5958SOL    HW129333   1.692   3.566   3.315 -0.0593  1.2853 -0.7320
 5958SOL    HW229334   1.558   3.520   3.384  1.5506  1.7412  0.3043
 5959SOL     OW29335   3.920   1.698   3.871  0.8247  0.6665 -0.0784
 5959SOL    HW129336   3.907   1.723   3.963  0.2017 -1.5798  0.4373
 5959SOL    HW229337   3.829   1.684   3.845  1.5341 -0.6232 -1.8455
 5960SOL     OW29338   0.497   2.240   5.583 -0.2896 -0.0950  0.3248
 5960SOL    HW129339   0.478   2.334   5.578  0.7284  0.0494 -0.8248
 5960SOL    HW229340   0.551   2.232   5.662 -2.7072  1.2756  2.0989
 5961SOL     OW29341   0.132   2.878   7.717 -0.3146 -0.2305 -0.3935
 5961SOL    HW129342   0.090   2.942   7.775  1.8495 -0.1220  1.0710
 5961SOL    HW229343   0.196   2.936   7.676  0.3016 -2.1867 -2.2127
 5962SOL     OW29344   3.123   0.418   2.843 -0.0205 -0.7066  0.3762
 5962SOL    HW129345   3.209   0.455   2.821 -0.3874  0.6636  1.2937
 5962SOL    HW229346   3.082   0.380   2.765 -0.6931 -0.4482  0.6138
 5963SOL     OW29347   0.123   3.533   4.557 -0.3303  0.0033 -0.5624
 5963SOL    HW129348   0.041   3.560   4.598  0.4341 -0.6046  1.3512
 5963SOL    HW229349   0.099   3.444   4.532 -0.7139 -0.1290  0.2758
 5964SOL     OW29350   0.821   1.090   8.151 -0.1741  0.3903  0.0443
 5964SOL    HW129351   0.853   1.105   8.063  1.0645 -1.3324  0.2155
 5964SOL    HW229352   0.902   1.076   8.200  1.3106  0.9867 -2.3007
 5965SOL     OW29353   3.167   1.789   8.009  0.7426 -0.3286 -0.4399
 5965SOL    HW129354   3.122   1.803   7.926  0.5948  1.5365 -0.0441
 5965SOL    HW229355   3.245   1.842   7.991 -1.2771  2.6458 -0.4050
 5966SOL     OW29356   2.398   0.874   8.842 -0.6651  0.1182  0.5667
 5966SOL    HW129357   2.366   0.882   8.752 -1.2120 -0.3617  0.7184
 5966SOL    HW229358   2.328   0.813   8.864  0.4723 -1.1187  0.8218
 5967SOL     OW29359   3.620   2.052   4.476 -0.4428 -0.5052 -0.5148
 5967SOL    HW129360   3.595   2.037   4.567  0.8161 -1.5953 -0.3459
 5967SOL    HW229361   3.562   1.987   4.437 -1.4143 -0.1986  0.4255
 5968SOL     OW29362   2.742   4.389   2.802 -0.3797 -0.0095 -0.1882
 5968SOL    HW129363   2.816   4.353   2.851 -0.5313 -0.9826 -0.6707
 5968SOL    HW229364   2.735   4.481   2.829 -0.3364  0.4476 -1.7413
 5969SOL     OW29365   0.837   4.438   4.079  0.2286  0.5463 -0.2930
 5969SOL    HW129366   0.787   4.387   4.142  0.7249 -0.5840 -0.8080
 5969SOL    HW229367   0.774   4.441   4.007  0.7386  0.5995 -0.7400
 5970SOL     OW29368   1.707   1.897  16.407  1.0979 -0.0379  0.3037
 5970SOL    HW129369   1.737   1.810  16.381  0.7795  0.2067 -0.9153
 5970SOL    HW229370   1.687   1.940  16.324 -2.1610 -0.5105  0.8180
 5971SOL     OW29371   3.378   1.111   8.990  0.0708 -0.1999 -0.0288
 5971SOL    HW129372   3.388   1.046   9.059  0.0846  1.1897  1.2945
 5971SOL    HW229373   3.285   1.122   8.974 -0.1921 -0.4268  1.3666
 5972SOL     OW29374   0.397   0.547  17.404 -0.2464  0.0803 -1.0711
 5972SOL    HW129375   0.424   0.539  17.312 -2.6423  1.2783 -1.8832
 5972SOL    HW229376   0.333   0.615  17.385 -0.6444  0.5767  2.0995
 5973SOL     OW29377   1.816   1.237   7.187  0.0964  0.1775 -0.4373
 5973SOL    HW129378   1.778   1.188   7.115  1.3330  0.6920 -1.4289
 5973SOL    HW229379   1.773   1.323   7.184 -0.1745  0.0923  0.8810
 5974SOL     OW29380   0.270   0.623   8.570 -0.1517  0.0981 -0.0443
 5974SOL    HW129381   0.200   0.586   8.625  0.6279 -0.9449  0.2678
 5974SOL    HW229382   0.297   0.550   8.514  1.5301  0.7049 -0.0317
 5975SOL     OW29383   0.072   1.860  12.424  0.0655  0.1341  0.2100
 5975SOL    HW129384   0.134   1.901  12.485 -1.2566  1.7851  0.4520
 5975SOL    HW229385   0.135   1.848  12.353 -1.1326 -1.5893 -0.5574
 5976SOL     OW29386   2.272   3.256   3.102 -0.1383 -0.3583  0.3827
 5976SOL    HW129387   2.306   3.314   3.033  0.6555 -1.0715  0.1723
 5976SOL    HW229388   2.180   3.245   3.075 -0.2247  0.9195  0.1560
 5977SOL     OW29389   3.436   0.331   0.715  0.6695  0.4486  0.0801
 5977SOL    HW129390   3.432   0.409   0.659  1.4716 -1.3310 -2.4919
 5977SOL    HW229391   3.524   0.308   0.684  0.0935  0.1811 -1.3764
 5978SOL     OW29392   4.127   3.736   1.724 -0.3629 -0.6967 -0.4038
 5978SOL    HW129393   4.216   3.706   1.705  0.8146  2.1817  0.5227
 5978SOL    HW229394   4.114   3.706   1.814 -2.4287  2.7628  0.4343
 5979SOL     OW29395   0.819   4.179  15.017  0.6389  0.2147  0.3104
 5979SOL    HW129396   0.774   4.159  14.934  3.4910  0.1449 -1.2253
 5979SOL    HW229397   0.757   4.235  15.063  0.1941  0.1875 -0.2532
 5980SOL     OW29398   3.438   3.871   4.503  0.3594 -1.0119  0.0576
 5980SOL    HW129399   3.477   3.948   4.545 -1.5535 -0.2074  0.3859
 5980SOL    HW229400   3.346   3.881   4.529  0.6010  1.3340  0.0425
 5981SOL     OW29401   0.206   1.914   4.660  0.8336  0.0298 -0.9103
 5981SOL    HW129402   0.288   1.873   4.632  0.0070 -0.6552 -2.3105
 5981SOL    HW229403   0.141   1.861   4.613 -0.5945  1.3513 -0.4190
 5982SOL     OW29404   4.023   4.411  13.226  0.5997  0.0581  0.3378
 5982SOL    HW129405   3.949   4.353  13.239  1.2551 -0.8357  0.1022
 5982SOL    HW229406   3.992   4.470  13.157 -0.7826 -0.1999  0.7452
 5983SOL     OW29407   2.561   0.791   2.534 -0.3825 -0.4404 -0.3665
 5983SOL    HW129408   2.636   0.849   2.520 -0.1407 -0.6783 -0.0784
 5983SOL    HW229409   2.497   0.812   2.467 -0.9103  1.5774  0.7647
 5984SOL     OW29410   4.524   1.437  17.169  0.4793 -0.4622  0.3669
 5984SOL    HW129411   4.456   1.371  17.179 -0.3642  0.1452 -1.4222
 5984SOL    HW229412   4.589   1.386  17.122 -0.0753  0.3458 -1.2672
 5985SOL     OW29413   3.690   1.213   2.647 -0.7785 -0.5161 -0.0745
 5985SOL    HW129414   3.667   1.122   2.626  0.2817 -0.6303 -0.7401
 5985SOL    HW229415   3.639   1.229   2.726  0.7647 -2.8633  1.4134
 5986SOL     OW29416   3.927   3.689   1.955  0.2369 -0.4968 -0.3417
 5986SOL    HW129417   3.869   3.753   1.914  0.0756  0.4112  1.2874
 5986SOL    HW229418   3.875   3.611   1.938  1.4427 -1.3635 -0.0227
 5987SOL     OW29419   3.518   3.863  15.632 -0.6783 -0.6412 -0.0500
 5987SOL    HW129420   3.524   3.910  15.715 -0.9740  0.2896 -0.5507
 5987SOL    HW229421   3.423   3.847  15.625 -0.6926 -0.9198  0.8352
 5988SOL     OW29422   0.469   3.196   2.174  0.3190  0.2923  0.5096
 5988SOL    HW129423   0.427   3.160   2.252 -1.3645  0.5545 -0.2759
 5988SOL    HW229424   0.452   3.290   2.166 -1.2307  0.1830  2.4758
 5989SOL     OW29425   1.563   1.618   3.620  0.5227 -0.0186 -0.2300
 5989SOL    HW129426   1.545   1.710   3.603 -3.1152 -0.2655  2.3751
 5989SOL    HW229427   1.493   1.577   3.568  0.7229  0.9167 -1.2435
 5990SOL     OW29428   3.301   2.503   3.184 -0.0353 -0.3017  0.2006
 5990SOL    HW129429   3.324   2.482   3.275 -0.8873  0.4207  0.5900
 5990SOL    HW229430   3.306   2.418   3.142  0.1984 -0.1837 -0.0106
 5991SOL     OW29431   2.039   1.670   5.556  0.1235  0.3795 -0.1305
 5991SOL    HW129432   2.082   1.738   5.504  0.2866 -0.4158 -1.0316
 5991SOL    HW229433   2.102   1.653   5.625 -0.4158  1.4361  0.6336
 5992SOL     OW29434   3.678   4.546   2.409 -0.0262  0.0039  0.3221
 5992SOL    HW129435   3.669   4.590   2.325 -0.9501 -0.0770  0.3760
 5992SOL    HW229436   3.586   4.542   2.436 -0.3018  1.1732 -0.4189
 5993SOL     OW29437   0.719   1.570  11.147 -0.3194 -0.3019 -0.7857
 5993SOL    HW129438   0.687   1.603  11.231 -0.9303 -2.9991  0.0562
 5993SOL    HW229439   0.697   1.478  11.158 -3.4305  0.5916  0.3542
 5994SOL     OW29440   3.811   1.750   6.932  0.0163  0.2440 -0.4284
 5994SOL    HW129441   3.764   1.680   6.886  1.1839 -0.2221 -0.9168
 5994SOL    HW229442   3.793   1.700   7.012 -0.6440 -2.0245 -1.9859
 5995SOL     OW29443   0.763   3.797  13.049 -0.4115 -0.2179  0.4550
 5995SOL    HW129444   0.766   3.885  13.088 -1.3021  0.2019 -0.4260
 5995SOL    HW229445   0.736   3.743  13.123  3.3215 -0.4771  1.6119
 5996SOL     OW29446   0.118   2.888   4.387  0.2427 -0.1874  0.1764
 5996SOL    HW129447   0.153   2.966   4.344 -1.2280 -0.2597 -1.1770
 5996SOL    HW229448   0.032   2.927   4.405  0.2683 -0.3300  0.6140
 5997SOL     OW29449   3.234   3.700   7.395 -0.3201 -0.0676 -0.3079
 5997SOL    HW129450   3.156   3.735   7.352  2.2032  2.8463 -2.4611
 5997SOL    HW229451   3.313   3.739   7.358 -0.0623 -0.8715 -0.6074
 5998SOL     OW29452   3.844   1.653   5.274 -0.3164 -0.4174  0.2200
 5998SOL    HW129453   3.886   1.663   5.359 -0.7231 -0.8879  0.4812
 5998SOL    HW229454   3.789   1.731   5.278 -1.0278 -0.9637  1.1317
 5999SOL     OW29455   0.184   4.432   6.237 -0.3486  0.2078 -0.1735
 5999SOL    HW129456   0.127   4.380   6.179  0.4733 -0.8293 -0.0483
 5999SOL    HW229457   0.171   4.397   6.325  0.0788 -0.0280 -0.2025
 6000SOL     OW29458   3.964   1.273  14.439 -0.4301  0.1889  0.3155
 6000SOL    HW129459   3.996   1.288  14.528 -1.6643  0.9179  0.6395
 6000SOL    HW229460   4.008   1.348  14.399  0.0330 -0.5865 -0.5995
 6001SOL     OW29461   0.352   4.361   5.457 -0.0739  0.7941 -0.1375
 6001SOL    HW129462   0.319   4.339   5.370  0.2249 -0.7293  0.1238
 6001SOL    HW229463   0.290   4.323   5.519 -0.6874  0.9498 -0.6529
 6002SOL     OW29464   4.383   1.751   3.226 -0.4122 -0.2366  0.3069
 6002SOL    HW129465   4.436   1.771   3.303  2.6463  1.8699 -2.3949
 6002SOL    HW229466   4.321   1.823   3.238 -1.7224 -1.4247  0.7073
 6003SOL     OW29467   4.622   3.064   6.105  0.3709  0.0728 -0.1481
 6003SOL    HW129468   4.575   3.113   6.037  1.1150 -0.0735 -0.7659
 6003SOL    HW229469   4.711   3.066   6.071  1.1603 -0.7444  1.8779
 6004SOL     OW29470   2.404   4.694   9.122 -0.1336 -0.4859 -0.4795
 6004SOL    HW129471   2.499   4.703   9.112 -0.1448  0.0916 -0.1054
 6004SOL    HW229472   2.401   4.678   9.216  0.7921  2.1401  0.0066
 6005SOL     OW29473   3.681   4.663  12.287 -0.1124  0.0665 -0.4595
 6005SOL    HW129474   3.682   0.007  12.355  0.2431 -1.8101  1.4041
 6005SOL    HW229475   3.712   4.715  12.214  2.1431 -1.7692 -0.8073
 6006SOL     OW29476   4.377   3.643   1.723  0.3192  0.7965 -0.1787
 6006SOL    HW129477   4.433   3.702   1.672 -0.5109  1.5836 -0.1902
 6006SOL    HW229478   4.380   3.570   1.661 -0.8486 -0.5964  1.3859
 6007SOL     OW29479   3.767   0.032   8.408  0.3308  0.1908  0.2505
 6007SOL    HW129480   3.722   0.065   8.486  0.1496 -1.9402  1.0402
 6007SOL    HW229481   3.716   4.674   8.408  2.7803 -1.3480 -0.2459
 6008SOL     OW29482   4.210   0.914   4.023  0.7379 -0.0188 -0.7316
 6008SOL    HW129483   4.288   0.859   4.025  0.4569 -0.4194 -0.5864
 6008SOL    HW229484   4.180   0.907   4.114  0.3827 -1.6253 -0.9692
 6009SOL     OW29485   0.259   0.062   2.720 -0.6813 -0.2511  1.0665
 6009SOL    HW129486   0.341   0.099   2.686 -0.4374 -2.0370 -0.3443
 6009SOL    HW229487   0.234   0.123   2.788  1.2275  2.1685 -0.3925
 6010SOL     OW29488   2.823   1.353  16.401 -0.3852  0.4733  0.2364
 6010SOL    HW129489   2.806   1.445  16.423  0.0707 -0.0502  2.8163
 6010SOL    HW229490   2.791   1.348  16.311 -0.7869  2.3284  0.2618
 6011SOL     OW29491   4.719   2.814   1.633  0.1423  0.4196  0.2048
 6011SOL    HW129492   4.626   2.837   1.637  0.3500  1.0529  1.4968
 6011SOL    HW229493   0.003   2.756   1.708 -1.9411  0.7537  0.6693
 6012SOL     OW29494   1.034   0.417  10.666  0.2879  0.0500  0.0062
 6012SOL    HW129495   0.980   0.386  10.739 -0.4138  0.3531 -0.3840
 6012SOL    HW229496   0.974   0.458  10.604  1.3026  2.0178  0.3482
 6013SOL     OW29497   2.650   1.905   2.748 -0.6923  0.0623 -0.2074
 6013SOL    HW129498   2.595   1.969   2.702  0.9643  0.4632 -1.6465
 6013SOL    HW229499   2.717   1.959   2.789 -0.6627  0.4574 -0.7748
 6014SOL     OW29500   3.561   3.841   5.940  0.1100 -0.1169 -0.5865
 6014SOL    HW129501   3.520   3.883   5.864 -0.8333 -1.6811 -0.9682
 6014SOL    HW229502   3.500   3.766   5.938 -0.6100  0.4916 -1.3234
 6015SOL     OW29503   3.424   0.905   3.387 -0.0166 -0.3465 -0.2107
 6015SOL    HW129504   3.465   0.883   3.470 -1.1185 -0.4923  0.2987
 6015SOL    HW229505   3.344   0.950   3.414  0.5270  0.3070  0.3027
 6016SOL     OW29506   0.189   4.495   8.950  0.3901  0.4235  0.4388
 6016SOL    HW129507   0.244   4.522   9.024  1.0184 -0.5157  0.3224
 6016SOL    HW229508   0.133   4.570   8.930  1.2291  1.1273  0.6927
 6017SOL     OW29509   3.844   3.678   4.309  0.1502  0.1392  0.3904
 6017SOL    HW129510   3.774   3.624   4.274 -0.3841  0.5445  0.8373
 6017SOL    HW229511   3.809   3.727   4.383  0.3814  0.7851  0.0727
 6018SOL     OW29512   1.607   0.400   3.596 -0.2030  0.2487  0.7674
 6018SOL    HW129513   1.611   0.398   3.500  0.1841  1.5402  0.7539
 6018SOL    HW229514   1.687   0.351   3.617  0.3934 -0.2111 -2.5480
 6019SOL     OW29515   3.673   2.302  14.962  0.7684  0.6161  0.0797
 6019SOL    HW129516   3.743   2.258  14.913 -0.8598  1.1481 -2.7207
 6019SOL    HW229517   3.728   2.362  15.013  3.0753  0.4107 -2.1884
 6020SOL     OW29518   2.694   0.183   8.256  0.4222  1.1565 -0.1507
 6020SOL    HW129519   2.695   0.097   8.213  0.1265  0.9577  0.2431
 6020SOL    HW229520   2.608   0.186   8.299  0.2844 -0.8674 -0.2593
 6021SOL     OW29521   2.534   1.634   5.533 -0.3434 -0.2252 -0.0314
 6021SOL    HW129522   2.471   1.656   5.602 -1.0100 -1.0904 -0.3710
 6021SOL    HW229523   2.503   1.550   5.499 -2.0711 -0.4319  2.0310
 6022SOL     OW29524   2.756   4.523  15.632  0.6447 -0.2180 -0.1098
 6022SOL    HW129525   2.843   4.491  15.659  0.3003 -2.0308 -1.1693
 6022SOL    HW229526   2.700   4.501  15.706 -0.6408 -0.5105 -1.1810
 6023SOL     OW29527   3.210   0.241   4.674 -0.1243  0.1705 -0.4361
 6023SOL    HW129528   3.154   0.166   4.654  0.6185  0.0288 -1.9856
 6023SOL    HW229529   3.147   0.308   4.701 -0.1589  0.7994 -2.0944
 6024SOL     OW29530   3.173   1.527  11.295 -0.2201  0.0345 -0.4848
 6024SOL    HW129531   3.173   1.444  11.248 -0.3953 -0.7732  0.9507
 6024SOL    HW229532   3.080   1.521  11.317  0.0964 -0.2865  0.8057
 6025SOL     OW29533   2.271   3.072   7.748  0.0059  0.6196  0.2393
 6025SOL    HW129534   2.309   3.076   7.836  0.5696  2.1718 -0.0650
 6025SOL    HW229535   2.182   3.040   7.755  1.1921 -1.9573  3.5351
 6026SOL     OW29536   4.170   3.538   4.115  0.3278 -0.2220 -0.1170
 6026SOL    HW129537   4.144   3.481   4.187 -0.3593 -1.1595 -1.1136
 6026SOL    HW229538   4.104   3.607   4.125 -0.5774 -1.3803  1.8432
 6027SOL     OW29539   4.223   1.716  15.141  0.3541 -0.0534  0.5014
 6027SOL    HW129540   4.129   1.713  15.162  0.2492 -0.7108 -0.0861
 6027SOL    HW229541   4.252   1.625  15.144 -0.5701 -0.3180  1.6729
 6028SOL     OW29542   0.282   1.048   0.421 -0.5050 -0.1272 -1.1758
 6028SOL    HW129543   0.214   0.981   0.417 -0.8313  0.2625 -2.2292
 6028SOL    HW229544   0.353   0.985   0.426  0.2842  0.7868 -0.8687
 6029SOL     OW29545   4.544   3.435   4.801  0.0213 -0.0332 -0.4993
 6029SOL    HW129546   4.593   3.354   4.815 -2.1839 -1.1847  0.5410
 6029SOL    HW229547   4.496   3.447   4.883 -0.8948  1.4238 -1.2618
 6030SOL     OW29548   2.338   2.629   6.893  0.4916  0.1363 -0.2443
 6030SOL    HW129549   2.385   2.667   6.819 -1.9835 -0.1322 -1.9491
 6030SOL    HW229550   2.271   2.696   6.911 -0.4003 -1.0234  0.8057
 6031SOL     OW29551   3.934   2.600   8.996  0.6131  0.3165  0.6616
 6031SOL    HW129552   3.934   2.513   9.037 -2.9665 -2.3298 -4.9203
 6031SOL    HW229553   3.896   2.650   9.069  1.6460  2.3896 -0.2475
 6032SOL     OW29554   4.046   1.577   8.291  0.8771  0.3687  0.0158
 6032SOL    HW129555   4.066   1.494   8.334 -2.2924 -0.8348 -0.7994
 6032SOL    HW229556   4.133   1.612   8.275  0.1830  1.2830 -1.8503
 6033SOL     OW29557   1.267   4.271   5.078  0.1517 -0.5364  0.2017
 6033SOL    HW129558   1.275   4.360   5.044 -0.4140 -0.3801  0.4653
 6033SOL    HW229559   1.171   4.260   5.080  0.0924  0.0780  0.8287
 6034SOL     OW29560   3.814   1.363   3.267 -0.1211  0.0124 -0.1671
 6034SOL    HW129561   3.840   1.354   3.359 -2.4731  0.8730  0.5832
 6034SOL    HW229562   3.765   1.281   3.256 -0.8855  0.4536 -0.0856
 6035SOL     OW29563   3.088   1.722   3.265  0.2353  0.4517 -0.4870
 6035SOL    HW129564   3.045   1.785   3.207  1.2626  1.0265 -0.6121
 6035SOL    HW229565   3.181   1.742   3.255 -0.0196 -0.3531 -4.5266
 6036SOL     OW29566   0.988   3.809   1.122  0.1463 -0.1560 -0.1643
 6036SOL    HW129567   0.897   3.832   1.144  0.9887  2.2649  0.7191
 6036SOL    HW229568   0.981   3.766   1.037 -0.0274 -0.3645 -0.0472
 6037SOL     OW29569   1.975   0.181   5.417  0.1099 -0.2224 -0.0344
 6037SOL    HW129570   2.042   0.144   5.359  1.8810 -0.9021  2.4149
 6037SOL    HW229571   2.031   0.253   5.446 -0.5108 -0.0582  0.7436
 6038SOL     OW29572   1.914   0.146   2.145 -0.1775  0.0870  0.0762
 6038SOL    HW129573   1.928   0.051   2.141  0.6070  0.2541 -1.3519
 6038SOL    HW229574   1.879   0.146   2.234 -1.6027 -0.9439 -0.4674
 6039SOL     OW29575   3.967   3.333   3.526 -0.5782  0.6688  0.0929
 6039SOL    HW129576   4.049   3.292   3.552  0.4793  3.0921  0.5631
 6039SOL    HW229577   3.947   3.294   3.441 -0.0755 -0.7255  0.6185
 6040SOL     OW29578   2.056   3.264  15.542  0.2697  0.2199 -0.5377
 6040SOL    HW129579   2.083   3.354  15.528  0.4063  0.2933  0.1863
 6040SOL    HW229580   2.012   3.240  15.461 -2.0169 -4.1663  1.9842
 6041SOL     OW29581   0.090   0.143   9.715 -0.1415 -0.0864  0.2165
 6041SOL    HW129582   0.185   0.136   9.711 -0.0812  0.8845 -0.2452
 6041SOL    HW229583   0.070   0.193   9.636 -0.9859 -1.0489 -0.1747
 6042SOL     OW29584   2.053   3.725   6.702  0.4014 -0.2483 -0.5836
 6042SOL    HW129585   2.113   3.792   6.735  0.2865  0.0415 -0.9663
 6042SOL    HW229586   2.063   3.653   6.764  0.8411  1.2903  1.1323
 6043SOL     OW29587   1.577   1.845   8.305  0.9613  0.2330 -0.0599
 6043SOL    HW129588   1.484   1.861   8.314  0.9334  0.0185  0.0455
 6043SOL    HW229589   1.592   1.914   8.240  0.0269 -2.3717 -3.0483
 6044SOL     OW29590   1.346   0.405   7.714 -0.1859  0.1178  0.0341
 6044SOL    HW129591   1.259   0.416   7.675  1.0681 -0.9392 -3.0317
 6044SOL    HW229592   1.404   0.473   7.679 -1.0782  0.2705 -1.1241
 6045SOL     OW29593   1.331   0.469  14.586  0.0331  0.9109 -0.7988
 6045SOL    HW129594   1.303   0.539  14.644  0.7118  0.4580  0.0832
 6045SOL    HW229595   1.388   0.521  14.529  0.9906  2.7132  1.7762
 6046SOL     OW29596   4.203   1.436   5.177 -0.1354 -0.4558  0.0956
 6046SOL    HW129597   4.240   1.349   5.166  2.7708  1.4725 -5.4038
 6046SOL    HW229598   4.138   1.419   5.246 -0.7572  1.2547 -0.0557
 6047SOL     OW29599   3.902   1.869   9.195  0.0854  0.1826  0.1365
 6047SOL    HW129600   3.907   1.786   9.147 -0.3134  0.9467 -1.2466
 6047SOL    HW229601   3.807   1.884   9.202  0.3760  1.5558  1.2377
 6048SOL     OW29602   1.834   2.813   9.651 -0.0612 -0.1711 -0.0460
 6048SOL    HW129603   1.798   2.728   9.676 -0.5949 -0.4392 -1.7441
 6048SOL    HW229604   1.838   2.850   9.740  0.2354  1.5429 -0.7819
 6049SOL     OW29605   2.708   0.884   7.631  0.1481 -0.3181  0.6516
 6049SOL    HW129606   2.790   0.931   7.648  0.3576 -0.2602 -0.4836
 6049SOL    HW229607   2.737   0.841   7.550  0.7578  0.4250  0.4676
 6050SOL     OW29608   3.491   1.886   3.445  0.2878 -0.1118  0.6976
 6050SOL    HW129609   3.461   1.965   3.400  0.5186  0.0381  0.8035
 6050SOL    HW229610   3.448   1.897   3.530 -1.0283  1.9530 -0.2401
 6051SOL     OW29611   4.019   3.192   1.631 -0.2505 -0.5680  0.4815
 6051SOL    HW129612   4.017   3.112   1.684 -3.0285 -0.4825  0.4731
 6051SOL    HW229613   3.926   3.202   1.614  0.1359  0.8073 -0.8167
 6052SOL     OW29614   4.507   0.820   3.396  0.1883  0.0140  0.0136
 6052SOL    HW129615   4.471   0.908   3.383  1.1688  0.3555 -0.3476
 6052SOL    HW229616   4.434   0.761   3.413 -0.3947  0.6841 -0.1182
 6053SOL     OW29617   1.115   3.766   3.614 -0.3195  0.1453 -0.3577
 6053SOL    HW129618   1.185   3.705   3.593 -0.4996  0.4966 -2.0125
 6053SOL    HW229619   1.055   3.699   3.646  1.6524 -0.9743  0.9709
 6054SOL     OW29620   3.141   1.373   6.473 -0.2545 -0.3403  0.1589
 6054SOL    HW129621   3.135   1.286   6.512  0.9773 -2.2273 -3.8368
 6054SOL    HW229622   3.053   1.409   6.488  0.4377 -0.1804  3.8635
 6055SOL     OW29623   1.160   3.782   4.713  0.6003  0.6928 -0.0938
 6055SOL    HW129624   1.236   3.730   4.739  0.3800  1.1979  1.5688
 6055SOL    HW229625   1.157   3.864   4.763  2.4022  0.1651  0.8984
 6056SOL     OW29626   4.263   1.307   0.918 -0.5324 -0.4019 -0.9218
 6056SOL    HW129627   4.283   1.244   0.988 -0.2163  1.0566  0.3228
 6056SOL    HW229628   4.241   1.385   0.969  2.4139 -1.2802  1.7354
 6057SOL     OW29629   0.844   2.521   4.488 -0.2140  0.6905  0.4287
 6057SOL    HW129630   0.836   2.483   4.400 -2.4472  1.0101  0.5056
 6057SOL    HW229631   0.938   2.539   4.479 -0.0661  0.3574  1.2682
 6058SOL     OW29632   3.940   3.432  10.664  0.0547 -0.0688 -0.3802
 6058SOL    HW129633   3.887   3.400  10.591  0.3769  0.1384 -0.7055
 6058SOL    HW229634   3.941   3.351  10.716 -0.6199 -0.7613 -1.4500
 6059SOL     OW29635   0.871   1.341   5.087  0.4425  0.5175  0.3147
 6059SOL    HW129636   0.862   1.348   4.992 -1.6696  1.6422  0.6150
 6059SOL    HW229637   0.799   1.397   5.115 -1.0449 -1.9465  1.3271
 6060SOL     OW29638   0.104   0.598   9.288 -0.4903 -0.5385  0.5247
 6060SOL    HW129639   0.137   0.688   9.287  1.7535 -1.3401  0.9957
 6060SOL    HW229640   0.157   0.552   9.224  1.1435  0.7002  0.9827
 6061SOL     OW29641   4.676   4.452  15.715  0.0603 -0.6273 -0.8068
 6061SOL    HW129642   4.619   4.505  15.770  2.0516 -0.1178  0.7514
 6061SOL    HW229643   0.041   4.489  15.717  0.1544 -0.8504 -0.7345
 6062SOL     OW29644   4.111   1.098   2.671  0.1493  0.9906 -0.6347
 6062SOL    HW129645   4.058   1.049   2.608  1.4091 -1.5545  0.2427
 6062SOL    HW229646   4.052   1.095   2.746  1.0525  0.2812  0.0579
 6063SOL     OW29647   3.738   4.656  17.084  0.4082  0.2366  0.1127
 6063SOL    HW129648   3.785   4.658  17.168  1.1427  1.6557 -0.3303
 6063SOL    HW229649   3.651   4.694  17.097  0.3925  0.0489  0.5712
 6064SOL     OW29650   0.229   0.334  17.499  0.8017 -0.0231 -0.0603
 6064SOL    HW129651   0.278   0.405  17.458 -1.9755 -0.7925 -4.7611
 6064SOL    HW229652   0.250   0.346  17.591 -3.5824  1.9555  0.6825
 6065SOL     OW29653   3.808   0.416   6.671 -0.0213 -0.5389  0.4479
 6065SOL    HW129654   3.879   0.378   6.620 -0.3565 -1.1963  0.4688
 6065SOL    HW229655   3.782   0.348   6.733 -1.1135 -1.4523 -1.0153
 6066SOL     OW29656   2.705   4.621  17.595  0.6754  0.1742 -0.3779
 6066SOL    HW129657   2.668   4.533  17.586 -0.0790  0.1145  3.1259
 6066SOL    HW229658   2.650   4.657  17.665 -0.6687 -0.8449 -0.9059
 6067SOL     OW29659   2.184   2.315  10.583  0.1224  0.1142 -0.3300
 6067SOL    HW129660   2.228   2.371  10.520  1.1340 -2.0164 -1.5199
 6067SOL    HW229661   2.164   2.379  10.652 -1.7053 -1.1439  0.3176
 6068SOL     OW29662   3.457   3.784   4.252 -0.4708  0.6468 -0.2840
 6068SOL    HW129663   3.463   3.795   4.347 -0.4145  2.7281 -0.5195
 6068SOL    HW229664   3.422   3.870   4.230 -0.0787  0.3090 -2.2227
 6069SOL     OW29665   4.318   3.594   1.308  0.1419 -0.0196 -0.0640
 6069SOL    HW129666   4.347   3.683   1.329  1.4160  0.1087 -2.3067
 6069SOL    HW229667   4.349   3.546   1.385  0.1134 -0.5162 -0.3605
 6070SOL     OW29668   1.271   0.541  10.201 -0.1405 -0.2001 -0.0456
 6070SOL    HW129669   1.212   0.612  10.176  1.6386  1.5982  0.8789
 6070SOL    HW229670   1.348   0.594  10.182 -0.5624 -0.2081 -1.7934
 6071SOL     OW29671   0.090   2.654   3.413 -0.1682  0.2313 -0.2584
 6071SOL    HW129672   0.019   2.705   3.374 -0.9944  0.3003  1.3434
 6071SOL    HW229673   0.138   2.624   3.335 -0.5359  0.1162 -0.4403
 6072SOL     OW29674   4.043   0.222   7.558 -0.2760  0.3036  0.0756
 6072SOL    HW129675   4.043   0.261   7.645 -0.2468  0.8398 -0.1669
 6072SOL    HW229676   4.088   0.290   7.508  1.2051  0.8482  2.1589
 6073SOL     OW29677   1.691   0.158   9.553 -0.0973  0.0602 -0.7030
 6073SOL    HW129678   1.718   0.245   9.582 -3.0148  0.0095  2.2023
 6073SOL    HW229679   1.648   0.120   9.629 -0.0349  0.9311 -0.2357
 6074SOL     OW29680   3.729   2.616   8.348  0.4696 -0.1615  0.4450
 6074SOL    HW129681   3.719   2.612   8.443  1.3031 -1.2890  0.4882
 6074SOL    HW229682   3.664   2.550   8.325  1.6087 -0.9763 -0.4768
 6075SOL     OW29683   1.463   3.015   3.005  0.0503  0.1615 -0.9246
 6075SOL    HW129684   1.510   3.094   2.977 -1.2897  1.8685  1.6496
 6075SOL    HW229685   1.478   2.959   2.929  0.4639 -1.8823  0.6644
 6076SOL     OW29686   2.110   0.716   6.818  0.3948  0.0671 -0.6732
 6076SOL    HW129687   2.158   0.637   6.791  1.1228  0.4908 -0.6255
 6076SOL    HW229688   2.037   0.713   6.757 -1.7568  1.2797  1.8397
 6077SOL     OW29689   3.774   2.322   1.807 -0.0455 -0.0931  0.2510
 6077SOL    HW129690   3.834   2.264   1.760  1.0236 -0.1043  1.6440
 6077SOL    HW229691   3.797   2.406   1.766  2.2657 -1.6991 -1.7438
 6078SOL     OW29692   2.309   3.720  10.872  0.2463  0.3343 -0.4739
 6078SOL    HW129693   2.364   3.749  10.799  2.1864  0.6104  1.0895
 6078SOL    HW229694   2.218   3.729  10.844  0.0856 -0.8178 -0.3122
 6079SOL     OW29695   1.615   1.612   0.580 -0.1176  0.3014 -0.5899
 6079SOL    HW129696   1.671   1.560   0.522  1.3015 -0.7888  1.7262
 6079SOL    HW229697   1.604   1.551   0.653 -0.9417  0.8864 -0.2233
 6080SOL     OW29698   2.028   0.207  16.966 -0.2943  0.0578  0.1368
 6080SOL    HW129699   2.068   0.121  16.981 -1.8180 -0.9789 -1.8248
 6080SOL    HW229700   2.065   0.251  17.043 -2.4771 -0.6927  1.5991
 6081SOL     OW29701   0.146   2.045  13.585  0.2347 -0.0634  0.1078
 6081SOL    HW129702   0.193   2.103  13.645  1.3464 -1.6836  0.7916
 6081SOL    HW229703   0.218   2.021  13.526  0.0744  0.9536 -0.5125
 6082SOL     OW29704   3.934   3.707   5.482  0.2528  0.1344 -0.4298
 6082SOL    HW129705   3.861   3.731   5.425 -1.7133 -1.2630  1.5112
 6082SOL    HW229706   3.895   3.719   5.568  1.9710 -0.6148  0.4572
 6083SOL     OW29707   1.845   4.648  15.932 -0.7412 -0.0145  0.1619
 6083SOL    HW129708   1.847   4.599  16.014  0.7664 -1.5709 -0.8116
 6083SOL    HW229709   1.903   4.720  15.958 -0.1959 -0.0056 -1.0713
 6084SOL     OW29710   4.160   0.791  13.633 -0.3403 -0.3931 -0.0378
 6084SOL    HW129711   4.206   0.707  13.637  2.1326  0.9557 -0.3151
 6084SOL    HW229712   4.074   0.766  13.666 -0.4794 -1.2729 -1.0585
 6085SOL     OW29713   4.140   3.581   3.115 -0.0191  0.6596  0.4188
 6085SOL    HW129714   4.150   3.558   3.023 -0.2665  0.2875  0.4864
 6085SOL    HW229715   4.050   3.554   3.136 -0.0666  0.1361 -0.4939
 6086SOL     OW29716   3.828   0.120  10.340  0.1541  0.0894  0.1935
 6086SOL    HW129717   3.828   0.115  10.244  0.2622  3.2846  0.0409
 6086SOL    HW229718   3.886   0.047  10.364 -0.2644 -0.6130 -0.9364
 6087SOL     OW29719   3.650   1.360   6.464  0.3024  0.1400 -0.3844
 6087SOL    HW129720   3.646   1.335   6.371  0.4323 -0.5060 -0.2119
 6087SOL    HW229721   3.573   1.417   6.466  1.1272  1.2795 -0.9783
 6088SOL     OW29722   0.039   2.193   5.686  0.3122  0.0095 -0.8995
 6088SOL    HW129723   0.083   2.203   5.602 -1.3586  2.2409 -1.4969
 6088SOL    HW229724   0.011   2.284   5.695 -0.6941 -0.4192  0.4191
 6089SOL     OW29725   1.812   4.425   4.767  0.2821 -0.2394 -0.3489
 6089SOL    HW129726   1.830   4.446   4.859 -2.9675  1.1259 -0.0316
 6089SOL    HW229727   1.772   4.338   4.773 -1.0745  0.4005 -0.0030
 6090SOL     OW29728   2.381   0.988   4.895 -0.0534 -0.2350  0.1086
 6090SOL    HW129729   2.341   1.050   4.956  1.0952  0.3755  0.2418
 6090SOL    HW229730   2.420   0.925   4.954  2.1789  2.6214  1.6864
 6091SOL     OW29731   2.348   1.964   5.860  0.2747  0.1783 -0.2586
 6091SOL    HW129732   2.389   2.018   5.928 -1.3430 -1.2602  1.8891
 6091SOL    HW229733   2.259   1.951   5.893  0.7964 -1.1226  0.6533
 6092SOL     OW29734   3.580   0.717   8.617 -0.0043  0.4241 -0.4628
 6092SOL    HW129735   3.540   0.718   8.704 -0.0077  0.6447 -0.4658
 6092SOL    HW229736   3.524   0.790   8.589  0.1804  0.5247 -0.5712
 6093SOL     OW29737   4.412   4.661   9.204  0.0424 -0.2222 -0.5535
 6093SOL    HW129738   4.411   4.655   9.300 -1.1124  2.6894 -0.3795
 6093SOL    HW229739   4.478   4.593   9.192  0.3439 -0.1789  0.8485
 6094SOL     OW29740   2.971   1.668  16.193  0.0360 -0.2696  0.1312
 6094SOL    HW129741   2.908   1.735  16.167  1.1271  0.7919  0.1872
 6094SOL    HW229742   2.997   1.715  16.272  0.5504 -0.7994  0.2812
 6095SOL     OW29743   2.465   1.734  13.279  0.1824 -0.2325  0.0589
 6095SOL    HW129744   2.509   1.806  13.234  0.0610 -1.0716 -1.4067
 6095SOL    HW229745   2.482   1.758  13.370 -1.6752  1.1451  0.0197
 6096SOL     OW29746   0.606   0.554  15.838  0.2417  0.1490  0.4154
 6096SOL    HW129747   0.679   0.612  15.817  0.8217 -1.3696 -1.7953
 6096SOL    HW229748   0.524   0.587  15.800  0.9144  1.5176  0.1490
 6097SOL     OW29749   1.978   1.505   8.531  0.3376  0.5974  0.3040
 6097SOL    HW129750   1.914   1.506   8.460  0.3684 -0.2096  0.2661
 6097SOL    HW229751   1.959   1.420   8.571 -1.8624  1.5722  1.3419
 6098SOL     OW29752   0.308   1.220   6.388 -0.5510  0.6170  0.1072
 6098SOL    HW129753   0.251   1.284   6.346 -0.6602  1.2080  1.1374
 6098SOL    HW229754   0.354   1.282   6.446 -0.8385 -0.4429  1.4615
 6099SOL     OW29755   3.229   0.552   4.542 -0.1060 -0.1092  0.3377
 6099SOL    HW129756   3.289   0.590   4.605 -0.3086  0.7676 -0.0056
 6099SOL    HW229757   3.155   0.611   4.555  0.2856  0.7372 -1.3185
 6100SOL     OW29758   4.273   0.091  12.174  0.0642  0.0973 -0.2014
 6100SOL    HW129759   4.362   0.124  12.162  0.5597 -0.7663  1.1503
 6100SOL    HW229760   4.251   0.081  12.081  0.0248  0.3909 -0.2249
 6101SOL     OW29761   0.938   3.686   0.878 -0.7199  0.0665  0.0827
 6101SOL    HW129762   0.850   3.712   0.850 -0.7011 -0.4005 -0.4100
 6101SOL    HW229763   0.982   3.729   0.805  0.8368 -0.4403  0.7391
 6102SOL     OW29764   2.613   2.574  17.514 -0.0515  0.0110  0.6352
 6102SOL    HW129765   2.597   2.483  17.535  0.6112 -0.0203  1.0135
 6102SOL    HW229766   2.637   2.610  17.599  0.4229  2.0223 -0.3472
 6103SOL     OW29767   4.022   3.308   3.252  0.0879 -0.2662 -0.1562
 6103SOL    HW129768   3.988   3.226   3.217 -0.7864 -0.1458  0.4170
 6103SOL    HW229769   3.960   3.371   3.215 -0.3765 -0.2093  0.7231
 6104SOL     OW29770   1.397   2.213   7.330  0.4285  0.0858  0.2441
 6104SOL    HW129771   1.479   2.256   7.355 -0.3474  2.4269 -1.1589
 6104SOL    HW229772   1.349   2.295   7.318 -0.0540 -0.5357 -2.0625
 6105SOL     OW29773   3.462   0.422   3.654 -0.0138  0.6404  0.1644
 6105SOL    HW129774   3.539   0.448   3.704 -0.3394 -1.7224  1.8916
 6105SOL    HW229775   3.471   0.327   3.655 -0.2492  0.5792 -2.9965
 6106SOL     OW29776   0.529   1.912   5.767  0.0246 -0.6957 -0.1781
 6106SOL    HW129777   0.565   1.923   5.855 -1.4818  1.1258  0.2054
 6106SOL    HW229778   0.490   1.999   5.760 -0.6441 -1.0469 -0.7315
 6107SOL     OW29779   2.512   4.021  10.788 -0.2260 -0.5140 -0.2348
 6107SOL    HW129780   2.594   3.996  10.830  0.5076 -1.3559 -2.2250
 6107SOL    HW229781   2.465   3.941  10.767 -1.5035  0.9808 -3.0700
 6108SOL     OW29782   0.901   4.481   2.623 -0.2481  0.4568 -0.5072
 6108SOL    HW129783   0.934   4.436   2.545 -0.2412 -0.6743  0.1435
 6108SOL    HW229784   0.887   4.569   2.589 -1.4061  1.0002  1.4185
 6109SOL     OW29785   3.357   2.363  16.246  0.1620  0.1532  0.5899
 6109SOL    HW129786   3.345   2.439  16.189 -0.2047 -0.0109  0.4476
 6109SOL    HW229787   3.271   2.321  16.246  0.7198 -0.9916 -1.3193
 6110SOL     OW29788   1.298   2.130   2.693  0.1208  0.4161  0.1052
 6110SOL    HW129789   1.287   2.043   2.655  2.6666  0.1878 -0.1400
 6110SOL    HW229790   1.371   2.124   2.756 -0.6972  0.6139  1.0657
 6111SOL     OW29791   1.426   1.449   6.543  0.1500  0.3948 -0.1018
 6111SOL    HW129792   1.439   1.363   6.582 -1.9180  0.5240  0.8616
 6111SOL    HW229793   1.342   1.426   6.504  0.4183 -0.2594 -0.2847
 6112SOL     OW29794   1.807   1.958  12.029  0.0296 -0.4698  0.3841
 6112SOL    HW129795   1.846   2.029  12.080 -1.4887  1.0385 -0.5913
 6112SOL    HW229796   1.727   1.933  12.074  0.0843  0.6199  1.0941
 6113SOL     OW29797   1.253   1.988   4.601 -0.6997 -0.0431  0.0787
 6113SOL    HW129798   1.207   1.985   4.685 -0.6440  1.5441  0.1572
 6113SOL    HW229799   1.189   1.941   4.548 -0.7586  0.5492 -0.3774
 6114SOL     OW29800   1.919   1.425   7.578  0.1715 -0.0723 -0.2860
 6114SOL    HW129801   1.930   1.430   7.483  0.4248 -0.1177 -0.2584
 6114SOL    HW229802   1.855   1.491   7.605 -0.6478 -1.0874  0.2229
 6115SOL     OW29803   4.183   2.989   2.170  0.3790  0.3153  0.2679
 6115SOL    HW129804   4.242   3.055   2.208  1.4591 -1.9250  2.4165
 6115SOL    HW229805   4.115   3.049   2.140  1.4180  1.6196  0.4995
 6116SOL     OW29806   3.803   0.706  12.218 -0.2258 -0.1572 -0.4782
 6116SOL    HW129807   3.754   0.789  12.213  0.4835  0.2927 -0.0703
 6116SOL    HW229808   3.806   0.678  12.127  4.7867  0.4094 -0.4690
 6117SOL     OW29809   2.714   0.123  13.733 -0.1587  0.3272  0.0407
 6117SOL    HW129810   2.726   0.070  13.812 -0.8417 -1.5708 -1.1349
 6117SOL    HW229811   2.622   0.108  13.710  0.0831  1.1599 -1.5167
 6118SOL     OW29812   4.107   0.326   4.407 -0.1163  0.0254 -0.4014
 6118SOL    HW129813   4.020   0.350   4.372 -0.9616 -1.8110  0.4663
 6118SOL    HW229814   4.165   0.387   4.362 -0.8782  0.3574 -0.9543
 6119SOL     OW29815   2.025   2.755  10.539  0.1399 -0.3510 -0.2814
 6119SOL    HW129816   1.969   2.815  10.588  1.7623  1.1825 -0.3393
 6119SOL    HW229817   2.012   2.676  10.592 -0.2138  0.0756  0.2674
 6120SOL     OW29818   2.088   0.566   3.895 -0.0871  0.4715  0.5239
 6120SOL    HW129819   2.038   0.640   3.930 -2.0863 -0.7086  0.1712
 6120SOL    HW229820   2.020   0.505   3.866 -1.0307  2.0529 -0.5972
 6121SOL     OW29821   1.685   3.861   5.878  0.4059 -0.0733  0.5301
 6121SOL    HW129822   1.714   3.809   5.953 -0.3327  1.0259  1.5656
 6121SOL    HW229823   1.635   3.788   5.840  1.6101 -0.0225 -1.1444
 6122SOL     OW29824   1.772   3.708  15.139 -0.5311 -0.2353  0.2549
 6122SOL    HW129825   1.761   3.622  15.180 -0.6292 -0.2971  0.0994
 6122SOL    HW229826   1.865   3.728  15.130 -0.7236  0.6784  0.2935
 6123SOL     OW29827   4.422   3.526   2.992 -0.5547  0.0118  0.0547
 6123SOL    HW129828   4.351   3.504   2.932 -1.4195  0.3352  0.9555
 6123SOL    HW229829   4.433   3.617   2.964 -0.3120 -0.2810 -0.7848
 6124SOL     OW29830   0.333   2.368   3.397  0.1015  0.0497  0.0224
 6124SOL    HW129831   0.327   2.300   3.330 -0.3572 -0.9485  1.0854
 6124SOL    HW229832   0.332   2.442   3.336  0.5952 -0.2365 -0.3293
 6125SOL     OW29833   1.219   3.695   1.358  0.1320  0.1349 -0.2234
 6125SOL    HW129834   1.304   3.731   1.332  0.7073 -1.9681 -1.2292
 6125SOL    HW229835   1.159   3.735   1.295 -1.0900 -0.5743  0.4879
 6126SOL     OW29836   2.418   0.932   9.187  0.3496 -0.2344 -0.4003
 6126SOL    HW129837   2.407   1.025   9.209  0.5929 -0.6991  1.7372
 6126SOL    HW229838   2.438   0.937   9.094 -0.4296  0.0791 -0.5524
 6127SOL     OW29839   3.845   1.547   1.339 -0.1560 -0.0260  0.7931
 6127SOL    HW129840   3.879   1.457   1.344 -0.2088 -0.0882 -0.1253
 6127SOL    HW229841   3.845   1.555   1.244 -0.1987  1.3104  0.9169
 6128SOL     OW29842   0.197   3.293  17.541 -0.5699 -0.6460  0.4530
 6128SOL    HW129843   0.175   3.340  17.621 -0.0355 -0.8743  0.7296
 6128SOL    HW229844   0.252   3.226  17.580  0.2727 -0.5539 -0.5721
 6129SOL     OW29845   2.943   1.204  11.359  0.1411 -0.0541  0.1675
 6129SOL    HW129846   2.921   1.125  11.407 -0.7485  0.8095  1.1764
 6129SOL    HW229847   2.862   1.256  11.365  0.4334  0.4315 -0.1063
 6130SOL     OW29848   0.938   1.060   5.242  0.0294 -0.1446 -0.0988
 6130SOL    HW129849   0.970   1.140   5.201  2.6054  0.1387  2.4001
 6130SOL    HW229850   0.918   1.003   5.168  0.3165 -1.8059  1.1052
 6131SOL     OW29851   4.492   2.040   0.775  1.1113 -0.3323  0.4341
 6131SOL    HW129852   4.528   1.951   0.771  0.6222 -0.5386  0.5051
 6131SOL    HW229853   4.405   2.019   0.739  1.4017  0.3573 -0.6579
 6132SOL     OW29854   4.636   1.052   0.357  0.0914 -0.7046 -0.7248
 6132SOL    HW129855   4.667   0.962   0.360  0.2874 -0.6751 -2.1029
 6132SOL    HW229856   4.687   1.079   0.281  0.9680  0.2829  0.2035
 6133SOL     OW29857   2.441   4.280   2.019  0.2285  0.2463  0.3420
 6133SOL    HW129858   2.490   4.279   2.101 -2.0185 -1.2399  1.6584
 6133SOL    HW229859   2.352   4.248   2.035 -0.1667  1.2857  0.2463
 6134SOL     OW29860   1.389   2.393  15.022 -0.2048 -0.0150  0.1731
 6134SOL    HW129861   1.361   2.483  15.041  1.0270  0.7852 -1.8203
 6134SOL    HW229862   1.394   2.356  15.110 -0.5790  1.7132  0.9147
 6135SOL     OW29863   0.422   3.231   7.874  0.1797  0.2267 -0.0209
 6135SOL    HW129864   0.362   3.213   7.803  0.1527  0.2445 -0.0027
 6135SOL    HW229865   0.380   3.310   7.909  0.5308  1.0759 -1.4873
 6136SOL     OW29866   3.181   0.598   6.785 -0.2081  0.1342  0.0728
 6136SOL    HW129867   3.260   0.583   6.732  0.3916 -1.1410  1.3253
 6136SOL    HW229868   3.197   0.681   6.830  1.9001 -1.5494  2.4558
 6137SOL     OW29869   1.113   1.888  16.657 -0.2458 -0.3839 -0.5066
 6137SOL    HW129870   1.108   1.974  16.699  2.3377 -0.7319  0.4746
 6137SOL    HW229871   1.200   1.867  16.690  0.3179 -1.0076 -2.4412
 6138SOL     OW29872   0.190   4.558  15.725 -0.0925  0.1711  0.2457
 6138SOL    HW129873   0.169   4.648  15.751  0.7168 -0.4251  2.9932
 6138SOL    HW229874   0.281   4.546  15.752  0.5134  0.2986 -1.7650
 6139SOL     OW29875   0.601   2.341  10.796  0.5951 -0.0789  0.1357
 6139SOL    HW129876   0.586   2.294  10.878  1.1122 -2.2588 -1.0322
 6139SOL    HW229877   0.620   2.275  10.729 -0.1290 -0.2763  0.1243
 6140SOL     OW29878   0.844   1.511   2.151 -0.1778  0.3928 -0.2834
 6140SOL    HW129879   0.930   1.477   2.127 -0.6653 -0.6289 -0.5943
 6140SOL    HW229880   0.821   1.444   2.216  0.5621  1.1134  0.7139
 6141SOL     OW29881   1.749   0.561  11.333 -0.8543 -0.0087 -0.6020
 6141SOL    HW129882   1.719   0.610  11.257 -1.3315 -0.3091 -0.6018
 6141SOL    HW229883   1.803   0.624  11.382 -0.4269 -1.5388  0.8990
 6142SOL     OW29884   1.859   3.562   5.374  0.0898 -0.2849 -0.3739
 6142SOL    HW129885   1.868   3.656   5.356 -0.2936  0.2916  2.3793
 6142SOL    HW229886   1.763   3.556   5.367  0.1282 -1.3500 -0.0843
 6143SOL     OW29887   1.294   4.174   4.603 -0.4122  0.3329 -0.9353
 6143SOL    HW129888   1.236   4.127   4.664  1.4699  0.4832  0.9711
 6143SOL    HW229889   1.232   4.197   4.534  0.2825  0.4383 -1.5204
 6144SOL     OW29890   2.843   2.343  16.950  0.1812 -0.2496 -0.0748
 6144SOL    HW129891   2.811   2.261  16.914  0.9345  1.0227 -3.6081
 6144SOL    HW229892   2.899   2.374  16.879 -0.4524 -1.8562 -1.2696
 6145SOL     OW29893   4.332   0.577   8.513  0.5508 -0.0234 -0.2126
 6145SOL    HW129894   4.353   0.499   8.563 -0.4753  0.1700  0.5186
 6145SOL    HW229895   4.416   0.621   8.507  1.0790 -1.0336 -0.1431
 6146SOL     OW29896   2.062   3.344   5.959  0.3632 -0.2701  0.2013
 6146SOL    HW129897   2.032   3.314   6.044  0.3155 -0.1175  0.2380
 6146SOL    HW229898   2.014   3.426   5.950  0.6154  0.0547  1.8683
 6147SOL     OW29899   2.729   2.302   4.392  0.2437 -0.7758 -0.0685
 6147SOL    HW129900   2.799   2.367   4.390 -2.4627  2.2205  1.6474
 6147SOL    HW229901   2.728   2.292   4.487  2.0708  2.2322  0.2638
 6148SOL     OW29902   1.992   2.567   3.812 -0.9629 -0.1934 -0.2656
 6148SOL    HW129903   2.006   2.583   3.906 -0.6856  0.6745 -0.4583
 6148SOL    HW229904   2.002   2.473   3.794 -0.4512 -0.2662  0.3752
 6149SOL     OW29905   3.131   3.315   8.018  0.1465 -0.1564 -0.5724
 6149SOL    HW129906   3.170   3.370   8.086  0.1184 -0.4746 -0.2998
 6149SOL    HW229907   3.183   3.337   7.940  1.8942 -2.7268 -0.1222
 6150SOL     OW29908   2.004   3.553   3.955  0.1814  0.5212 -0.4126
 6150SOL    HW129909   1.990   3.476   4.011 -1.8883  1.1671 -0.0384
 6150SOL    HW229910   2.064   3.600   4.014 -1.5292  0.2963  1.4915
 6151SOL     OW29911   4.287   4.723   5.577  0.0404  0.4758 -0.4441
 6151SOL    HW129912   4.225   4.706   5.507  0.5259  1.2999 -1.0739
 6151SOL    HW229913   4.278   0.094   5.590 -1.4217  0.2292  0.3643
 6152SOL     OW29914   1.800   1.593   5.938  0.3286 -0.3086  0.1500
 6152SOL    HW129915   1.892   1.604   5.914  0.2425 -0.1494 -0.1055
 6152SOL    HW229916   1.788   1.676   5.983 -0.6060 -0.6132  0.4644
 6153SOL     OW29917   4.696   4.596   4.900 -0.0610 -0.1994 -0.3634
 6153SOL    HW129918   4.700   4.683   4.941 -1.0167 -1.3078  2.0683
 6153SOL    HW229919   4.689   4.542   4.978 -2.1941 -1.2724 -1.3042
 6154SOL     OW29920   2.744   0.449   8.832 -0.1260  0.5906  0.1422
 6154SOL    HW129921   2.685   0.442   8.907 -0.1458  0.3890  0.1090
 6154SOL    HW229922   2.674   0.461   8.767 -1.5916  1.3945  1.8844
 6155SOL     OW29923   4.377   2.138  11.603  0.6169  0.5920 -0.3350
 6155SOL    HW129924   4.394   2.045  11.589 -0.7667  0.4353 -0.9398
 6155SOL    HW229925   4.351   2.170  11.517 -1.5053 -2.7516 -0.9265
 6156SOL     OW29926   0.183   1.534   0.378 -0.0123  0.8808  0.4544
 6156SOL    HW129927   0.261   1.533   0.322 -0.6043 -1.1271 -0.3252
 6156SOL    HW229928   0.122   1.488   0.321  2.6150 -2.2472  0.1393
 6157SOL     OW29929   3.316   3.113   7.008 -0.4848  0.4195  0.2135
 6157SOL    HW129930   3.379   3.166   7.056  0.3511 -0.4540  0.0723
 6157SOL    HW229931   3.369   3.046   6.965 -0.9648 -1.2813  2.2583
 6158SOL     OW29932   2.604   0.917   5.434 -0.1311 -0.1294  0.2960
 6158SOL    HW129933   2.661   0.871   5.496  2.0900  1.0846 -0.8383
 6158SOL    HW229934   2.578   0.989   5.492  1.1425  0.5650 -0.0057
 6159SOL     OW29935   2.937   3.998   8.568 -0.2710 -0.0414  0.1065
 6159SOL    HW129936   2.987   3.976   8.489 -1.0541  1.1365 -0.7206
 6159SOL    HW229937   3.009   3.983   8.629 -0.4416  0.8078  0.5271
 6160SOL     OW29938   3.951   1.609   2.812  0.1734 -0.6919 -0.2464
 6160SOL    HW129939   3.958   1.538   2.748  2.4363  0.1293 -0.9293
 6160SOL    HW229940   3.859   1.605   2.837  0.6551  0.2070  1.6248
 6161SOL     OW29941   2.642   1.803   3.509 -0.0136  0.4948  0.5483
 6161SOL    HW129942   2.644   1.888   3.553 -0.7478 -0.3220  2.1506
 6161SOL    HW229943   2.699   1.758   3.572 -1.8701 -1.3932  0.8646
 6162SOL     OW29944   3.332   2.734   2.640 -0.4205  0.9540 -0.1813
 6162SOL    HW129945   3.391   2.711   2.569  0.0790  1.5629  0.0333
 6162SOL    HW229946   3.305   2.646   2.663 -1.4928  1.1441 -0.7067
 6163SOL     OW29947   3.072   3.217   7.022 -0.4968 -0.0100 -0.2814
 6163SOL    HW129948   3.157   3.178   7.001  0.6075  1.6856  1.0746
 6163SOL    HW229949   3.109   3.291   7.070 -0.4336 -0.4262  0.3152
 6164SOL     OW29950   0.975   2.973   4.506  0.0946 -0.0423 -0.0875
 6164SOL    HW129951   0.887   2.952   4.540 -0.3613  0.4992 -0.9425
 6164SOL    HW229952   0.963   3.065   4.484  1.5044  0.2539  0.3815
 6165SOL     OW29953   2.307   4.129   5.900  0.1827  0.0622 -0.1326
 6165SOL    HW129954   2.383   4.142   5.843 -0.3217 -1.6937 -1.2068
 6165SOL    HW229955   2.239   4.166   5.844 -2.0343  1.1589  3.2737
 6166SOL     OW29956   0.969   3.158  10.387 -1.3518  0.0766 -0.2269
 6166SOL    HW129957   1.032   3.206  10.441  1.2539 -1.4165 -1.8841
 6166SOL    HW229958   0.938   3.084  10.439 -2.2376  0.1408 -0.6779
 6167SOL     OW29959   3.695   2.471  13.698 -0.6634 -0.0698  0.1266
 6167SOL    HW129960   3.625   2.407  13.710  0.6201 -1.3227  1.0442
 6167SOL    HW229961   3.732   2.467  13.786  0.4123 -0.6123 -0.3455
 6168SOL     OW29962   1.716   4.676   6.672  0.6138 -0.2695  0.5005
 6168SOL    HW129963   1.657   0.014   6.629  1.6056  0.5203  0.2675
 6168SOL    HW229964   1.662   4.655   6.748  0.1743  1.0112  0.5430
 6169SOL     OW29965   0.956   3.161   5.632  0.2499 -0.2351  0.0241
 6169SOL    HW129966   1.023   3.140   5.567  1.4576  0.7003  0.9636
 6169SOL    HW229967   0.915   3.076   5.643  0.0142 -0.6412 -4.3781
 6170SOL     OW29968   2.755   2.012   7.696 -0.2205 -0.6378  0.5774
 6170SOL    HW129969   2.753   1.953   7.771 -1.8470 -2.6061 -1.0488
 6170SOL    HW229970   2.844   2.044   7.709 -0.1422  0.3127 -2.2071
 6171SOL     OW29971   0.887   2.424   2.984 -0.1903  0.7312 -0.6980
 6171SOL    HW129972   0.831   2.370   3.040  0.5041 -0.4709 -1.1653
 6171SOL    HW229973   0.912   2.493   3.045  0.9344 -1.6518  1.5871
 6172SOL     OW29974   3.066   3.870  11.380  0.3602 -0.6362 -0.2014
 6172SOL    HW129975   3.013   3.950  11.374 -0.6538 -1.3763 -1.0689
 6172SOL    HW229976   3.149   3.907  11.352  1.3778 -1.6870  1.4498
 6173SOL     OW29977   2.015   4.248  12.237  0.4564  0.3621  0.3333
 6173SOL    HW129978   1.961   4.192  12.182  0.6972 -0.3387  0.8083
 6173SOL    HW229979   2.024   4.332  12.192 -0.9071  1.4432  2.0440
 6174SOL     OW29980   2.888   0.776   4.399  0.0338 -0.0282  0.0070
 6174SOL    HW129981   2.947   0.772   4.474 -0.0741  2.2376  0.2294
 6174SOL    HW229982   2.871   0.682   4.396  0.9817 -0.1384 -1.9884
 6175SOL     OW29983   3.233   0.007   4.030 -0.0861  1.0591 -0.3343
 6175SOL    HW129984   3.203   4.693   4.113  1.5117 -0.8063 -0.5687
 6175SOL    HW229985   3.228   4.648   3.980 -1.8106  1.4623 -0.7985
 6176SOL     OW29986   4.576   3.233   1.732 -0.0677 -0.2253 -0.4027
 6176SOL    HW129987   4.523   3.281   1.795  0.7163  0.5717 -0.3416
 6176SOL    HW229988   4.508   3.188   1.682  1.2943 -2.3756 -0.3304
 6177SOL     OW29989   4.231   2.460   1.718  1.0254 -0.2023 -0.1869
 6177SOL    HW129990   4.311   2.431   1.763  0.7860 -1.8926 -0.8312
 6177SOL    HW229991   4.199   2.375   1.686 -0.7638  0.5530 -0.3868
 6178SOL     OW29992   3.702   0.761  15.146  0.2022  0.2059  0.4180
 6178SOL    HW129993   3.727   0.706  15.071  0.1580  3.4921 -1.9863
 6178SOL    HW229994   3.613   0.733  15.170  0.9698 -2.8502 -0.2157
 6179SOL     OW29995   4.710   4.331   7.850  0.3177  0.0658 -0.5215
 6179SOL    HW129996   0.015   4.422   7.861  2.3633 -0.7866  1.1963
 6179SOL    HW229997   0.017   4.296   7.934  0.5679  2.5514  0.4180
 6180SOL     OW29998   0.099   4.593   4.089  0.6015  0.2003  0.3940
 6180SOL    HW129999   0.116   4.557   4.002  1.1909  1.7148 -0.1183
 6180SOL    HW230000   0.035   4.532   4.126 -0.7904 -0.2426 -2.7787
 6181SOL     OW30001   1.048   2.736   5.268  0.0988  0.3715  0.0154
 6181SOL    HW130002   1.127   2.768   5.311  0.9297  0.3727 -1.5266
 6181SOL    HW230003   1.021   2.808   5.211 -1.8573 -1.6675 -1.6320
 6182SOL     OW30004   1.650   2.586  17.675  0.7499 -0.4438  0.1875
 6182SOL    HW130005   1.569   2.567  17.628 -0.6861  0.3405  2.3656
 6182SOL    HW230006   1.716   2.538  17.624  1.1112  1.8425 -1.5354
 6183SOL     OW30007   4.139   4.144   6.047  0.0139  0.1557 -0.5757
 6183SOL    HW130008   4.083   4.073   6.015 -1.0776  0.7504  0.0347
 6183SOL    HW230009   4.117   4.212   5.984 -1.4242  0.8479  0.6957
 6184SOL     OW30010   4.635   3.442   7.879 -0.0301 -0.2212  0.1031
 6184SOL    HW130011   4.586   3.383   7.937 -0.8571  0.9122  0.5557
 6184SOL    HW230012   4.567   3.506   7.860  0.7534 -0.2093 -2.6251
 6185SOL     OW30013   3.385   0.476  17.280  0.2515  0.3354 -0.1534
 6185SOL    HW130014   3.368   0.508  17.192 -0.3526 -0.5067 -0.3483
 6185SOL    HW230015   3.376   0.381  17.273  0.9870  0.3702 -1.5750
 6186SOL     OW30016   3.011   2.026  15.574  0.1836  0.3056  0.0750
 6186SOL    HW130017   3.080   2.028  15.641  1.4562 -2.6603 -1.1517
 6186SOL    HW230018   3.027   1.944  15.528 -2.3489  1.1868 -2.3322
 6187SOL     OW30019   0.974   2.636  11.529 -0.0514 -0.1639 -0.9426
 6187SOL    HW130020   1.033   2.681  11.468 -1.1309  1.0137 -1.1342
 6187SOL    HW230021   0.901   2.698  11.527 -0.9410 -1.2156 -0.7089
 6188SOL     OW30022   3.332   3.478   6.942 -0.0208 -0.5193 -0.5879
 6188SOL    HW130023   3.336   3.397   6.891 -0.7737 -0.6729 -0.4044
 6188SOL    HW230024   3.299   3.444   7.025  1.3599  1.5066  0.7748
 6189SOL     OW30025   2.937   3.883   4.942  0.1147 -0.0490  0.4117
 6189SOL    HW130026   2.892   3.806   4.908 -0.8678  0.6862  0.0355
 6189SOL    HW230027   2.909   3.874   5.033  0.5848  1.0764  0.6664
 6190SOL     OW30028   2.318   3.120   9.110 -0.0983 -0.4370  0.0065
 6190SOL    HW130029   2.313   3.138   9.204  0.3593 -0.8340  0.1045
 6190SOL    HW230030   2.224   3.114   9.092 -0.7481  1.1481  2.8899
 6191SOL     OW30031   0.863   0.927   3.324  0.1204 -0.7678 -0.1081
 6191SOL    HW130032   0.899   0.854   3.275 -0.0850 -1.3546  0.6072
 6191SOL    HW230033   0.862   0.994   3.256  0.3048  0.3920  1.0431
 6192SOL     OW30034   1.159   3.247   5.067  0.0558  0.6036 -0.5290
 6192SOL    HW130035   1.234   3.291   5.027  1.9043 -0.8701  1.3217
 6192SOL    HW230036   1.165   3.280   5.157  2.4083 -1.6384  0.1453
 6193SOL     OW30037   3.826   0.593   3.135 -0.0610  0.0163  0.2412
 6193SOL    HW130038   3.912   0.622   3.165 -0.4446  2.6869 -1.2180
 6193SOL    HW230039   3.790   0.669   3.090  1.6893  0.2938 -0.6783
 6194SOL     OW30040   0.806   1.427  15.180  0.0596 -0.2759  0.8700
 6194SOL    HW130041   0.886   1.401  15.225  1.1060  0.4658 -0.5858
 6194SOL    HW230042   0.751   1.358  15.219  1.7300 -0.9158  2.1019
 6195SOL     OW30043   2.541   2.243  12.921  0.4743 -0.1959  0.3117
 6195SOL    HW130044   2.548   2.201  13.007 -0.0430 -1.0669 -0.0740
 6195SOL    HW230045   2.489   2.180  12.871 -0.6621  0.5903  0.5206
 6196SOL     OW30046   3.302   3.860   5.154  0.0009 -0.1269  0.0893
 6196SOL    HW130047   3.365   3.805   5.201 -0.4638 -0.5648  0.1902
 6196SOL    HW230048   3.228   3.869   5.213 -1.8185  1.2702 -2.3829
 6197SOL     OW30049   1.533   3.652   2.371 -0.0041 -0.6862 -0.4251
 6197SOL    HW130050   1.552   3.558   2.371  0.7541 -0.5299  1.7431
 6197SOL    HW230051   1.575   3.678   2.453 -0.0862 -1.1830 -0.2261
 6198SOL     OW30052   4.256   4.336  17.687 -0.4177 -0.5288  0.6231
 6198SOL    HW130053   4.318   4.335   0.065 -0.7392  0.5047  0.9169
 6198SOL    HW230054   4.181   4.376   0.037  0.7736  1.0804  1.1907
 6199SOL     OW30055   3.940   2.508   0.871 -0.5665 -0.4793 -0.0463
 6199SOL    HW130056   3.963   2.600   0.876 -3.8850  0.2493  1.4208
 6199SOL    HW230057   4.025   2.474   0.840  0.6266  2.3491  0.1610
 6200SOL     OW30058   4.666   3.134  15.656  0.1643 -0.2427 -0.2546
 6200SOL    HW130059   4.673   3.088  15.572  1.0157 -0.8005  0.1107
 6200SOL    HW230060   0.019   3.191  15.664 -0.9184  1.4594 -1.9252
 6201SOL     OW30061   0.324   0.464   6.217 -0.9194  0.2132 -0.2910
 6201SOL    HW130062   0.273   0.467   6.136  1.3716 -0.2251 -1.7513
 6201SOL    HW230063   0.248   0.481   6.273 -1.3085  0.8559 -1.0185
 6202SOL     OW30064   0.251   2.283   5.237  0.2642  0.0824 -0.0461
 6202SOL    HW130065   0.249   2.285   5.141  0.6750 -0.6245 -0.0731
 6202SOL    HW230066   0.328   2.339   5.250  0.0059 -0.1283  2.4566
 6203SOL     OW30067   4.471   3.136   4.035  0.4659 -0.4853  0.5338
 6203SOL    HW130068   4.516   3.211   4.075  0.2336  0.4413 -0.9715
 6203SOL    HW230069   4.548   3.086   4.010  1.3154  0.4496  1.2426
 6204SOL     OW30070   4.675   0.287   8.860 -0.1587  0.3923 -0.4724
 6204SOL    HW130071   4.697   0.213   8.916  1.3412 -0.1814 -1.8517
 6204SOL    HW230072   4.672   0.363   8.918  1.2329  0.9281 -1.1185
 6205SOL     OW30073   2.798   1.147   5.218  0.2035  0.4236  0.2221
 6205SOL    HW130074   2.865   1.139   5.286  1.6963 -0.7959 -1.4015
 6205SOL    HW230075   2.768   1.056   5.214 -0.1134  0.5869 -1.1318
 6206SOL     OW30076   2.173   4.191  12.579  0.2156  0.5997  0.1155
 6206SOL    HW130077   2.119   4.263  12.548 -0.1997 -0.6231 -1.9525
 6206SOL    HW230078   2.132   4.191  12.666 -0.7726  2.3888 -0.3560
 6207SOL     OW30079   2.257   2.934  16.522 -0.0154 -0.6911  0.5757
 6207SOL    HW130080   2.306   2.863  16.479 -1.3161 -0.8938 -0.5623
 6207SOL    HW230081   2.332   2.982  16.558 -1.8451  3.0338 -0.6511
 6208SOL     OW30082   3.476   1.316   3.310 -0.3226 -0.6849  0.2453
 6208SOL    HW130083   3.392   1.311   3.355  0.3440  0.1317  1.5838
 6208SOL    HW230084   3.463   1.314   3.215  2.1369 -0.3014 -0.0985
 6209SOL     OW30085   1.581   0.930   4.374  0.3382 -0.0978  0.3768
 6209SOL    HW130086   1.672   0.925   4.344 -0.5343 -0.8788 -2.1746
 6209SOL    HW230087   1.561   0.838   4.356  3.0164 -0.8803  1.3567
 6210SOL     OW30088   4.415   4.630   6.983 -0.3462  0.6299 -0.1851
 6210SOL    HW130089   4.353   4.699   7.009 -2.6815 -0.8263 -1.8231
 6210SOL    HW230090   4.415   4.564   7.052 -0.3377 -1.2006 -1.9189
 6211SOL     OW30091   0.550   0.394   3.083 -0.4969 -0.9299 -0.2201
 6211SOL    HW130092   0.563   0.468   3.143 -0.2463 -1.8272  0.8444
 6211SOL    HW230093   0.486   0.345   3.136 -0.9519 -0.0984  0.0137
 6212SOL     OW30094   3.634   3.635   4.108  0.8211 -0.7136 -0.1244
 6212SOL    HW130095   3.699   3.692   4.067  1.1853 -1.3222 -0.3864
 6212SOL    HW230096   3.579   3.699   4.153  2.9064  1.5330 -0.7675
 6213SOL     OW30097   2.221   4.460   9.563  0.3443 -0.3495  0.1760
 6213SOL    HW130098   2.160   4.468   9.637  0.2277  3.6833 -0.3843
 6213SOL    HW230099   2.205   4.542   9.517 -0.3946  0.2964  1.5872
 6214SOL     OW30100   2.880   3.202   3.896 -0.0599  0.4488  0.0350
 6214SOL    HW130101   2.860   3.132   3.834 -2.6944 -0.6400  2.1199
 6214SOL    HW230102   2.816   3.198   3.968  1.3752 -2.0017  1.1756
 6215SOL     OW30103   0.159   3.814   2.092  0.0255  0.2699  1.0947
 6215SOL    HW130104   0.111   3.747   2.043 -0.5092  1.0443  0.5417
 6215SOL    HW230105   0.138   3.785   2.180 -0.6414 -1.8046  0.2698
 6216SOL     OW30106   4.328   2.514   5.346 -0.1427  0.1588  0.3303
 6216SOL    HW130107   4.364   2.477   5.266  0.9712 -0.4046  1.0863
 6216SOL    HW230108   4.385   2.591   5.342 -0.4213  0.4075  1.0064
 6217SOL     OW30109   0.843   4.294   9.170 -0.3895  0.6093  0.5247
 6217SOL    HW130110   0.806   4.233   9.234 -0.1144  1.0427  1.0979
 6217SOL    HW230111   0.875   4.226   9.111  0.0379 -0.6345  2.1928
 6218SOL     OW30112   0.628   1.115   0.720  0.0146  0.2704 -0.2006
 6218SOL    HW130113   0.533   1.122   0.729 -0.0173  0.3678 -0.6041
 6218SOL    HW230114   0.639   1.207   0.695 -2.0266  1.4884  3.3976
 6219SOL     OW30115   1.246   2.001  11.803  0.3713  0.6046  0.0540
 6219SOL    HW130116   1.265   1.948  11.880 -0.7731  0.5632  0.3149
 6219SOL    HW230117   1.150   2.000  11.801  0.4257 -3.8752  1.1984
 6220SOL     OW30118   1.299   2.720   7.903  0.3633  0.1743 -0.0777
 6220SOL    HW130119   1.378   2.689   7.948  1.0686  1.8266 -0.1915
 6220SOL    HW230120   1.255   2.770   7.972  1.6701  2.5251 -0.9791
 6221SOL     OW30121   2.236   4.515   5.739  0.1429 -0.4166 -0.3363
 6221SOL    HW130122   2.205   4.475   5.657  1.8145 -0.9157 -0.7242
 6221SOL    HW230123   2.175   4.588   5.748 -1.0178 -1.5158  0.5927
 6222SOL     OW30124   1.569   1.123   7.967  0.4815 -0.1111  0.3774
 6222SOL    HW130125   1.476   1.118   7.992  0.1535 -1.9152 -1.1825
 6222SOL    HW230126   1.591   1.030   7.976  1.2911  0.1243  0.7677
 6223SOL     OW30127   3.368   4.208   9.501 -0.7495  0.3033  0.0367
 6223SOL    HW130128   3.300   4.221   9.435  0.0006  2.8374 -0.2308
 6223SOL    HW230129   3.335   4.274   9.561 -1.6135 -0.9312  0.9099
 6224SOL     OW30130   3.002   3.809  11.638  0.4331 -0.5704 -0.4910
 6224SOL    HW130131   2.990   3.826  11.545  0.2339  1.7496 -0.0473
 6224SOL    HW230132   3.097   3.802  11.648  0.1391 -1.8539  1.2884
 6225SOL     OW30133   0.767   1.068   5.998  0.1111  0.1741  0.7575
 6225SOL    HW130134   0.841   1.125   5.977  0.7968 -1.5369 -1.4467
 6225SOL    HW230135   0.729   1.134   6.056 -1.3299 -1.0927  1.2556
 6226SOL     OW30136   1.512   0.754   2.289  0.0927  0.1808 -0.3529
 6226SOL    HW130137   1.600   0.792   2.293  0.0372  0.5429 -2.6293
 6226SOL    HW230138   1.501   0.732   2.196 -1.7450  0.0613 -0.1075
 6227SOL     OW30139   1.382   2.695   4.699 -0.3167 -0.2849 -0.2130
 6227SOL    HW130140   1.330   2.630   4.746 -0.1604 -0.3867 -0.1789
 6227SOL    HW230141   1.441   2.727   4.768 -0.1658 -0.2467 -0.3583
 6228SOL     OW30142   4.187   1.566  12.598  0.2557 -0.0011 -0.8354
 6228SOL    HW130143   4.193   1.490  12.540  1.8554 -0.9476  0.5839
 6228SOL    HW230144   4.253   1.630  12.573  0.1450  0.1978 -0.6172
 6229SOL     OW30145   2.130   3.629   2.110 -0.8484 -0.7995 -0.4789
 6229SOL    HW130146   2.183   3.588   2.178 -0.8418  0.0394  0.0281
 6229SOL    HW230147   2.050   3.655   2.155 -0.8020  0.1403 -0.9317
 6230SOL     OW30148   1.067   1.366   7.740  0.3223  0.2017  0.7632
 6230SOL    HW130149   1.161   1.351   7.734  0.1913 -0.1198 -0.4530
 6230SOL    HW230150   1.052   1.352   7.647 -0.1142  0.4192  0.8007
 6231SOL     OW30151   1.152   1.021   3.964  0.3756 -0.2356  0.3729
 6231SOL    HW130152   1.206   0.964   3.908  1.3160  0.2703  0.7672
 6231SOL    HW230153   1.220   1.059   4.020 -0.5498  1.3430  0.4023
 6232SOL     OW30154   3.107   1.938  12.409  0.2244 -0.5121 -0.3471
 6232SOL    HW130155   3.194   1.975  12.397 -0.8192  2.0635  0.1842
 6232SOL    HW230156   3.050   2.009  12.381  0.3375 -1.1393 -2.1674
 6233SOL     OW30157   1.537   1.048   5.169  0.6559  0.0111  0.2956
 6233SOL    HW130158   1.471   1.105   5.208  1.1556  0.5730  0.3221
 6233SOL    HW230159   1.598   1.118   5.143 -0.0955  0.5880  0.0769
 6234SOL     OW30160   0.387   3.123   8.259  0.0364  0.0968 -0.3969
 6234SOL    HW130161   0.397   3.174   8.339 -1.4773  0.9572 -0.7382
 6234SOL    HW230162   0.295   3.148   8.250 -0.0317  0.0060  0.0420
 6235SOL     OW30163   3.021   4.224   8.942  0.1588 -0.0405 -0.1014
 6235SOL    HW130164   3.006   4.153   9.005  3.7580 -1.0012 -0.2930
 6235SOL    HW230165   2.965   4.214   8.865  0.1304 -2.3377  0.2192
 6236SOL     OW30166   2.247   4.016   2.981 -0.5669 -0.1360  0.2812
 6236SOL    HW130167   2.249   3.976   2.894  1.6322  0.5183  0.0277
 6236SOL    HW230168   2.177   4.081   2.981  0.8909  1.4451  0.0789
 6237SOL     OW30169   1.097   2.011   6.421  0.2114  0.2999 -0.3459
 6237SOL    HW130170   1.075   1.918   6.423  1.2298  0.0897  1.1892
 6237SOL    HW230171   1.017   2.042   6.462  1.0310 -1.5383  2.6654
 6238SOL     OW30172   2.508   1.894  11.773  0.0710 -0.4710 -0.0239
 6238SOL    HW130173   2.438   1.837  11.743 -0.9647  2.0771 -2.4736
 6238SOL    HW230174   2.587   1.851  11.739 -0.5397 -0.5483 -1.3503
 6239SOL     OW30175   2.934   3.883   7.797  0.3593 -0.6102 -0.1462
 6239SOL    HW130176   2.902   3.914   7.882  0.4041 -0.7421 -0.0822
 6239SOL    HW230177   3.027   3.888   7.818  0.3734  0.0408 -0.3673
 6240SOL     OW30178   1.023   4.225   5.793 -0.0771 -0.2220  0.0113
 6240SOL    HW130179   1.109   4.239   5.753  0.5902 -0.5565  1.3281
 6240SOL    HW230180   0.988   4.145   5.753  1.5645 -1.6712  1.4797
 6241SOL     OW30181   0.930   0.348   8.631  0.1300  0.1175  0.2067
 6241SOL    HW130182   1.025   0.356   8.638  0.2608 -2.1039  0.9931
 6241SOL    HW230183   0.916   0.280   8.697 -1.9575  0.1166 -0.2087
 6242SOL     OW30184   2.992   2.053   7.380  0.0415  0.3204  0.2103
 6242SOL    HW130185   2.972   2.099   7.298  0.4315  0.7382  0.3551
 6242SOL    HW230186   2.946   2.115   7.436 -0.4828 -2.6276  3.0742
 6243SOL     OW30187   0.215   2.014   3.659 -0.2029 -0.0074 -0.0382
 6243SOL    HW130188   0.128   2.038   3.627 -0.0171 -1.0143 -1.3157
 6243SOL    HW230189   0.192   1.923   3.682 -1.1177  0.9389  2.8310
 6244SOL     OW30190   1.249   1.148  14.769  0.0337 -0.4542 -0.3168
 6244SOL    HW130191   1.314   1.201  14.723  0.0661 -0.8130 -0.6871
 6244SOL    HW230192   1.290   1.126  14.853  0.5348  1.2147 -0.1249
 6245SOL     OW30193   3.525   4.612   6.531  0.0429  0.3088  0.6144
 6245SOL    HW130194   3.619   4.603   6.547 -0.3223 -1.7307  1.6439
 6245SOL    HW230195   3.513   4.702   6.503  1.6059  0.4375  0.3607
 6246SOL     OW30196   4.077   0.017   6.126 -0.0707  0.0051  0.4724
 6246SOL    HW130197   4.006   4.677   6.123  1.0899 -1.3120  0.6451
 6246SOL    HW230198   4.029   0.093   6.095  0.1807 -0.3398 -0.7691
 6247SOL     OW30199   3.266   2.122  17.622 -0.1229 -0.2264  0.0096
 6247SOL    HW130200   3.199   2.183  17.592  1.4210  1.3786 -0.1850
 6247SOL    HW230201   3.318   2.174  17.683 -0.6936 -0.6432  0.8494
 6248SOL     OW30202   2.550   2.940  12.799 -0.1152  0.5366  0.0050
 6248SOL    HW130203   2.592   2.864  12.840 -1.2556 -0.2873 -0.3584
 6248SOL    HW230204   2.481   2.898  12.749  1.3095 -1.1445 -0.5603
 6249SOL     OW30205   0.382   3.552   6.227 -0.0970 -0.0539 -0.3405
 6249SOL    HW130206   0.348   3.491   6.161  0.5317 -0.4777 -0.2738
 6249SOL    HW230207   0.303   3.606   6.231  1.7454  2.5463  1.1479
 6250SOL     OW30208   0.705   2.462   9.404 -0.5816  0.3576 -0.4584
 6250SOL    HW130209   0.734   2.553   9.401  3.0002 -0.7816 -0.4357
 6250SOL    HW230210   0.620   2.473   9.361 -0.7847 -0.0376 -0.1502
 6251SOL     OW30211   3.022   0.253   1.746  0.4659 -0.1237 -0.3564
 6251SOL    HW130212   3.052   0.253   1.655 -0.1625 -1.1541 -0.5575
 6251SOL    HW230213   3.068   0.175   1.777  0.3293  0.2623  0.8338
 6252SOL     OW30214   2.737   3.300   5.060  0.2400  0.3800 -0.2442
 6252SOL    HW130215   2.707   3.236   4.996  1.4553 -2.2219  1.7928
 6252SOL    HW230216   2.656   3.346   5.081  0.8229  0.0386  2.8044
 6253SOL     OW30217   4.291   0.243  15.031  0.0269 -0.2449 -0.3029
 6253SOL    HW130218   4.284   0.335  15.003  1.5633  0.3478  1.2553
 6253SOL    HW230219   4.230   0.263  15.101  1.9987 -0.2915  1.4278
 6254SOL     OW30220   2.863   3.952   9.459 -0.1853  0.5794 -0.2472
 6254SOL    HW130221   2.833   3.937   9.549  0.6348  2.1968  0.2932
 6254SOL    HW230222   2.780   3.954   9.412  0.4355  0.6990 -1.3331
 6255SOL     OW30223   2.873   1.538   7.231  0.4887  0.7347 -0.0080
 6255SOL    HW130224   2.879   1.633   7.244  1.6917  0.7340 -0.5783
 6255SOL    HW230225   2.964   1.509   7.243  0.8502  1.0165 -2.2046
 6256SOL     OW30226   1.737   2.834   8.375  0.3480 -0.0826  0.0721
 6256SOL    HW130227   1.700   2.841   8.463 -0.2275 -1.3550 -0.0593
 6256SOL    HW230228   1.707   2.915   8.333  0.6389 -0.7124 -1.3414
 6257SOL     OW30229   1.666   2.354   4.497  0.1721  0.2338 -0.5007
 6257SOL    HW130230   1.654   2.411   4.572  0.1863  0.5401 -0.7308
 6257SOL    HW230231   1.753   2.322   4.522  0.0261  0.4255  0.2425
 6258SOL     OW30232   1.531   4.546   0.540 -0.4575  0.8583  0.2798
 6258SOL    HW130233   1.601   4.505   0.592 -2.3148 -0.5843  1.6430
 6258SOL    HW230234   1.584   4.585   0.471 -1.3982  1.7743  0.0828
 6259SOL     OW30235   4.526   1.971   4.951  0.0298 -0.5396  0.2595
 6259SOL    HW130236   4.456   2.034   4.967  0.5128 -0.1109  0.7104
 6259SOL    HW230237   4.519   1.918   5.030 -0.4758 -0.0593  0.5389
 6260SOL     OW30238   1.176   3.090   8.305 -0.1000 -0.1434 -0.3466
 6260SOL    HW130239   1.140   3.026   8.367  2.9425 -0.0739  1.4699
 6260SOL    HW230240   1.240   3.035   8.260 -0.1980 -0.9051  0.4469
 6261SOL     OW30241   3.446   1.699  15.854  0.4464 -0.0775 -0.0961
 6261SOL    HW130242   3.470   1.635  15.921 -2.1790  0.7669  1.6875
 6261SOL    HW230243   3.410   1.770  15.908  0.3122 -1.8145  2.1148
 6262SOL     OW30244   0.838   0.318  12.282  0.5297  0.3097 -0.1159
 6262SOL    HW130245   0.813   0.373  12.356  0.8694 -0.0511  0.2593
 6262SOL    HW230246   0.752   0.294  12.247  0.8345 -1.7872  0.5765
 6263SOL     OW30247   2.756   4.507   8.272  0.3249 -0.0793 -0.1565
 6263SOL    HW130248   2.717   4.420   8.260 -2.2832  1.1893 -1.0430
 6263SOL    HW230249   2.674   4.556   8.280  0.6206  0.6457 -1.5479
 6264SOL     OW30250   2.317   4.063   5.303  0.2946 -0.4950  0.2140
 6264SOL    HW130251   2.307   4.017   5.220 -0.7449 -0.0212  0.0670
 6264SOL    HW230252   2.234   4.041   5.346  0.0753 -0.1360 -0.0183
 6265SOL     OW30253   3.989   2.008   5.002  0.2714  0.4555 -0.3510
 6265SOL    HW130254   4.084   2.014   4.993  0.1857  1.6025 -0.4454
 6265SOL    HW230255   3.967   1.944   4.934 -0.0137 -1.4635  1.5275
 6266SOL     OW30256   3.667   0.186  13.057  0.7079 -0.7835 -0.2703
 6266SOL    HW130257   3.665   0.226  13.144  1.1867 -0.2867 -0.4925
 6266SOL    HW230258   3.591   0.127  13.056 -0.6430  0.9489 -0.1038
 6267SOL     OW30259   0.116   1.518   4.207  0.3117 -0.6309  0.1294
 6267SOL    HW130260   0.195   1.466   4.217 -0.1426 -0.6821  3.2403
 6267SOL    HW230261   0.150   1.608   4.206  2.1826 -1.3410  0.7440
 6268SOL     OW30262   1.469   0.367   9.555 -0.3364  0.3056 -0.2227
 6268SOL    HW130263   1.442   0.284   9.517  2.1757 -0.1396 -1.0028
 6268SOL    HW230264   1.458   0.341   9.647 -0.3284  0.1997 -0.2512
 6269SOL     OW30265   3.026   1.003   9.979  0.2176  0.2295 -0.1664
 6269SOL    HW130266   2.965   1.014  10.052 -1.4122 -0.3250 -1.4525
 6269SOL    HW230267   3.105   1.045  10.014 -1.3973  0.7131  2.8498
 6270SOL     OW30268   1.442   1.348  15.551  0.3752 -0.3934 -0.7955
 6270SOL    HW130269   1.349   1.348  15.570  0.7921  2.7675  1.2891
 6270SOL    HW230270   1.494   1.345  15.631  2.2908 -0.9341 -2.0516
 6271SOL     OW30271   4.070   3.364   8.081  0.0003  0.0260  0.0444
 6271SOL    HW130272   4.004   3.345   8.148 -0.2151 -1.0544 -0.4668
 6271SOL    HW230273   4.039   3.439   8.031  0.1372 -0.1271 -0.2742
 6272SOL     OW30274   3.201   2.471  16.550 -0.0766 -0.2415  0.0723
 6272SOL    HW130275   3.197   2.395  16.608 -0.7803 -0.1546  0.1484
 6272SOL    HW230276   3.295   2.471  16.536  0.3940  1.2314  3.0577
 6273SOL     OW30277   2.819   0.260   3.435 -0.3512  0.0418  0.1080
 6273SOL    HW130278   2.886   0.328   3.438  0.3756 -0.8170  2.5605
 6273SOL    HW230279   2.752   0.282   3.500 -0.1865 -1.3838  0.7606
 6274SOL     OW30280   1.411   3.335   2.799  0.0764  0.0857  0.2416
 6274SOL    HW130281   1.486   3.290   2.836  1.2361  1.0963 -0.9022
 6274SOL    HW230282   1.454   3.354   2.716  1.0472 -0.1951  0.6895
 6275SOL     OW30283   3.504   2.169  16.545  0.3756  0.1559 -0.2329
 6275SOL    HW130284   3.483   2.194  16.455  2.8910  1.0327 -0.6013
 6275SOL    HW230285   3.486   2.076  16.534 -0.5036  0.5748 -2.3835
 6276SOL     OW30286   0.296   4.303   3.594  0.6443  0.5346  1.0545
 6276SOL    HW130287   0.329   4.231   3.540  1.5484  1.8543 -0.1262
 6276SOL    HW230288   0.215   4.260   3.621  0.2497 -0.2188 -1.3266
 6277SOL     OW30289   1.729   1.310   2.417 -0.2369  0.3769  0.5553
 6277SOL    HW130290   1.688   1.249   2.356  0.3800  0.1969  0.3214
 6277SOL    HW230291   1.822   1.301   2.399 -1.0010 -1.7282 -2.3036
 6278SOL     OW30292   4.118   1.888   4.175  0.0236 -0.6522  0.2900
 6278SOL    HW130293   4.142   1.976   4.146  1.6571 -1.3724 -0.5473
 6278SOL    HW230294   4.171   1.834   4.116 -0.4042 -2.9668  2.0436
 6279SOL     OW30295   1.749   1.602   7.644 -0.2687  0.6673  0.0406
 6279SOL    HW130296   1.712   1.617   7.731 -0.5038  1.0217 -0.1197
 6279SOL    HW230297   1.678   1.640   7.591 -1.6775 -0.0451  1.4128
 6280SOL     OW30298   3.627   3.570   6.103 -0.3244  0.5533  0.6938
 6280SOL    HW130299   3.689   3.500   6.120 -1.4770 -0.9421 -1.3561
 6280SOL    HW230300   3.623   3.569   6.008 -0.1163 -0.3717  0.7012
 6281SOL     OW30301   0.737   3.349   3.166  0.1826  0.6070 -0.3631
 6281SOL    HW130302   0.738   3.425   3.108 -0.8458 -0.1152 -1.3254
 6281SOL    HW230303   0.729   3.376   3.258 -1.2550  0.3641 -0.4192
 6282SOL     OW30304   1.470   4.086   6.217  0.6096 -0.1712 -0.3372
 6282SOL    HW130305   1.449   4.005   6.171 -0.8148  1.8176 -3.2720
 6282SOL    HW230306   1.526   4.056   6.288 -4.6122 -0.9095  3.4727
 6283SOL     OW30307   0.000   3.225  16.893  0.4046  0.1187  0.2341
 6283SOL    HW130308   4.708   3.205  16.801 -0.2600 -3.0850  1.0287
 6283SOL    HW230309   0.085   3.184  16.911  0.3166 -0.8453 -1.5653
 6284SOL     OW30310   1.777   1.729  12.270  0.1468 -0.2451  0.7170
 6284SOL    HW130311   1.711   1.797  12.253  0.7570  0.3853  0.8627
 6284SOL    HW230312   1.715   1.659  12.292 -1.5040 -0.6278 -5.2414
 6285SOL     OW30313   3.137   1.042   4.662 -0.2842  0.5017  0.0548
 6285SOL    HW130314   3.097   1.129   4.661 -0.9006  0.2133 -0.6014
 6285SOL    HW230315   3.183   1.028   4.744 -2.3765  0.1063  1.1524
 6286SOL     OW30316   3.658   0.946  12.275  0.0488  0.4308 -0.3175
 6286SOL    HW130317   3.733   0.940  12.333 -1.1150 -0.0789  1.1283
 6286SOL    HW230318   3.699   1.006  12.212 -0.9261  0.6381 -0.7576
 6287SOL     OW30319   3.629   3.687   0.945  0.2295  0.1872 -0.1781
 6287SOL    HW130320   3.645   3.778   0.969 -0.9262  0.8283 -1.8028
 6287SOL    HW230321   3.707   3.665   0.895 -1.7897  0.8559 -3.6458
 6288SOL     OW30322   1.499   1.159   4.800 -0.5239  0.1320  0.2447
 6288SOL    HW130323   1.501   1.080   4.746  0.9637 -0.5327  1.2708
 6288SOL    HW230324   1.416   1.194   4.766  0.8323  3.1698  0.0259
 6289SOL     OW30325   1.459   1.635  17.322 -0.4375 -0.0225 -0.1926
 6289SOL    HW130326   1.527   1.655  17.386 -0.8375 -2.0137  0.8369
 6289SOL    HW230327   1.398   1.588  17.379  1.8771 -0.1555  2.2008
 6290SOL     OW30328   0.475   0.773  12.483 -0.4348  0.0878 -0.0055
 6290SOL    HW130329   0.564   0.789  12.450 -0.1541  2.3603  1.8999
 6290SOL    HW230330   0.472   0.678  12.493 -2.7075  0.2745  1.0410
 6291SOL     OW30331   1.231   1.012   0.676 -0.5943 -0.5756 -0.5340
 6291SOL    HW130332   1.305   0.952   0.672 -0.0037  0.0581  0.7203
 6291SOL    HW230333   1.195   0.980   0.759  2.0822  0.3577  0.9938
 6292SOL     OW30334   1.259   4.439   8.636  0.0224 -0.1127  0.1040
 6292SOL    HW130335   1.291   4.364   8.586  0.4389  0.6608 -0.7847
 6292SOL    HW230336   1.183   4.466   8.585  0.9606 -0.3216 -1.3963
 6293SOL     OW30337   3.114   3.588  11.356  0.3206  0.3347  0.1117
 6293SOL    HW130338   3.086   3.676  11.329  0.0513 -0.7228 -3.0054
 6293SOL    HW230339   3.072   3.591  11.442  0.5225  3.8341  0.1090
 6294SOL     OW30340   2.554   1.780   7.630  0.2132  0.0199 -1.0075
 6294SOL    HW130341   2.636   1.812   7.592 -0.4157  0.9079 -1.6060
 6294SOL    HW230342   2.534   1.856   7.684  1.7623 -0.7975  0.7387
 6295SOL     OW30343   0.213   2.329  17.521 -0.3547 -0.3507  0.3558
 6295SOL    HW130344   0.295   2.363  17.556  0.0079  0.3766 -1.1765
 6295SOL    HW230345   0.228   2.238  17.543  1.5408  0.4295  2.2758
 6296SOL     OW30346   0.362   0.542   8.112 -0.2744 -0.0275  0.0947
 6296SOL    HW130347   0.404   0.627   8.103 -0.2732  0.1383  1.6949
 6296SOL    HW230348   0.422   0.519   8.183  0.5398 -0.0685 -0.6103
 6297SOL     OW30349   3.434   3.179  16.827  0.0244 -0.4599 -0.0067
 6297SOL    HW130350   3.339   3.182  16.819 -0.0658  0.0220  1.2211
 6297SOL    HW230351   3.448   3.273  16.834  1.3258 -0.6250 -0.3982
 6298SOL     OW30352   1.787   1.209   5.073 -0.1939 -0.3808  1.0410
 6298SOL    HW130353   1.844   1.155   5.018 -1.9574 -0.1500 -1.0312
 6298SOL    HW230354   1.836   1.195   5.154  0.3052 -0.3863  0.7407
 6299SOL     OW30355   4.523   0.073  11.008  0.1208 -0.0398 -0.0195
 6299SOL    HW130356   4.575   0.140  11.052 -1.4968  0.5358  1.0647
 6299SOL    HW230357   4.434   0.107  11.021  0.9800  1.6514  1.3680
 6300SOL     OW30358   3.368   0.759   8.344 -0.1533 -0.0970 -0.1296
 6300SOL    HW130359   3.385   0.832   8.404 -0.1326  0.6039 -0.9829
 6300SOL    HW230360   3.317   0.696   8.394 -2.7544  0.7820 -1.6543
 6301SOL     OW30361   3.744   4.446  16.900  0.3545  0.2818  0.3379
 6301SOL    HW130362   3.731   4.516  16.964  1.1279  1.2174 -0.5362
 6301SOL    HW230363   3.693   4.493  16.835  0.1170  0.3489  0.5715
 6302SOL     OW30364   3.632   4.357  17.330 -0.3072 -0.0248 -0.4289
 6302SOL    HW130365   3.614   4.384  17.421 -2.1387  1.4937 -1.2384
 6302SOL    HW230366   3.617   4.264  17.346 -0.0104  0.1327  0.8328
 6303SOL     OW30367   0.227   2.249   5.501  0.2045  0.2984 -0.3060
 6303SOL    HW130368   0.230   2.254   5.406 -0.5588  1.5136 -0.2627
 6303SOL    HW230369   0.320   2.234   5.522  0.3217 -1.7698 -2.3627
 6304SOL     OW30370   1.333   1.291   5.546 -0.3530 -0.1161 -0.2023
 6304SOL    HW130371   1.400   1.277   5.612 -0.4892 -1.4187 -0.3496
 6304SOL    HW230372   1.351   1.383   5.526  0.9584 -0.0099  1.4945
 6305SOL     OW30373   3.158   0.667   2.496  0.1099 -0.2993 -0.2101
 6305SOL    HW130374   3.163   0.574   2.518 -0.7836 -0.3280 -0.1415
 6305SOL    HW230375   3.063   0.667   2.485  0.2081 -0.2238 -1.0415
 6306SOL     OW30376   1.134   0.132  14.025  0.2429  0.0854 -0.9188
 6306SOL    HW130377   1.080   0.072  14.076  1.3790  0.5439  0.8268
 6306SOL    HW230378   1.094   0.119  13.939 -1.7126  1.2572 -0.1785
 6307SOL     OW30379   4.288   3.984   4.147  0.1517 -0.6120 -0.6410
 6307SOL    HW130380   4.305   4.024   4.062 -0.6087 -1.7978 -1.3523
 6307SOL    HW230381   4.219   3.919   4.141  2.3201 -2.7208 -2.4422
 6308SOL     OW30382   0.940   1.838   1.612  0.2758  0.6151  0.4742
 6308SOL    HW130383   0.914   1.840   1.705  2.8841  1.0407  1.1870
 6308SOL    HW230384   1.008   1.906   1.614  0.7041  0.2548 -2.0616
 6309SOL     OW30385   0.495   1.944   8.499 -0.6646 -0.4268 -0.7218
 6309SOL    HW130386   0.486   2.025   8.448  0.3955  0.1115 -0.0464
 6309SOL    HW230387   0.463   1.969   8.585 -2.2706 -0.7118 -1.2293
 6310SOL     OW30388   3.436   2.973  17.010 -0.2520 -0.0997 -0.7458
 6310SOL    HW130389   3.529   2.952  17.019 -0.0466  1.2736  0.4146
 6310SOL    HW230390   3.437   3.038  16.940  1.0768  0.1229 -0.5279
 6311SOL     OW30391   1.978   4.379   8.722  0.4763  0.3493  0.0224
 6311SOL    HW130392   1.897   4.343   8.758  0.6085 -0.1313 -0.1574
 6311SOL    HW230393   1.943   4.411   8.640  1.1412 -0.5194 -0.5992
 6312SOL     OW30394   1.629   0.309   4.240  0.1791 -0.2006  0.5785
 6312SOL    HW130395   1.567   0.236   4.247  0.8107 -0.8417 -0.4281
 6312SOL    HW230396   1.610   0.346   4.326 -3.4893 -2.8163  0.8930
 6313SOL     OW30397   3.345   0.678   7.809  0.1583 -0.2640  0.7474
 6313SOL    HW130398   3.358   0.666   7.903 -1.1427  0.3896  1.0034
 6313SOL    HW230399   3.250   0.685   7.815  0.3411  1.6947  1.4352
 6314SOL     OW30400   4.383   1.339   6.541  0.3413  0.0148  0.2687
 6314SOL    HW130401   4.472   1.353   6.571 -0.2382  0.2158  1.9080
 6314SOL    HW230402   4.349   1.429   6.542  1.9565  0.6327  0.0487
 6315SOL     OW30403   4.101   2.070  11.924  0.5439 -0.2399  0.0816
 6315SOL    HW130404   4.181   2.063  11.976  0.5404 -1.3842 -0.0756
 6315SOL    HW230405   4.113   2.006  11.854 -0.4912  0.2226 -0.5129
 6316SOL     OW30406   1.118   3.580  10.458  0.3216 -0.0033  0.0843
 6316SOL    HW130407   1.108   3.654  10.398 -0.7445 -0.2884 -0.0987
 6316SOL    HW230408   1.205   3.548  10.433  1.5239  3.4648 -0.2667
 6317SOL     OW30409   2.610   4.705   5.551  0.0524  0.2015  0.6013
 6317SOL    HW130410   2.537   4.644   5.532  0.2062  0.8831 -2.1795
 6317SOL    HW230411   2.576   0.066   5.521 -2.3997  0.3155  3.7432
 6318SOL     OW30412   1.709   3.558   7.704  0.2734 -0.3665 -0.4380
 6318SOL    HW130413   1.794   3.599   7.717  0.7269 -1.1791 -0.8446
 6318SOL    HW230414   1.730   3.496   7.634 -0.5163 -2.9392  1.5734
 6319SOL     OW30415   4.306   4.172   9.469  0.1466  0.2347 -0.4690
 6319SOL    HW130416   4.329   4.079   9.468  0.5474  0.3409 -0.9421
 6319SOL    HW230417   4.267   4.173   9.382  0.5798  2.5402 -0.6403
 6320SOL     OW30418   0.082   4.383   2.656  0.0585 -0.8156  0.0732
 6320SOL    HW130419   0.166   4.415   2.687 -0.1570  1.1174 -1.3769
 6320SOL    HW230420   0.020   4.415   2.721  2.3444  2.1212  0.7728
 6321SOL     OW30421   2.697   2.384   7.314  0.6679  0.6279  0.0528
 6321SOL    HW130422   2.672   2.300   7.275  3.2676 -0.5775  0.9394
 6321SOL    HW230423   2.618   2.419   7.354  0.1217 -0.8334  0.2396
 6322SOL     OW30424   0.840   0.212  15.683 -0.2416  0.8377  0.4078
 6322SOL    HW130425   0.876   0.242  15.600 -0.3348 -3.3390 -1.1471
 6322SOL    HW230426   0.883   0.276  15.740  3.2217 -0.9373 -0.2295
 6323SOL     OW30427   2.717   2.595  16.040 -0.2927 -0.3779  0.0980
 6323SOL    HW130428   2.654   2.526  16.060  0.7228 -0.6938  2.2118
 6323SOL    HW230429   2.747   2.553  15.960  1.9506  1.2833  0.0605
 6324SOL     OW30430   0.591   3.387   4.818  0.1980  0.3043 -0.8858
 6324SOL    HW130431   0.619   3.334   4.893  2.5904  2.0730 -0.5426
 6324SOL    HW230432   0.542   3.322   4.767  0.0187 -0.8792  0.8013
 6325SOL     OW30433   0.414   1.953   5.217  0.5332  0.4794 -0.2537
 6325SOL    HW130434   0.419   1.990   5.306 -0.3718  0.4597 -0.1945
 6325SOL    HW230435   0.505   1.965   5.193  0.0357  0.7476 -1.9766
 6326SOL     OW30436   0.785   1.111   4.812 -0.5111 -0.2495 -0.1566
 6326SOL    HW130437   0.810   1.046   4.877 -0.6737 -0.8223 -0.6670
 6326SOL    HW230438   0.863   1.167   4.814 -0.3666 -0.4380 -0.4607
 6327SOL     OW30439   1.878   4.465   8.472  0.5469  0.1323 -0.0229
 6327SOL    HW130440   1.792   4.508   8.478  1.1228  1.3927 -0.9540
 6327SOL    HW230441   1.922   4.507   8.398 -1.5118 -1.1568 -1.9752
 6328SOL     OW30442   1.183   1.645  16.966 -0.0610  0.1385  0.7400
 6328SOL    HW130443   1.102   1.691  16.946 -0.3416 -0.4225  0.5739
 6328SOL    HW230444   1.146   1.579  17.026 -1.3333  1.4890  1.4287
 6329SOL     OW30445   1.426   0.825   0.666  0.4555  0.4003  0.3474
 6329SOL    HW130446   1.411   0.757   0.732 -0.4134  1.5626  1.3549
 6329SOL    HW230447   1.407   0.778   0.585  0.5756  0.0341  0.5323
 6330SOL     OW30448   4.670   2.227  13.844  0.7142  0.4617  0.5584
 6330SOL    HW130449   4.599   2.232  13.908  0.0811 -1.2971  0.0105
 6330SOL    HW230450   0.004   2.302  13.858 -0.8061  1.9467 -1.2917
 6331SOL     OW30451   3.337   0.879   1.942 -0.5452  0.0035 -0.5237
 6331SOL    HW130452   3.258   0.869   1.996  2.0555 -0.2616  3.2140
 6331SOL    HW230453   3.351   0.797   1.895  0.2828  0.1840 -0.5764
 6332SOL     OW30454   2.895   2.474   4.648  0.9060  0.2186 -0.2574
 6332SOL    HW130455   2.858   2.386   4.650  2.5423 -0.5303 -3.1940
 6332SOL    HW230456   2.929   2.477   4.559 -1.3706 -5.2883 -1.3385
 6333SOL     OW30457   1.193   0.904  14.649  0.4372  0.3933 -0.6000
 6333SOL    HW130458   1.286   0.885  14.664  0.4264  0.2433 -0.7175
 6333SOL    HW230459   1.187   0.989  14.692 -0.1515 -1.5593  3.1587
 6334SOL     OW30460   2.542   0.861  11.170  0.5293  0.0255 -0.2134
 6334SOL    HW130461   2.567   0.768  11.171  0.2024 -0.0684 -0.6314
 6334SOL    HW230462   2.613   0.893  11.114  0.0693 -0.6925 -1.2029
 6335SOL     OW30463   2.572   4.240   3.778 -0.0272 -0.1066 -0.0148
 6335SOL    HW130464   2.534   4.328   3.775  1.0416  0.3768  0.6584
 6335SOL    HW230465   2.645   4.258   3.718  0.9059 -0.5415  0.9948
 6336SOL     OW30466   3.449   4.146   6.000 -0.5690 -0.6560  0.3874
 6336SOL    HW130467   3.541   4.121   5.992 -0.7809 -0.9672 -0.9873
 6336SOL    HW230468   3.451   4.241   6.013  1.3074 -0.4934 -1.1168
 6337SOL     OW30469   2.036   3.811  15.162 -0.2320 -0.4931  0.3875
 6337SOL    HW130470   2.102   3.867  15.202 -1.5148  2.2225 -1.3293
 6337SOL    HW230471   2.058   3.727  15.203  1.2698 -0.0259  0.5360
 6338SOL     OW30472   0.159   0.381  12.960  0.4445 -0.2559  0.4013
 6338SOL    HW130473   0.075   0.381  12.914  1.8728 -0.6938 -2.2638
 6338SOL    HW230474   0.215   0.339  12.894  0.1619 -0.1277  0.0793
 6339SOL     OW30475   3.231   3.551   2.430  0.3658 -0.3978 -0.1497
 6339SOL    HW130476   3.224   3.641   2.463  1.0558  0.8859 -3.5700
 6339SOL    HW230477   3.148   3.544   2.383  0.0361  0.4237  0.3065
 6340SOL     OW30478   1.271   1.531   8.048 -0.0838  0.0607  0.0343
 6340SOL    HW130479   1.366   1.537   8.053 -0.1450  0.8296  0.2894
 6340SOL    HW230480   1.258   1.499   7.959  1.6427 -0.6837  0.0520
 6341SOL     OW30481   2.203   2.416   6.773 -0.4714 -0.0794 -0.3681
 6341SOL    HW130482   2.245   2.474   6.836 -0.8726  0.0742 -0.2383
 6341SOL    HW230483   2.124   2.469   6.759  0.7435  1.4706 -1.2990
 6342SOL     OW30484   3.587   3.988   9.327  0.4219 -0.4320  0.2835
 6342SOL    HW130485   3.514   3.963   9.384 -0.3403 -1.2503 -1.0618
 6342SOL    HW230486   3.660   3.930   9.351  2.5684  1.8018 -0.8371
 6343SOL     OW30487   4.478   2.211  12.752  0.5398 -0.4486  0.2042
 6343SOL    HW130488   4.477   2.240  12.843 -1.6493  2.3035 -0.7099
 6343SOL    HW230489   4.383   2.204  12.747  0.4348 -0.0765  1.7845
 6344SOL     OW30490   4.677   2.303   8.391 -0.7496 -0.4494 -0.0787
 6344SOL    HW130491   4.723   2.260   8.319 -0.5033 -0.2603 -0.0341
 6344SOL    HW230492   4.690   2.241   8.462 -0.7027 -1.7112 -1.1951
 6345SOL     OW30493   1.002   3.060   2.314 -0.1495 -0.0596  0.2967
 6345SOL    HW130494   0.939   3.017   2.372  0.3559  0.3254  1.1341
 6345SOL    HW230495   0.953   3.111   2.249  0.9440  0.6248  0.0145
 6346SOL     OW30496   4.529   1.407  13.313  0.3837  0.0608 -0.4466
 6346SOL    HW130497   4.507   1.476  13.251  3.1414 -0.6434 -2.1635
 6346SOL    HW230498   4.510   1.326  13.265  0.2052 -1.8356  2.7866
 6347SOL     OW30499   1.798   3.807  13.463  0.4406  0.5026  0.3512
 6347SOL    HW130500   1.883   3.763  13.467  0.5107  0.5999 -0.0629
 6347SOL    HW230501   1.754   3.737  13.414  2.2450  0.0808 -0.6533
 6348SOL     OW30502   0.257   0.776   7.723  0.1071 -0.1474  0.2509
 6348SOL    HW130503   0.332   0.818   7.766  3.3829 -1.9167 -3.6983
 6348SOL    HW230504   0.208   0.730   7.791  1.6961 -1.5510  0.4523
 6349SOL     OW30505   2.697   2.686   3.103 -1.0089  0.1380 -0.3657
 6349SOL    HW130506   2.668   2.599   3.074 -2.6136  0.4761  0.2376
 6349SOL    HW230507   2.674   2.739   3.027  0.1021  2.4053  0.8754
 6350SOL     OW30508   2.398   4.504   1.892 -0.5487 -0.5107 -0.2411
 6350SOL    HW130509   2.316   4.504   1.942 -0.4652  1.3284 -0.0877
 6350SOL    HW230510   2.433   4.420   1.922 -3.3152 -1.6278 -0.1619
 6351SOL     OW30511   0.654   2.497   3.422  0.3106 -0.1756  0.2793
 6351SOL    HW130512   0.695   2.550   3.354 -0.8700 -1.9506 -1.8218
 6351SOL    HW230513   0.562   2.521   3.435 -0.2584 -0.6807 -2.8134
 6352SOL     OW30514   2.892   2.493  16.596 -0.0115  0.4427 -0.1758
 6352SOL    HW130515   2.928   2.536  16.673  1.8526 -0.7335 -0.4082
 6352SOL    HW230516   2.915   2.563  16.534  1.0573  0.3906  0.1782
 6353SOL     OW30517   3.927   1.059   4.344  0.7834 -0.4929 -1.4627
 6353SOL    HW130518   3.871   1.011   4.406  1.9233  1.8464  1.3908
 6353SOL    HW230519   3.904   1.008   4.266 -2.1334 -1.3341 -0.0854
 6354SOL     OW30520   3.545   3.855   7.864  0.0220  0.1703 -0.0673
 6354SOL    HW130521   3.478   3.913   7.828  0.0891  0.0605 -0.3661
 6354SOL    HW230522   3.621   3.872   7.809  2.3286  1.5160  3.5871
 6355SOL     OW30523   1.055   2.746   2.430 -0.4430  0.2772  0.3410
 6355SOL    HW130524   1.100   2.699   2.360  0.8250 -0.6635  1.7898
 6355SOL    HW230525   0.964   2.755   2.401 -0.1830 -1.8849 -1.0581
 6356SOL     OW30526   3.836   2.143  11.364  0.0601 -0.5981  0.0721
 6356SOL    HW130527   3.886   2.155  11.445 -1.0053  1.1758  0.4513
 6356SOL    HW230528   3.809   2.051  11.368 -2.6407  0.2193  0.0630
 6357SOL     OW30529   0.365   2.745   1.428 -0.3290 -0.6282  0.2485
 6357SOL    HW130530   0.363   2.660   1.472 -0.0839 -0.4566  0.5879
 6357SOL    HW230531   0.271   2.764   1.434 -0.3614  0.3086 -3.4176
 6358SOL     OW30532   3.208   1.121  10.933  0.1195 -0.3145  0.4074
 6358SOL    HW130533   3.156   1.114  10.852  0.0113 -1.4164  0.5806
 6358SOL    HW230534   3.268   1.048  10.925  0.1773 -0.4127  1.7099
 6359SOL     OW30535   0.984   3.379   3.041  0.4988 -0.2565 -0.2665
 6359SOL    HW130536   1.044   3.307   3.061 -0.9739 -0.6718  2.5056
 6359SOL    HW230537   0.897   3.345   3.061  0.5182  0.0132  0.2661
 6360SOL     OW30538   1.707   4.691  16.703  0.1815 -0.0226 -0.5156
 6360SOL    HW130539   1.708   4.599  16.677 -1.0113 -0.5406  1.2348
 6360SOL    HW230540   1.799   4.708  16.723 -0.4993  1.6980  1.1500
 6361SOL     OW30541   4.681   3.426   6.346  0.1933 -0.8225 -0.5210
 6361SOL    HW130542   4.639   3.466   6.422  0.5336 -0.4139 -0.5434
 6361SOL    HW230543   4.633   3.460   6.271  1.2596 -0.4413 -1.0288
 6362SOL     OW30544   4.521   4.011  10.508  0.0029  0.1565  0.0009
 6362SOL    HW130545   4.436   3.970  10.526  0.4548 -1.0569 -0.5591
 6362SOL    HW230546   4.504   4.089  10.456  1.4374  0.0194 -0.6796
 6363SOL     OW30547   1.134   4.564   5.832 -0.5829 -0.1510  0.1455
 6363SOL    HW130548   1.124   4.536   5.923 -1.0687 -0.3885  0.0198
 6363SOL    HW230549   1.196   4.498   5.798 -1.5251 -0.3307 -1.2132
 6364SOL     OW30550   1.330   0.327  13.930  0.3722 -0.3421  0.7015
 6364SOL    HW130551   1.254   0.275  13.959 -0.3251 -0.7026 -1.7429
 6364SOL    HW230552   1.294   0.350  13.844  0.0872  2.8833  1.7130
 6365SOL     OW30553   4.327   2.869   5.196 -0.2293  0.0669 -0.0486
 6365SOL    HW130554   4.381   2.790   5.204 -1.1255 -0.5983 -0.6266
 6365SOL    HW230555   4.406   2.923   5.188  0.7107 -1.2970 -0.1216
 6366SOL     OW30556   2.017   3.030   6.264 -0.4787  0.4944 -0.3770
 6366SOL    HW130557   1.996   2.958   6.204  0.4026 -0.0762  0.0218
 6366SOL    HW230558   2.016   2.987   6.349  0.1329  1.5107  0.1415
 6367SOL     OW30559   0.385   2.031  14.029  0.5327  0.0793  0.3784
 6367SOL    HW130560   0.426   2.086  13.963 -0.5508  0.2358 -0.1757
 6367SOL    HW230561   0.337   1.974  13.967  0.3031  1.0656 -0.3426
 6368SOL     OW30562   0.260   2.032   6.991  0.1235 -0.2324 -0.0998
 6368SOL    HW130563   0.339   2.012   7.043 -0.2409  0.1978  0.6194
 6368SOL    HW230564   0.271   1.965   6.924  0.4145  0.1665 -0.4528
 6369SOL     OW30565   3.417   4.439  14.434 -0.0038 -0.1950 -0.0196
 6369SOL    HW130566   3.494   4.421  14.487  1.3398 -0.9733 -2.1967
 6369SOL    HW230567   3.420   4.358  14.383  0.2303 -1.1712  1.5755
 6370SOL     OW30568   1.508   2.879   4.112 -0.1031 -0.8137  0.1417
 6370SOL    HW130569   1.471   2.794   4.092  1.6682 -1.8176  1.1272
 6370SOL    HW230570   1.568   2.844   4.178 -0.8602 -1.5142  0.4550
 6371SOL     OW30571   2.405   2.857  10.378 -0.1587  0.2619 -0.6813
 6371SOL    HW130572   2.326   2.805  10.362  0.8350 -1.9097  1.2907
 6371SOL    HW230573   2.384   2.883  10.468 -2.2031 -0.1085 -1.0376
 6372SOL     OW30574   4.060   2.100  16.243 -0.6057  0.1899  0.2997
 6372SOL    HW130575   3.983   2.123  16.295  0.9582  3.3425  1.2068
 6372SOL    HW230576   4.126   2.098  16.313 -0.0939 -0.5581 -0.1912
 6373SOL     OW30577   3.462   4.657   7.136 -0.3965  0.2245 -0.1334
 6373SOL    HW130578   3.545   4.627   7.173 -0.5077  0.9404  0.6977
 6373SOL    HW230579   3.481   4.671   7.043 -2.0009 -1.0394 -0.6476
 6374SOL     OW30580   0.248   4.589   7.305 -0.2179  0.2030 -0.0515
 6374SOL    HW130581   0.318   4.595   7.370 -0.2743  0.2527  0.0049
 6374SOL    HW230582   0.266   4.666   7.252  1.3225 -0.8534 -1.0531
 6375SOL     OW30583   1.525   2.407   3.271 -0.5507 -0.0446 -0.4786
 6375SOL    HW130584   1.527   2.396   3.176  1.4172 -2.0185 -0.2170
 6375SOL    HW230585   1.590   2.345   3.304 -2.3854 -1.7208  0.0029
 6376SOL     OW30586   3.419   0.906  10.121 -0.3612  0.0351  0.4168
 6376SOL    HW130587   3.377   0.990  10.140  0.9143  0.2185  2.3645
 6376SOL    HW230588   3.359   0.866  10.057 -0.8436  0.5975  0.5203
 6377SOL     OW30589   2.848   1.988   3.197  0.2211 -0.2098  0.2334
 6377SOL    HW130590   2.899   1.962   3.274  3.2043 -3.1932 -2.7498
 6377SOL    HW230591   2.794   2.056   3.236 -0.4556  0.1405 -1.3214
 6378SOL     OW30592   2.713   3.642   7.024  0.0425 -0.1863  0.0846
 6378SOL    HW130593   2.729   3.656   6.931  0.1877  2.9136  0.5912
 6378SOL    HW230594   2.775   3.697   7.071 -0.4980  1.2784 -0.9347
 6379SOL     OW30595   3.195   3.874  16.504  0.8833 -0.1195  0.8835
 6379SOL    HW130596   3.266   3.848  16.563 -0.5014 -2.2308  1.6193
 6379SOL    HW230597   3.244   3.906  16.428 -2.1669 -0.6091 -1.2881
 6380SOL     OW30598   3.558   1.761   9.069  0.3168 -0.1882 -0.3619
 6380SOL    HW130599   3.519   1.694   9.012  2.0108 -0.8646 -0.7115
 6380SOL    HW230600   3.641   1.780   9.026  0.6454  0.6718  0.6478
 6381SOL     OW30601   2.064   4.125   6.613  0.0903  0.2187  0.4346
 6381SOL    HW130602   2.000   4.090   6.675 -1.2363  1.4902 -0.2143
 6381SOL    HW230603   2.137   4.152   6.669  0.5169 -0.7725  0.3515
 6382SOL     OW30604   2.142   0.876  13.034 -0.5499 -0.3300  0.4269
 6382SOL    HW130605   2.092   0.814  13.087 -0.4471 -2.4694 -1.9707
 6382SOL    HW230606   2.184   0.916  13.110  0.2619  1.6320 -1.0478
 6383SOL     OW30607   0.381   4.566   4.415 -0.4507 -0.4366  0.0963
 6383SOL    HW130608   0.415   4.478   4.432 -0.2246 -0.2097  0.7836
 6383SOL    HW230609   0.462   4.617   4.415 -1.0209  0.4752 -0.9956
 6384SOL     OW30610   1.410   1.389  16.207 -0.0787 -0.0932  0.4692
 6384SOL    HW130611   1.435   1.473  16.247 -0.5069  0.7073 -0.9518
 6384SOL    HW230612   1.337   1.363  16.264  0.0089 -1.9356 -0.2573
 6385SOL     OW30613   1.999   3.096   8.806  0.3494 -0.0112  0.3185
 6385SOL    HW130614   1.947   3.154   8.751  1.2828 -0.7440 -1.3181
 6385SOL    HW230615   2.011   3.159   8.877 -2.2347 -0.9435  1.6117
 6386SOL     OW30616   3.211   1.605  15.653  0.4077  0.0696  0.2526
 6386SOL    HW130617   3.162   1.687  15.655  0.8710  0.3139  1.3798
 6386SOL    HW230618   3.281   1.627  15.714  0.9444  1.5895 -0.9153
 6387SOL     OW30619   3.092   2.458   6.736 -0.0199 -0.6206  0.0184
 6387SOL    HW130620   3.112   2.433   6.647  1.1916  1.2982 -0.2387
 6387SOL    HW230621   3.020   2.514   6.707 -1.0109 -0.9688  1.7558
 6388SOL     OW30622   1.967   3.482   0.413  0.4085 -0.1812  0.1080
 6388SOL    HW130623   2.026   3.552   0.439 -0.6484  0.4412  0.8313
 6388SOL    HW230624   2.031   3.429   0.365 -0.7339 -0.4879 -1.0782
 6389SOL     OW30625   2.995   3.355   7.453 -0.7589 -0.5680  0.3874
 6389SOL    HW130626   2.982   3.371   7.547  0.6410  1.5954  0.2017
 6389SOL    HW230627   2.956   3.428   7.406 -1.6979 -0.7697  0.8409
 6390SOL     OW30628   3.338   1.866   3.123 -0.6702 -0.4740 -0.2034
 6390SOL    HW130629   3.320   1.931   3.191  1.9966 -0.1628  0.2051
 6390SOL    HW230630   3.376   1.932   3.065 -1.2608 -0.2357 -0.3219
 6391SOL     OW30631   4.562   0.568   7.617  0.0241  0.5091  0.0970
 6391SOL    HW130632   4.644   0.536   7.656 -0.9347 -0.0082  1.7176
 6391SOL    HW230633   4.538   0.497   7.558  0.3352  3.5130 -3.6212
 6392SOL     OW30634   4.022   0.120   6.512 -0.3975 -0.3255  0.9215
 6392SOL    HW130635   3.962   0.047   6.496 -0.0642 -0.3023 -0.4164
 6392SOL    HW230636   4.086   0.074   6.567 -1.7005 -1.7400  1.2426
 6393SOL     OW30637   2.590   1.485   6.291 -0.5152  0.2646 -0.2372
 6393SOL    HW130638   2.664   1.538   6.260  0.8167 -0.6888  1.3322
 6393SOL    HW230639   2.626   1.401   6.319 -0.4009 -0.2968 -2.0439
 6394SOL     OW30640   3.062   0.288   7.109  0.0303  0.2275  0.0540
 6394SOL    HW130641   2.992   0.308   7.171 -0.2647  0.0890 -0.2314
 6394SOL    HW230642   3.097   0.213   7.156  0.5474 -0.2675 -1.1184
 6395SOL     OW30643   3.955   4.172   9.232  0.2539  0.1463 -0.0904
 6395SOL    HW130644   3.923   4.227   9.304 -0.7207 -1.8830  1.0306
 6395SOL    HW230645   3.893   4.183   9.160  0.8384  1.3217 -0.4243
 6396SOL     OW30646   2.912   0.821   9.358  0.0593 -0.3203  0.4915
 6396SOL    HW130647   2.894   0.909   9.325 -0.4087 -0.5942  0.0315
 6396SOL    HW230648   2.826   0.814   9.398 -0.7328  0.5944 -1.0563
 6397SOL     OW30649   0.394   3.279   4.265  0.8756 -0.6863 -0.2437
 6397SOL    HW130650   0.473   3.225   4.263  1.6724  0.4114  0.7464
 6397SOL    HW230651   0.337   3.227   4.210 -0.1380  1.4781 -1.2151
 6398SOL     OW30652   1.191   2.683   7.486  0.1646  0.1493  0.3501
 6398SOL    HW130653   1.153   2.749   7.428  0.4211 -1.2772 -1.4621
 6398SOL    HW230654   1.262   2.737   7.521  1.3459 -1.4189  0.3741
 6399SOL     OW30655   2.981   2.674   3.917  0.1510  0.6689 -0.3086
 6399SOL    HW130656   3.012   2.679   3.827 -2.7249 -0.6677 -1.3861
 6399SOL    HW230657   2.915   2.743   3.918 -0.5350  0.0008  0.4013
 6400SOL     OW30658   0.525   3.454   2.157  0.0629  0.8232 -0.0659
 6400SOL    HW130659   0.478   3.517   2.212 -2.7151 -0.7011 -0.6949
 6400SOL    HW230660   0.536   3.504   2.076  0.2704 -1.1384 -1.2559
 6401SOL     OW30661   1.182   4.058   0.821 -0.4944  0.5939  0.1398
 6401SOL    HW130662   1.204   4.013   0.903 -1.2329  0.5361  0.3063
 6401SOL    HW230663   1.158   3.984   0.765 -1.4413 -0.6651  2.2134
 6402SOL     OW30664   3.392   0.473  11.760 -0.2806 -0.2108  0.3678
 6402SOL    HW130665   3.462   0.475  11.695  0.2822  1.2219  1.0320
 6402SOL    HW230666   3.445   0.444  11.834  1.1749 -2.5102 -1.5888
 6403SOL     OW30667   3.565   1.726  10.306 -0.1385  0.0607  0.1269
 6403SOL    HW130668   3.599   1.701  10.221 -1.6538 -1.3494 -0.0637
 6403SOL    HW230669   3.517   1.806  10.285 -1.7431 -0.6500  1.0925
 6404SOL     OW30670   1.582   0.760   6.547 -0.4491 -0.2733  0.3470
 6404SOL    HW130671   1.592   0.710   6.628 -0.7007 -1.2574 -0.2317
 6404SOL    HW230672   1.486   0.759   6.543 -0.4346  0.3285 -0.1375
 6405SOL     OW30673   2.943   2.189   6.481 -0.4576  0.5418  0.1140
 6405SOL    HW130674   3.038   2.190   6.497 -0.3497  0.8534 -0.5277
 6405SOL    HW230675   2.919   2.144   6.562  0.3130 -0.4326 -0.1900
 6406SOL     OW30676   4.609   0.001   9.484  0.1919  0.2089  0.2247
 6406SOL    HW130677   4.621   4.656   9.550 -0.2201  0.2907  0.3853
 6406SOL    HW230678   4.515   4.709   9.473  0.2959  0.1598 -0.6551
 6407SOL     OW30679   3.767   2.513   1.559  0.0550 -0.3038  0.4002
 6407SOL    HW130680   3.848   2.541   1.517 -0.7610 -0.1300 -1.0688
 6407SOL    HW230681   3.736   2.599   1.588 -2.8737 -1.1465 -0.1714
 6408SOL     OW30682   1.547   0.484   2.634 -0.5758 -0.1563 -0.3590
 6408SOL    HW130683   1.612   0.474   2.563 -1.5911 -0.3341 -1.2599
 6408SOL    HW230684   1.465   0.483   2.585  0.2185  0.2646 -1.7261
 6409SOL     OW30685   1.503   3.017  15.960  0.2059  0.4770  0.1633
 6409SOL    HW130686   1.416   3.039  15.929  0.8609 -0.2243 -2.1646
 6409SOL    HW230687   1.472   3.006  16.050  1.8419  4.2188  1.1972
 6410SOL     OW30688   3.830   2.413  10.291  1.0432 -0.8868 -0.3647
 6410SOL    HW130689   3.862   2.474  10.225  1.7996 -1.2201 -0.3126
 6410SOL    HW230690   3.767   2.368  10.236 -1.1599 -0.1442  1.5435
 6411SOL     OW30691   2.674   1.122   6.022 -0.1014 -0.8508  0.6115
 6411SOL    HW130692   2.723   1.170   5.956  1.5143 -0.9569  1.7229
 6411SOL    HW230693   2.736   1.057   6.056 -0.6355 -2.1185 -0.8464
 6412SOL     OW30694   1.292   1.156   1.063  0.2233 -0.3238  0.1003
 6412SOL    HW130695   1.273   1.067   1.033  0.9530  0.3575 -2.3667
 6412SOL    HW230696   1.209   1.201   1.077  0.8380 -0.4466  4.2677
 6413SOL     OW30697   1.695   0.982   1.233 -0.6305 -0.1743  0.6777
 6413SOL    HW130698   1.760   0.924   1.274 -0.1171  0.5037  0.8430
 6413SOL    HW230699   1.702   0.961   1.140  0.7722  0.9262  0.5310
 6414SOL     OW30700   3.298   2.618  11.785  0.2694 -0.4733 -0.1345
 6414SOL    HW130701   3.343   2.702  11.782 -1.7457  0.6021 -0.2383
 6414SOL    HW230702   3.367   2.566  11.827 -1.0080 -1.5738  0.5849
 6415SOL     OW30703   2.221   1.459   4.952 -0.5485 -0.0204 -0.5183
 6415SOL    HW130704   2.146   1.487   4.900 -0.3828  1.5215  0.0642
 6415SOL    HW230705   2.192   1.474   5.041 -0.7284  3.4431 -1.1570
 6416SOL     OW30706   3.829   1.960  10.275  0.5818 -0.2210  0.2191
 6416SOL    HW130707   3.738   1.982  10.255  0.8094  0.1609 -0.4071
 6416SOL    HW230708   3.862   2.041  10.315  0.3251  0.2599 -0.5464
 6417SOL     OW30709   2.787   1.831  16.084 -0.7520 -0.5268  0.5548
 6417SOL    HW130710   2.757   1.904  16.030  2.2508 -1.3776 -2.2620
 6417SOL    HW230711   2.714   1.806  16.141 -1.1183 -0.6126  0.0435
 6418SOL     OW30712   4.366   4.017  10.823 -0.3674  0.5575  0.2993
 6418SOL    HW130713   4.408   3.997  10.739  1.2711  0.2656  1.1815
 6418SOL    HW230714   4.280   3.977  10.811 -0.3119  0.6237 -0.3432
 6419SOL     OW30715   2.984   0.788  14.143 -0.3383  0.0284 -0.4607
 6419SOL    HW130716   3.066   0.808  14.188 -1.1384 -1.6721  1.7971
 6419SOL    HW230717   2.992   0.692  14.138 -0.8881 -0.0449 -0.0170
 6420SOL     OW30718   2.313   0.440  12.848 -0.4470  0.6271 -0.2158
 6420SOL    HW130719   2.307   0.535  12.838  1.9239  0.9768  1.6429
 6420SOL    HW230720   2.364   0.428  12.928 -0.7563 -0.4365 -0.1853
 6421SOL     OW30721   0.211   1.269  13.988  0.0562 -0.0720  0.3586
 6421SOL    HW130722   0.297   1.311  13.984 -0.7038  1.4471 -0.2138
 6421SOL    HW230723   0.202   1.229  13.901 -0.7535  2.8318 -0.9083
 6422SOL     OW30724   3.735   2.232   5.309  0.0360 -0.7682  0.1282
 6422SOL    HW130725   3.732   2.303   5.373 -2.2334 -1.8984  1.2628
 6422SOL    HW230726   3.646   2.226   5.276  0.6654 -0.3432 -1.6044
 6423SOL     OW30727   0.495   1.806   7.385  0.1980 -0.0193  0.3173
 6423SOL    HW130728   0.401   1.821   7.371 -0.1998 -0.3268  2.5180
 6423SOL    HW230729   0.490   1.754   7.465  0.4806  1.4062  1.2740
 6424SOL     OW30730   3.151   3.636   3.148  0.1196  0.0944 -0.1857
 6424SOL    HW130731   3.077   3.686   3.182 -0.8907 -1.8278  0.4350
 6424SOL    HW230732   3.159   3.565   3.211  1.2447  1.1779  0.9040
 6425SOL     OW30733   4.116   4.719   6.773  0.1268  0.0162 -0.4081
 6425SOL    HW130734   4.169   0.032   6.845 -0.9810  0.1263  0.3518
 6425SOL    HW230735   4.090   4.632   6.804 -1.6133 -0.1026 -2.2273
 6426SOL     OW30736   0.424   3.200   4.724  0.0584 -0.0947 -0.4119
 6426SOL    HW130737   0.435   3.134   4.655  1.8494 -0.0323 -0.2053
 6426SOL    HW230738   0.363   3.254   4.674 -0.5891  0.1335  0.6209
 6427SOL     OW30739   0.006   2.423  17.219  0.7882 -0.4357  0.1379
 6427SOL    HW130740   4.702   2.397  17.306  1.8821  0.5770  0.7929
 6427SOL    HW230741   4.649   2.443  17.171  1.5985 -2.9497 -2.2603
 6428SOL     OW30742   3.014   4.687   2.282  0.0393 -0.7149 -0.0784
 6428SOL    HW130743   3.108   4.689   2.267  0.2529  0.3351  1.3825
 6428SOL    HW230744   2.987   0.051   2.256  0.5385 -0.4734  0.2298
 6429SOL     OW30745   2.881   2.297   3.826 -0.3034  0.0832  0.0660
 6429SOL    HW130746   2.800   2.271   3.870 -1.5079  1.5106 -1.2659
 6429SOL    HW230747   2.837   2.308   3.741 -1.7073  0.2743  0.8238
 6430SOL     OW30748   1.058   1.386  14.837  0.4146  0.0387  0.0239
 6430SOL    HW130749   1.099   1.472  14.846  0.8329  0.1250 -2.6717
 6430SOL    HW230750   1.138   1.337  14.816  0.9169 -0.0462  2.1215
 6431SOL     OW30751   2.402   1.642   8.864  0.0829 -0.0922 -0.4447
 6431SOL    HW130752   2.409   1.718   8.807  0.2223 -0.4120 -0.8565
 6431SOL    HW230753   2.325   1.597   8.829 -1.7590  1.3099  1.7376
 6432SOL     OW30754   4.578   2.582   8.219 -0.5087 -0.0233  0.3105
 6432SOL    HW130755   4.618   2.549   8.300  0.0858  2.2176  0.9204
 6432SOL    HW230756   4.518   2.648   8.254 -0.8252 -1.1310  1.8738
 6433SOL     OW30757   0.404   0.673  13.677  0.2539  0.0191  0.0182
 6433SOL    HW130758   0.412   0.583  13.644  0.5992 -0.4679  1.4628
 6433SOL    HW230759   0.348   0.708  13.607 -0.8613 -1.8923 -0.0653
 6434SOL     OW30760   2.936   2.247   9.280  0.3473 -0.1345  0.1940
 6434SOL    HW130761   3.028   2.223   9.265  0.0192 -2.6455  2.2415
 6434SOL    HW230762   2.933   2.250   9.376 -2.2661 -0.7265  0.1184
 6435SOL     OW30763   4.277   1.391   9.831  0.0613 -0.2750 -0.5446
 6435SOL    HW130764   4.218   1.357   9.763 -1.0003  0.0035  0.2316
 6435SOL    HW230765   4.363   1.391   9.790 -1.0590  2.4593 -2.9381
 6436SOL     OW30766   3.243   1.490  15.978  0.6266  1.0671  0.4656
 6436SOL    HW130767   3.187   1.541  16.037 -0.9869  0.8583 -0.9041
 6436SOL    HW230768   3.318   1.478  16.037  0.6767 -1.8405 -0.2003
 6437SOL     OW30769   3.944   0.661  13.717 -0.1234  0.2527 -0.0033
 6437SOL    HW130770   3.911   0.645  13.805  1.0791 -2.2832  0.0086
 6437SOL    HW230771   3.863   0.677  13.670  0.0530  1.1041 -0.0251
 6438SOL     OW30772   1.781   2.229  13.622  0.2673 -0.0828 -0.5183
 6438SOL    HW130773   1.798   2.258  13.532 -0.2100  2.9007  0.3549
 6438SOL    HW230774   1.688   2.246  13.633  0.1456 -0.8347 -0.4234
 6439SOL     OW30775   3.596   2.025   5.978  0.4623 -0.3386 -0.1112
 6439SOL    HW130776   3.541   2.074   6.039 -0.0234 -0.6326 -0.3123
 6439SOL    HW230777   3.547   1.944   5.966 -0.6992  0.5476 -1.2478
 6440SOL     OW30778   1.885   2.981   4.715 -0.0639  0.1268  0.1693
 6440SOL    HW130779   1.853   3.069   4.697 -0.5247 -0.4274 -1.6890
 6440SOL    HW230780   1.873   2.941   4.629  1.4823  0.2428 -0.0934
 6441SOL     OW30781   2.037   1.586  11.295 -0.1851  0.2526  0.3907
 6441SOL    HW130782   2.036   1.490  11.293  0.5146  0.2505  0.0825
 6441SOL    HW230783   1.991   1.603  11.377 -1.5952 -0.6660 -0.2002
 6442SOL     OW30784   0.673   3.687  13.283 -0.0107  0.0865 -0.0950
 6442SOL    HW130785   0.739   3.732  13.336 -0.6938  0.4017  0.4867
 6442SOL    HW230786   0.696   3.598  13.309  0.8015  0.8628  1.8643
 6443SOL     OW30787   0.519   1.927   7.134 -0.1500 -0.2235  0.6263
 6443SOL    HW130788   0.490   1.896   7.219 -0.1162  1.8808  1.3954
 6443SOL    HW230789   0.568   2.008   7.148 -0.2388 -0.2158  0.8859
 6444SOL     OW30790   1.624   0.262   9.317  0.0725  0.4839  0.3172
 6444SOL    HW130791   1.631   0.358   9.311 -2.5568  0.8428  2.9238
 6444SOL    HW230792   1.650   0.237   9.405 -0.1316 -1.3184 -0.1379
 6445SOL     OW30793   1.876   1.774   4.437 -0.1359 -0.1036  0.3509
 6445SOL    HW130794   1.837   1.687   4.442 -1.4127  0.5241  1.4904
 6445SOL    HW230795   1.947   1.768   4.500 -0.4288  0.8085  0.7699
 6446SOL     OW30796   0.839   2.454  14.100  0.6233 -0.3912  0.1502
 6446SOL    HW130797   0.839   2.544  14.133 -0.3232 -1.0754  2.0448
 6446SOL    HW230798   0.759   2.421  14.141  0.1282 -0.4641 -0.8758
 6447SOL     OW30799   4.356   1.489   1.589 -0.1584 -0.1590  0.5691
 6447SOL    HW130800   4.369   1.444   1.673  0.6857 -3.6933 -1.4699
 6447SOL    HW230801   4.373   1.416   1.530  0.6308  0.7942 -0.3968
 6448SOL     OW30802   3.169   2.740  15.860 -0.5489  0.1178  0.0553
 6448SOL    HW130803   3.121   2.766  15.782 -0.9278 -1.2686 -0.1790
 6448SOL    HW230804   3.126   2.660  15.890  1.4373 -0.1701  2.1464
 6449SOL     OW30805   0.802   3.132   8.376 -0.1717  0.1557 -0.0484
 6449SOL    HW130806   0.760   3.115   8.460  2.3958 -0.0707  1.1888
 6449SOL    HW230807   0.800   3.227   8.376  0.1534  0.1622 -0.2493
 6450SOL     OW30808   0.443   0.763  10.565 -0.1575 -0.1632  0.0009
 6450SOL    HW130809   0.450   0.673  10.596 -1.8401 -0.4308 -0.4108
 6450SOL    HW230810   0.535   0.778  10.544 -0.1878  0.2671  0.1737
 6451SOL     OW30811   1.253   2.560   5.889 -0.0770  0.5106  0.0264
 6451SOL    HW130812   1.281   2.543   5.799  0.7847  1.2238  0.1546
 6451SOL    HW230813   1.274   2.653   5.885  1.4171  0.2311  1.1969
 6452SOL     OW30814   2.337   0.920   8.579 -0.0968  0.0256 -0.1030
 6452SOL    HW130815   2.351   1.009   8.546  1.4859  0.3724  1.4901
 6452SOL    HW230816   2.247   0.899   8.554 -1.3552  2.6375  2.1847
 6453SOL     OW30817   0.271   2.885  11.546 -0.2429  0.0319 -0.1933
 6453SOL    HW130818   0.367   2.884  11.554 -0.1884  0.6371 -0.7860
 6453SOL    HW230819   0.260   2.790  11.546 -0.7546  0.0961 -0.2338
 6454SOL     OW30820   0.288   3.755   7.987  0.1662 -0.0380  0.1551
 6454SOL    HW130821   0.251   3.827   8.038  1.1026 -0.8703  1.9974
 6454SOL    HW230822   0.215   3.728   7.930  0.5120  0.2968 -0.4384
 6455SOL     OW30823   1.413   1.242   7.170 -0.3713  0.1526  0.5735
 6455SOL    HW130824   1.440   1.310   7.232 -0.5072  0.5198  0.2279
 6455SOL    HW230825   1.332   1.209   7.210  0.4949  0.7571  2.8137
 6456SOL     OW30826   0.877   3.119   0.830 -0.0200  0.2929  0.6909
 6456SOL    HW130827   0.889   3.103   0.736 -1.9294 -1.2918  0.7293
 6456SOL    HW230828   0.970   3.130   0.852 -0.0567  0.8842  0.5315
 6457SOL     OW30829   2.788   3.387   5.749 -0.1073 -0.4077  0.1477
 6457SOL    HW130830   2.838   3.371   5.829 -1.3106  2.1534  1.4110
 6457SOL    HW230831   2.783   3.482   5.766  0.3154 -0.1998 -0.9021
 6458SOL     OW30832   3.232   1.916  12.697 -0.0873  1.0151 -0.6823
 6458SOL    HW130833   3.256   1.863  12.621  0.7465  1.2811 -0.6036
 6458SOL    HW230834   3.304   1.901  12.758 -2.9667 -0.9916  2.2090
 6459SOL     OW30835   2.021   3.977   7.066  0.3015  0.3924  0.5845
 6459SOL    HW130836   2.045   3.885   7.074  3.6225  1.0870 -1.3128
 6459SOL    HW230837   2.080   4.015   7.131  0.4216  1.0418  0.0855
 6460SOL     OW30838   4.350   2.498   0.741  0.0113  0.2017  1.1096
 6460SOL    HW130839   4.377   2.436   0.809  1.3245 -0.6385 -0.1697
 6460SOL    HW230840   4.257   2.512   0.755 -0.2864 -0.8653  0.2116
 6461SOL     OW30841   2.795   2.285   3.574  0.5645 -0.0071 -0.6362
 6461SOL    HW130842   2.757   2.373   3.580  0.9277  0.1973 -1.3184
 6461SOL    HW230843   2.759   2.254   3.492  0.4965 -1.9962  0.1462
 6462SOL     OW30844   2.571   0.549   7.175  0.6285 -0.7756  0.3721
 6462SOL    HW130845   2.505   0.551   7.107 -0.1498  0.1522  1.1422
 6462SOL    HW230846   2.637   0.594   7.122 -0.4316 -0.1617 -0.4272
 6463SOL     OW30847   1.357   0.862   6.338  0.0080  0.4141  0.1872
 6463SOL    HW130848   1.341   0.804   6.264  1.4873 -0.2325  0.3821
 6463SOL    HW230849   1.321   0.799   6.400  0.0149  0.6066  0.3880
 6464SOL     OW30850   4.126   0.534   6.357  0.3103 -0.7512 -0.2372
 6464SOL    HW130851   4.076   0.453   6.350 -0.1096 -0.4777 -0.4347
 6464SOL    HW230852   4.093   0.566   6.441  0.5843  0.6501 -0.6567
 6465SOL     OW30853   2.712   0.338   5.838  0.6110  0.3535 -0.4706
 6465SOL    HW130854   2.677   0.251   5.815  2.2275  0.1733 -2.2438
 6465SOL    HW230855   2.663   0.385   5.770  0.1934  1.2400  0.4490
 6466SOL     OW30856   2.759   1.858   0.759 -0.2203  0.6790 -0.1869
 6466SOL    HW130857   2.740   1.780   0.708  0.0030 -0.0766  0.8776
 6466SOL    HW230858   2.697   1.858   0.832 -0.3812 -2.5575 -0.3415
 6467SOL     OW30859   3.225   4.204   5.113  0.5295  0.1182 -0.2217
 6467SOL    HW130860   3.174   4.127   5.087  1.9573 -0.4641 -1.2945
 6467SOL    HW230861   3.262   4.174   5.197  2.0310 -1.0012 -1.2839
 6468SOL     OW30862   0.069   4.604  14.487  0.0506  0.0023 -0.7578
 6468SOL    HW130863   0.046   4.597  14.579 -1.1315 -1.2580 -1.1514
 6468SOL    HW230864   0.153   4.559  14.473  0.1770 -0.4481  1.4834
 6469SOL     OW30865   4.558   1.229  12.233 -0.0018 -0.0339  0.6840
 6469SOL    HW130866   4.516   1.299  12.284  1.2093  2.4192 -1.6992
 6469SOL    HW230867   4.649   1.252  12.251  0.0413 -0.1883  0.6630
 6470SOL     OW30868   2.127   1.691   6.712  0.3886 -0.1382 -0.2136
 6470SOL    HW130869   2.041   1.666   6.679 -0.1211  1.6125 -0.1994
 6470SOL    HW230870   2.176   1.661   6.635 -1.8906 -1.3009 -1.2366
 6471SOL     OW30871   4.399   2.433   4.367  1.0193 -0.3109  1.0136
 6471SOL    HW130872   4.416   2.517   4.324 -0.9295 -0.9896 -1.0178
 6471SOL    HW230873   4.419   2.372   4.297  1.9017  0.1273  0.8740
 6472SOL     OW30874   4.359   3.481  10.176  0.3497  0.0765  0.7802
 6472SOL    HW130875   4.269   3.508  10.193  0.7831  1.7643  0.3413
 6472SOL    HW230876   4.398   3.476  10.264  1.4608 -1.2618  0.2191
 6473SOL     OW30877   1.324   1.628  16.335  0.2452 -0.1504  0.2975
 6473SOL    HW130878   1.238   1.612  16.375  0.3678 -3.0579 -0.5433
 6473SOL    HW230879   1.304   1.681  16.258  4.1313 -1.7945 -1.8266
 6474SOL     OW30880   4.485   1.935   4.561 -0.7884  0.1282  0.0550
 6474SOL    HW130881   4.461   1.890   4.480  0.5953 -0.6570  0.0934
 6474SOL    HW230882   4.414   1.999   4.556 -1.9194 -1.1022  0.3603
 6475SOL     OW30883   1.591   4.709   6.992  0.3502  0.1238 -0.1984
 6475SOL    HW130884   1.575   4.630   6.941 -0.5983 -0.0815  0.4061
 6475SOL    HW230885   1.637   4.660   7.060 -0.7230  0.3949  0.7309
 6476SOL     OW30886   3.197   0.948   7.657 -0.1067  0.3071 -0.0782
 6476SOL    HW130887   3.187   0.952   7.753 -0.2832  1.9392 -0.1719
 6476SOL    HW230888   3.273   1.005   7.645 -0.8653  1.7776  2.1051
 6477SOL     OW30889   1.852   0.258  12.088 -0.0966  0.1207  0.1165
 6477SOL    HW130890   1.888   0.205  12.159 -1.5390 -0.1716  0.6490
 6477SOL    HW230891   1.811   0.195  12.029  2.3831  0.7001 -2.1810
 6478SOL     OW30892   1.581   0.260   2.374  0.1781  0.3223  0.1005
 6478SOL    HW130893   1.653   0.203   2.402 -1.9526 -2.4521 -0.0425
 6478SOL    HW230894   1.503   0.214   2.406  1.2561 -2.6020 -1.4228
 6479SOL     OW30895   4.357   2.620   1.486 -0.3791  0.0464 -0.0198
 6479SOL    HW130896   4.272   2.605   1.529 -0.2421  1.0137  0.5675
 6479SOL    HW230897   4.354   2.715   1.489 -0.8732  0.0355 -0.1280
 6480SOL     OW30898   1.801   4.648   5.638  0.1880 -0.3906  0.2811
 6480SOL    HW130899   1.865   4.657   5.709  0.1157  1.3951  0.1218
 6480SOL    HW230900   1.722   4.625   5.687 -0.2323 -1.3209 -0.8431
 6481SOL     OW30901   1.078   4.038   3.194  0.1575  0.4921 -0.5306
 6481SOL    HW130902   1.025   4.083   3.129 -0.7698 -0.0844 -0.1850
 6481SOL    HW230903   1.046   4.076   3.276  2.1304 -0.1252  0.5236
 6482SOL     OW30904   3.441   2.267   4.663  0.5763 -0.8328 -0.5630
 6482SOL    HW130905   3.509   2.253   4.729  2.1851  2.2698 -1.5643
 6482SOL    HW230906   3.493   2.259   4.584  1.8464  1.4524  0.0589
 6483SOL     OW30907   2.777   3.601  17.273  0.1810  0.1602 -0.6639
 6483SOL    HW130908   2.795   3.637  17.186 -0.2109  0.6928 -0.5209
 6483SOL    HW230909   2.807   3.511  17.257 -0.3421 -0.2740  0.7680
 6484SOL     OW30910   0.966   3.640   3.810 -0.3419 -0.1627  0.0315
 6484SOL    HW130911   0.915   3.638   3.892  0.2819 -0.3410  0.4161
 6484SOL    HW230912   0.894   3.676   3.758  0.2328  0.1623 -0.5266
 6485SOL     OW30913   1.759   1.031   9.326  0.2448  0.5755  0.0890
 6485SOL    HW130914   1.705   1.106   9.352 -1.7785 -0.2233 -1.7989
 6485SOL    HW230915   1.788   1.002   9.412 -0.5159  1.9530  0.8067
 6486SOL     OW30916   1.227   2.659   8.285  0.3093  0.4397  0.0025
 6486SOL    HW130917   1.308   2.702   8.257 -0.8949  1.9071 -1.2233
 6486SOL    HW230918   1.169   2.717   8.235  0.2746 -0.1666 -0.6794
 6487SOL     OW30919   4.566   1.750  12.067 -0.0900  0.6091  0.4760
 6487SOL    HW130920   4.634   1.690  12.095 -1.8351 -2.8721 -2.7872
 6487SOL    HW230921   4.536   1.787  12.151 -1.9906  1.9228 -0.7629
 6488SOL     OW30922   3.346   4.566  14.214  0.2982 -0.2567  0.3979
 6488SOL    HW130923   3.417   4.540  14.155  0.2743  2.5648 -0.8813
 6488SOL    HW230924   3.384   4.530  14.294  1.8300 -0.0409 -0.2284
 6489SOL     OW30925   1.495   2.826   2.785  0.1730  0.3842  0.4733
 6489SOL    HW130926   1.437   2.762   2.828  1.2807 -0.9086  0.0608
 6489SOL    HW230927   1.538   2.767   2.723 -2.5096  1.3501 -2.3229
 6490SOL     OW30928   3.852   1.447  11.312  0.5199  0.0501  0.4472
 6490SOL    HW130929   3.837   1.395  11.234  1.1077  0.2503  0.2038
 6490SOL    HW230930   3.778   1.508  11.314  0.9373  0.5354  0.9462
 6491SOL     OW30931   2.169   3.234  12.538  0.4051 -0.5794 -0.3072
 6491SOL    HW130932   2.213   3.198  12.461  2.6804 -2.2103  1.7865
 6491SOL    HW230933   2.224   3.197  12.606  0.6555  0.5933  0.1350
 6492SOL     OW30934   2.601   1.141   9.524 -0.2276  0.3089 -0.0319
 6492SOL    HW130935   2.523   1.196   9.535  0.7635  1.6914 -0.0038
 6492SOL    HW230936   2.647   1.185   9.453  0.4040 -1.0561 -0.4647
 6493SOL     OW30937   0.174   1.531  12.458 -0.9356 -0.3863 -0.1549
 6493SOL    HW130938   0.230   1.562  12.387 -0.4983  0.3127  0.4985
 6493SOL    HW230939   0.113   1.605  12.462 -0.0466  0.3680 -0.5689
 6494SOL     OW30940   2.656   1.529   3.331  0.7890  0.2523  0.8334
 6494SOL    HW130941   2.635   1.478   3.253 -2.1283  2.3169  0.2691
 6494SOL    HW230942   2.751   1.522   3.325  0.6362  0.5616 -1.8194
 6495SOL     OW30943   3.402   4.650   1.258 -0.3134 -0.0794 -0.0468
 6495SOL    HW130944   3.343   4.695   1.318 -2.3763 -0.3627 -1.8847
 6495SOL    HW230945   3.463   0.001   1.254 -0.7038  0.2029 -0.8762
 6496SOL     OW30946   1.611   0.631   4.130 -0.2464  0.4801 -0.4760
 6496SOL    HW130947   1.631   0.724   4.127 -0.9034  0.6369  0.1081
 6496SOL    HW230948   1.695   0.589   4.109  0.1721  0.1624  1.8061
 6497SOL     OW30949   4.599   2.800   3.580 -0.8463 -0.2213 -0.4790
 6497SOL    HW130950   4.511   2.816   3.612 -0.1681 -1.2340  1.9238
 6497SOL    HW230951   4.599   2.787   3.485  0.1004 -0.0131 -0.5101
 6498SOL     OW30952   0.023   2.645   4.400 -0.1215 -0.3273  0.0562
 6498SOL    HW130953   0.068   2.729   4.411  0.7739 -0.9822  1.4438
 6498SOL    HW230954   0.093   2.592   4.362  0.2031  0.5686 -0.6008
 6499SOL     OW30955   3.500   4.199   8.344  0.3005  0.1887  0.6070
 6499SOL    HW130956   3.552   4.152   8.409  1.8948  0.9617 -0.1330
 6499SOL    HW230957   3.409   4.195   8.374 -0.3648  0.0301 -1.4771
 6500SOL     OW30958   4.198   1.462  15.820  0.6367  0.4328 -0.3787
 6500SOL    HW130959   4.148   1.392  15.863  1.4678 -0.3356 -0.6639
 6500SOL    HW230960   4.137   1.489  15.752 -0.7044  2.2092  1.5225
 6501SOL     OW30961   1.522   0.111   5.378  0.0962  0.5568  0.0868
 6501SOL    HW130962   1.495   0.093   5.287  0.5969 -1.4859  0.3462
 6501SOL    HW230963   1.612   0.078   5.384 -1.1015 -2.8085 -0.2832
 6502SOL     OW30964   4.660   3.521  17.189  0.7533  0.4862 -0.3145
 6502SOL    HW130965   4.694   3.576  17.118  1.8858  0.0969 -0.0681
 6502SOL    HW230966   0.022   3.512  17.232  0.1654 -2.8093  0.1845
 6503SOL     OW30967   1.134   0.595   3.479 -0.5841 -0.1213  0.0057
 6503SOL    HW130968   1.065   0.539   3.516 -0.5349  0.9124  1.6663
 6503SOL    HW230969   1.152   0.533   3.409 -1.5203 -0.9060  0.4490
 6504SOL     OW30970   0.262   4.630  11.856  0.3768  0.2601 -0.1646
 6504SOL    HW130971   0.303   4.638  11.769  4.0998  1.8976  1.7589
 6504SOL    HW230972   0.227   4.541  11.850  1.3427 -0.0543 -1.2725
 6505SOL     OW30973   1.618   2.721   9.968  0.0284  0.2681 -0.3605
 6505SOL    HW130974   1.629   2.707   9.874 -1.3629  0.3217 -0.5228
 6505SOL    HW230975   1.586   2.632   9.982  0.7128  0.4997  2.5602
 6506SOL     OW30976   2.021   1.866   8.029 -0.2494 -0.1761 -0.0110
 6506SOL    HW130977   2.091   1.929   8.008 -1.5191  0.9257 -0.9079
 6506SOL    HW230978   1.946   1.893   7.976 -0.5452 -0.1246  0.4413
 6507SOL     OW30979   1.286   1.775  12.912  0.1244  0.4326  0.2303
 6507SOL    HW130980   1.375   1.787  12.878  0.0860  0.5661  0.1788
 6507SOL    HW230981   1.310   1.824  12.991  0.8267 -1.6555  1.3029
 6508SOL     OW30982   3.846   2.012   6.057 -0.0679  0.8691  0.0614
 6508SOL    HW130983   3.755   1.988   6.035  0.1157  2.0960 -2.0432
 6508SOL    HW230984   3.848   2.007   6.152 -0.2429  2.6836  0.1586
 6509SOL     OW30985   3.423   4.025   2.658  0.0011  0.3719 -0.7173
 6509SOL    HW130986   3.473   4.063   2.730  1.1358 -0.1734 -1.2076
 6509SOL    HW230987   3.403   3.939   2.694 -0.2585  0.6053 -0.2986
 6510SOL     OW30988   1.629   1.310   9.006  0.2238 -0.4631 -0.5922
 6510SOL    HW130989   1.712   1.327   9.051  0.6008 -1.2437 -1.0119
 6510SOL    HW230990   1.651   1.268   8.923  1.7867 -2.9979  1.1071
 6511SOL     OW30991   0.168   2.575   4.020  0.2176 -0.1651 -0.6935
 6511SOL    HW130992   0.182   2.535   4.106 -1.7472 -0.0637 -0.3262
 6511SOL    HW230993   0.098   2.514   3.995  0.7292 -2.0039  2.3104
 6512SOL     OW30994   3.509   2.420  16.616  0.5157  0.6506 -0.2673
 6512SOL    HW130995   3.461   2.423  16.699  2.8991 -0.3251  1.1478
 6512SOL    HW230996   3.506   2.327  16.592  0.4417  0.8916 -1.1792
 6513SOL     OW30997   3.383   3.775   8.775  0.8819  0.3171  0.1250
 6513SOL    HW130998   3.340   3.857   8.753  1.7465  0.0801 -2.5316
 6513SOL    HW230999   3.430   3.798   8.855  2.1033  0.0473 -0.5132
 6514SOL     OW31000   4.055   3.562   9.721 -0.1784 -0.3327 -0.0739
 6514SOL    HW131001   4.081   3.575   9.630  0.5962 -2.8608 -0.1946
 6514SOL    HW231002   3.959   3.557   9.715 -0.3442  2.2067  0.0733
 6515SOL     OW31003   2.350   3.931   7.934 -0.1477  0.2334  0.0849
 6515SOL    HW131004   2.433   3.943   7.889  1.0102  0.2605  2.2358
 6515SOL    HW231005   2.314   4.016   7.906 -1.3428 -0.7821 -1.4551
 6516SOL     OW31006   1.547   0.392   5.429 -0.3307 -0.5174 -0.4344
 6516SOL    HW131007   1.465   0.436   5.405  0.0210  0.2300 -0.2735
 6516SOL    HW231008   1.536   0.303   5.396  1.0476 -0.7224 -0.3330
 6517SOL     OW31009   4.541   0.617   5.119 -0.0306  0.2475  0.0535
 6517SOL    HW131010   4.474   0.602   5.185  0.6880 -1.3148  0.4361
 6517SOL    HW231011   4.547   0.712   5.131 -0.6165  0.1959  0.7705
 6518SOL     OW31012   1.036   2.036  17.480  0.2730  0.4795 -0.8762
 6518SOL    HW131013   1.104   2.004  17.421 -1.9154 -1.0395 -2.5575
 6518SOL    HW231014   1.010   2.114  17.430  0.4756  0.5245 -0.9121
 6519SOL     OW31015   0.751   0.593   7.781 -0.6805 -0.4518 -0.0706
 6519SOL    HW131016   0.681   0.624   7.723 -0.3987  1.6438  0.6960
 6519SOL    HW231017   0.767   0.663   7.844  1.3678  0.0690 -1.1774
 6520SOL     OW31018   0.180   2.357   9.452  0.1297 -0.2179 -0.0152
 6520SOL    HW131019   0.243   2.429   9.449 -0.6564  0.4816  0.2616
 6520SOL    HW231020   0.106   2.418   9.456  0.0176 -0.2485 -1.7088
 6521SOL     OW31021   3.849   1.674   8.994  0.4854  0.2826  0.7320
 6521SOL    HW131022   3.922   1.629   8.951  1.1663  1.6730  0.4367
 6521SOL    HW231023   3.818   1.600   9.045  2.0218 -0.4456  0.5972
 6522SOL     OW31024   1.856   3.333   6.837 -0.0036  0.2755  0.1387
 6522SOL    HW131025   1.890   3.305   6.922 -0.9546 -1.8663 -0.1997
 6522SOL    HW231026   1.812   3.253   6.809  1.2982 -0.0711 -0.9252
 6523SOL     OW31027   2.715   2.906   1.117  0.0201 -0.1405 -0.2815
 6523SOL    HW131028   2.680   2.912   1.206  0.7801 -3.4297  0.2590
 6523SOL    HW231029   2.771   2.828   1.114  1.3667  0.8337 -0.4099
 6524SOL     OW31030   2.733   0.132   8.615  0.2254 -0.2084  0.2883
 6524SOL    HW131031   2.815   0.141   8.566  0.5851 -1.7408  0.6207
 6524SOL    HW231032   2.671   0.145   8.544 -1.6199 -1.8276  1.5991
 6525SOL     OW31033   1.064   4.385   2.824 -0.5530 -0.3868  0.2209
 6525SOL    HW131034   1.009   4.430   2.760  1.5427  1.7510 -0.0882
 6525SOL    HW231035   1.146   4.435   2.830 -0.8992  0.1214  0.7440
 6526SOL     OW31036   1.025   0.407  10.102  0.1662 -0.0073  0.1873
 6526SOL    HW131037   1.039   0.486  10.153 -0.3850  1.7016 -2.2800
 6526SOL    HW231038   1.021   0.343  10.173 -1.8727  0.5124  0.5262
 6527SOL     OW31039   0.317   3.951   2.523  0.4809  0.1388  0.2718
 6527SOL    HW131040   0.389   4.005   2.492  0.4626  1.2758  2.2537
 6527SOL    HW231041   0.247   4.016   2.514 -0.0029 -0.4058  0.0630
 6528SOL     OW31042   0.141   3.222   4.711  0.3301 -0.2756 -0.2904
 6528SOL    HW131043   0.194   3.280   4.765  0.4388  0.1185 -0.8189
 6528SOL    HW231044   0.072   3.206   4.776  2.7501  0.8805  2.5449
 6529SOL     OW31045   2.988   1.732  11.114  0.1259  0.3607 -0.0975
 6529SOL    HW131046   2.963   1.688  11.195  0.3582 -2.9320 -1.8340
 6529SOL    HW231047   2.968   1.672  11.042  1.5626  0.6483 -0.7310
 6530SOL     OW31048   0.977   1.877   6.841  0.6402  0.1690  0.0357
 6530SOL    HW131049   0.950   1.967   6.855 -1.5316 -0.2518 -1.3849
 6530SOL    HW231050   0.916   1.843   6.907  0.3737  1.6765  0.5685
 6531SOL     OW31051   0.788   3.538   5.049 -0.1790 -0.0664  0.1248
 6531SOL    HW131052   0.870   3.581   5.073  0.3844 -1.6754  1.0654
 6531SOL    HW231053   0.807   3.538   4.955  0.6043  3.1160  0.2968
 6532SOL     OW31054   3.172   4.676   4.291 -0.0712 -0.2305 -0.1552
 6532SOL    HW131055   3.263   4.678   4.320  0.3561  1.3420 -1.6566
 6532SOL    HW231056   3.134   4.624   4.363 -1.9452 -0.0840 -1.0183
 6533SOL     OW31057   2.998   3.201  15.739 -0.3543  0.1866 -0.3514
 6533SOL    HW131058   3.007   3.196  15.644  2.1847  0.5282 -0.1374
 6533SOL    HW231059   3.062   3.268  15.764 -0.9640  0.7036 -0.1897
 6534SOL     OW31060   3.705   1.052   0.954  0.7996 -0.1291  0.0274
 6534SOL    HW131061   3.613   1.029   0.964  0.5281  1.6550  1.6094
 6534SOL    HW231062   3.719   1.097   1.037 -3.5787  0.1175  0.6466
 6535SOL     OW31063   0.839   4.335  16.419  0.3662  0.1646 -0.1135
 6535SOL    HW131064   0.766   4.397  16.414  0.2625 -0.1712 -2.6966
 6535SOL    HW231065   0.883   4.348  16.503 -2.2642  3.0843  0.7915
 6536SOL     OW31066   1.887   0.219  17.548  0.0912  0.0095 -0.0125
 6536SOL    HW131067   1.793   0.207  17.538 -0.0610  0.4088  0.9833
 6536SOL    HW231068   1.924   0.189  17.465 -1.0078 -0.0441 -0.4755
 6537SOL     OW31069   1.657   2.286   4.062  0.1139 -0.2306  0.4382
 6537SOL    HW131070   1.631   2.356   4.123 -0.0409  1.4040 -1.5095
 6537SOL    HW231071   1.593   2.216   4.077  0.5840 -1.2330 -2.1885
 6538SOL     OW31072   4.020   1.340   5.408 -0.2400  0.4880 -0.2100
 6538SOL    HW131073   3.987   1.363   5.495 -2.2328  0.7557 -1.0234
 6538SOL    HW231074   4.049   1.250   5.424 -3.9097 -0.3677  1.7515
 6539SOL     OW31075   3.232   2.715   4.806 -0.4020 -0.3240 -0.5073
 6539SOL    HW131076   3.206   2.639   4.857 -3.1764  0.6908 -0.4553
 6539SOL    HW231077   3.311   2.678   4.765  0.1595 -2.9463  2.9762
 6540SOL     OW31078   3.429   4.579   3.490 -0.5552  0.1023 -0.4299
 6540SOL    HW131079   3.359   4.576   3.425 -0.7306  0.0118 -0.2324
 6540SOL    HW231080   3.489   4.636   3.440 -0.7772 -1.2823 -2.2832
 6541SOL     OW31081   1.101   1.571  16.442 -0.3706  0.4124 -0.0634
 6541SOL    HW131082   1.111   1.482  16.476 -3.8191 -0.5434 -1.5709
 6541SOL    HW231083   1.006   1.582  16.444 -0.4505 -0.0345 -1.8798
 6542SOL     OW31084   0.395   4.131   3.390  0.2495 -0.1973  0.1476
 6542SOL    HW131085   0.420   4.199   3.328 -1.1657  0.2418  0.0625
 6542SOL    HW231086   0.375   4.056   3.334  0.9043 -0.9531  0.9250
 6543SOL     OW31087   1.290   3.998   7.869 -0.1570  0.1640 -0.0078
 6543SOL    HW131088   1.336   3.916   7.884  0.1353  0.3697  0.2143
 6543SOL    HW231089   1.366   4.056   7.862  0.0038 -0.2830 -1.8187
 6544SOL     OW31090   1.439   1.026   2.055  0.0044 -0.1937  0.4050
 6544SOL    HW131091   1.491   0.953   2.089  0.8568  0.7300  1.0981
 6544SOL    HW231092   1.380   1.037   2.129 -0.2920 -1.1913  0.3129
 6545SOL     OW31093   0.190   0.981  11.535  0.4112  0.1103 -0.2003
 6545SOL    HW131094   0.238   0.898  11.541  0.5364  0.1007 -1.2657
 6545SOL    HW231095   0.256   1.046  11.513 -1.4208  1.1616 -2.6753
 6546SOL     OW31096   3.910   2.013   1.332  0.1370 -0.5182  0.7733
 6546SOL    HW131097   3.953   1.932   1.360  2.0103 -0.1910 -1.1757
 6546SOL    HW231098   3.876   2.048   1.414  1.6816  0.0781  1.1563
 6547SOL     OW31099   3.095   4.393   2.425 -0.1646  0.0014  0.5506
 6547SOL    HW131100   3.005   4.362   2.439 -0.3990  1.7561  2.8862
 6547SOL    HW231101   3.098   4.487   2.440 -1.2985  0.0336  0.5904
 6548SOL     OW31102   0.825   1.758   3.545  0.0496 -0.0598 -0.0405
 6548SOL    HW131103   0.760   1.772   3.613  3.4430 -0.3186  3.2348
 6548SOL    HW231104   0.800   1.829   3.486  1.9358 -1.5221 -2.6085
 6549SOL     OW31105   4.034   2.214   8.075 -0.3316 -0.1381  0.1984
 6549SOL    HW131106   4.028   2.140   8.135 -0.1730 -1.2129 -1.1209
 6549SOL    HW231107   3.942   2.219   8.047 -0.4757  1.8015  1.0285
 6550SOL     OW31108   3.745   0.060   8.928  0.4489  0.1386  0.0703
 6550SOL    HW131109   3.670   0.118   8.944 -2.0397 -2.9843 -0.0858
 6550SOL    HW231110   3.727   4.718   8.996  0.7638 -0.8852 -0.8315
 6551SOL     OW31111   3.225   1.822   5.291  0.4229 -0.5259  0.4271
 6551SOL    HW131112   3.167   1.861   5.356 -1.9680  0.0544 -2.0475
 6551SOL    HW231113   3.298   1.884   5.281 -0.3613  0.1307 -1.2678
 6552SOL     OW31114   2.210   2.562  11.870  0.5147  0.5025 -0.3231
 6552SOL    HW131115   2.242   2.584  11.957  0.5750 -1.2290  0.0885
 6552SOL    HW231116   2.262   2.486  11.845 -0.1028  0.8179 -2.5638
 6553SOL     OW31117   2.981   3.258   8.782 -0.3651  0.4370  0.0638
 6553SOL    HW131118   2.959   3.165   8.776 -1.1602  0.6250 -0.0323
 6553SOL    HW231119   2.913   3.287   8.721 -0.4881 -0.0636 -0.0346
 6554SOL     OW31120   1.235   1.157   9.191 -0.8453 -0.4485  0.2197
 6554SOL    HW131121   1.256   1.138   9.100 -1.5367 -1.1971  0.2164
 6554SOL    HW231122   1.266   1.248   9.194  0.0928 -0.7458 -0.6648
 6555SOL     OW31123   2.764   2.195   5.617  0.5975  0.1524 -0.4972
 6555SOL    HW131124   2.808   2.167   5.697  1.0870 -1.3821 -1.3025
 6555SOL    HW231125   2.793   2.286   5.616 -1.5243  0.8708  2.7825
 6556SOL     OW31126   4.569   1.964   5.671  0.7548  0.5163 -0.0905
 6556SOL    HW131127   4.665   1.961   5.668  0.8669  2.5020  1.0638
 6556SOL    HW231128   4.560   1.994   5.580 -0.5864 -0.2165 -0.1955
 6557SOL     OW31129   3.703   2.219   8.022  0.0862  0.3799 -0.0629
 6557SOL    HW131130   3.655   2.142   8.053  1.2393 -0.6609 -0.8908
 6557SOL    HW231131   3.714   2.208   7.928  1.8845  2.1555 -0.0432
 6558SOL     OW31132   4.521   0.194   5.335 -0.2067 -0.4134  0.4388
 6558SOL    HW131133   4.603   0.168   5.378  0.5084  0.8273 -0.1652
 6558SOL    HW231134   4.568   0.242   5.266 -0.6355 -1.5886 -0.6765
 6559SOL     OW31135   2.274   2.116  16.028  0.8414  0.2869 -0.8423
 6559SOL    HW131136   2.253   2.084  15.940  3.6469  1.8455 -2.1065
 6559SOL    HW231137   2.220   2.194  16.028  1.7466  0.9232 -2.2538
 6560SOL     OW31138   2.259   0.455   3.609 -0.5321  0.7208 -0.1153
 6560SOL    HW131139   2.241   0.546   3.632 -1.6219 -0.1638  2.5183
 6560SOL    HW231140   2.219   0.457   3.522  0.3971  0.1935 -0.5573
 6561SOL     OW31141   3.409   4.279   5.611  0.4302 -0.3299 -0.1758
 6561SOL    HW131142   3.425   4.346   5.677 -0.4891 -0.0603 -0.2256
 6561SOL    HW231143   3.332   4.238   5.649 -0.5603 -1.1758 -3.0703
 6562SOL     OW31144   0.564   0.211  16.076 -0.2461 -0.1456  0.2109
 6562SOL    HW131145   0.499   0.256  16.130  1.0308  2.0928 -0.1283
 6562SOL    HW231146   0.618   0.289  16.062 -2.7872  1.3889 -1.2557
 6563SOL     OW31147   1.211   3.705   6.347 -0.0260 -0.5691  0.2521
 6563SOL    HW131148   1.254   3.750   6.274 -1.6920  0.9328  0.1832
 6563SOL    HW231149   1.242   3.616   6.330  0.2199 -0.6572  1.2086
 6564SOL     OW31150   4.290   2.325   4.640  0.3170  0.1565 -0.3773
 6564SOL    HW131151   4.280   2.410   4.683 -2.2448 -0.6508  0.6449
 6564SOL    HW231152   4.347   2.340   4.565 -1.2186  0.4080 -1.5045
 6565SOL     OW31153   4.554   2.195   2.202 -0.0755  0.6068  0.2615
 6565SOL    HW131154   4.520   2.108   2.179  4.3493 -0.6643 -1.6172
 6565SOL    HW231155   4.469   2.237   2.194 -0.6503 -0.9312 -1.8714
 6566SOL     OW31156   1.190   1.504   8.300 -0.5685 -0.0054 -0.3397
 6566SOL    HW131157   1.208   1.538   8.213  0.6520  0.6360  0.1639
 6566SOL    HW231158   1.274   1.464   8.321 -1.3050 -0.9192  0.8999
 6567SOL     OW31159   0.633   2.643  14.937  0.1287  0.0329  0.3202
 6567SOL    HW131160   0.597   2.702  14.870 -2.6366 -2.0565 -0.0377
 6567SOL    HW231161   0.675   2.694  15.006  0.6324 -0.0561  0.0816
 6568SOL     OW31162   1.659   3.983   5.508  0.0960 -0.0949  0.0742
 6568SOL    HW131163   1.701   4.058   5.550 -0.5350 -0.6441  1.7136
 6568SOL    HW231164   1.579   4.022   5.474  0.5715  1.1703  0.3999
 6569SOL     OW31165   2.794   1.398   7.018 -0.5784  0.2783 -0.8272
 6569SOL    HW131166   2.725   1.341   7.053 -0.0302 -0.5165 -1.0259
 6569SOL    HW231167   2.818   1.455   7.091  2.4819 -1.4475 -0.4712
 6570SOL     OW31168   3.471   3.390   2.828 -0.0510  0.4433 -0.1799
 6570SOL    HW131169   3.424   3.457   2.877  0.2985  0.7004 -0.1916
 6570SOL    HW231170   3.462   3.421   2.737  0.8515  0.7454 -0.1675
 6571SOL     OW31171   1.838   4.651  12.744 -0.4093  0.0575 -0.1570
 6571SOL    HW131172   1.868   4.570  12.784 -0.4978  0.9950  1.8247
 6571SOL    HW231173   1.819   4.716  12.811  0.9531 -0.6128  0.8789
 6572SOL     OW31174   0.714   0.639   4.830 -0.3163  0.0486 -0.1906
 6572SOL    HW131175   0.752   0.678   4.751  1.8862 -2.3943 -0.3137
 6572SOL    HW231176   0.627   0.616   4.795 -0.1046  2.8689 -2.5833
 6573SOL     OW31177   1.163   0.855   2.823  0.1253  0.6526 -0.2053
 6573SOL    HW131178   1.114   0.838   2.743  3.1946  0.8139 -2.0828
 6573SOL    HW231179   1.240   0.800   2.810  0.9991  2.0540 -0.8875
 6574SOL     OW31180   3.689   1.953   2.820  0.0846  0.6501  0.4401
 6574SOL    HW131181   3.687   1.962   2.724  0.0219 -1.4849  0.2276
 6574SOL    HW231182   3.676   1.858   2.822  2.0906  0.3094 -2.3388
 6575SOL     OW31183   3.496   1.175   2.291  0.4651  0.4359  0.1725
 6575SOL    HW131184   3.541   1.239   2.346  2.4230 -1.2412  0.5369
 6575SOL    HW231185   3.463   1.104   2.346  1.0581  0.1760  0.1954
 6576SOL     OW31186   3.950   3.205   6.299  0.2719 -0.0464 -0.2596
 6576SOL    HW131187   3.930   3.231   6.389 -0.1683 -0.6938 -0.1666
 6576SOL    HW231188   4.035   3.164   6.318  0.4502  1.2859  1.7620
 6577SOL     OW31189   2.513   3.858   4.011  0.0570  0.3957 -0.0514
 6577SOL    HW131190   2.522   3.770   4.047  0.6695  0.7595  0.6722
 6577SOL    HW231191   2.502   3.839   3.917 -1.6483  0.7861  0.0671
 6578SOL     OW31192   3.299   4.428   1.117  0.0182 -0.4801  0.5957
 6578SOL    HW131193   3.355   4.501   1.141  1.0088 -0.6082 -1.2685
 6578SOL    HW231194   3.211   4.464   1.128  1.6818  2.9525  2.5121
 6579SOL     OW31195   4.509   1.399   8.647 -0.1094 -0.2190  0.3167
 6579SOL    HW131196   4.436   1.409   8.709 -0.2382  1.3603 -0.0923
 6579SOL    HW231197   4.463   1.384   8.564  0.8113  1.5743 -0.5071
 6580SOL     OW31198   0.159   3.098   4.234 -0.4414  0.9971  0.2051
 6580SOL    HW131199   0.126   3.182   4.202  1.1662  1.5307 -0.1053
 6580SOL    HW231200   0.110   3.045   4.172 -0.7498  0.3256  1.0215
 6581SOL     OW31201   4.129   2.783  16.784  0.2077  0.4121  0.5393
 6581SOL    HW131202   4.078   2.856  16.818  0.6362  1.0073 -0.0950
 6581SOL    HW231203   4.051   2.729  16.771 -0.4405  0.9240  2.2946
 6582SOL     OW31204   2.197   0.070   6.675 -0.0000  0.0104 -0.4744
 6582SOL    HW131205   2.145   4.713   6.666  0.0393  0.1593 -1.8936
 6582SOL    HW231206   2.130   0.133   6.648  1.8102  1.2609 -2.0249
 6583SOL     OW31207   2.431   0.108   4.866  0.3775 -0.1242 -0.1702
 6583SOL    HW131208   2.430   0.021   4.904  0.7389 -0.7134 -1.5314
 6583SOL    HW231209   2.492   0.112   4.793 -0.6281 -1.4993 -1.0743
 6584SOL     OW31210   3.650   2.516   9.242  0.1867 -0.6351 -0.2225
 6584SOL    HW131211   3.580   2.474   9.292  0.8014 -0.2010  1.0100
 6584SOL    HW231212   3.654   2.452   9.171  1.8954 -0.6921 -0.0665
 6585SOL     OW31213   4.053   3.343   4.273 -0.3434 -0.1823 -0.4707
 6585SOL    HW131214   3.998   3.305   4.341 -0.2731  2.0850  0.8478
 6585SOL    HW231215   4.134   3.361   4.320 -0.6394 -1.1693  0.4026
 6586SOL     OW31216   1.789   3.785   6.622 -0.0905 -0.3967 -1.0792
 6586SOL    HW131217   1.739   3.761   6.700  0.5293  1.8496  0.0288
 6586SOL    HW231218   1.877   3.751   6.642  0.4436  1.3159 -0.4833
 6587SOL     OW31219   4.301   4.483   1.786 -0.1754 -0.3920 -0.3191
 6587SOL    HW131220   4.205   4.485   1.786 -0.2113 -2.0884 -0.5169
 6587SOL    HW231221   4.323   4.427   1.712  1.2315 -0.5239  0.1981
 6588SOL     OW31222   3.385   0.123  12.713  0.0472  0.0751  0.2202
 6588SOL    HW131223   3.474   0.156  12.726  0.7291 -0.8803 -1.8980
 6588SOL    HW231224   3.374   0.141  12.620  0.1636 -0.2562  0.1416
 6589SOL     OW31225   3.421   2.872   2.866  0.3070  0.0825  0.2499
 6589SOL    HW131226   3.375   2.951   2.837  1.6449  0.7367 -0.0973
 6589SOL    HW231227   3.395   2.818   2.792 -0.5473  2.2071 -0.9952
 6590SOL     OW31228   2.209   4.219   5.000  0.1934 -0.3214 -0.4341
 6590SOL    HW131229   2.121   4.193   5.026 -0.4194  2.5665  0.4060
 6590SOL    HW231230   2.217   4.177   4.914  1.6488 -2.2312  0.6449
 6591SOL     OW31231   1.627   1.083  11.292 -0.4772  0.1930 -0.1349
 6591SOL    HW131232   1.669   1.026  11.228  2.6698  1.3787  0.8459
 6591SOL    HW231233   1.601   1.153  11.232  0.9528  1.7638  1.1147
 6592SOL     OW31234   2.954   4.030   4.647 -0.0630  0.0116  0.0810
 6592SOL    HW131235   2.972   4.065   4.734 -0.1938 -0.5463  0.3369
 6592SOL    HW231236   2.859   4.030   4.659 -0.1657 -0.8951 -0.7507
 6593SOL     OW31237   4.457   3.798   9.963 -0.2747  0.1405  0.3459
 6593SOL    HW131238   4.506   3.855   9.905 -0.2854  0.2133  0.4092
 6593SOL    HW231239   4.449   3.718   9.911 -1.2531  0.4507  0.0158
 6594SOL     OW31240   4.021   0.313   1.394  0.1701  0.0141  0.6522
 6594SOL    HW131241   3.974   0.370   1.332  1.9789  1.3164  0.4645
 6594SOL    HW231242   4.058   0.383   1.448 -1.0809  0.5819  0.7771
 6595SOL     OW31243   0.003   3.232  12.469 -0.0947 -0.2126  0.1691
 6595SOL    HW131244   4.715   3.327  12.473 -1.2115 -0.2624 -1.8165
 6595SOL    HW231245   0.085   3.220  12.518  0.3322  2.3310  0.0607
 6596SOL     OW31246   4.500   0.360   7.434 -0.3422  0.1462  0.4880
 6596SOL    HW131247   4.483   0.309   7.355 -0.7653 -0.5676  1.0353
 6596SOL    HW231248   4.578   0.316   7.467 -0.0150  0.0829 -0.3753
 6597SOL     OW31249   1.427   0.258   6.008  0.3121 -0.4261  0.0085
 6597SOL    HW131250   1.374   0.179   5.998 -0.1002 -0.0862 -0.5346
 6597SOL    HW231251   1.518   0.229   6.002  1.1130  2.1331 -0.0184
 6598SOL     OW31252   3.499   3.311  11.144 -0.3417  0.3987  0.8735
 6598SOL    HW131253   3.542   3.246  11.199  1.7608  0.7358 -0.3832
 6598SOL    HW231254   3.425   3.323  11.204  1.9141 -0.7524  3.8626
 6599SOL     OW31255   3.815   2.119  16.396  0.2476  0.6511  0.5534
 6599SOL    HW131256   3.736   2.152  16.354  0.0634  0.9934  1.1678
 6599SOL    HW231257   3.789   2.123  16.488  0.1366 -2.9873  0.6905
 6600SOL     OW31258   2.476   2.026  10.375 -0.5752 -0.2566  0.5823
 6600SOL    HW131259   2.530   1.959  10.416 -1.3153 -2.5531 -2.2059
 6600SOL    HW231260   2.398   1.981  10.343 -0.2461  0.7843 -1.6745
 6601SOL     OW31261   3.855   4.148   5.292 -0.1256 -0.0438  0.1071
 6601SOL    HW131262   3.941   4.111   5.270  0.8356  2.6238 -0.5578
 6601SOL    HW231263   3.789   4.107   5.235  0.3932  0.0319 -0.5443
 6602SOL     OW31264   2.362   2.282   2.482 -0.0788  0.2171 -0.0848
 6602SOL    HW131265   2.313   2.336   2.544  0.6954 -0.7962  1.4235
 6602SOL    HW231266   2.293   2.237   2.434  0.1502 -1.6017  1.3124
 6603SOL     OW31267   1.188   2.344   1.366  0.1520 -0.4537 -0.8461
 6603SOL    HW131268   1.217   2.416   1.421  0.1402  1.2914 -3.1100
 6603SOL    HW231269   1.266   2.292   1.349  1.3852  0.9569  0.5495
 6604SOL     OW31270   3.801   3.052   3.287  0.5257  0.5230 -0.0233
 6604SOL    HW131271   3.728   2.990   3.285  1.2364 -0.3112  0.3039
 6604SOL    HW231272   3.845   3.027   3.368 -1.0921  0.3204  0.8014
 6605SOL     OW31273   1.143   1.611  15.701  0.0232 -0.2648  0.1545
 6605SOL    HW131274   1.172   1.611  15.609 -1.9500  0.0068 -0.4677
 6605SOL    HW231275   1.120   1.703  15.714  2.3777  0.3759 -0.1730
 6606SOL     OW31276   0.305   0.825  10.175  0.0699 -0.2653 -0.3162
 6606SOL    HW131277   0.276   0.797  10.262 -0.0985  2.0730  0.3699
 6606SOL    HW231278   0.340   0.913  10.187  0.4356 -0.0893 -2.7100
 6607SOL     OW31279   3.578   3.737   6.300 -0.6025 -0.1752  0.2487
 6607SOL    HW131280   3.633   3.805   6.262  0.2835 -1.6690 -1.1262
 6607SOL    HW231281   3.581   3.676   6.227  0.3109 -1.7414  1.5929
 6608SOL     OW31282   1.748   0.330  13.201 -0.1988  0.1184 -0.4819
 6608SOL    HW131283   1.768   0.388  13.127  0.1328 -0.3764 -0.7826
 6608SOL    HW231284   1.825   0.273  13.196  0.0726  0.3740  0.6917
 6609SOL     OW31285   1.269   3.974   3.763 -0.6002  0.1250 -0.2126
 6609SOL    HW131286   1.196   3.935   3.716 -1.0540  0.4100  0.2582
 6609SOL    HW231287   1.343   3.917   3.740  0.4112  1.0318  0.8012
 6610SOL     OW31288   0.149   0.819  13.016 -0.0021 -0.7083  0.6080
 6610SOL    HW131289   0.171   0.801  12.925  0.4975 -3.3930  1.2360
 6610SOL    HW231290   0.162   0.913  13.010  2.2662 -1.1319 -1.0433
 6611SOL     OW31291   0.829   2.845   7.965 -0.1836 -0.0943  0.4936
 6611SOL    HW131292   0.757   2.902   7.939 -0.3562 -0.0859  1.0016
 6611SOL    HW231293   0.885   2.912   8.003 -0.4404  1.8874 -2.6358
 6612SOL     OW31294   4.100   2.658   6.149  0.1824  0.1597  0.2405
 6612SOL    HW131295   4.168   2.648   6.082  1.1096  1.1421  1.0359
 6612SOL    HW231296   4.152   2.623   6.221  0.0124  2.0972  1.3097
 6613SOL     OW31297   1.225   3.336   5.325 -0.5157 -0.2772 -0.2273
 6613SOL    HW131298   1.310   3.375   5.347 -0.5580  0.2923 -1.0440
 6613SOL    HW231299   1.166   3.403   5.358  1.9715  2.1155 -0.5854
 6614SOL     OW31300   3.925   1.167   2.852 -0.5014 -0.3624 -0.1681
 6614SOL    HW131301   3.951   1.097   2.911  0.0397  0.0646  0.1005
 6614SOL    HW231302   3.837   1.189   2.882 -0.1376  3.5758 -1.9076
 6615SOL     OW31303   3.817   0.856   3.018 -0.5322  0.0399 -0.6624
 6615SOL    HW131304   3.809   0.856   3.113  2.8204 -0.0177 -0.3706
 6615SOL    HW231305   3.903   0.896   3.004  0.1317 -1.4002 -0.7570
 6616SOL     OW31306   0.922   4.392   7.531  0.4452  0.4940 -0.5669
 6616SOL    HW131307   0.873   4.456   7.582  0.6240  1.3676 -1.4839
 6616SOL    HW231308   0.864   4.317   7.525  0.4832  0.5613 -1.6903
 6617SOL     OW31309   0.476   0.442  16.206  0.0133  0.1245 -0.1655
 6617SOL    HW131310   0.538   0.503  16.245  1.1448 -0.5828 -0.8878
 6617SOL    HW231311   0.395   0.492  16.215 -0.7463 -0.9523 -1.0619
 6618SOL     OW31312   1.545   2.961  13.757  0.7741  0.1750  0.2116
 6618SOL    HW131313   1.566   3.046  13.795 -0.1302  1.0010 -1.1667
 6618SOL    HW231314   1.629   2.930  13.722  0.1221  1.3750 -2.3888
 6619SOL     OW31315   0.921   3.242   4.951  0.3676 -0.1188 -1.0315
 6619SOL    HW131316   1.011   3.257   4.981 -0.5160  0.7231  1.1689
 6619SOL    HW231317   0.875   3.260   5.033  0.8996 -0.0330 -0.7516
 6620SOL     OW31318   3.343   1.116   2.665  0.3229 -0.8417  0.9054
 6620SOL    HW131319   3.421   1.063   2.678  0.4802 -0.0593  3.2206
 6620SOL    HW231320   3.333   1.165   2.747 -1.5788  3.0175 -1.6020
 6621SOL     OW31321   1.174   3.265   1.349 -0.0410 -0.8173  0.2818
 6621SOL    HW131322   1.107   3.197   1.354  0.8403 -1.7827 -1.0735
 6621SOL    HW231323   1.221   3.259   1.433 -0.8089 -0.1917  0.7540
 6622SOL     OW31324   0.444   3.522   2.435  0.0738 -0.2252 -0.5722
 6622SOL    HW131325   0.509   3.515   2.505 -1.3070 -0.5196  0.6632
 6622SOL    HW231326   0.387   3.446   2.449  0.3792 -0.6062 -1.3376
 6623SOL     OW31327   0.041   0.969  12.800 -0.1555  0.1212 -0.0402
 6623SOL    HW131328   4.672   0.948  12.797  0.3672 -1.8053 -2.6895
 6623SOL    HW231329   0.071   0.929  12.718 -1.3357  2.0033 -1.3999
 6624SOL     OW31330   3.084   1.890   5.036  0.5192  0.1390 -0.6449
 6624SOL    HW131331   3.155   1.913   5.096  0.4072 -0.8589 -0.1361
 6624SOL    HW231332   3.028   1.839   5.094  0.7529  0.7747  0.1450
 6625SOL     OW31333   1.967   0.450   5.952  0.3937  0.4064  0.0078
 6625SOL    HW131334   2.037   0.400   5.996 -0.4115 -2.0985 -1.5394
 6625SOL    HW231335   1.896   0.432   6.014  0.0638 -0.6621 -0.6774
 6626SOL     OW31336   3.281   0.433   6.990  0.1155 -0.3337 -0.1955
 6626SOL    HW131337   3.215   0.393   7.046  0.1445  0.9369  0.7741
 6626SOL    HW231338   3.233   0.498   6.939 -0.5896 -0.3771  0.4179
 6627SOL     OW31339   1.079   1.178  17.218 -0.3229  0.2117 -0.0173
 6627SOL    HW131340   0.990   1.199  17.188 -0.4065  1.3451  1.0229
 6627SOL    HW231341   1.099   1.105  17.159 -2.3641 -0.1616 -0.2530
 6628SOL     OW31342   0.175   0.620  16.461 -0.0696  0.1485  0.8316
 6628SOL    HW131343   0.140   0.559  16.526  1.5262 -0.3631  1.2168
 6628SOL    HW231344   0.198   0.692  16.520  1.6441 -0.0231  0.3771
 6629SOL     OW31345   2.581   2.561   5.554  0.0117 -0.0365  0.4279
 6629SOL    HW131346   2.659   2.550   5.609  2.3250  1.3348 -2.5459
 6629SOL    HW231347   2.548   2.472   5.549 -0.9113  0.3133  0.2755
 6630SOL     OW31348   0.910   0.608  11.833  0.2872 -0.1609 -0.1004
 6630SOL    HW131349   0.892   0.557  11.753 -0.4226 -0.9709  0.5791
 6630SOL    HW231350   0.841   0.674  11.832  0.8272  0.4138  0.9209
 6631SOL     OW31351   2.404   0.514   6.967 -0.7373  0.3817 -0.6421
 6631SOL    HW131352   2.319   0.524   7.010 -0.9430 -0.5304 -0.8437
 6631SOL    HW231353   2.382   0.536   6.877 -1.0184 -1.5866 -1.0557
 6632SOL     OW31354   3.481   4.385  17.109 -0.1838 -0.0411  0.1762
 6632SOL    HW131355   3.543   4.379  17.182 -0.2844 -0.7189  0.2050
 6632SOL    HW231356   3.529   4.364  17.029 -0.3871  0.3803 -0.0580
 6633SOL     OW31357   1.173   3.557   0.370  0.4684  0.5525  0.4177
 6633SOL    HW131358   1.169   3.652   0.379 -0.0194  0.7320 -1.5729
 6633SOL    HW231359   1.225   3.525   0.444 -0.1328 -3.4472 -0.9186
 6634SOL     OW31360   2.617   3.645   5.317  0.1746 -0.4673  0.1431
 6634SOL    HW131361   2.598   3.626   5.225  0.6095  0.5522 -0.1640
 6634SOL    HW231362   2.639   3.563   5.360  2.5424 -0.1006 -0.3346
 6635SOL     OW31363   4.027   1.124   4.697  0.2253  0.1029  0.3395
 6635SOL    HW131364   4.006   1.205   4.743  0.6386  1.1777 -1.3674
 6635SOL    HW231365   3.959   1.067   4.733  0.2574 -0.4157 -0.4256
 6636SOL     OW31366   2.349   4.372   1.046  0.2372  0.0076  0.0450
 6636SOL    HW131367   2.358   4.462   1.075  1.2943  0.0603 -0.4554
 6636SOL    HW231368   2.384   4.334   1.127  0.4487 -1.4042 -0.7137
 6637SOL     OW31369   0.028   0.979   8.313  0.3278 -0.1413  0.4088
 6637SOL    HW131370   4.658   0.964   8.300  0.0266  2.2784 -0.2989
 6637SOL    HW231371   0.061   0.964   8.224  0.3209  1.1874  0.1807
 6638SOL     OW31372   1.678   2.708   6.307  0.2813 -0.1381  0.9900
 6638SOL    HW131373   1.773   2.692   6.304  0.1211 -0.7719 -0.8632
 6638SOL    HW231374   1.650   2.665   6.227  3.9620  2.3230 -1.6365
 6639SOL     OW31375   2.505   1.562   7.319  0.1468  0.2211 -0.0488
 6639SOL    HW131376   2.459   1.610   7.250 -0.1231 -0.5189 -0.3856
 6639SOL    HW231377   2.521   1.480   7.274  3.1009  1.6040 -1.5279
 6640SOL     OW31378   1.935   1.971   1.090  0.0444  0.0484 -0.1911
 6640SOL    HW131379   1.898   1.910   1.025 -0.8726  1.3075 -0.8531
 6640SOL    HW231380   1.859   2.023   1.117  0.8855  2.0510 -1.6795
 6641SOL     OW31381   1.300   3.685   5.348 -0.2728  0.5112 -0.0480
 6641SOL    HW131382   1.349   3.724   5.420  0.8522  0.4388 -0.7754
 6641SOL    HW231383   1.253   3.762   5.314 -0.3378  1.2985  1.8415
 6642SOL     OW31384   1.651   0.356   7.192  0.1894 -0.7062  0.2103
 6642SOL    HW131385   1.589   0.284   7.199  2.2579 -2.4554  0.3458
 6642SOL    HW231386   1.724   0.337   7.251  1.1179 -0.7656 -0.9743
 6643SOL     OW31387   4.281   2.118   4.915 -0.6628 -0.1207  0.2045
 6643SOL    HW131388   4.250   2.208   4.904 -0.6192 -0.1915 -0.4530
 6643SOL    HW231389   4.252   2.084   4.831 -0.0885 -1.8248  0.6872
 6644SOL     OW31390   0.584   0.632   6.180 -0.2961  0.1765 -0.6091
 6644SOL    HW131391   0.639   0.710   6.185 -0.0503 -0.0220 -0.2286
 6644SOL    HW231392   0.617   0.597   6.097 -0.3024  0.1365 -0.5946
 6645SOL     OW31393   1.246   4.419  10.390 -0.0878  0.1048  0.0519
 6645SOL    HW131394   1.196   4.383  10.317 -2.2646  0.0967  1.5606
 6645SOL    HW231395   1.193   4.497  10.409 -1.6959 -0.8259 -0.5746
 6646SOL     OW31396   1.479   0.107   5.645 -0.5608  0.1905  0.7357
 6646SOL    HW131397   1.480   0.099   5.550  2.7532  2.1647  0.6266
 6646SOL    HW231398   1.383   0.103   5.652 -0.5246 -0.5678  0.8466
 6647SOL     OW31399   4.173   1.779   1.173 -0.2036  0.4795 -0.6078
 6647SOL    HW131400   4.138   1.857   1.129 -0.5037  0.2779 -0.7284
 6647SOL    HW231401   4.115   1.779   1.249 -0.9959  0.3242 -1.2090
 6648SOL     OW31402   1.345   2.818   5.908 -0.7608 -0.3035 -0.0215
 6648SOL    HW131403   1.346   2.892   5.846  0.8147 -0.8709 -0.6876
 6648SOL    HW231404   1.428   2.834   5.953  0.2211 -0.8431 -1.6111
 6649SOL     OW31405   0.257   0.720   0.812  0.4457  0.0312 -0.4392
 6649SOL    HW131406   0.237   0.691   0.902 -0.1049  2.5305  0.2458
 6649SOL    HW231407   0.169   0.728   0.776 -0.4570  0.7105  1.9362
 6650SOL     OW31408   3.396   1.185  16.413 -0.2116  0.0941 -0.1208
 6650SOL    HW131409   3.304   1.209  16.424  0.4548  3.4300 -2.1153
 6650SOL    HW231410   3.393   1.188  16.318  0.7047 -1.0731 -0.1996
 6651SOL     OW31411   1.183   3.752   4.272 -0.1484  0.9896  0.2113
 6651SOL    HW131412   1.148   3.781   4.188  2.1011 -0.5105 -1.2394
 6651SOL    HW231413   1.158   3.660   4.264  2.4447  0.4597 -1.8259
 6652SOL     OW31414   4.709   3.317   4.108 -0.5333 -0.1652  0.1615
 6652SOL    HW131415   4.662   3.378   4.165 -2.1172 -0.4875 -0.8034
 6652SOL    HW231416   0.032   3.379   4.052 -0.5533 -1.0583 -0.8412
 6653SOL     OW31417   2.615   1.806   7.356  0.0125 -0.2190 -0.0855
 6653SOL    HW131418   2.531   1.835   7.391 -0.2878 -1.8136  0.4820
 6653SOL    HW231419   2.609   1.711   7.349 -3.8412  0.2177 -2.4729
 6654SOL     OW31420   1.893   1.080   8.102  0.2046  0.8472  0.3286
 6654SOL    HW131421   1.828   1.021   8.140  0.2527 -0.5959 -1.8472
 6654SOL    HW231422   1.833   1.137   8.053  1.1215  1.9485  0.4730
 6655SOL     OW31423   1.641   0.821  14.840 -0.1949 -0.6678 -0.0111
 6655SOL    HW131424   1.597   0.841  14.923 -1.9404  0.9396 -1.3140
 6655SOL    HW231425   1.720   0.775  14.869 -0.5841 -0.3266  1.5905
 6656SOL     OW31426   3.606   2.771   4.163 -0.4733 -0.3540 -0.4027
 6656SOL    HW131427   3.683   2.737   4.118 -0.4007 -1.8354  0.8342
 6656SOL    HW231428   3.614   2.735   4.251 -1.3995  0.5173  0.0308
 6657SOL     OW31429   0.659   1.028   1.341 -0.5486  0.5525 -0.0348
 6657SOL    HW131430   0.657   1.075   1.425  1.2130  0.0314  0.2976
 6657SOL    HW231431   0.591   1.070   1.289 -2.0201 -1.5684  0.1586
 6658SOL     OW31432   3.224   4.310   6.182 -0.0326  0.2798  0.0457
 6658SOL    HW131433   3.288   4.365   6.227  1.5417 -2.3568  1.0523
 6658SOL    HW231434   3.242   4.317   6.088 -4.1149 -0.7822 -0.8154
 6659SOL     OW31435   3.694   1.153   7.910  0.6959  0.4628 -1.2540
 6659SOL    HW131436   3.773   1.174   7.959 -1.8531  1.8185  2.2972
 6659SOL    HW231437   3.629   1.171   7.977  0.1281  0.8923 -1.9170
 6660SOL     OW31438   0.607   2.489  12.603  0.4138 -0.3106 -0.1287
 6660SOL    HW131439   0.693   2.517  12.573 -0.0299 -0.3262 -1.4186
 6660SOL    HW231440   0.578   2.410  12.558 -1.5729  1.4131 -1.8567
 6661SOL     OW31441   1.263   2.731   4.052  0.0854  0.3436  0.4857
 6661SOL    HW131442   1.287   2.691   3.969 -0.6247  2.5630 -0.7899
 6661SOL    HW231443   1.215   2.812   4.032 -1.2163 -0.9012 -1.3787
 6662SOL     OW31444   4.165   0.411  12.044  0.4188 -0.4659  0.3400
 6662SOL    HW131445   4.081   0.378  12.013  0.5107 -1.2896  0.9826
 6662SOL    HW231446   4.147   0.433  12.135  1.9451  3.4775 -0.2998
 6663SOL     OW31447   1.289   0.744  14.312  0.1359 -0.4027  0.4535
 6663SOL    HW131448   1.198   0.731  14.339 -0.4698  1.9224 -0.4044
 6663SOL    HW231449   1.302   0.668  14.257 -2.8456 -0.7976  0.3045
 6664SOL     OW31450   1.304   4.265   1.975 -0.2793 -0.3537 -0.0981
 6664SOL    HW131451   1.295   4.333   1.910  0.0784  0.7386  0.9930
 6664SOL    HW231452   1.237   4.207   1.938  0.3018 -0.2205 -1.3479
 6665SOL     OW31453   0.544   4.673   5.012  0.0011  0.2326  0.3348
 6665SOL    HW131454   0.523   0.040   5.036 -0.2549  0.5906 -1.2807
 6665SOL    HW231455   0.484   4.628   5.072  2.5260 -1.4944  1.6004
 6666SOL     OW31456   3.968   2.842   8.378  0.0075 -0.1371  0.6342
 6666SOL    HW131457   3.907   2.769   8.372  1.9236 -1.7094  0.1410
 6666SOL    HW231458   4.000   2.837   8.469 -1.8347 -1.1695  1.2243
 6667SOL     OW31459   3.052   3.938   9.730 -0.6432  0.1911  0.0470
 6667SOL    HW131460   2.958   3.924   9.741 -0.3524  0.2306  2.6613
 6667SOL    HW231461   3.079   3.846   9.725  0.9669  0.7195 -1.0715
 6668SOL     OW31462   3.186   1.428   3.387  0.4265  0.8112  0.0918
 6668SOL    HW131463   3.217   1.518   3.382 -0.1733  0.9966 -0.3138
 6668SOL    HW231464   3.226   1.411   3.472 -1.9726  0.2893  1.1321
 6669SOL     OW31465   4.000   0.723  12.382  0.0160  0.6216 -0.7337
 6669SOL    HW131466   3.957   0.798  12.422  0.3818 -0.0780  0.9519
 6669SOL    HW231467   3.930   0.705  12.319 -1.7171 -0.2560  1.4833
 6670SOL     OW31468   3.691   0.762   7.636  0.1340 -0.0133 -0.0617
 6670SOL    HW131469   3.754   0.769   7.708 -1.9626  1.5040  1.6333
 6670SOL    HW231470   3.685   0.667   7.626 -1.3870  0.0201  0.4464
 6671SOL     OW31471   2.530   3.587   3.028 -0.1605  0.3292 -0.3997
 6671SOL    HW131472   2.470   3.655   3.060 -0.9917 -0.7815  0.4230
 6671SOL    HW231473   2.467   3.543   2.972 -1.7334  0.5801  1.1528
 6672SOL     OW31474   1.659   0.447   5.026  0.3680 -0.1319  0.2224
 6672SOL    HW131475   1.684   0.511   5.093  0.0486 -1.1636  1.3225
 6672SOL    HW231476   1.565   0.464   5.023  0.5102  0.9367  2.1314
 6673SOL     OW31477   3.368   0.527   2.753 -0.3181 -0.5169  0.3058
 6673SOL    HW131478   3.360   0.622   2.758  0.2879 -0.4284 -0.4345
 6673SOL    HW231479   3.460   0.507   2.766  0.0184  1.2106  0.6311
 6674SOL     OW31480   4.284   2.443   0.433 -0.0885 -0.5393  0.1513
 6674SOL    HW131481   4.311   2.354   0.457  1.5600  0.7773  3.1449
 6674SOL    HW231482   4.299   2.489   0.515 -1.0708  0.3308 -0.1597
 6675SOL     OW31483   3.665   3.268   5.415 -0.3949  0.4105 -0.4927
 6675SOL    HW131484   3.682   3.283   5.322 -1.8789  1.7354 -0.5334
 6675SOL    HW231485   3.659   3.173   5.427  0.4772  0.6912  2.2554
 6676SOL     OW31486   2.326   0.504  14.153 -0.3635 -0.2792 -0.2067
 6676SOL    HW131487   2.308   0.494  14.246 -0.7678 -2.8089 -0.5463
 6676SOL    HW231488   2.338   0.411  14.130 -0.8590 -1.5503  4.6187
 6677SOL     OW31489   0.815   2.781   8.424 -0.1347  0.3328 -0.3555
 6677SOL    HW131490   0.753   2.781   8.496 -0.5182 -0.2115 -0.6853
 6677SOL    HW231491   0.761   2.791   8.346 -1.9995 -1.1450  0.7501
 6678SOL     OW31492   0.161   3.506  17.331  0.0101 -0.4166  0.0461
 6678SOL    HW131493   0.173   3.570  17.401  1.5322 -0.1276 -0.4954
 6678SOL    HW231494   0.177   3.428  17.385 -1.4251  0.5284  1.8459
 6679SOL     OW31495   0.275   0.342   5.631  0.6272  0.3487  0.6370
 6679SOL    HW131496   0.226   0.422   5.613 -1.5811 -0.6196  2.4242
 6679SOL    HW231497   0.194   0.294   5.649  1.9921 -1.9258  0.6486
 6680SOL     OW31498   3.444   3.183   4.358 -0.1319  0.0912 -0.1783
 6680SOL    HW131499   3.448   3.268   4.315  0.7409 -0.4004 -1.0751
 6680SOL    HW231500   3.525   3.143   4.325 -2.3792 -2.3948 -2.7262
 6681SOL     OW31501   0.631   1.333   5.701  1.0434 -0.1633  0.1357
 6681SOL    HW131502   0.585   1.407   5.741  0.0472 -0.5853 -0.2317
 6681SOL    HW231503   0.551   1.292   5.666  1.6118 -0.1503 -1.1841
 6682SOL     OW31504   4.077   1.617   5.447  0.4732 -0.2263  0.4512
 6682SOL    HW131505   4.066   1.580   5.535  0.5827 -0.3844  0.3981
 6682SOL    HW231506   4.060   1.542   5.390 -2.2433 -0.3698  1.4261
 6683SOL     OW31507   0.653   2.069   5.176  0.4860  0.0262  0.1624
 6683SOL    HW131508   0.718   2.124   5.132 -0.9117  1.4440 -0.1278
 6683SOL    HW231509   0.658   2.088   5.270  0.5195 -1.9222  0.5555
 6684SOL     OW31510   0.080   2.032  15.374  0.1244 -0.0780  0.7082
 6684SOL    HW131511   0.000   1.990  15.343  0.2426 -0.7625  1.3192
 6684SOL    HW231512   0.097   2.096  15.305  2.5967 -0.4663  0.9508
 6685SOL     OW31513   1.344   3.554   7.148  0.1544  0.0507  0.3259
 6685SOL    HW131514   1.309   3.466   7.160  1.3484 -0.4236  0.3938
 6685SOL    HW231515   1.397   3.531   7.072  1.1352  1.7378  0.4887
 6686SOL     OW31516   2.454   4.654   8.173  0.4005 -0.6336 -0.7223
 6686SOL    HW131517   2.425   4.570   8.139  1.3087 -0.7524 -1.2002
 6686SOL    HW231518   2.464   4.643   8.268  0.1368  1.7175 -0.4082
 6687SOL     OW31519   1.530   3.720  14.114  0.1888  0.1948 -0.2182
 6687SOL    HW131520   1.534   3.724  14.018 -0.7528  3.7338 -0.1157
 6687SOL    HW231521   1.475   3.642  14.123 -1.3355  1.5062  1.7047
 6688SOL     OW31522   1.551   1.210  16.364 -0.3113 -0.1554 -0.0131
 6688SOL    HW131523   1.545   1.261  16.283 -0.2918  0.3419  0.2979
 6688SOL    HW231524   1.586   1.271  16.428  0.4184 -0.6501  0.0681
 6689SOL     OW31525   0.939   0.915   3.021 -0.2737 -0.5628  0.1482
 6689SOL    HW131526   1.013   0.922   2.961 -0.8523  0.1928 -0.4816
 6689SOL    HW231527   0.920   1.008   3.035  0.4406 -0.6043  1.4063
 6690SOL     OW31528   2.897   2.526  17.403 -0.0790 -0.0123  0.6094
 6690SOL    HW131529   2.893   2.448  17.347  0.7172  1.7489 -1.8985
 6690SOL    HW231530   2.805   2.551  17.412 -0.0908 -0.4779  1.7156
 6691SOL     OW31531   3.843   3.684   8.664 -0.9769 -0.2329 -0.2713
 6691SOL    HW131532   3.824   3.758   8.721  0.6936  0.6167 -0.8482
 6691SOL    HW231533   3.779   3.619   8.695 -0.6220 -1.2064 -1.5812
 6692SOL     OW31534   3.574   0.872  13.113 -0.1017  0.0994 -0.0137
 6692SOL    HW131535   3.492   0.825  13.098 -0.1719 -0.3397  1.7689
 6692SOL    HW231536   3.567   0.885  13.207  1.3256 -1.1644  0.2678
 6693SOL     OW31537   3.120   2.636  17.536 -0.6623 -0.1099  0.3782
 6693SOL    HW131538   3.160   2.672  17.457 -1.6871  2.2330  0.9238
 6693SOL    HW231539   3.038   2.602  17.503 -1.9959  1.8354  1.6810
 6694SOL     OW31540   3.768   1.535  15.956  0.4141  0.4250  0.1599
 6694SOL    HW131541   3.776   1.561  15.865  2.0062 -1.8088 -0.3196
 6694SOL    HW231542   3.847   1.582  15.983  0.6172  2.3978 -3.8862
 6695SOL     OW31543   1.298   0.830   3.824 -0.3069 -0.0732 -0.3512
 6695SOL    HW131544   1.308   0.747   3.778  1.1427  0.0023 -0.1864
 6695SOL    HW231545   1.306   0.888   3.747  0.1993 -1.5346 -1.3906
 6696SOL     OW31546   4.239   2.083   7.599  0.1943 -0.3894  0.5508
 6696SOL    HW131547   4.237   2.153   7.664  0.2801 -0.7799  0.9693
 6696SOL    HW231548   4.306   2.023   7.631  0.9384  0.3043  0.3080
 6697SOL     OW31549   3.689   2.459  17.610 -0.0861  0.0485 -0.0459
 6697SOL    HW131550   3.610   2.416  17.643  0.1851 -3.3363 -3.8186
 6697SOL    HW231551   3.693   2.541  17.659  1.2338 -0.2314  0.2970
 6698SOL     OW31552   2.813   3.900   5.795  0.3318 -0.3398 -0.6309
 6698SOL    HW131553   2.756   3.949   5.854  0.5569  0.3048 -0.9419
 6698SOL    HW231554   2.758   3.895   5.716  1.1474 -3.3463 -0.9798
 6699SOL     OW31555   1.027   0.886   5.862 -0.3073 -0.7110  0.2459
 6699SOL    HW131556   1.016   0.827   5.937  0.6291 -0.2811  0.7235
 6699SOL    HW231557   1.122   0.884   5.863 -0.2896 -0.2489 -0.5540
 6700SOL     OW31558   1.901   3.950   2.198 -0.1465 -0.2735  0.2295
 6700SOL    HW131559   1.837   3.879   2.193 -1.3192  0.7771  0.5087
 6700SOL    HW231560   1.863   4.009   2.263  0.2695  0.6522 -0.3619
 6701SOL     OW31561   4.615   1.647  12.532  0.6566  0.4129  0.2869
 6701SOL    HW131562   4.670   1.722  12.508 -0.0607  0.9044  0.1706
 6701SOL    HW231563   4.578   1.677  12.614  1.4298  0.7782  0.5088
 6702SOL     OW31564   4.223   4.032   5.487  0.3260  0.2499 -0.1081
 6702SOL    HW131565   4.152   4.003   5.544 -0.8914  0.1625 -1.6988
 6702SOL    HW231566   4.217   4.125   5.511  2.2128  0.8130 -1.8696
 6703SOL     OW31567   2.777   3.174   3.507 -0.0565 -0.1161  0.4163
 6703SOL    HW131568   2.754   3.083   3.490 -0.6749  0.5338 -2.2404
 6703SOL    HW231569   2.860   3.155   3.550 -0.2536  0.0534  0.8826
 6704SOL     OW31570   1.589   2.654   5.751  0.6497  0.0711 -0.9054
 6704SOL    HW131571   1.504   2.614   5.733  0.5872  0.1277 -0.7349
 6704SOL    HW231572   1.594   2.725   5.687  1.7322  0.1863 -0.6953
 6705SOL     OW31573   2.525   0.945   7.051  0.1288 -0.3383  0.3387
 6705SOL    HW131574   2.469   0.952   6.974 -0.7143  1.6009  1.1211
 6705SOL    HW231575   2.612   0.926   7.015  0.3493 -0.2554  0.8220
 6706SOL     OW31576   1.024   1.706  10.660 -0.3400 -0.0400 -0.1403
 6706SOL    HW131577   1.091   1.638  10.664  1.0645  1.3560  0.0185
 6706SOL    HW231578   1.016   1.727  10.753  0.0548 -1.0568  0.1153
 6707SOL     OW31579   2.964   4.282   2.073 -0.4731  0.3173  0.2629
 6707SOL    HW131580   2.883   4.248   2.036  0.3930 -2.0404  0.5699
 6707SOL    HW231581   2.927   4.358   2.119 -0.5204  0.9910 -0.8977
 6708SOL     OW31582   3.609   0.097  12.473  0.1695 -0.1350  0.0136
 6708SOL    HW131583   3.600   0.178  12.523 -0.4526  0.5539 -1.1967
 6708SOL    HW231584   3.516   0.075  12.466 -0.3693  1.4016  2.3103
 6709SOL     OW31585   3.750   2.056  14.432 -0.2332  0.0381  0.0808
 6709SOL    HW131586   3.728   2.150  14.428 -0.5245 -0.1616 -2.9911
 6709SOL    HW231587   3.670   2.009  14.408 -0.6646  0.0516  1.5376
 6710SOL     OW31588   1.839   4.679  11.744  0.2315 -0.2489  0.0956
 6710SOL    HW131589   1.779   4.712  11.677  0.2309  0.8786  0.6632
 6710SOL    HW231590   1.784   4.692  11.821 -0.1861  1.3651 -0.4790
 6711SOL     OW31591   0.951   1.758  16.844  1.0464 -0.2333  0.3461
 6711SOL    HW131592   0.898   1.713  16.778  0.0442 -0.2430  1.1558
 6711SOL    HW231593   0.982   1.831  16.789  3.0057 -2.4433 -1.4851
 6712SOL     OW31594   2.222   2.359  13.956 -0.1837  0.7260 -0.3064
 6712SOL    HW131595   2.134   2.324  13.970 -0.7806  2.4011  0.1053
 6712SOL    HW231596   2.240   2.405  14.037  1.2660  1.2105 -0.8950
 6713SOL     OW31597   0.422   1.523  13.957  0.7174  0.0770  0.4058
 6713SOL    HW131598   0.333   1.524  13.991 -0.4905  2.1509 -2.8276
 6713SOL    HW231599   0.472   1.536  14.038  0.3969 -2.5398  1.0099
 6714SOL     OW31600   4.005   0.644  12.858  0.9667  0.1174 -0.1504
 6714SOL    HW131601   3.933   0.706  12.847 -0.8539 -2.1120 -0.8836
 6714SOL    HW231602   4.049   0.649  12.773  0.6191 -0.2675 -0.3536
 6715SOL     OW31603   4.511   3.028   3.739 -0.4171  0.2146 -0.3796
 6715SOL    HW131604   4.440   2.978   3.698 -0.1431 -0.2230 -0.3089
 6715SOL    HW231605   4.469   3.045   3.824 -1.8880 -3.0164 -0.4489
 6716SOL     OW31606   2.964   1.253   4.734 -0.4485  0.5314  0.2554
 6716SOL    HW131607   2.962   1.286   4.824 -1.2894  0.7811  0.1443
 6716SOL    HW231608   2.994   1.328   4.683 -1.4067  0.3828 -0.5227
 6717SOL     OW31609   2.229   0.131   5.931  0.6723  0.0662 -0.0392
 6717SOL    HW131610   2.230   0.055   5.989  0.9116 -1.5334 -2.1760
 6717SOL    HW231611   2.210   0.205   5.989  1.4252  0.2775 -0.0573
 6718SOL     OW31612   1.784   0.093   6.014  0.4836 -0.2218  0.3470
 6718SOL    HW131613   1.781   0.086   6.110 -0.0427 -2.7074  0.1503
 6718SOL    HW231614   1.755   0.005   5.992 -0.7202  0.5110 -0.9650
 6719SOL     OW31615   2.329   2.745  17.605  0.2538  0.3511  0.3587
 6719SOL    HW131616   2.323   2.824  17.660  1.9203  0.9573 -0.3305
 6719SOL    HW231617   2.349   2.673  17.665  1.1495 -1.4362 -2.0868
 6720SOL     OW31618   2.226   1.438   3.764 -0.0685 -0.1670 -0.2996
 6720SOL    HW131619   2.318   1.435   3.735 -0.6848  0.3838 -2.2925
 6720SOL    HW231620   2.202   1.396   3.682 -1.4104  1.5976 -0.7885
 6721SOL     OW31621   4.122   0.577   3.192 -0.2963 -0.0499  0.5004
 6721SOL    HW131622   4.103   0.483   3.191 -3.2826  0.4999  3.1544
 6721SOL    HW231623   4.213   0.593   3.216 -0.0895  1.7060 -1.4645
 6722SOL     OW31624   4.136   0.855   9.020 -0.5696  0.4546 -0.0238
 6722SOL    HW131625   4.202   0.786   9.032  0.2073  1.3178  0.6009
 6722SOL    HW231626   4.121   0.851   8.925  2.7509  1.3910 -0.6023
 6723SOL     OW31627   3.955   3.667  15.086 -0.6455 -0.5342  0.4836
 6723SOL    HW131628   3.976   3.574  15.080 -2.1304 -0.8990  0.8855
 6723SOL    HW231629   3.925   3.688  14.998  2.3186  2.5019  0.2128
 6724SOL     OW31630   4.113   4.594   7.201 -0.6207 -0.6994 -0.3844
 6724SOL    HW131631   4.137   4.676   7.157 -0.2351 -2.6068 -3.7640
 6724SOL    HW231632   4.186   4.585   7.263 -0.6643  3.5367  0.3071
 6725SOL     OW31633   2.549   2.576  12.581  0.4258  0.4839 -0.3749
 6725SOL    HW131634   2.500   2.561  12.500 -0.5847 -0.4890  0.4149
 6725SOL    HW231635   2.633   2.540  12.553 -0.6977 -2.4919  0.1230
 6726SOL     OW31636   1.649   1.845   5.210  0.2148 -0.1074 -0.2282
 6726SOL    HW131637   1.745   1.848   5.201  0.3158  0.3984  1.0473
 6726SOL    HW231638   1.635   1.766   5.157 -1.4593 -0.6250  1.0108
 6727SOL     OW31639   2.118   2.105   2.648  0.1901  0.1225  0.6123
 6727SOL    HW131640   2.027   2.090   2.676  0.2780 -0.5167  0.5723
 6727SOL    HW231641   2.103   2.130   2.557  1.4527  0.6112  0.5507
 6728SOL     OW31642   0.254   2.676   0.826  0.7363  0.5606 -0.1615
 6728SOL    HW131643   0.252   2.704   0.734 -0.6661  1.1095  0.0182
 6728SOL    HW231644   0.210   2.591   0.823 -1.7380  1.8158  0.4009
 6729SOL     OW31645   4.267   1.318  10.276 -0.2965  0.1128 -0.4230
 6729SOL    HW131646   4.212   1.287  10.348 -0.4823 -0.0568 -0.6400
 6729SOL    HW231647   4.218   1.268  10.211  1.7504  1.6486 -3.1235
 6730SOL     OW31648   3.228   2.480   2.713 -0.0010  0.2924 -0.1902
 6730SOL    HW131649   3.305   2.437   2.749  0.7907  0.3747 -1.7862
 6730SOL    HW231650   3.163   2.411   2.720 -0.6338  0.7607 -1.5723
 6731SOL     OW31651   3.518   3.128  10.618 -0.0118  0.4580 -0.1276
 6731SOL    HW131652   3.562   3.208  10.587 -0.2779  0.5390 -0.3017
 6731SOL    HW231653   3.554   3.070  10.551 -0.3093  0.3784 -0.2175
 6732SOL     OW31654   0.714   0.266   5.697 -0.3725 -0.0511  0.3292
 6732SOL    HW131655   0.687   0.358   5.698  0.1177  0.0900  0.3800
 6732SOL    HW231656   0.639   0.213   5.669 -1.3092  0.3914  2.0657
 6733SOL     OW31657   1.743   2.155   7.623  0.5746  0.7560  0.2168
 6733SOL    HW131658   1.762   2.200   7.705 -0.7434 -1.6889  1.8738
 6733SOL    HW231659   1.648   2.167   7.615  0.8701  2.0896 -1.2859
 6734SOL     OW31660   1.839   3.284   3.832  0.5426 -0.2721  0.7061
 6734SOL    HW131661   1.924   3.326   3.823  1.1238 -1.2610  1.5238
 6734SOL    HW231662   1.815   3.256   3.744 -1.8470  2.6350  0.4214
 6735SOL     OW31663   0.193   2.918   1.868  0.5232 -0.1645 -0.6406
 6735SOL    HW131664   0.187   2.965   1.785 -3.5254 -1.2818 -0.9740
 6735SOL    HW231665   0.276   2.956   1.898  0.8043 -1.3658  0.0985
 6736SOL     OW31666   4.478   3.541   2.656  0.2157  1.1494  0.0282
 6736SOL    HW131667   4.407   3.487   2.690 -0.9976  1.6301 -1.7792
 6736SOL    HW231668   4.438   3.618   2.617  0.4358  0.7777 -0.9272
 6737SOL     OW31669   0.332   1.426   7.460 -0.2696 -0.5656 -0.5757
 6737SOL    HW131670   0.381   1.393   7.384  0.8554 -1.5449  0.5884
 6737SOL    HW231671   0.242   1.421   7.428  0.0024 -1.6499 -1.1957
 6738SOL     OW31672   4.612   4.312   3.223 -0.3544 -0.7184 -0.0424
 6738SOL    HW131673   4.686   4.257   3.250 -0.5188 -0.1469  1.5910
 6738SOL    HW231674   4.532   4.260   3.227 -1.3108  0.7473 -0.1781
 6739SOL     OW31675   4.020   1.463  15.636  0.9537  0.8919  0.1548
 6739SOL    HW131676   4.000   1.446  15.544 -0.1699  0.6298  0.4438
 6739SOL    HW231677   3.939   1.510  15.658  0.8737  0.6311  0.4141
 6740SOL     OW31678   1.732   0.490  14.803  0.0371 -0.1782  0.1827
 6740SOL    HW131679   1.707   0.479  14.711 -0.2983  0.6300  0.1887
 6740SOL    HW231680   1.821   0.453  14.802 -0.1699 -0.6308 -0.9658
 6741SOL     OW31681   0.577   2.197  11.019  0.3077 -0.0191 -0.4173
 6741SOL    HW131682   0.560   2.216  11.111 -1.3341 -1.3424 -0.4476
 6741SOL    HW231683   0.551   2.105  11.019 -1.4713  0.4833  0.7736
 6742SOL     OW31684   4.513   2.966   9.557 -0.2040  0.2955  0.0997
 6742SOL    HW131685   4.561   2.904   9.502 -1.8030 -0.3895 -0.5292
 6742SOL    HW231686   4.527   3.039   9.497  0.2657 -0.1541 -0.3278
 6743SOL     OW31687   3.544   4.420   4.218  0.1103 -0.8209 -0.4864
 6743SOL    HW131688   3.535   4.329   4.246  0.6843 -0.3182  1.3165
 6743SOL    HW231689   3.460   4.456   4.245  1.5714  2.0838  0.1819
 6744SOL     OW31690   0.948   0.150   4.008  0.3714  0.3180 -0.4327
 6744SOL    HW131691   0.958   0.091   3.932  1.4947 -0.5821  0.4027
 6744SOL    HW231692   0.953   0.229   3.955  1.3754  0.8622  0.4637
 6745SOL     OW31693   3.766   4.138   6.708  0.1926  0.2088  0.8303
 6745SOL    HW131694   3.820   4.069   6.669  2.7779  2.0847  1.1112
 6745SOL    HW231695   3.710   4.092   6.770  3.2688  0.8792  4.1269
 6746SOL     OW31696   3.371   3.185  15.730 -0.4496  0.6093  0.1740
 6746SOL    HW131697   3.323   3.268  15.735  1.9082  2.0696 -1.4507
 6746SOL    HW231698   3.352   3.148  15.817  0.8041 -2.3130 -0.8124
 6747SOL     OW31699   2.687   1.332   4.989 -0.6175  0.0925 -0.1255
 6747SOL    HW131700   2.731   1.290   5.063  0.8119 -0.1902 -1.1317
 6747SOL    HW231701   2.662   1.417   5.027 -0.4140 -0.1339  0.5121
 6748SOL     OW31702   0.282   2.081  17.585  0.2177 -0.1628  0.5692
 6748SOL    HW131703   0.371   2.075  17.619  1.2824 -0.9662 -2.3550
 6748SOL    HW231704   0.249   1.998  17.621 -0.1442 -0.3701 -0.2519
 6749SOL     OW31705   1.775   0.349   4.785 -0.4513 -0.3578  0.2251
 6749SOL    HW131706   1.690   0.310   4.764 -0.8767  0.6879 -0.0084
 6749SOL    HW231707   1.756   0.368   4.877  0.3332 -1.9738  0.7284
 6750SOL     OW31708   0.078   0.488   8.728  0.1500 -0.1654  0.1110
 6750SOL    HW131709   0.058   0.531   8.811  0.3706  2.2043 -1.0662
 6750SOL    HW231710   0.049   0.397   8.740 -0.3725  0.1189  0.9679
 6751SOL     OW31711   0.710   1.150   2.865 -0.1862 -0.0127  0.7728
 6751SOL    HW131712   0.648   1.113   2.929 -1.6610  1.0411 -0.0493
 6751SOL    HW231713   0.770   1.198   2.923  0.9270  0.1594 -0.5289
 6752SOL     OW31714   2.658   1.508   1.781 -0.3879  0.0112 -0.2822
 6752SOL    HW131715   2.663   1.526   1.875 -0.4476 -2.6749  0.2448
 6752SOL    HW231716   2.569   1.534   1.756  0.0489  1.5887 -0.1649
 6753SOL     OW31717   4.601   0.837   5.491 -0.4123 -0.0762 -0.4924
 6753SOL    HW131718   4.544   0.857   5.566 -0.3044  1.2298 -0.7669
 6753SOL    HW231719   4.534   0.829   5.422  1.0623 -0.4893 -1.8607
 6754SOL     OW31720   0.298   4.502   8.003 -0.3599  0.0949  0.8509
 6754SOL    HW131721   0.222   4.557   7.984 -0.0521  0.3368  0.3200
 6754SOL    HW231722   0.365   4.566   8.026 -2.9685  2.3715  1.9929
 6755SOL     OW31723   2.877   0.309   4.188  0.3422 -0.1232  0.1814
 6755SOL    HW131724   2.879   0.218   4.218 -0.8379  0.3198  1.6457
 6755SOL    HW231725   2.968   0.333   4.167 -0.1826  0.8607 -0.9610
 6756SOL     OW31726   2.257   4.576   3.916 -0.3431 -0.4979 -0.3235
 6756SOL    HW131727   2.239   4.561   4.008 -0.5938  1.4648 -0.0376
 6756SOL    HW231728   2.308   4.657   3.921 -0.0575 -0.6577 -0.6112
 6757SOL     OW31729   1.371   3.356  17.163  0.0126  0.0257  0.7300
 6757SOL    HW131730   1.425   3.296  17.214 -1.4284 -0.5148  1.6209
 6757SOL    HW231731   1.306   3.394  17.222 -0.2742  2.6505 -1.3130
 6758SOL     OW31732   0.739   2.738   9.077 -0.5344 -0.3876  0.5374
 6758SOL    HW131733   0.757   2.665   9.019 -2.4484 -1.3369  1.1240
 6758SOL    HW231734   0.705   2.799   9.012  1.1146  0.5538  0.5680
 6759SOL     OW31735   0.972   1.355  11.468 -0.0503  0.0449  0.0558
 6759SOL    HW131736   0.985   1.338  11.375 -2.7547 -1.7778  0.0445
 6759SOL    HW231737   0.891   1.405  11.478 -0.2064 -0.2319  0.1613
 6760SOL     OW31738   1.495   0.959   4.639 -0.6032  0.2825  0.1746
 6760SOL    HW131739   1.409   0.923   4.617 -0.8028  2.4349 -2.5358
 6760SOL    HW231740   1.534   0.951   4.553 -0.8948  0.5614  0.0161
 6761SOL     OW31741   4.364   3.152   2.953 -0.5012 -0.3088  0.8491
 6761SOL    HW131742   4.340   3.218   3.018 -1.1227  0.5166 -0.2144
 6761SOL    HW231743   4.279   3.108   2.948 -1.2681  1.2210  0.5688
 6762SOL     OW31744   0.603   2.720   2.626  0.4141 -0.0375 -0.1675
 6762SOL    HW131745   0.617   2.626   2.623  0.3917 -0.0239 -0.6042
 6762SOL    HW231746   0.689   2.760   2.642  0.1362  0.5225 -0.0800
 6763SOL     OW31747   2.993   0.630   3.198  0.4422 -0.4807 -0.2505
 6763SOL    HW131748   2.983   0.629   3.103 -0.8657 -0.0495 -0.1219
 6763SOL    HW231749   2.938   0.706   3.220 -0.6315 -1.8965  2.0497
 6764SOL     OW31750   1.552   0.624   9.031  0.1369  0.2426 -0.5037
 6764SOL    HW131751   1.538   0.674   8.951  2.0634  0.0578 -0.9343
 6764SOL    HW231752   1.610   0.686   9.075 -0.8045  0.6602  0.1524
 6765SOL     OW31753   1.401   2.600  16.432  0.0263  0.2590 -0.0026
 6765SOL    HW131754   1.355   2.555  16.503  0.0897 -1.0654 -0.8076
 6765SOL    HW231755   1.465   2.650  16.483  1.7534 -2.5757  0.5719
 6766SOL     OW31756   4.502   0.750   5.981 -0.8388 -0.2246  0.1667
 6766SOL    HW131757   4.409   0.759   5.961 -0.0870  2.2550 -2.1656
 6766SOL    HW231758   4.546   0.798   5.911  0.1138 -1.2588  0.0564
 6767SOL     OW31759   2.888   2.738   4.265 -0.2278 -0.3968 -0.4226
 6767SOL    HW131760   2.817   2.675   4.251 -1.0679  0.0110  2.0379
 6767SOL    HW231761   2.856   2.775   4.347  2.5596  0.7418  0.1408
 6768SOL     OW31762   4.021   1.632   7.243  1.6514  0.2995 -0.4382
 6768SOL    HW131763   3.936   1.677   7.236  0.4431 -1.9212  0.1751
 6768SOL    HW231764   4.054   1.680   7.319 -1.3620  0.7990  0.5639
 6769SOL     OW31765   1.288   4.374   5.732 -0.2700 -0.0232 -0.2496
 6769SOL    HW131766   1.337   4.395   5.653  0.0379  1.0801  0.2358
 6769SOL    HW231767   1.351   4.322   5.783 -1.1263 -0.6668  0.1584
 6770SOL     OW31768   2.517   2.945  13.560  0.2954  0.4752 -0.7026
 6770SOL    HW131769   2.472   2.861  13.566 -1.1870  1.1943 -1.7359
 6770SOL    HW231770   2.580   2.932  13.630 -1.5671 -2.1163  0.5043
 6771SOL     OW31771   3.366   4.468   2.304  0.0697 -0.1249 -0.4442
 6771SOL    HW131772   3.290   4.412   2.318  0.4118 -0.2314  1.0411
 6771SOL    HW231773   3.394   4.453   2.214  0.5365  2.1147 -0.6886
 6772SOL     OW31774   0.545   3.448   9.359  0.0259 -0.2571 -0.3549
 6772SOL    HW131775   0.528   3.385   9.289 -0.3085  0.7199 -1.1558
 6772SOL    HW231776   0.457   3.484   9.365  0.1048  0.0145 -0.7971
 6773SOL     OW31777   2.793   2.445   6.043 -0.0600 -0.4432  0.2035
 6773SOL    HW131778   2.775   2.439   6.137 -2.0286  1.5594 -0.0383
 6773SOL    HW231779   2.767   2.357   6.017  2.7349 -0.9883 -0.7168
 6774SOL     OW31780   3.091   2.229   2.693  0.4766  0.3585  0.4459
 6774SOL    HW131781   3.026   2.204   2.627 -0.0470 -0.4617  1.2778
 6774SOL    HW231782   3.112   2.140   2.723 -1.7255 -0.3137  0.0282
 6775SOL     OW31783   4.026   0.344   5.292  0.5654  0.5392  0.2996
 6775SOL    HW131784   4.009   0.268   5.348 -0.8319 -1.6186 -3.0638
 6775SOL    HW231785   4.121   0.335   5.293  0.4338 -0.6349  4.5319
 6776SOL     OW31786   4.314   1.211   5.736  0.3284 -0.3605 -0.1056
 6776SOL    HW131787   4.293   1.189   5.827 -0.9596  2.0156  0.1785
 6776SOL    HW231788   4.315   1.306   5.746 -2.2180 -0.4456  1.0875
 6777SOL     OW31789   3.637   1.723   8.063 -0.7251  0.5226  0.2817
 6777SOL    HW131790   3.730   1.744   8.060 -0.5732 -0.0187  1.5205
 6777SOL    HW231791   3.638   1.628   8.070  1.0465  0.4419 -1.1239
 6778SOL     OW31792   3.178   2.079   6.587  0.4208 -0.0093  0.2625
 6778SOL    HW131793   3.137   2.091   6.672  1.4090 -0.0561  0.7432
 6778SOL    HW231794   3.183   1.983   6.589  0.3998  0.0250  2.0100
 6779SOL     OW31795   0.287   4.247  11.068  0.0522 -0.6654  0.7803
 6779SOL    HW131796   0.248   4.224  10.984  2.5672 -0.9336 -0.3165
 6779SOL    HW231797   0.260   4.175  11.126 -1.1150 -0.3963  0.5551
 6780SOL     OW31798   3.554   0.051  15.972  0.0138  0.1099 -0.1629
 6780SOL    HW131799   3.521   4.697  16.016  1.4837 -1.4171 -1.7494
 6780SOL    HW231800   3.626   0.018  15.918  0.5639  1.7411 -0.4374
 6781SOL     OW31801   3.997   3.716   8.218  0.1097 -0.5606  0.1513
 6781SOL    HW131802   4.083   3.738   8.184  0.3093 -2.1811 -0.3799
 6781SOL    HW231803   3.961   3.678   8.137  1.1250 -1.2005 -0.0055
 6782SOL     OW31804   3.904   4.552   9.629 -0.1187 -0.1233 -0.3070
 6782SOL    HW131805   3.933   4.481   9.686  1.3819  0.6626 -0.0877
 6782SOL    HW231806   3.818   4.522   9.598 -0.5534  0.4941  0.3092
 6783SOL     OW31807   0.174   4.365  11.776  0.2594 -0.1134  0.7819
 6783SOL    HW131808   0.104   4.405  11.725  3.4601  1.5189 -2.3291
 6783SOL    HW231809   0.189   4.289  11.720  0.6310 -1.0452  2.1210
 6784SOL     OW31810   4.559   2.681   1.886  0.4291  0.0015  0.3194
 6784SOL    HW131811   4.512   2.723   1.958  1.5475  0.9147  0.5049
 6784SOL    HW231812   4.551   2.593   1.925  0.1027  0.0441  0.3511
 6785SOL     OW31813   0.240   1.840   8.975  0.2183 -0.2257  0.3068
 6785SOL    HW131814   0.197   1.885   9.048  0.4562 -2.4035  1.7908
 6785SOL    HW231815   0.320   1.816   9.023 -0.1973 -1.4826  0.3754
 6786SOL     OW31816   3.259   4.047   8.701 -0.3752  0.5482 -0.4727
 6786SOL    HW131817   3.286   4.136   8.725  0.0379 -0.2823  2.0723
 6786SOL    HW231818   3.283   4.052   8.608 -1.6731  3.1051 -0.6569
 6787SOL     OW31819   2.694   0.984   2.409  0.2824  0.2132  0.3734
 6787SOL    HW131820   2.625   1.048   2.427 -1.2571 -1.3071 -0.1885
 6787SOL    HW231821   2.679   0.988   2.314 -0.9996  1.4785  0.6263
 6788SOL     OW31822   2.402   1.685   7.006  0.1596 -0.4373 -0.3891
 6788SOL    HW131823   2.460   1.639   6.945 -0.0571 -2.0846  0.6193
 6788SOL    HW231824   2.436   1.771   7.029 -0.7960 -0.5401  1.4183
 6789SOL     OW31825   0.079   0.942  10.725 -0.5406  0.2383  1.2620
 6789SOL    HW131826   0.102   1.034  10.737  2.4854 -0.3912  0.1443
 6789SOL    HW231827   4.721   0.955  10.677  0.3340 -0.7122 -0.4895
 6790SOL     OW31828   2.460   2.829   5.612 -0.3269 -0.3866  0.3723
 6790SOL    HW131829   2.521   2.777   5.561 -1.0691  0.0216 -0.9286
 6790SOL    HW231830   2.380   2.812   5.563 -0.9101  0.5094  1.0090
 6791SOL     OW31831   4.463   0.608   9.147  0.3136  0.3308 -0.4748
 6791SOL    HW131832   4.371   0.632   9.142  0.1100 -0.2150  0.5552
 6791SOL    HW231833   4.481   0.598   9.241 -0.9666 -2.0031 -0.4754
 6792SOL     OW31834   0.951   0.198   7.628 -0.5128 -0.6731  0.1018
 6792SOL    HW131835   0.899   0.231   7.701 -0.8814  0.8067 -0.8473
 6792SOL    HW231836   0.896   0.231   7.557 -0.1668 -1.3446 -0.4914
 6793SOL     OW31837   1.527   4.533   3.248 -0.1828  0.4427  0.7091
 6793SOL    HW131838   1.471   4.471   3.201  1.9070 -1.0944  0.2275
 6793SOL    HW231839   1.467   4.592   3.293  0.3055  1.1543  0.4292
 6794SOL     OW31840   2.897   2.306  13.132 -0.3878  0.1306  0.3060
 6794SOL    HW131841   2.841   2.374  13.098  1.7554 -0.0766 -3.6276
 6794SOL    HW231842   2.982   2.330  13.094  0.6621  0.6587  2.9674
 6795SOL     OW31843   2.561   3.161   6.395 -0.5595 -0.0626 -0.3535
 6795SOL    HW131844   2.514   3.159   6.312 -0.6124  1.9003 -0.3808
 6795SOL    HW231845   2.485   3.183   6.449  0.2688  0.2313  0.7003
 6796SOL     OW31846   4.382   0.371  11.879 -0.4313 -0.5370  0.5765
 6796SOL    HW131847   4.320   0.429  11.922  0.1904  0.1692  0.5264
 6796SOL    HW231848   4.372   0.294  11.936  0.5971 -0.3173  1.0693
 6797SOL     OW31849   1.481   2.081   7.584  0.4516 -0.2281  0.1286
 6797SOL    HW131850   1.463   2.120   7.499 -0.6960  0.2934  0.6032
 6797SOL    HW231851   1.398   2.103   7.627 -0.5830 -4.0361  0.1106
 6798SOL     OW31852   4.160   4.042   6.671 -0.1440  0.1666 -0.7226
 6798SOL    HW131853   4.080   4.041   6.618  0.5299 -1.1620 -1.7251
 6798SOL    HW231854   4.159   3.956   6.711 -0.0751  0.6737  0.3598
 6799SOL     OW31855   4.025   1.432   4.823  0.6490 -0.0709  0.2984
 6799SOL    HW131856   4.064   1.508   4.779 -0.8036  0.2048 -0.5033
 6799SOL    HW231857   3.998   1.484   4.898  1.3906 -0.0331  0.5412
 6800SOL     OW31858   2.428   1.808   8.671  0.2825 -0.5305  0.3308
 6800SOL    HW131859   2.425   1.900   8.646  3.7962 -0.3769  0.5663
 6800SOL    HW231860   2.396   1.760   8.595 -0.4410  0.0630  0.2582
 6801SOL     OW31861   2.570   4.613   2.562  0.4572 -0.6149 -0.7866
 6801SOL    HW131862   2.494   4.564   2.593 -0.8707  1.3597 -0.8797
 6801SOL    HW231863   2.590   4.563   2.483 -0.7636 -0.4208 -1.2198
 6802SOL     OW31864   2.050   0.407  16.453 -0.1391  0.1153  0.2905
 6802SOL    HW131865   2.054   0.388  16.547  1.7797  1.9645  0.6073
 6802SOL    HW231866   1.991   0.334  16.436  0.8028 -0.0700 -2.2430
 6803SOL     OW31867   0.919   2.798   7.096 -0.2208  0.4256  0.4364
 6803SOL    HW131868   0.915   2.768   7.005 -1.1573  1.0381  0.2656
 6803SOL    HW231869   0.962   2.884   7.093  0.8014 -0.0620  1.3221
 6804SOL     OW31870   1.542   1.499   8.080 -0.5169 -0.1330 -0.0688
 6804SOL    HW131871   1.564   1.487   8.172  0.5208 -0.6648 -0.3787
 6804SOL    HW231872   1.594   1.432   8.035 -0.6435 -0.9947  1.0802
 6805SOL     OW31873   2.801   1.066   4.231  0.7135  0.2406 -0.3009
 6805SOL    HW131874   2.874   1.003   4.230  0.9126  0.4702 -0.1129
 6805SOL    HW231875   2.857   1.143   4.234 -1.6057  1.9248 -0.4619
 6806SOL     OW31876   0.407   1.723   0.675 -0.0144  0.3582 -0.2558
 6806SOL    HW131877   0.416   1.807   0.630 -0.4009 -0.2212 -1.4049
 6806SOL    HW231878   0.487   1.682   0.643  0.2481 -2.9013  4.6237
 6807SOL     OW31879   4.557   0.608   9.395  0.6631  0.3156  0.1106
 6807SOL    HW131880   4.632   0.585   9.340  1.7289  1.4874  1.0686
 6807SOL    HW231881   4.603   0.628   9.476  0.9345  0.6604 -0.1229
 6808SOL     OW31882   3.062   2.490  11.824 -0.2285  0.5302  0.4990
 6808SOL    HW131883   3.137   2.542  11.798  0.1458  0.5130  1.5391
 6808SOL    HW231884   3.066   2.417  11.762 -2.2300  0.2056  0.7463
 6809SOL     OW31885   3.934   3.698  10.619 -0.1088  0.1705 -0.1283
 6809SOL    HW131886   3.971   3.610  10.621 -0.2428  0.1680  2.3211
 6809SOL    HW231887   3.846   3.668  10.599  0.4099 -0.2992 -1.7264
 6810SOL     OW31888   3.179   1.831  15.399  0.4738  0.7537  0.1075
 6810SOL    HW131889   3.145   1.849  15.311 -1.0854 -0.3138  0.4970
 6810SOL    HW231890   3.212   1.743  15.385 -2.0228 -0.1954  0.2156
 6811SOL     OW31891   0.797   4.508   2.033  0.4748  0.1921  0.1065
 6811SOL    HW131892   0.789   4.420   2.069  3.1315 -0.2786 -0.5182
 6811SOL    HW231893   0.717   4.559   2.049  0.9567  1.2627 -0.9272
 6812SOL     OW31894   1.189   2.917  11.984 -0.4305  0.2154 -0.3580
 6812SOL    HW131895   1.269   2.892  11.937 -0.5241  0.1814 -0.5001
 6812SOL    HW231896   1.130   2.887  11.915 -1.5327  0.3392  0.5247
 6813SOL     OW31897   2.572   2.898   0.581 -0.4895 -0.0303  0.0158
 6813SOL    HW131898   2.616   2.918   0.663 -1.2324  0.3873  0.3171
 6813SOL    HW231899   2.518   2.825   0.610 -1.8159  0.6203 -0.8033
 6814SOL     OW31900   4.465   3.298  10.357 -0.0177 -0.1241 -0.0742
 6814SOL    HW131901   4.397   3.248  10.402  0.5917 -1.1744 -0.3090
 6814SOL    HW231902   4.544   3.269  10.402 -0.6049 -1.6418 -0.0434
 6815SOL     OW31903   0.851   0.628   6.483  0.1505 -0.5325 -0.0959
 6815SOL    HW131904   0.758   0.647   6.475  0.1543 -0.4959 -0.0568
 6815SOL    HW231905   0.853   0.548   6.430  2.0193 -0.7277  0.2532
 6816SOL     OW31906   3.085   0.640   9.450 -1.1079  0.0419 -0.2521
 6816SOL    HW131907   3.024   0.696   9.402 -1.6427 -0.1557  0.1822
 6816SOL    HW231908   3.160   0.694   9.425 -0.4359 -0.9998 -0.4860
 6817SOL     OW31909   3.056   3.332   2.213 -0.1428  0.0148  0.0309
 6817SOL    HW131910   3.042   3.364   2.302  0.5739 -0.4243  0.3058
 6817SOL    HW231911   3.048   3.412   2.161 -0.5849 -0.0033  0.0777
 6818SOL     OW31912   2.825   3.834   4.295  0.1387  0.1597  0.9623
 6818SOL    HW131913   2.867   3.805   4.377 -0.3574  0.3793  1.2917
 6818SOL    HW231914   2.807   3.745   4.266 -0.2386  0.3729  0.5437
 6819SOL     OW31915   3.350   0.232   7.710 -0.4630  0.0595  0.1021
 6819SOL    HW131916   3.308   0.310   7.675  1.4755  0.5532 -1.1701
 6819SOL    HW231917   3.290   0.218   7.783 -0.8343 -0.6125 -0.3307
 6820SOL     OW31918   3.914   3.328   8.302  0.1352 -0.5293 -0.2454
 6820SOL    HW131919   3.847   3.358   8.363  0.1194  0.4603 -0.7592
 6820SOL    HW231920   3.991   3.376   8.333 -0.6120 -0.4832  1.5299
 6821SOL     OW31921   1.250   3.559   1.587  0.2683 -0.3617 -0.4856
 6821SOL    HW131922   1.166   3.544   1.631 -0.0328  0.7900 -0.6774
 6821SOL    HW231923   1.229   3.609   1.509  0.5698  0.1422 -0.2431
 6822SOL     OW31924   4.090   3.324   1.937 -0.1928  0.0954 -0.1883
 6822SOL    HW131925   4.063   3.270   2.012 -1.6340 -1.3178 -1.7241
 6822SOL    HW231926   4.056   3.288   1.855 -2.0423  1.6000 -0.0817
 6823SOL     OW31927   3.186   3.899  12.400  0.0871 -0.1341  0.3523
 6823SOL    HW131928   3.229   3.928  12.319  0.1753 -0.2870  0.3443
 6823SOL    HW231929   3.147   3.813  12.383 -1.4779  0.8874 -1.3415
 6824SOL     OW31930   3.948   4.515   3.375 -0.0742  0.1657 -0.0600
 6824SOL    HW131931   3.912   4.507   3.464 -3.1803 -1.3075 -1.4511
 6824SOL    HW231932   3.966   4.609   3.373 -0.2759  0.2692  3.1382
 6825SOL     OW31933   4.258   4.387  14.029  0.5506  0.2706  0.5365
 6825SOL    HW131934   4.296   4.372  13.943 -2.5495 -0.2896 -0.7572
 6825SOL    HW231935   4.290   4.472  14.058  2.2883  0.5146 -2.1087
 6826SOL     OW31936   0.203   1.838  17.638 -0.3002  0.1569 -0.3495
 6826SOL    HW131937   0.238   1.749  17.632  0.2340  0.3383  0.0704
 6826SOL    HW231938   0.148   1.827   0.020  3.7003  1.5206  2.6664
 6827SOL     OW31939   2.214   0.012   5.512  0.0245 -0.6641  0.2406
 6827SOL    HW131940   2.288   4.677   5.499 -0.5793 -1.5151  0.5790
 6827SOL    HW231941   2.136   4.692   5.476 -0.8142  0.8889  0.1726
 6828SOL     OW31942   1.008   2.211  14.180  0.1629 -0.2307 -0.0594
 6828SOL    HW131943   0.943   2.259  14.128  0.3471  0.5529  0.4425
 6828SOL    HW231944   0.999   2.125  14.138  1.1400 -0.9530  1.2108
 6829SOL     OW31945   3.837   0.652   4.636 -0.4763  0.4565 -0.7373
 6829SOL    HW131946   3.796   0.566   4.646 -0.2008  0.4497  0.4237
 6829SOL    HW231947   3.927   0.638   4.666 -0.3433  0.7119 -1.0195
 6830SOL     OW31948   0.864   2.284   1.788 -0.0582 -0.1656  0.1878
 6830SOL    HW131949   0.864   2.191   1.811 -2.9899 -0.2178 -0.0906
 6830SOL    HW231950   0.829   2.344   1.854  0.8725  1.1970 -0.5481
 6831SOL     OW31951   0.487   3.669   4.942 -0.4060  0.5010 -0.2453
 6831SOL    HW131952   0.438   3.693   5.021  1.8022 -0.8253  1.5058
 6831SOL    HW231953   0.560   3.621   4.982 -0.8531 -0.8747 -1.0662
 6832SOL     OW31954   0.685   1.769   5.015  0.3496  0.2155  0.2286
 6832SOL    HW131955   0.593   1.795   5.027  0.0381 -0.9089  0.2526
 6832SOL    HW231956   0.684   1.781   4.920  1.2622  2.2912  0.4864
 6833SOL     OW31957   0.210   0.843  13.522  0.1820 -0.1843 -0.1787
 6833SOL    HW131958   0.151   0.894  13.578  1.5419 -1.3639  2.3481
 6833SOL    HW231959   0.163   0.832  13.440 -2.4568 -1.2814  1.4615
 6834SOL     OW31960   1.744   1.648  15.372 -0.4016 -0.2195  0.0453
 6834SOL    HW131961   1.656   1.665  15.407 -0.9336  0.9312 -1.8422
 6834SOL    HW231962   1.729   1.572  15.315 -0.2324 -0.0499 -0.2276
 6835SOL     OW31963   0.912   2.518  10.668 -0.5662 -0.2717  0.0495
 6835SOL    HW131964   0.976   2.588  10.658 -1.1868  0.2252 -0.5037
 6835SOL    HW231965   0.942   2.438  10.624 -0.5029  0.3438 -1.0376
 6836SOL     OW31966   2.832   2.621   5.355  0.4966  0.5099  0.2322
 6836SOL    HW131967   2.909   2.665   5.392  0.2658  1.3782 -0.3213
 6836SOL    HW231968   2.763   2.655   5.410 -1.1138  0.5841 -1.8427
 6837SOL     OW31969   3.908   1.707   6.619  0.1096  0.4084 -0.0918
 6837SOL    HW131970   3.832   1.760   6.643 -0.8090 -1.2254  0.5913
 6837SOL    HW231971   3.900   1.628   6.672  2.0145  1.8943  2.4207
 6838SOL     OW31972   4.411   4.221   8.203  0.1874  0.0472  0.1886
 6838SOL    HW131973   4.432   4.138   8.246 -1.9491 -0.7447 -0.3070
 6838SOL    HW231974   4.320   4.204   8.180  0.3954  0.3536 -0.8344
 6839SOL     OW31975   1.474   4.405   7.196 -0.2198  0.2294  0.0783
 6839SOL    HW131976   1.510   4.328   7.152  0.5722 -0.8699  2.6901
 6839SOL    HW231977   1.523   4.470   7.146  1.3166 -1.7145 -0.9323
 6840SOL     OW31978   0.046   4.076  12.962  0.3662 -0.1427 -0.5414
 6840SOL    HW131979   0.048   3.980  12.961  2.1840 -0.1309  1.8347
 6840SOL    HW231980   4.689   4.088  12.912  0.7111 -1.6398 -1.4732
 6841SOL     OW31981   0.924   0.947   3.614  0.1280 -0.2771 -0.3243
 6841SOL    HW131982   0.997   1.006   3.632  0.9990 -0.6188 -2.7307
 6841SOL    HW231983   0.909   0.973   3.523  1.4639  1.6535  0.0140
 6842SOL     OW31984   0.579   0.986  11.457 -0.4195 -0.2910  0.6654
 6842SOL    HW131985   0.637   0.941  11.519 -2.2397 -0.2195  2.4083
 6842SOL    HW231986   0.619   0.979  11.371  0.7976  0.6147  1.1619
 6843SOL     OW31987   0.646   2.076   2.382  0.6848  0.6267 -0.0885
 6843SOL    HW131988   0.657   2.076   2.477 -1.0979 -0.8290  0.1312
 6843SOL    HW231989   0.614   2.165   2.367  0.8001  0.9890  1.8000
 6844SOL     OW31990   3.876   1.295   2.266 -0.4218 -0.4732 -0.5636
 6844SOL    HW131991   3.796   1.332   2.303  1.9521  1.4985  2.5493
 6844SOL    HW231992   3.856   1.203   2.286  1.9577 -0.0575  3.7702
 6845SOL     OW31993   3.806   4.394   6.665  0.4016  0.1252  0.3957
 6845SOL    HW131994   3.804   4.305   6.700 -1.6117 -0.1686 -0.4640
 6845SOL    HW231995   3.854   4.435   6.737  0.4560 -0.9027  0.9569
 6846SOL     OW31996   2.744   0.660   6.999  0.2347 -0.0623  0.7709
 6846SOL    HW131997   2.780   0.746   6.976 -0.2358 -0.8446 -2.9002
 6846SOL    HW231998   2.691   0.638   6.923  0.5096  1.0501  0.2607
 6847SOL     OW31999   1.858   2.128   9.862  0.1650  0.0153  0.4371
 6847SOL    HW132000   1.857   2.080   9.779 -2.7143 -0.9840  1.0410
 6847SOL    HW232001   1.804   2.074   9.921  0.2245 -1.2554 -0.6604
 6848SOL     OW32002   4.089   3.735  10.315 -0.0135  0.5246  0.1482
 6848SOL    HW132003   4.121   3.755  10.227  0.5757  0.9791  0.4662
 6848SOL    HW232004   4.083   3.640  10.310  1.9354  0.3451  0.9677
 6849SOL     OW32005   3.025   0.152   8.169 -0.3064  0.1053 -0.0250
 6849SOL    HW132006   2.966   0.191   8.233 -0.0484  0.4572  0.0010
 6849SOL    HW232007   3.068   0.085   8.223 -0.5135 -1.4789 -1.8445
 6850SOL     OW32008   2.815   2.551  15.764  0.1457 -0.0276 -0.2874
 6850SOL    HW132009   2.807   2.634  15.717 -3.3644 -0.2073 -0.0156
 6850SOL    HW232010   2.775   2.483  15.708 -1.2222 -0.6059  1.3825
 6851SOL     OW32011   3.912   3.149  10.712 -0.0964 -0.3746  0.0431
 6851SOL    HW132012   3.851   3.145  10.786 -0.3904  1.0061 -0.1351
 6851SOL    HW232013   3.979   3.085  10.735  0.9676  0.4243 -0.8210
 6852SOL     OW32014   0.225   3.283   6.360  0.4480  0.5519 -0.1552
 6852SOL    HW132015   0.148   3.339   6.351 -0.8068 -0.8239  2.1453
 6852SOL    HW232016   0.216   3.244   6.447 -1.1831  1.2179 -0.0419
 6853SOL     OW32017   0.301   3.892   1.404  0.2784  0.0605  0.3519
 6853SOL    HW132018   0.221   3.938   1.378  0.4047 -0.2880 -0.6624
 6853SOL    HW232019   0.353   3.961   1.445  0.8167  0.8410 -1.6493
 6854SOL     OW32020   0.603   1.811  16.218 -0.2680  0.0771 -0.0239
 6854SOL    HW132021   0.583   1.777  16.305  2.2543 -2.0795 -0.2853
 6854SOL    HW232022   0.556   1.894  16.230  0.9522  0.9030 -0.8578
 6855SOL     OW32023   2.270   2.587   3.258  0.2720 -0.3229  0.7092
 6855SOL    HW132024   2.306   2.536   3.330 -0.8578 -0.6835  1.0101
 6855SOL    HW232025   2.222   2.523   3.206  0.7308 -1.2991  1.4851
 6856SOL     OW32026   0.969   3.649   7.268  0.1753 -0.3534  0.0419
 6856SOL    HW132027   0.916   3.575   7.237  2.5384 -1.6270 -0.9508
 6856SOL    HW232028   0.898   3.713   7.279 -0.3703 -1.2706  1.8509
 6857SOL     OW32029   0.826   1.862   0.301  0.6967  0.5391  0.1086
 6857SOL    HW132030   0.762   1.933   0.311  0.4886  0.3448  0.1646
 6857SOL    HW232031   0.834   1.831   0.391  2.2609 -1.2213 -0.6405
 6858SOL     OW32032   0.477   0.531   0.698  0.2961 -0.2718  0.0692
 6858SOL    HW132033   0.397   0.573   0.666  1.4809  1.0806 -1.1788
 6858SOL    HW232034   0.466   0.518   0.792 -0.6367 -0.3574 -0.0533
 6859SOL     OW32035   3.280   0.312   3.328  0.1470  0.1995 -0.1962
 6859SOL    HW132036   3.287   0.343   3.238  0.3274  2.3024  0.5557
 6859SOL    HW232037   3.264   0.393   3.376 -1.8133  0.1346 -0.7628
 6860SOL     OW32038   3.818   4.324   4.922  0.4906  0.1360 -0.0607
 6860SOL    HW132039   3.778   4.241   4.897 -1.4452  0.6923  1.1901
 6860SOL    HW232040   3.895   4.318   4.866  1.3122  0.9436  0.9794
 6861SOL     OW32041   0.132   3.123   3.732 -0.0657  0.0428  0.1124
 6861SOL    HW132042   0.090   3.191   3.785 -1.7030 -1.5190  0.8241
 6861SOL    HW232043   0.223   3.126   3.760 -0.2802  1.0595  0.7013
 6862SOL     OW32044   4.002   2.570   4.635 -0.3869 -0.6992 -0.0935
 6862SOL    HW132045   3.925   2.614   4.673 -0.9303 -0.7679 -1.0962
 6862SOL    HW232046   4.069   2.638   4.630 -0.7470 -0.1645  2.5874
 6863SOL     OW32047   1.203   4.578   4.666  0.1644 -0.2988  0.3724
 6863SOL    HW132048   1.282   4.583   4.611 -0.3530 -2.6577 -0.6025
 6863SOL    HW232049   1.136   4.608   4.604 -0.9179 -0.0818  1.6504
 6864SOL     OW32050   1.372   1.927  10.648 -0.6798  0.1704 -0.0035
 6864SOL    HW132051   1.343   2.015  10.623  0.5297  1.0234  1.6122
 6864SOL    HW232052   1.324   1.864  10.594  0.5240  0.3380 -1.2760
 6865SOL     OW32053   3.634   4.146   3.155  0.3683  0.9550  0.0420
 6865SOL    HW132054   3.639   4.242   3.150 -0.2182  0.9830  0.0129
 6865SOL    HW232055   3.727   4.124   3.158  0.1610  0.0098 -0.5001
 6866SOL     OW32056   2.499   2.752   4.118 -0.5717 -0.7810 -0.6119
 6866SOL    HW132057   2.446   2.713   4.188  1.2808 -0.0703  1.1823
 6866SOL    HW232058   2.430   2.796   4.068 -0.4144 -1.2136 -1.2054
 6867SOL     OW32059   2.367   3.034   6.703 -0.4138  0.0381  0.0575
 6867SOL    HW132060   2.402   2.945   6.712 -1.4865 -0.2667  1.0980
 6867SOL    HW232061   2.448   3.082   6.719 -0.8064  0.5529  0.4932
 6868SOL     OW32062   3.956   3.386   4.580 -0.1926 -0.2700 -0.2483
 6868SOL    HW132063   3.998   3.301   4.596 -0.7782 -0.4568  0.2904
 6868SOL    HW232064   3.869   3.382   4.620 -0.2204 -0.8636 -0.3711
 6869SOL     OW32065   0.943   2.269   6.747 -0.8724  0.5675  0.2769
 6869SOL    HW132066   0.894   2.334   6.798 -1.0629  1.6150 -1.2291
 6869SOL    HW232067   0.941   2.195   6.807  0.6554  0.1995 -0.1358
 6870SOL     OW32068   4.328   2.160   0.439  0.1368  0.3913  0.4380
 6870SOL    HW132069   4.270   2.101   0.487 -0.2838 -0.8626 -1.6400
 6870SOL    HW232070   4.368   2.094   0.383 -0.5446  0.9187 -0.6830
 6871SOL     OW32071   3.868   4.086   3.161 -0.4104  0.0185  0.0824
 6871SOL    HW132072   3.927   4.131   3.101  0.5835  2.0903  2.5936
 6871SOL    HW232073   3.921   4.074   3.240  0.0004 -0.7670 -0.3128
 6872SOL     OW32074   2.283   3.623   5.684  0.2768  0.2425  0.3325
 6872SOL    HW132075   2.338   3.653   5.612  2.1733  1.2735  2.1997
 6872SOL    HW232076   2.283   3.528   5.668 -0.1177  0.1698  0.7567
 6873SOL     OW32077   4.127   1.037   3.803 -0.6823 -0.2369  0.0294
 6873SOL    HW132078   4.157   0.991   3.882  3.6761  0.1636 -1.4177
 6873SOL    HW232079   4.085   1.114   3.840 -0.8636  0.1099 -0.8995
 6874SOL     OW32080   0.931   0.986  10.041 -0.2888  0.2499 -0.3000
 6874SOL    HW132081   0.943   0.917   9.976 -3.2334 -1.2554  0.7647
 6874SOL    HW232082   0.835   0.985  10.043 -0.2876 -3.2868 -3.1331
 6875SOL     OW32083   2.014   4.593  14.439  0.2578  0.5444 -0.3638
 6875SOL    HW132084   2.046   4.585  14.349 -0.8663 -2.6017 -0.4650
 6875SOL    HW232085   2.003   4.502  14.465 -0.3169  0.7594  0.1287
 6876SOL     OW32086   0.924   0.816   0.971  0.0546  0.2443  0.3468
 6876SOL    HW132087   0.935   0.900   0.925 -1.8942  0.6213  0.5771
 6876SOL    HW232088   0.838   0.782   0.947  0.4800 -0.7282  0.2125
 6877SOL     OW32089   3.480   2.028   2.626  0.5037  0.2335 -0.6680
 6877SOL    HW132090   3.510   1.981   2.548 -2.7564 -0.4087 -1.5423
 6877SOL    HW232091   3.388   2.045   2.607  0.8984 -0.5082 -3.1497
 6878SOL     OW32092   2.323   0.128  13.005 -0.0971 -0.7088 -0.1275
 6878SOL    HW132093   2.242   0.160  12.966 -1.1325 -1.9784  0.9694
 6878SOL    HW232094   2.279   0.086  13.080 -0.5856 -0.7743 -0.4512
 6879SOL     OW32095   1.981   4.681   5.842  0.1986 -0.3265  0.0923
 6879SOL    HW132096   1.989   4.631   5.923 -0.1143  1.5276  1.2778
 6879SOL    HW232097   1.938   0.033   5.884 -0.7267 -1.4476  1.1520
 6880SOL     OW32098   3.467   3.427   3.150  0.3401  0.3689  0.4729
 6880SOL    HW132099   3.537   3.374   3.189  1.3948  0.8453 -0.7594
 6880SOL    HW232100   3.389   3.382   3.181  0.9167  0.0838  1.5419
 6881SOL     OW32101   2.825   4.473   2.225 -0.0444  0.0789 -0.7153
 6881SOL    HW132102   2.851   4.462   2.317  0.4800 -1.0584 -0.9993
 6881SOL    HW232103   2.860   4.561   2.214 -0.8569  0.8655  2.7508
 6882SOL     OW32104   0.992   2.250   4.891  0.3019 -0.4339 -0.0138
 6882SOL    HW132105   0.916   2.256   4.833  1.8917 -0.1543 -2.0715
 6882SOL    HW232106   0.956   2.287   4.971  0.5185 -2.2240  0.9175
 6883SOL     OW32107   1.165   0.301   2.257  0.2011  0.2251 -0.4794
 6883SOL    HW132108   1.254   0.315   2.222  0.7565  1.9239  1.6393
 6883SOL    HW232109   1.130   0.390   2.263  2.0241  0.8786  0.6035
 6884SOL     OW32110   0.903   0.666  11.289 -0.1816  0.0785  0.1683
 6884SOL    HW132111   0.924   0.628  11.204  2.6446 -0.7503  1.2517
 6884SOL    HW232112   0.849   0.741  11.264  0.2442  0.6231  0.8722
 6885SOL     OW32113   2.373   2.756   3.050 -0.2289  0.1935  0.2727
 6885SOL    HW132114   2.318   2.828   3.079 -0.7359  0.3136 -1.0043
 6885SOL    HW232115   2.355   2.690   3.118 -1.9000 -1.1848 -1.5300
 6886SOL     OW32116   4.297   2.573   4.769 -0.1550  0.2368  0.0756
 6886SOL    HW132117   4.303   2.623   4.687 -2.1765 -0.9740 -0.7808
 6886SOL    HW232118   4.295   2.647   4.830 -0.9885  0.3690 -0.1107
 6887SOL     OW32119   3.595   3.248   6.944  0.0577 -0.2811 -0.2969
 6887SOL    HW132120   3.667   3.194   6.913 -0.9365 -1.1056 -1.1743
 6887SOL    HW232121   3.532   3.242   6.871  2.1296  0.1345 -2.1242
 6888SOL     OW32122   2.583   1.882   6.965 -0.0338 -0.2431 -0.3422
 6888SOL    HW132123   2.554   1.845   6.882 -0.4030  0.4047 -0.5040
 6888SOL    HW232124   2.667   1.839   6.979 -0.1508 -0.4744 -0.3509
 6889SOL     OW32125   4.685   1.042   4.591  0.3963 -0.6345 -0.2435
 6889SOL    HW132126   4.626   0.971   4.615 -2.2338  2.0864  1.2605
 6889SOL    HW232127   0.003   1.073   4.672 -0.4639 -2.9447  1.0697
 6890SOL     OW32128   2.006   2.738   7.599 -0.0411  0.6987 -0.3107
 6890SOL    HW132129   2.090   2.696   7.617 -1.1856 -1.2555  0.4745
 6890SOL    HW232130   1.964   2.669   7.547  0.3093 -1.8629  2.8338
 6891SOL     OW32131   3.449   4.399   3.934  0.0166  0.2270 -0.4664
 6891SOL    HW132132   3.491   4.431   3.855 -1.4563  2.0884 -0.4882
 6891SOL    HW232133   3.506   4.420   4.008  1.4331 -1.8074 -0.9678
 6892SOL     OW32134   4.581   1.088   1.594 -0.5980  0.1264  0.2725
 6892SOL    HW132135   4.506   1.094   1.653 -0.5498 -2.2384  0.5549
 6892SOL    HW232136   4.629   1.021   1.643 -1.5202 -0.9926 -0.3598
 6893SOL     OW32137   3.038   4.141   5.447 -0.0326 -0.5041  0.0170
 6893SOL    HW132138   3.066   4.118   5.535 -0.2048  0.8221  0.4192
 6893SOL    HW232139   2.988   4.221   5.462  0.2466 -0.3258 -0.0025
 6894SOL     OW32140   0.712   0.317   1.537  0.1593 -0.7465 -0.1025
 6894SOL    HW132141   0.750   0.309   1.449 -0.8473  0.6101 -0.6693
 6894SOL    HW232142   0.685   0.409   1.545  0.6176 -0.7274  1.1821
 6895SOL     OW32143   2.924   2.042  13.244 -0.0036 -0.0651  0.1141
 6895SOL    HW132144   2.926   2.126  13.197  0.1057  0.6921  1.4863
 6895SOL    HW232145   2.924   2.059  13.338  1.1073 -1.1774  0.3005
 6896SOL     OW32146   0.619   0.031  15.775  0.0304 -0.1500  0.3062
 6896SOL    HW132147   0.682   0.016  15.845 -0.7007 -0.3971  0.9097
 6896SOL    HW232148   0.667   0.084  15.712 -3.3309  0.2400 -1.9649
 6897SOL     OW32149   2.124   3.062   2.463 -0.1490 -0.0098  0.0478
 6897SOL    HW132150   2.129   3.119   2.387 -0.3572  1.1480  0.9093
 6897SOL    HW232151   2.044   3.014   2.444  1.2659 -2.5271  0.3589
 6898SOL     OW32152   2.125   3.974   3.915  0.2376  0.1517  0.5550
 6898SOL    HW132153   2.219   3.990   3.906  0.1449  0.8680  0.9267
 6898SOL    HW232154   2.102   3.955   3.824  2.4251 -1.7061  0.3819
 6899SOL     OW32155   0.895   1.320  11.747 -0.3642 -0.3280 -0.6177
 6899SOL    HW132156   0.810   1.325  11.702  0.8438  0.2222 -2.8135
 6899SOL    HW232157   0.954   1.329  11.672 -0.4187  1.2485 -0.4709
 6900SOL     OW32158   3.356   3.929   6.179 -0.4249 -0.5334 -0.4326
 6900SOL    HW132159   3.418   3.966   6.242 -0.8966 -2.0384  0.8909
 6900SOL    HW232160   3.363   3.997   6.111  0.6470 -0.3390 -0.1299
 6901SOL     OW32161   0.306   3.621   9.193  0.4040  0.4962  0.3871
 6901SOL    HW132162   0.376   3.561   9.166  2.0875  2.7312 -0.1907
 6901SOL    HW232163   0.240   3.552   9.183 -1.4911  2.1606  1.3457
 6902SOL     OW32164   0.584   4.100   4.918 -0.2690  0.4806  0.1656
 6902SOL    HW132165   0.500   4.061   4.943  2.2730 -3.8950  1.6690
 6902SOL    HW232166   0.616   4.134   5.002 -0.6982  0.9054  0.1575
 6903SOL     OW32167   1.400   0.319  16.806  0.3125  0.2805 -0.3220
 6903SOL    HW132168   1.420   0.252  16.742 -0.4195 -0.3272  0.0887
 6903SOL    HW232169   1.443   0.282  16.883  0.0816  1.1806  0.2432
 6904SOL     OW32170   1.925   2.299   3.679 -0.0895 -0.0045 -0.0118
 6904SOL    HW132171   1.916   2.243   3.757  1.0822 -0.2621 -0.0670
 6904SOL    HW232172   1.844   2.349   3.691 -1.0270 -1.6987  0.9018
 6905SOL     OW32173   3.646   4.694  14.838  0.0014 -0.7311  0.0766
 6905SOL    HW132174   3.665   0.048  14.786  1.1772  0.3595  2.1592
 6905SOL    HW232175   3.722   4.690  14.895  1.0847 -0.6671 -1.3485
 6906SOL     OW32176   1.865   0.588   7.921 -0.3510  0.5214  0.3558
 6906SOL    HW132177   1.920   0.521   7.961  0.3337 -0.3522 -2.0333
 6906SOL    HW232178   1.905   0.608   7.836  0.8109  0.9031  0.9920
 6907SOL     OW32179   3.242   3.869   2.910  0.1218 -0.3261 -0.4506
 6907SOL    HW132180   3.271   3.800   2.969  3.4574  2.0332  0.6923
 6907SOL    HW232181   3.182   3.825   2.851 -0.3483 -0.5796  0.2179
 6908SOL     OW32182   1.533   0.605   7.620  0.2880 -0.1795 -0.1699
 6908SOL    HW132183   1.563   0.596   7.711  1.5109  0.9195 -0.4738
 6908SOL    HW232184   1.590   0.680   7.607  0.8798 -1.1420 -3.0292
 6909SOL     OW32185   1.866   4.432   6.294 -0.2351 -0.4106 -0.1926
 6909SOL    HW132186   1.890   4.339   6.292  0.5068 -0.1968 -1.4698
 6909SOL    HW232187   1.873   4.449   6.388 -1.0245  0.3069 -0.2656
 6910SOL     OW32188   4.038   4.006  15.686  0.2003  0.1557 -0.6870
 6910SOL    HW132189   4.104   4.073  15.703  0.8018 -0.6977  0.3284
 6910SOL    HW232190   3.964   4.061  15.711 -0.5762 -1.1609 -0.0691
 6911SOL     OW32191   3.525   0.569   4.912  0.0936  0.3486  0.1607
 6911SOL    HW132192   3.618   0.547   4.904  0.1895  1.1288 -1.0023
 6911SOL    HW232193   3.492   0.485   4.878  1.4120 -0.6306  1.3094
 6912SOL     OW32194   0.224   0.695   0.172  0.4802  0.2033 -0.4716
 6912SOL    HW132195   0.194   0.780   0.202  0.7454  0.0410  0.2697
 6912SOL    HW232196   0.319   0.710   0.170  0.5575 -0.6709 -3.9351
 6913SOL     OW32197   3.083   1.348   5.737  0.8607 -0.2007 -0.2470
 6913SOL    HW132198   3.081   1.348   5.641 -1.0618 -1.0111 -0.2092
 6913SOL    HW232199   3.131   1.267   5.755  0.0087 -0.3756  1.2862
 6914SOL     OW32200   2.448   1.205   2.756  0.2942 -0.0533 -0.3376
 6914SOL    HW132201   2.462   1.290   2.798 -1.7351 -0.9568  2.2155
 6914SOL    HW232202   2.505   1.150   2.810  1.1060  0.0937 -1.0435
 6915SOL     OW32203   3.817   3.667   7.727  0.0961 -0.1924 -0.6416
 6915SOL    HW132204   3.798   3.759   7.709 -0.8952 -0.3922 -0.6310
 6915SOL    HW232205   3.898   3.655   7.677  0.3428  1.5009 -0.6418
 6916SOL     OW32206   2.954   0.816  10.191 -0.0830  0.3669 -0.2676
 6916SOL    HW132207   2.907   0.794  10.111  1.5218 -2.3009 -0.4570
 6916SOL    HW232208   2.929   0.744  10.249  0.5668  0.7757  0.5263
 6917SOL     OW32209   1.081   1.377   2.072  0.6458 -0.4522 -0.7167
 6917SOL    HW132210   1.155   1.361   2.131  1.5013  0.9738 -1.4078
 6917SOL    HW232211   1.115   1.427   1.999 -1.5523 -0.8016 -1.9968
 6918SOL     OW32212   4.350   2.695   5.711  0.1780 -0.4302  0.7157
 6918SOL    HW132213   4.438   2.670   5.681 -0.3228  0.3078 -1.3449
 6918SOL    HW232214   4.341   2.790   5.717  0.1926 -0.3593 -0.3141
 6919SOL     OW32215   0.745   4.477   2.863  0.0185  0.2697 -0.1532
 6919SOL    HW132216   0.754   4.453   2.770 -0.2943  1.1830 -0.4214
 6919SOL    HW232217   0.827   4.525   2.874  2.6026 -3.7247 -1.9185
 6920SOL     OW32218   2.429   4.427  10.804  0.6121 -0.0112  0.2424
 6920SOL    HW132219   2.360   4.479  10.846 -1.0939 -0.7815 -1.6139
 6920SOL    HW232220   2.375   4.361  10.760  1.2586 -1.7572  2.0656
 6921SOL     OW32221   3.935   0.056   3.322 -0.7368  0.6741 -0.5664
 6921SOL    HW132222   3.986   0.137   3.310 -0.2090  0.6816  1.7349
 6921SOL    HW232223   3.875   0.065   3.248 -1.0049 -1.1150 -0.5520
 6922SOL     OW32224   4.663   3.159   6.359  0.0670  0.1001 -0.7844
 6922SOL    HW132225   4.640   3.131   6.270  3.3998 -1.8385 -1.0619
 6922SOL    HW232226   4.682   3.252   6.354  0.6516 -0.0342 -1.0506
 6923SOL     OW32227   4.342   4.585   5.087 -0.0750 -0.5389  0.1639
 6923SOL    HW132228   4.377   4.591   5.175  1.8005  0.1667 -0.6263
 6923SOL    HW232229   4.271   4.649   5.081 -1.1433 -1.7819 -0.5433
 6924SOL     OW32230   2.954   3.049   3.022  0.0889 -0.1093  0.4697
 6924SOL    HW132231   2.932   2.970   2.972 -1.2889  0.0413  0.8222
 6924SOL    HW232232   3.031   3.069   2.970  0.6237  0.3505  1.4471
 6925SOL     OW32233   1.641   0.673   6.790  0.0120  0.1191 -0.0238
 6925SOL    HW132234   1.688   0.591   6.777 -2.7487 -1.6509  1.2100
 6925SOL    HW232235   1.630   0.680   6.885 -1.0961 -2.5110  0.0482
 6926SOL     OW32236   0.097   4.125   1.403 -0.3470 -0.1289 -0.2715
 6926SOL    HW132237   0.020   4.174   1.430  0.6818  2.6462 -2.4113
 6926SOL    HW232238   0.170   4.182   1.428 -0.0347 -1.3953  1.7133
 6927SOL     OW32239   4.717   1.525  14.265  0.5621  0.1185 -0.2291
 6927SOL    HW132240   0.032   1.439  14.284  0.2660  0.0836  0.2049
 6927SOL    HW232241   4.678   1.552  14.348  1.6761 -0.1859  0.3899
 6928SOL     OW32242   1.680   0.370  12.819 -0.0751  0.3307 -0.2795
 6928SOL    HW132243   1.733   0.405  12.748 -0.7220  0.5645 -0.6454
 6928SOL    HW232244   1.605   0.337  12.771 -0.1500  0.8213 -0.5044
 6929SOL     OW32245   0.857   4.425   3.180  0.8251 -0.3362 -0.4466
 6929SOL    HW132246   0.866   4.421   3.275  1.1081  1.6539 -0.3933
 6929SOL    HW232247   0.778   4.479   3.182 -0.0073 -1.7554  3.5213
 6930SOL     OW32248   1.469   0.185   0.574  0.9880 -0.1926 -0.2245
 6930SOL    HW132249   1.437   0.195   0.663  0.2313  0.8960 -0.6159
 6930SOL    HW232250   1.383   0.169   0.534  1.7588 -1.3021 -1.4545
 6931SOL     OW32251   0.054   1.678  12.842 -0.1472 -0.0325 -0.1077
 6931SOL    HW132252   0.040   1.764  12.803  2.2805  0.1026 -0.6954
 6931SOL    HW232253   0.138   1.655  12.802 -0.4411  0.8960 -1.2479
 6932SOL     OW32254   0.986   0.671   6.711  1.0450  0.4821  0.2239
 6932SOL    HW132255   0.951   0.582   6.720 -0.9990  1.0448 -2.0301
 6932SOL    HW232256   0.954   0.694   6.623  0.6307  0.3691  0.3429
 6933SOL     OW32257   3.161   3.204   0.945  0.7361  0.8381  0.1858
 6933SOL    HW132258   3.148   3.117   0.981 -2.1859  1.1609 -0.1491
 6933SOL    HW232259   3.089   3.210   0.882 -0.1123 -0.8669  1.0170
 6934SOL     OW32260   1.928   3.495   9.027 -0.1833  0.0935 -0.0880
 6934SOL    HW132261   1.878   3.443   9.090 -0.6280 -1.5152 -1.7750
 6934SOL    HW232262   1.916   3.441   8.949  1.0864 -2.3098  1.3765
 6935SOL     OW32263   0.527   3.718   3.373  0.2610 -0.1741  0.2528
 6935SOL    HW132264   0.542   3.812   3.384 -0.2126 -0.1607  0.7937
 6935SOL    HW232265   0.539   3.718   3.278 -2.1013  0.3140 -0.0556
 6936SOL     OW32266   4.646   3.569   1.474  0.3700 -0.5040 -0.1062
 6936SOL    HW132267   4.612   3.650   1.511 -3.2172 -1.7944 -0.5114
 6936SOL    HW232268   4.675   3.605   1.390  1.3346 -4.6691 -1.5850
 6937SOL     OW32269   0.821   0.469   6.760 -0.3639 -0.3774 -0.3902
 6937SOL    HW132270   0.851   0.383   6.789  2.0852  1.0144  1.2764
 6937SOL    HW232271   0.761   0.449   6.688 -1.8974 -0.9297  1.0303
 6938SOL     OW32272   2.313   1.023   4.121 -0.2571  0.9567  0.2427
 6938SOL    HW132273   2.346   0.935   4.139 -1.1672  0.3928 -0.8791
 6938SOL    HW232274   2.395   1.064   4.092 -1.4373  2.0653 -1.5034
 6939SOL     OW32275   2.642   4.585   9.261 -0.4762  0.1874  0.0326
 6939SOL    HW132276   2.668   4.494   9.275 -0.5168  0.4055  1.5793
 6939SOL    HW232277   2.729   4.618   9.239  0.8009 -1.8725  1.8895
 6940SOL     OW32278   1.731   4.151  11.323 -0.1364  0.0010  0.2412
 6940SOL    HW132279   1.648   4.135  11.369  0.9987 -2.8862  1.2955
 6940SOL    HW232280   1.779   4.196  11.392  1.5730 -0.7560 -0.4699
 6941SOL     OW32281   4.688   1.918   7.478 -0.2006 -0.4443 -0.1618
 6941SOL    HW132282   0.015   1.959   7.548 -0.1111 -0.3709 -0.2683
 6941SOL    HW232283   4.624   1.988   7.465 -0.0377 -0.6507 -2.0777
 6942SOL     OW32284   0.437   1.383   6.548  0.3492 -0.1969 -0.5061
 6942SOL    HW132285   0.486   1.465   6.542 -1.6405  0.7723 -3.2871
 6942SOL    HW232286   0.501   1.337   6.603 -0.4939  0.0370  0.6605
 6943SOL     OW32287   0.599   4.395   7.847 -0.1160 -0.0494 -0.7659
 6943SOL    HW132288   0.653   4.446   7.786  0.6642 -0.0780 -0.0951
 6943SOL    HW232289   0.509   4.427   7.833 -0.2036  0.0891  0.1263
 6944SOL     OW32290   3.675   3.140  17.290 -0.6242  0.4034 -0.3242
 6944SOL    HW132291   3.681   3.235  17.296 -1.1649  0.4404 -0.4114
 6944SOL    HW232292   3.725   3.116  17.369 -0.9726  1.3362  0.1750
 6945SOL     OW32293   3.319   0.869  14.966  0.4757 -0.0365 -0.9934
 6945SOL    HW132294   3.287   0.952  15.002  0.4923  0.0386 -1.1561
 6945SOL    HW232295   3.242   0.841  14.916 -1.0196 -0.8972  1.7371
 6946SOL     OW32296   1.999   0.678  16.414 -0.1576 -0.0345  0.1312
 6946SOL    HW132297   1.918   0.652  16.372  0.5193  1.1144 -1.8621
 6946SOL    HW232298   2.031   0.594  16.446  2.5221  0.7887 -0.3211
 6947SOL     OW32299   1.104   4.373   6.607  0.2500  0.1159 -0.6098
 6947SOL    HW132300   1.104   4.322   6.688 -0.2349  1.0393 -0.0166
 6947SOL    HW232301   1.017   4.411   6.622 -0.0377 -0.2890 -1.2805
 6948SOL     OW32302   1.641   0.436   3.330 -0.4519 -0.4114 -0.3143
 6948SOL    HW132303   1.594   0.422   3.248 -1.1695 -1.0082  0.2131
 6948SOL    HW232304   1.723   0.393   3.305  0.2344  1.7525 -1.7954
 6949SOL     OW32305   3.130   4.243  10.922  0.0248 -0.5026  0.2501
 6949SOL    HW132306   3.102   4.168  10.869 -2.4106  0.8358 -0.3812
 6949SOL    HW232307   3.222   4.226  10.944  0.1182  0.5349  0.6313
 6950SOL     OW32308   3.328   0.169   6.915 -0.7459 -0.3961  0.3342
 6950SOL    HW132309   3.332   0.264   6.929 -1.3153 -0.5565  1.5074
 6950SOL    HW232310   3.238   0.153   6.887 -0.3118  0.3784 -1.5272
 6951SOL     OW32311   0.656   3.226   0.919  0.0581 -0.0839  0.5890
 6951SOL    HW132312   0.704   3.297   0.962  0.5145  0.4418 -0.7813
 6951SOL    HW232313   0.732   3.176   0.889  1.4005  2.6773 -0.5762
 6952SOL     OW32314   3.420   0.506   9.246 -0.0931 -0.5333 -0.5997
 6952SOL    HW132315   3.361   0.472   9.313 -1.2041  2.8360  0.0983
 6952SOL    HW232316   3.466   0.578   9.289  0.3788  0.3121 -2.5147
 6953SOL     OW32317   0.895   0.615   8.610  0.2784  0.4030 -0.0297
 6953SOL    HW132318   0.884   0.649   8.698  1.8996  1.8017 -0.3618
 6953SOL    HW232319   0.891   0.522   8.630 -3.1850  0.0270 -2.5637
 6954SOL     OW32320   0.835   4.138   6.203 -0.7127 -0.5926  0.4298
 6954SOL    HW132321   0.882   4.177   6.130 -3.0867  1.4160 -0.0216
 6954SOL    HW232322   0.753   4.186   6.215 -0.6413 -0.7060  1.3835
 6955SOL     OW32323   2.098   0.100   3.460 -0.0875 -0.5860  0.1552
 6955SOL    HW132324   2.102   0.052   3.377 -0.6110  0.1058 -0.2744
 6955SOL    HW232325   2.150   0.043   3.517  0.2550  0.9823  1.3969
 6956SOL     OW32326   3.258   2.831   8.034  0.7788  0.8863 -0.1093
 6956SOL    HW132327   3.210   2.846   7.952 -0.1826  2.0944  0.6805
 6956SOL    HW232328   3.201   2.877   8.096  2.0763  1.1015  0.9153
 6957SOL     OW32329   1.348   2.831  11.793  0.5623 -0.3679  0.2707
 6957SOL    HW132330   1.315   2.808  11.706 -1.2172 -1.2196  1.1910
 6957SOL    HW232331   1.365   2.739  11.814  0.2529 -0.3017  0.7919
 6958SOL     OW32332   4.201   3.134   8.089 -0.0247  0.1646  0.9415
 6958SOL    HW132333   4.165   3.222   8.097  0.0391  0.2327  0.4723
 6958SOL    HW232334   4.126   3.079   8.113 -0.8154  1.1631  0.7372
 6959SOL     OW32335   1.004   3.723   6.958  0.0826  0.5556  0.3286
 6959SOL    HW132336   0.926   3.773   6.984  0.4131  0.1709  2.0352
 6959SOL    HW232337   1.035   3.681   7.038  0.6384 -0.4021 -0.3907
 6960SOL     OW32338   2.890   3.998   9.109  0.1556 -0.3494  0.1232
 6960SOL    HW132339   2.848   3.948   9.039 -1.4740 -0.1521  0.9574
 6960SOL    HW232340   2.837   3.974   9.185 -0.0587  1.6538  0.5925
 6961SOL     OW32341   0.977   2.253   7.633  0.2877  0.0583  0.3677
 6961SOL    HW132342   1.003   2.332   7.585 -0.2494 -0.9629 -1.6146
 6961SOL    HW232343   0.888   2.238   7.600  0.0674  4.4193 -0.9276
 6962SOL     OW32344   2.641   2.112   9.502  0.3320  0.5258 -0.4377
 6962SOL    HW132345   2.645   2.113   9.407 -0.5852  0.5115 -0.4705
 6962SOL    HW232346   2.712   2.170   9.533  0.5450 -0.2618  0.5637
 6963SOL     OW32347   3.060   1.288   6.160 -0.3236 -0.0602 -0.2315
 6963SOL    HW132348   3.003   1.221   6.199 -0.4718  0.7954  1.0183
 6963SOL    HW232349   3.041   1.281   6.066 -1.9151 -0.1183  0.0993
 6964SOL     OW32350   2.762   3.155  10.132 -0.4588 -0.2085  1.0090
 6964SOL    HW132351   2.766   3.062  10.110  1.7628  0.1471 -0.0628
 6964SOL    HW232352   2.699   3.162  10.204  0.0198 -2.0078  1.5938
 6965SOL     OW32353   0.773   1.684   8.480  0.1571 -0.3034 -0.7535
 6965SOL    HW132354   0.852   1.694   8.426 -0.1564  2.7574 -0.6857
 6965SOL    HW232355   0.769   1.756   8.544  1.3072 -1.5111  0.6808
 6966SOL     OW32356   3.708   2.503   3.976  0.1348 -0.0686 -0.5206
 6966SOL    HW132357   3.758   2.438   4.026 -1.9981 -2.1834 -1.1502
 6966SOL    HW232358   3.767   2.578   3.970  0.8661 -0.6633 -0.8474
 6967SOL     OW32359   0.267   1.977   8.203 -0.3718  0.2767 -0.3029
 6967SOL    HW132360   0.214   1.999   8.127 -2.9934 -2.5640  0.7203
 6967SOL    HW232361   0.203   1.931   8.257 -0.0022 -0.1543 -0.2350
 6968SOL     OW32362   2.698   3.837   5.563 -0.1933 -0.4049  0.2186
 6968SOL    HW132363   2.631   3.904   5.551  0.0294 -0.1987  0.1412
 6968SOL    HW232364   2.661   3.770   5.505  0.7741 -0.6982 -0.0514
 6969SOL     OW32365   4.360   0.865   8.634 -0.5097  0.8727 -0.3807
 6969SOL    HW132366   4.289   0.808   8.660 -0.3380  1.3825  1.2324
 6969SOL    HW232367   4.412   0.850   8.713 -0.8284  0.0744 -0.3251
 6970SOL     OW32368   4.440   1.456  12.384  0.0190  0.3082 -0.5404
 6970SOL    HW132369   4.368   1.506  12.346  0.0955  0.0895 -0.9756
 6970SOL    HW232370   4.505   1.521  12.412  1.7014 -0.6180 -2.2724
 6971SOL     OW32371   4.231   0.616   8.231 -0.2398 -0.0755 -0.2766
 6971SOL    HW132372   4.291   0.616   8.306  0.3455  3.8967 -0.7591
 6971SOL    HW232373   4.278   0.561   8.169 -1.2685 -0.1231 -1.0136
 6972SOL     OW32374   3.553   2.595   0.996  0.2514  0.2574  0.3496
 6972SOL    HW132375   3.572   2.554   0.911 -1.6138 -1.1160  0.6102
 6972SOL    HW232376   3.608   2.531   1.039  0.9738 -0.5443 -1.7385
 6973SOL     OW32377   1.021   2.290   3.695  0.9377 -0.0859  0.0621
 6973SOL    HW132378   0.948   2.346   3.667 -0.0952 -0.5653  1.8191
 6973SOL    HW232379   1.075   2.286   3.616  1.2728 -0.7806  0.3320
 6974SOL     OW32380   4.478   1.330   4.904 -0.2214  0.1918 -0.1446
 6974SOL    HW132381   4.475   1.354   4.811  0.7665  0.5539 -0.0733
 6974SOL    HW232382   4.546   1.264   4.892 -2.6344 -2.1059 -1.4071
 6975SOL     OW32383   4.048   4.297   4.778  0.6870  0.2202 -0.0247
 6975SOL    HW132384   4.014   4.256   4.699  0.6689  0.5418 -0.1861
 6975SOL    HW232385   4.113   4.351   4.733  0.0329  0.7360 -0.3519
 6976SOL     OW32386   1.555   2.583  16.714  0.1895  0.1717  0.8174
 6976SOL    HW132387   1.626   2.555  16.772  0.2560 -0.9007  0.2056
 6976SOL    HW232388   1.495   2.508  16.713 -0.4273  0.6926 -0.8680
 6977SOL     OW32389   3.789   3.418   4.154 -0.2619  0.2058  0.2497
 6977SOL    HW132390   3.814   3.447   4.242  2.6418 -1.3366 -0.0887
 6977SOL    HW232391   3.696   3.402   4.174 -0.3612 -0.1900 -0.5065
 6978SOL     OW32392   2.562   4.423  15.830  0.0507  0.5979  0.3356
 6978SOL    HW132393   2.483   4.407  15.881  1.1456 -1.5183  1.3738
 6978SOL    HW232394   2.533   4.388  15.745  1.0529 -1.7695  0.9656
 6979SOL     OW32395   4.100   2.834   4.715 -0.1779 -0.2985  0.2069
 6979SOL    HW132396   4.014   2.865   4.743  0.2955  0.5142  0.7569
 6979SOL    HW232397   4.144   2.822   4.799  0.5003  0.5980 -0.0272
 6980SOL     OW32398   3.421   4.649   2.519  0.2449  0.7619 -0.2568
 6980SOL    HW132399   3.393   4.584   2.456 -2.3512  2.7769 -1.1419
 6980SOL    HW232400   3.435   0.008   2.474  0.5843 -0.2317 -1.9587
 6981SOL     OW32401   2.139   3.775   4.108  0.1485  0.2729 -0.4026
 6981SOL    HW132402   2.194   3.835   4.159  1.3916 -1.3441  0.1373
 6981SOL    HW232403   2.117   3.837   4.039 -0.3756  0.5978  0.0476
 6982SOL     OW32404   0.101   1.617   4.788  0.0613 -0.2157 -0.4823
 6982SOL    HW132405   0.040   1.572   4.846  1.6940 -1.8855 -0.0732
 6982SOL    HW232406   0.042   1.688   4.763 -0.4476 -0.5807 -0.2897
 6983SOL     OW32407   3.455   1.866   7.048  0.0722  0.1516  0.3233
 6983SOL    HW132408   3.509   1.900   7.120  1.8762  0.2758 -1.1118
 6983SOL    HW232409   3.400   1.934   7.010 -0.6877 -0.5822  0.0994
 6984SOL     OW32410   3.519   4.378   4.614  0.2390  0.2281  0.2826
 6984SOL    HW132411   3.518   4.458   4.665 -1.7566  1.2215 -1.2750
 6984SOL    HW232412   3.600   4.397   4.567 -0.0486  0.8074  0.0135
 6985SOL     OW32413   1.173   1.050   6.251  0.7479  0.2456  0.6311
 6985SOL    HW132414   1.233   0.983   6.285  1.2257  0.0252 -0.6291
 6985SOL    HW232415   1.116   1.071   6.325  1.8024  1.2581  1.1528
 6986SOL     OW32416   1.731   3.081  16.859 -0.0560  0.1806  0.1939
 6986SOL    HW132417   1.794   3.014  16.884  1.3435  1.4365  0.0547
 6986SOL    HW232418   1.785   3.153  16.827 -1.1414  0.6179 -0.6572
 6987SOL     OW32419   2.447   0.746  17.074 -0.1125  0.7501 -0.2259
 6987SOL    HW132420   2.352   0.747  17.086 -0.0059  1.4457  0.5379
 6987SOL    HW232421   2.458   0.812  17.005  0.4728  1.4989  0.5855
 6988SOL     OW32422   3.465   0.129  15.371 -0.1907 -0.0027  0.0994
 6988SOL    HW132423   3.453   0.135  15.277 -2.2165  0.7938  0.4144
 6988SOL    HW232424   3.523   0.204  15.386  0.0703 -0.1140 -0.3610
 6989SOL     OW32425   1.984   1.920  10.182  0.6900 -0.1213 -0.2780
 6989SOL    HW132426   2.033   2.002  10.191  0.0203  0.2587 -0.0631
 6989SOL    HW232427   2.019   1.847  10.234 -0.9287 -0.5154  0.2646
 6990SOL     OW32428   2.882   2.124   5.277  0.1079 -0.1224 -0.3633
 6990SOL    HW132429   2.826   2.183   5.328  1.0416  0.8237 -0.4387
 6990SOL    HW232430   2.875   2.166   5.191 -1.2897  2.7132  1.1289
 6991SOL     OW32431   2.798   2.884   4.028 -0.1969 -0.4317 -0.6209
 6991SOL    HW132432   2.775   2.924   3.944 -0.4640 -0.9260 -0.7812
 6991SOL    HW232433   2.888   2.915   4.037 -0.4467 -0.0047  0.4480
 6992SOL     OW32434   0.974   3.467  17.268  0.0453 -0.5148 -0.2811
 6992SOL    HW132435   0.954   3.485  17.360  0.6656  0.5339 -0.3602
 6992SOL    HW232436   1.068   3.480  17.265 -0.2329  1.8009  1.0502
 6993SOL     OW32437   1.798   1.779   8.455 -0.0656  0.3200  0.2247
 6993SOL    HW132438   1.727   1.820   8.405  0.2939  0.0626 -0.5069
 6993SOL    HW232439   1.833   1.731   8.380 -1.7059 -0.4139 -0.0744
 6994SOL     OW32440   2.604   3.531   9.615 -0.1361  0.0481  0.1543
 6994SOL    HW132441   2.603   3.605   9.554 -0.8352 -0.6981 -0.7446
 6994SOL    HW232442   2.648   3.462   9.565 -1.2144  0.5749 -1.5055
 6995SOL     OW32443   3.774   3.763   1.418 -0.0433 -0.1498  0.0070
 6995SOL    HW132444   3.775   3.855   1.391  1.1089  0.0391  0.7058
 6995SOL    HW232445   3.821   3.721   1.346  0.1922  1.4931 -0.8108
 6996SOL     OW32446   3.121   1.798   5.598  0.3087  0.0466  0.5626
 6996SOL    HW132447   3.199   1.843   5.630  0.6323 -1.2743  1.6193
 6996SOL    HW232448   3.080   1.875   5.557  1.3661  0.7014  0.7335
 6997SOL     OW32449   4.718   2.190   6.134 -0.2571 -0.0934 -0.4987
 6997SOL    HW132450   0.056   2.258   6.105 -0.3539 -0.1150 -0.7552
 6997SOL    HW232451   4.690   2.147   6.053  0.0390  0.9774 -1.1717
 6998SOL     OW32452   3.545   2.929  16.034 -0.3701  0.1071 -0.5124
 6998SOL    HW132453   3.546   2.881  16.116  0.2165 -1.1741 -1.2668
 6998SOL    HW232454   3.567   3.015  16.070  2.6807 -1.0314  0.3956
 6999SOL     OW32455   0.484   0.025   7.787  0.6554  0.3502 -0.2644
 6999SOL    HW132456   0.557   4.706   7.831  0.8040  1.0328  0.1341
 6999SOL    HW232457   0.512   0.115   7.774  1.5754  0.0988 -0.0352
 7000SOL     OW32458   3.920   1.362   2.658  0.1852 -0.2103  0.0143
 7000SOL    HW132459   3.957   1.290   2.709 -0.9160 -1.1974 -0.5922
 7000SOL    HW232460   3.836   1.323   2.633  0.0401  0.7117 -0.9694
 7001SOL     OW32461   4.005   2.841  10.058 -0.5593  0.1109  0.1014
 7001SOL    HW132462   4.020   2.750  10.031 -1.3943  0.2126 -0.7395
 7001SOL    HW232463   3.929   2.841  10.116 -0.6434 -1.3322 -0.0003
 7002SOL     OW32464   4.019   2.967   8.147 -0.4584 -0.0103 -0.4178
 7002SOL    HW132465   4.002   2.928   8.233  0.5068 -1.6421 -0.9621
 7002SOL    HW232466   3.941   2.930   8.106  2.0759 -0.8406 -4.4296
 7003SOL     OW32467   2.918   1.983  13.934  0.6276 -0.0248  0.3234
 7003SOL    HW132468   3.007   2.018  13.932  0.8928 -0.7739 -0.9609
 7003SOL    HW232469   2.949   1.902  13.975  5.4823  1.0049 -1.3325
 7004SOL     OW32470   2.463   2.883  11.517  0.4713 -0.1447 -0.0142
 7004SOL    HW132471   2.430   2.844  11.598  1.4902 -0.4789  0.2511
 7004SOL    HW232472   2.383   2.894  11.466 -0.7021 -0.6425  1.7128
 7005SOL     OW32473   2.067   1.705   7.492 -0.5804  0.5274 -0.1362
 7005SOL    HW132474   2.147   1.652   7.497 -1.9444 -1.5375  0.0792
 7005SOL    HW232475   2.012   1.644   7.443 -2.7225  1.0573  1.6330
 7006SOL     OW32476   2.312   1.362  14.906 -0.0385  0.0921 -0.4150
 7006SOL    HW132477   2.245   1.294  14.899 -1.1500  1.1270  0.1590
 7006SOL    HW232478   2.332   1.389  14.816 -3.3018  0.1238 -1.1600
 7007SOL     OW32479   2.467   0.337   3.988 -0.0552 -0.0597 -0.4970
 7007SOL    HW132480   2.405   0.271   3.959 -0.8962  0.9498 -1.0170
 7007SOL    HW232481   2.530   0.326   3.917 -0.6077  0.4083 -1.0592
 7008SOL     OW32482   2.281   4.414   0.073  0.0110  0.6130  0.1663
 7008SOL    HW132483   2.375   4.413   0.094 -0.1160 -0.6920  0.6754
 7008SOL    HW232484   2.269   4.508   0.059 -3.5816  0.0970 -0.1648
 7009SOL     OW32485   4.525   1.374   4.632  0.0471 -0.5055 -0.3469
 7009SOL    HW132486   4.561   1.290   4.604  0.6777  0.0685 -1.2397
 7009SOL    HW232487   4.597   1.430   4.602 -1.1345  0.5151 -1.2919
 7010SOL     OW32488   1.212   0.090   4.319  0.1697 -0.1856  0.7252
 7010SOL    HW132489   1.175   0.035   4.249  1.2446  0.2330 -0.1741
 7010SOL    HW232490   1.182   0.037   4.392 -0.8723 -4.8220 -3.0194
 7011SOL     OW32491   0.419   3.781  14.582  0.7889 -0.5612  0.7774
 7011SOL    HW132492   0.440   3.693  14.551  1.6283 -0.4475  1.0249
 7011SOL    HW232493   0.324   3.778  14.565  0.3355 -0.6095  3.3491
 7012SOL     OW32494   3.272   3.370  11.284  0.0111  0.1095 -0.0088
 7012SOL    HW132495   3.213   3.304  11.321  0.2962  0.3785  0.9185
 7012SOL    HW232496   3.225   3.450  11.306 -0.3311 -0.0844 -0.0175
 7013SOL     OW32497   2.911   0.470   3.828  0.3140  0.1660  0.1258
 7013SOL    HW132498   2.928   0.392   3.881  1.3770  0.1279 -0.2810
 7013SOL    HW232499   2.903   0.533   3.900 -3.3189 -1.3333  1.0832
 7014SOL     OW32500   0.137   2.489   1.593  0.0031 -0.3455  0.0053
 7014SOL    HW132501   0.108   2.490   1.502 -1.4821  1.0898  0.5005
 7014SOL    HW232502   0.108   2.399   1.608 -1.9653  0.3557  0.3679
 7015SOL     OW32503   0.228   2.983   6.768 -0.6304 -0.2076 -0.0274
 7015SOL    HW132504   0.198   2.892   6.766 -0.9975 -0.0975  0.4001
 7015SOL    HW232505   0.306   2.962   6.820 -1.4731 -3.7157 -0.1461
 7016SOL     OW32506   3.646   2.401   6.755 -0.6168  0.3923  0.7665
 7016SOL    HW132507   3.630   2.490   6.724 -0.4104  0.0156 -0.4323
 7016SOL    HW232508   3.737   2.405   6.787  0.3990 -1.9749 -1.8338
 7017SOL     OW32509   2.870   3.901   6.176 -0.0549 -0.1329 -0.2789
 7017SOL    HW132510   2.811   3.952   6.121 -0.8830 -0.3405  0.4210
 7017SOL    HW232511   2.889   3.965   6.245 -2.6608 -0.2793  0.5578
 7018SOL     OW32512   1.892   2.676  16.224  0.1270  0.6672  0.3850
 7018SOL    HW132513   1.855   2.764  16.212  2.4431  1.3019 -2.0879
 7018SOL    HW232514   1.875   2.629  16.142  0.6474 -0.8775  1.1805
 7019SOL     OW32515   2.767   4.130   7.113 -0.3086 -0.1441  0.1813
 7019SOL    HW132516   2.717   4.177   7.046  2.4672  1.8260 -0.4960
 7019SOL    HW232517   2.748   4.187   7.188 -0.3331  1.0951 -0.7663
 7020SOL     OW32518   1.441   2.818   8.214 -0.7192  0.1115  0.1096
 7020SOL    HW132519   1.409   2.900   8.176  1.1891  0.5163 -0.6189
 7020SOL    HW232520   1.529   2.822   8.175  0.3940 -0.0895  2.5550
 7021SOL     OW32521   4.009   1.182   7.132  0.0534 -0.2116  0.4666
 7021SOL    HW132522   3.923   1.161   7.168  0.1041  0.5348  1.0223
 7021SOL    HW232523   4.058   1.215   7.207  0.1242 -1.8906  1.1772
 7022SOL     OW32524   3.739   0.497   7.648  0.3154 -0.9213  0.3174
 7022SOL    HW132525   3.672   0.451   7.597  1.4449 -2.7166  0.4475
 7022SOL    HW232526   3.692   0.483   7.730  0.5033 -0.7073  0.4592
 7023SOL     OW32527   1.503   4.621   6.407 -0.0395 -0.2018  0.2468
 7023SOL    HW132528   1.502   4.535   6.448  0.3664 -0.2925  0.0643
 7023SOL    HW232529   1.421   4.620   6.357  0.4990 -1.8845 -0.5952
 7024SOL     OW32530   2.124   1.580   8.779  0.7623 -0.5604  0.1987
 7024SOL    HW132531   2.092   1.555   8.693  1.8919 -0.7356 -0.1796
 7024SOL    HW232532   2.052   1.634   8.810  1.9565  1.0111  0.2803
 7025SOL     OW32533   0.707   4.603   6.256 -0.1600  0.2865 -0.0710
 7025SOL    HW132534   0.778   4.659   6.225 -1.6682  1.2298 -1.8309
 7025SOL    HW232535   0.642   4.673   6.251  0.4647  0.8778  0.0859
 7026SOL     OW32536   2.575   1.673   0.897 -0.0068 -0.0828  0.1857
 7026SOL    HW132537   2.626   1.651   0.818  0.7998  1.5080  0.2593
 7026SOL    HW232538   2.504   1.613   0.874 -1.9330  1.9825  0.7790
 7027SOL     OW32539   1.643   4.026  11.113  0.1255  0.1849  0.4740
 7027SOL    HW132540   1.693   4.072  11.180 -0.2358  3.9728 -1.8340
 7027SOL    HW232541   1.587   3.981  11.177  0.2414  1.1055  1.2332
 7028SOL     OW32542   1.192   1.285   0.659  0.8324 -0.3541 -0.3188
 7028SOL    HW132543   1.192   1.190   0.666  1.1758 -0.4918 -2.1997
 7028SOL    HW232544   1.224   1.285   0.569  1.3560 -3.2901 -0.1171
 7029SOL     OW32545   1.780   4.070  15.293  0.0999 -0.1367  0.8253
 7029SOL    HW132546   1.762   4.125  15.217 -0.0211 -0.0320  0.9308
 7029SOL    HW232547   1.721   4.004  15.257 -1.5137  1.5536  0.3756
 7030SOL     OW32548   2.990   1.429   3.972 -0.4161 -0.4326 -0.3003
 7030SOL    HW132549   2.919   1.493   3.971 -1.2411 -1.3397 -0.4238
 7030SOL    HW232550   3.038   1.470   4.043 -2.7369  0.5497  0.6976
 7031SOL     OW32551   0.297   4.133   6.673 -0.1500 -0.0779  0.1610
 7031SOL    HW132552   0.334   4.221   6.678 -0.4693  0.1520 -1.5745
 7031SOL    HW232553   0.251   4.132   6.757  1.2891  1.4814  0.9558
 7032SOL     OW32554   0.551   3.195   3.277 -0.0203 -0.4119  0.2095
 7032SOL    HW132555   0.621   3.238   3.228 -0.7718  1.5796  0.8759
 7032SOL    HW232556   0.474   3.200   3.220  1.5228  2.4915 -1.6547
 7033SOL     OW32557   3.140   1.016   5.680 -0.6899  0.1172 -0.1494
 7033SOL    HW132558   3.145   0.969   5.597  0.3159  0.0087 -0.0263
 7033SOL    HW232559   3.229   1.017   5.714 -0.0934  0.3667 -1.7626
 7034SOL     OW32560   1.496   3.736   7.611 -0.3158 -0.2202 -0.5591
 7034SOL    HW132561   1.567   3.703   7.667 -0.1888 -0.2023 -0.7113
 7034SOL    HW232562   1.433   3.756   7.680  0.9204 -1.2779  0.8883
 7035SOL     OW32563   4.595   2.229   9.483  0.3303 -0.1987  0.0467
 7035SOL    HW132564   4.568   2.166   9.550 -0.2957  1.2049  1.1028
 7035SOL    HW232565   4.691   2.228   9.489  0.3363 -1.3051 -0.1908
 7036SOL     OW32566   3.614   3.793   2.996 -0.0766  0.4195  0.5168
 7036SOL    HW132567   3.564   3.814   3.076 -0.1716  1.0956  0.2816
 7036SOL    HW232568   3.549   3.748   2.942 -0.7991  1.4998  0.4877
 7037SOL     OW32569   0.416   2.031   4.383  0.9778  0.5109  0.4685
 7037SOL    HW132570   0.452   2.118   4.399  0.1383  0.9350  0.0755
 7037SOL    HW232571   0.322   2.049   4.384  0.3535 -2.5601 -3.1772
 7038SOL     OW32572   0.485   2.796   1.196  0.8022  0.1047  0.6016
 7038SOL    HW132573   0.445   2.785   1.282  0.9390  0.9784  0.7776
 7038SOL    HW232574   0.420   2.783   1.127  0.9777  0.9476  0.2784
 7039SOL     OW32575   3.930   4.267   0.561 -0.3885  0.0485  0.2232
 7039SOL    HW132576   3.972   4.335   0.614 -1.1932  2.0933 -1.7164
 7039SOL    HW232577   3.877   4.325   0.506  0.5041  0.9577  0.3214
 7040SOL     OW32578   3.714   4.443  11.064 -0.0321  0.0455  0.3053
 7040SOL    HW132579   3.730   4.441  11.159  2.8525 -0.6135 -0.1976
 7040SOL    HW232580   3.742   4.358  11.031  0.5691 -0.2579  1.5927
 7041SOL     OW32581   2.695   3.197   7.341 -0.2443 -0.1016  0.1852
 7041SOL    HW132582   2.714   3.113   7.382  2.5495  0.8616  0.8648
 7041SOL    HW232583   2.748   3.208   7.262 -1.9219  0.5897 -0.8335
 7042SOL     OW32584   0.904   4.541   5.627 -0.5722 -0.5098 -0.3161
 7042SOL    HW132585   0.940   4.506   5.709 -0.3368  2.2270  0.7621
 7042SOL    HW232586   0.899   4.633   5.654 -1.8060 -0.8590  0.6604
 7043SOL     OW32587   1.626   2.774  10.707 -0.1184 -1.0198  0.3144
 7043SOL    HW132588   1.711   2.817  10.717 -1.0307  1.2277 -1.3276
 7043SOL    HW232589   1.656   2.695  10.663  0.8373  0.1429 -1.1371
 7044SOL     OW32590   3.315   2.475   3.474 -0.2649 -0.6151 -0.1728
 7044SOL    HW132591   3.251   2.451   3.541 -1.1920  0.2381 -0.7474
 7044SOL    HW232592   3.313   2.571   3.478 -1.1907 -0.6558  0.3148
 7045SOL     OW32593   1.231   3.872   2.897 -0.0567  0.4242 -0.7836
 7045SOL    HW132594   1.209   3.955   2.853 -1.1034  2.0537  2.7895
 7045SOL    HW232595   1.206   3.901   2.985 -2.4356  0.5166 -1.4728
 7046SOL     OW32596   2.889   3.099   0.833  0.2204 -0.2156 -0.0177
 7046SOL    HW132597   2.814   3.046   0.861 -0.9643  0.0831 -2.6150
 7046SOL    HW232598   2.844   3.181   0.813 -2.4785 -1.2712  1.6327
 7047SOL     OW32599   3.423   1.163   8.047 -0.5262  0.4675 -0.1488
 7047SOL    HW132600   3.363   1.190   8.117  0.6792 -1.1107  1.5116
 7047SOL    HW232601   3.417   1.074   8.083  0.5771  0.4487 -0.0184
 7048SOL     OW32602   1.616   4.563   8.573 -0.2043 -0.8973  0.0971
 7048SOL    HW132603   1.582   4.596   8.490 -0.3736  0.7574  0.8336
 7048SOL    HW232604   1.621   4.643   8.625  0.5058 -0.0912 -1.2331
 7049SOL     OW32605   2.989   1.947   8.677  0.7504 -0.0596  0.2973
 7049SOL    HW132606   2.999   1.857   8.706 -1.9077 -0.2072  0.7092
 7049SOL    HW232607   3.018   1.975   8.763  0.5221 -1.4518  0.8253
 7050SOL     OW32608   1.009   1.696   2.573 -0.2873 -0.4642  0.2698
 7050SOL    HW132609   0.919   1.720   2.595  0.7767  3.6201  0.1437
 7050SOL    HW232610   1.007   1.605   2.541 -0.9862 -1.3625  2.8724
 7051SOL     OW32611   1.553   0.559  14.406  0.5513 -0.5783  0.1650
 7051SOL    HW132612   1.609   0.514  14.470  1.4509 -0.1899 -0.3549
 7051SOL    HW232613   1.506   0.489  14.360 -2.3520  2.4170 -1.4179
 7052SOL     OW32614   0.886   0.290   0.144  0.3061  0.3049 -0.6338
 7052SOL    HW132615   0.809   0.239   0.166  1.5336 -0.8742  0.9205
 7052SOL    HW232616   0.845   0.375   0.131 -0.3500 -0.3162 -2.6504
 7053SOL     OW32617   3.594   2.618  10.326 -0.5405 -0.0759  0.5716
 7053SOL    HW132618   3.572   2.582  10.240 -0.5988  0.8707  0.1914
 7053SOL    HW232619   3.557   2.557  10.389  2.4577  0.5065  2.9084
 7054SOL     OW32620   4.035   3.823   4.166  0.6160 -0.0373  0.2106
 7054SOL    HW132621   3.977   3.833   4.090  0.6747 -1.7745 -0.0608
 7054SOL    HW232622   3.974   3.788   4.230  0.1864  1.8172  0.8163
 7055SOL     OW32623   3.737   4.473  11.345 -0.5011 -0.0486  0.2052
 7055SOL    HW132624   3.747   4.422  11.426 -2.2101  1.5210  1.4013
 7055SOL    HW232625   3.645   4.498  11.353 -0.3646  0.7320 -0.7074
 7056SOL     OW32626   0.432   2.386   0.703 -0.0431  0.2079  0.4993
 7056SOL    HW132627   0.448   2.292   0.705  0.3804  0.2450 -0.7744
 7056SOL    HW232628   0.415   2.402   0.796 -1.5804  1.2913  0.0390
 7057SOL     OW32629   2.523   1.167  11.229 -0.4540  0.2411  0.0325
 7057SOL    HW132630   2.458   1.179  11.160 -1.5783 -1.4466  0.7848
 7057SOL    HW232631   2.556   1.078  11.219 -2.0173 -0.3942  0.4385
 7058SOL     OW32632   2.804   3.811   5.217 -0.0271  0.4214 -0.0252
 7058SOL    HW132633   2.786   3.893   5.263 -0.0942  0.1278  0.4707
 7058SOL    HW232634   2.734   3.760   5.258  1.9380 -1.3779  1.0976
 7059SOL     OW32635   1.582   1.796  12.949 -0.1997  0.1994 -0.3890
 7059SOL    HW132636   1.670   1.834  12.956 -0.7278  1.3166  0.0864
 7059SOL    HW232637   1.598   1.719  12.893 -1.4862 -1.0924  1.0340
 7060SOL     OW32638   2.429   3.711   0.170 -0.0681 -0.0829 -0.1956
 7060SOL    HW132639   2.501   3.770   0.191  0.2906 -0.6940  0.2668
 7060SOL    HW232640   2.472   3.626   0.176  1.5151  0.7749  0.5357
 7061SOL     OW32641   0.235   2.335   8.604 -0.1084  0.3677  0.1512
 7061SOL    HW132642   0.306   2.374   8.554 -0.0956 -1.1430 -0.9907
 7061SOL    HW232643   0.184   2.413   8.627  0.9635  1.6433 -1.8069
 7062SOL     OW32644   4.043   4.113  11.590 -0.0667 -0.1427 -0.0051
 7062SOL    HW132645   3.983   4.098  11.517  1.7899  1.1053 -1.7940
 7062SOL    HW232646   3.984   4.134  11.662 -0.0340  1.5809 -0.4948
 7063SOL     OW32647   1.157   4.133   1.261  0.2725  0.8593 -0.4817
 7063SOL    HW132648   1.162   4.056   1.205  0.3792 -0.7056  1.6572
 7063SOL    HW232649   1.063   4.147   1.269 -0.0585 -0.2283 -2.5401
 7064SOL     OW32650   2.064   0.190  12.884 -0.2716 -0.0828  0.1301
 7064SOL    HW132651   1.970   0.171  12.876 -0.4737  0.1195  2.1519
 7064SOL    HW232652   2.087   0.188  12.791  0.7771 -0.1569  0.3865
 7065SOL     OW32653   1.430   3.299   3.452  0.4571  0.1722  0.1226
 7065SOL    HW132654   1.524   3.299   3.438  0.2878  0.9399 -1.0323
 7065SOL    HW232655   1.399   3.242   3.382 -0.8237 -1.6590  2.1928
 7066SOL     OW32656   3.069   2.967   4.381 -0.2673  0.5875 -0.4052
 7066SOL    HW132657   3.001   2.936   4.322  2.6668 -1.6989 -2.5694
 7066SOL    HW232658   3.069   2.905   4.453 -2.1186  1.9856  0.8148
 7067SOL     OW32659   0.332   0.021  10.478 -0.2119 -0.1938  0.7827
 7067SOL    HW132660   0.348   0.029  10.572 -0.1579  0.4777  0.7200
 7067SOL    HW232661   0.246   0.064  10.469 -1.3724 -3.0673 -1.9140
 7068SOL     OW32662   2.294   3.437   3.888 -0.2890  0.5070  0.1249
 7068SOL    HW132663   2.224   3.414   3.827  1.2123  1.3346 -1.9393
 7068SOL    HW232664   2.376   3.400   3.854 -0.6836 -0.1693 -0.1005
 7069SOL     OW32665   4.328   0.242   9.191 -0.2744  0.0356 -0.3294
 7069SOL    HW132666   4.404   0.206   9.237  0.1015 -1.6817 -2.3231
 7069SOL    HW232667   4.344   0.221   9.099  2.4938 -0.4498  0.2592
 7070SOL     OW32668   4.306   0.471   4.304 -0.1694  0.0169 -0.2976
 7070SOL    HW132669   4.331   0.550   4.351 -0.0001 -0.4677  0.4196
 7070SOL    HW232670   4.395   0.454   4.272  0.1299  1.5911 -0.2967
 7071SOL     OW32671   0.014   1.503   4.503  0.2960  0.2781  0.2954
 7071SOL    HW132672   0.093   1.508   4.450 -0.0550 -1.6421 -0.4031
 7071SOL    HW232673   0.025   1.572   4.568  1.5156  1.1082 -0.7847
 7072SOL     OW32674   3.491   1.172  11.263  0.2037  0.1145  0.3120
 7072SOL    HW132675   3.457   1.224  11.336 -0.1973 -1.9106  1.5662
 7072SOL    HW232676   3.498   1.245  11.202  1.1873  0.5910  1.0142
 7073SOL     OW32677   4.184   0.334  13.265  0.1872 -0.0028 -0.1855
 7073SOL    HW132678   4.273   0.365  13.248 -0.0277  0.9132  0.3541
 7073SOL    HW232679   4.194   0.307  13.357  0.7646  2.3289  0.4510
 7074SOL     OW32680   2.070   3.345   6.663  0.6192  0.1570 -0.0060
 7074SOL    HW132681   2.001   3.363   6.599  0.0313 -1.9095  0.0597
 7074SOL    HW232682   2.030   3.371   6.747  0.6364  1.8944 -0.5246
 7075SOL     OW32683   2.557   1.605  10.264  0.0054 -0.9192  0.2513
 7075SOL    HW132684   2.528   1.687  10.223 -1.4653 -2.0975 -1.0546
 7075SOL    HW232685   2.481   1.583  10.318  0.4095 -2.2505  0.2795
 7076SOL     OW32686   0.692   0.299  13.793 -0.0624 -0.5054  0.2686
 7076SOL    HW132687   0.653   0.231  13.848  0.8871 -1.2533  0.0226
 7076SOL    HW232688   0.644   0.372  13.833 -0.6712 -0.2899 -0.8549
 7077SOL     OW32689   4.206   2.702   6.713  0.4230 -0.5858  0.1393
 7077SOL    HW132690   4.269   2.636   6.741  1.2073  0.1330  0.0476
 7077SOL    HW232691   4.156   2.700   6.795 -0.2710  0.1398 -0.2667
 7078SOL     OW32692   4.200   4.520   8.871  0.0391 -0.2573  0.7330
 7078SOL    HW132693   4.294   4.537   8.871  0.0719 -0.4247  1.6749
 7078SOL    HW232694   4.175   4.546   8.960  0.3247  2.5214 -0.0022
 7079SOL     OW32695   1.930   1.316  16.301  0.2179  0.6599  0.2278
 7079SOL    HW132696   1.941   1.366  16.220 -1.8427  0.7394 -0.0231
 7079SOL    HW232697   1.839   1.290  16.281  1.2484 -1.0944 -2.2767
 7080SOL     OW32698   2.241   2.170   6.960 -0.5412  0.3055  0.3908
 7080SOL    HW132699   2.227   2.253   6.914 -1.2574 -0.4621 -0.7814
 7080SOL    HW232700   2.169   2.113   6.932  1.8213 -2.2368 -0.5170
 7081SOL     OW32701   1.166   0.092   8.827 -0.4270 -0.0468 -0.4735
 7081SOL    HW132702   1.205   0.140   8.900  1.7482 -0.3434 -1.4517
 7081SOL    HW232703   1.139   0.014   8.876 -2.2110  0.5785 -0.4611
 7082SOL     OW32704   1.903   3.329   9.300  0.3888 -0.1566  0.1988
 7082SOL    HW132705   1.874   3.411   9.341  1.8990 -0.6841  2.2924
 7082SOL    HW232706   1.982   3.316   9.352 -0.5677  1.0233  1.9429
 7083SOL     OW32707   0.499   2.004   5.475 -0.1105  0.2491 -0.5559
 7083SOL    HW132708   0.555   1.954   5.533 -0.4987 -2.0424 -2.1336
 7083SOL    HW232709   0.499   2.085   5.526  2.5029  0.5393 -1.0143
 7084SOL     OW32710   1.573   3.414  14.450  0.1787 -0.3048 -0.0021
 7084SOL    HW132711   1.647   3.355  14.466  0.1595  0.3820  2.5265
 7084SOL    HW232712   1.540   3.380  14.366  1.8054  0.0758 -0.7947
 7085SOL     OW32713   4.008   0.878   7.227 -0.1219  0.1128  0.2429
 7085SOL    HW132714   3.989   0.916   7.313 -1.6724 -2.0759  0.8606
 7085SOL    HW232715   4.014   0.952   7.168 -1.2560  0.2848  0.3566
 7086SOL     OW32716   0.459   0.791   8.073 -0.3308 -0.3831  0.4140
 7086SOL    HW132717   0.430   0.861   8.015 -0.2677  1.9503  3.1848
 7086SOL    HW232718   0.440   0.829   8.159  4.0804 -0.1402  1.2584
 7087SOL     OW32719   3.912   1.554   6.116 -0.3326 -0.0783 -0.1668
 7087SOL    HW132720   3.871   1.595   6.192 -0.2683  1.5281 -0.9836
 7087SOL    HW232721   3.895   1.461   6.128 -1.1200  0.2895  1.5260
 7088SOL     OW32722   2.171   2.736   3.711 -0.1259  0.6448 -0.4035
 7088SOL    HW132723   2.170   2.722   3.616  1.6539 -0.6288 -0.2334
 7088SOL    HW232724   2.106   2.670   3.736  0.1953 -0.2052 -1.7585
 7089SOL     OW32725   2.413   2.635   3.848 -0.5543 -0.6357  0.4347
 7089SOL    HW132726   2.363   2.681   3.781  4.2154  1.5654 -1.6080
 7089SOL    HW232727   2.472   2.701   3.883  0.9807 -0.6446 -2.1369
 7090SOL     OW32728   1.579   4.486   6.847 -0.6168  0.0384 -0.1277
 7090SOL    HW132729   1.509   4.422   6.860 -1.2366  1.0566  1.6221
 7090SOL    HW232730   1.650   4.438   6.805  1.6091  1.5998  1.8406
 7091SOL     OW32731   2.722   3.423   3.443  0.6937  0.0039 -0.0905
 7091SOL    HW132732   2.735   3.338   3.485 -0.2500 -0.0579  0.0791
 7091SOL    HW232733   2.660   3.402   3.373  2.2544  1.2384 -1.7981
 7092SOL     OW32734   0.130   3.336   2.020  0.0696  0.3088 -0.2594
 7092SOL    HW132735   0.151   3.375   2.105 -0.9716 -1.6177  0.8806
 7092SOL    HW232736   0.113   3.248   2.053 -2.0163  1.4665  1.7382
 7093SOL     OW32737   3.763   1.122   1.246  0.3118 -0.4020 -0.6757
 7093SOL    HW132738   3.726   1.145   1.331 -1.4651 -0.3235 -1.4622
 7093SOL    HW232739   3.791   1.213   1.231 -0.9975 -0.1319 -1.5128
 7094SOL     OW32740   3.562   2.205  16.267 -0.3084  0.3552 -0.0883
 7094SOL    HW132741   3.499   2.276  16.262 -1.2792 -0.5575 -0.7766
 7094SOL    HW232742   3.555   2.159  16.183 -1.1445 -3.0624  1.8635
 7095SOL     OW32743   3.207   0.809  10.334  0.0530 -0.2643  0.0990
 7095SOL    HW132744   3.282   0.832  10.279  1.1415  0.2841  1.8404
 7095SOL    HW232745   3.135   0.815  10.270  2.1835 -2.2033 -2.4984
 7096SOL     OW32746   3.939   0.230   6.094  0.3989  0.1606 -0.2822
 7096SOL    HW132747   3.864   0.193   6.048  0.7790  0.8430 -1.4494
 7096SOL    HW232748   3.976   0.291   6.031  2.3001 -0.3953  0.2777
 7097SOL     OW32749   4.200   0.969   6.135  0.2061  0.3718 -0.1643
 7097SOL    HW132750   4.110   0.940   6.151  0.0611  0.6029 -0.5550
 7097SOL    HW232751   4.233   0.902   6.195  0.7651 -1.2517 -2.2437
 7098SOL     OW32752   0.351   4.689   7.567 -0.6333 -0.0102  0.4886
 7098SOL    HW132753   0.272   0.015   7.586  0.3824  1.1810  1.5530
 7098SOL    HW232754   0.406   4.713   7.641  1.8813 -1.4391 -0.8963
 7099SOL     OW32755   2.107   1.989  14.894 -0.5977  0.4916 -0.2543
 7099SOL    HW132756   2.199   1.969  14.910 -0.5128  1.3624  0.3801
 7099SOL    HW232757   2.067   1.992  14.981  0.0326  0.1534  0.0465
 7100SOL     OW32758   1.159   0.065   8.550  0.0561  0.1056  0.0310
 7100SOL    HW132759   1.132   0.062   8.642  3.0576  0.9105  0.9410
 7100SOL    HW232760   1.252   0.043   8.558 -0.5733 -2.0481  1.2877
 7101SOL     OW32761   4.474   0.906  12.714 -0.4651  0.3515 -0.1954
 7101SOL    HW132762   4.450   0.884  12.625 -1.1037  2.9322 -0.6794
 7101SOL    HW232763   4.438   0.995  12.710  1.6826  1.2387 -0.0026
 7102SOL     OW32764   3.945   2.058   7.612 -0.0422 -0.0875  0.1408
 7102SOL    HW132765   4.031   2.101   7.610 -0.7876  1.3898  0.0052
 7102SOL    HW232766   3.889   2.134   7.623  0.3709  0.2748 -0.2527
 7103SOL     OW32767   1.275   1.012   2.270 -0.7199 -0.2977  0.3005
 7103SOL    HW132768   1.250   0.986   2.359  0.7164  0.1367  0.8316
 7103SOL    HW232769   1.190   1.046   2.240 -1.0389 -1.1509  0.2193
 7104SOL     OW32770   0.114   3.953  12.307 -0.3646  0.1491 -0.0970
 7104SOL    HW132771   0.175   3.890  12.267  0.3737  0.2748  0.8450
 7104SOL    HW232772   0.065   3.894  12.365 -0.2588  0.4298  0.2771
 7105SOL     OW32773   0.445   0.559   1.958 -0.1630 -0.4151  0.1979
 7105SOL    HW132774   0.456   0.638   1.906 -1.3478  0.4382  1.2615
 7105SOL    HW232775   0.382   0.509   1.906  0.1450 -2.3472  1.6841
 7106SOL     OW32776   0.030   2.628   0.467  0.0623 -0.0260  0.3134
 7106SOL    HW132777   0.099   2.684   0.502  0.6276 -0.3351 -0.3088
 7106SOL    HW232778   0.083   2.550   0.448 -1.1214 -0.5790 -0.7618
 7107SOL     OW32779   2.264   1.072  11.782  0.6515 -0.6609 -0.3248
 7107SOL    HW132780   2.227   1.072  11.694 -0.5021 -0.2385  0.1651
 7107SOL    HW232781   2.282   1.166  11.785 -2.6466 -0.0996  1.9005
 7108SOL     OW32782   4.049   0.283   4.067 -0.3819  0.8538 -0.0605
 7108SOL    HW132783   3.976   0.340   4.041 -0.8616  0.4523  0.4149
 7108SOL    HW232784   3.998   0.216   4.112 -0.9016  1.5996  0.4774
 7109SOL     OW32785   4.351   1.609   6.207 -0.2808  0.1731  0.6365
 7109SOL    HW132786   4.390   1.526   6.179 -0.4619  0.6921 -1.1279
 7109SOL    HW232787   4.363   1.668   6.133  1.3991 -1.0694 -0.0673
 7110SOL     OW32788   2.371   3.125   2.815  0.6119  0.3585  0.2037
 7110SOL    HW132789   2.399   3.122   2.906  2.2895  0.4284 -0.3204
 7110SOL    HW232790   2.428   3.191   2.776 -0.5794  0.2124 -1.8120
 7111SOL     OW32791   0.904   3.819   1.528  0.2368 -0.1514  0.4266
 7111SOL    HW132792   0.815   3.836   1.499  0.7728  1.1569 -0.4718
 7111SOL    HW232793   0.944   3.906   1.530  0.2178 -0.1124 -0.7731
 7112SOL     OW32794   1.842   2.671   0.156 -0.4567 -0.6431 -0.3375
 7112SOL    HW132795   1.764   2.621   0.135  1.0338 -2.2430 -2.0654
 7112SOL    HW232796   1.829   2.752   0.107 -1.9194 -0.2376  0.7385
 7113SOL     OW32797   2.398   2.726   0.703 -0.3195 -0.4838 -0.3799
 7113SOL    HW132798   2.405   2.685   0.789 -0.0335  1.8205  0.6954
 7113SOL    HW232799   2.330   2.793   0.717 -0.3193 -0.7809  1.0620
 7114SOL     OW32800   1.902   0.028   4.560  0.2868 -0.2499 -0.2214
 7114SOL    HW132801   1.996   0.016   4.573 -0.3002 -2.2113  2.0083
 7114SOL    HW232802   1.882   0.117   4.588  1.7430 -0.3226  1.0374
 7115SOL     OW32803   1.672   0.082   4.042  0.3021  0.6703  0.0064
 7115SOL    HW132804   1.749   0.030   4.066  1.8400  4.3103  2.9929
 7115SOL    HW232805   1.656   0.140   4.116  1.2783  0.6140  0.2631
 7116SOL     OW32806   0.484   2.279   4.828  0.5891  0.2327 -0.3000
 7116SOL    HW132807   0.551   2.309   4.889  0.0432 -1.8351  1.3114
 7116SOL    HW232808   0.541   2.222   4.775 -0.3682  0.0525 -1.1440
 7117SOL     OW32809   0.737   0.231   3.649  0.3386  0.3212  0.5311
 7117SOL    HW132810   0.711   0.205   3.561  1.2728 -0.4811  0.5000
 7117SOL    HW232811   0.795   0.159   3.676 -0.9265 -0.7522  0.3703
 7118SOL     OW32812   2.097   2.242   9.829 -0.2708 -0.1915 -0.3456
 7118SOL    HW132813   2.020   2.189   9.853 -0.4358 -0.6672 -1.9157
 7118SOL    HW232814   2.169   2.179   9.833 -0.4629 -0.5392 -2.2696
 7119SOL     OW32815   3.369   3.105   2.730  0.3054 -0.3749 -0.3869
 7119SOL    HW132816   3.421   3.096   2.650  1.2857  1.1821  0.0745
 7119SOL    HW232817   3.399   3.182   2.778 -0.2109 -1.4791  1.6749
 7120SOL     OW32818   2.637   4.468   9.676 -0.2173  0.3886  0.3886
 7120SOL    HW132819   2.673   4.462   9.588  1.4073 -0.6357  1.1320
 7120SOL    HW232820   2.716   4.441   9.723 -0.4450 -1.4851 -0.3306
 7121SOL     OW32821   0.286   2.913  11.282 -0.0420  0.0067 -0.4845
 7121SOL    HW132822   0.283   2.892  11.375  0.3082 -1.4161 -0.7805
 7121SOL    HW232823   0.221   2.982  11.293 -0.1696  0.3247 -3.1789
 7122SOL     OW32824   3.918   0.696   6.819  0.2233  0.5033 -0.0815
 7122SOL    HW132825   3.916   0.683   6.914 -1.2490  1.0444 -0.0265
 7122SOL    HW232826   3.824   0.701   6.800  0.5486  3.3834 -0.8591
 7123SOL     OW32827   0.157   1.476  10.054  0.0922 -0.0302 -0.3345
 7123SOL    HW132828   0.084   1.458  10.113  1.3783  0.7277  1.5101
 7123SOL    HW232829   0.133   1.434   9.971  0.7119  2.3709 -1.7458
 7124SOL     OW32830   3.358   2.558   7.277  1.0078 -1.0288 -0.2380
 7124SOL    HW132831   3.389   2.520   7.195  2.0671  1.8955 -1.1843
 7124SOL    HW232832   3.334   2.645   7.246 -0.4501 -1.5182 -0.4635
 7125SOL     OW32833   1.307   0.274  15.854 -0.0428  0.3004  0.5811
 7125SOL    HW132834   1.352   0.265  15.770 -0.6392  1.6927  0.1199
 7125SOL    HW232835   1.252   0.347  15.829 -0.9621 -1.1239 -1.4923
 7126SOL     OW32836   0.870   1.309   1.601  0.2466 -0.6434 -0.3307
 7126SOL    HW132837   0.943   1.311   1.539 -0.4981  0.2182 -1.1843
 7126SOL    HW232838   0.824   1.390   1.581 -2.7943 -1.8942  1.7242
 7127SOL     OW32839   2.985   0.234   3.169  0.7596 -0.3526 -0.2087
 7127SOL    HW132840   2.995   0.259   3.261  0.1544 -0.1157 -0.2076
 7127SOL    HW232841   2.938   0.303   3.123  0.2916  1.2349  2.6583
 7128SOL     OW32842   2.361   4.072   3.818  0.0255 -0.0373  0.2961
 7128SOL    HW132843   2.435   4.030   3.861 -0.5023 -0.8492  0.3974
 7128SOL    HW232844   2.413   4.142   3.777 -0.3971  1.0223  1.5404
 7129SOL     OW32845   1.110   2.086   4.085 -0.5619 -0.6116  0.0686
 7129SOL    HW132846   1.152   2.130   4.011 -0.6472 -0.5775  0.0400
 7129SOL    HW232847   1.044   2.034   4.039  0.6784 -2.1141  0.0348
 7130SOL     OW32848   1.695   0.316   7.743 -0.6455 -0.1722  0.2021
 7130SOL    HW132849   1.769   0.271   7.702  1.2997  1.1446  2.2615
 7130SOL    HW232850   1.700   0.400   7.699  0.2805 -0.9017 -1.0916
 7131SOL     OW32851   0.488   3.884   7.169  0.0701 -0.1439  0.1064
 7131SOL    HW132852   0.429   3.812   7.190  1.1163 -1.4076 -1.2553
 7131SOL    HW232853   0.441   3.966   7.184  0.8116  0.4099 -0.5853
 7132SOL     OW32854   1.182   3.314   6.991 -0.0343  0.1047 -0.1105
 7132SOL    HW132855   1.125   3.388   6.970  1.2393  0.9017 -0.6988
 7132SOL    HW232856   1.153   3.253   6.923  0.1643  0.8619 -0.8718
 7133SOL     OW32857   0.052   3.517  12.544  0.2010 -0.2230  0.6279
 7133SOL    HW132858   0.067   3.601  12.586 -0.2807 -0.7544  1.8364
 7133SOL    HW232859   0.137   3.502  12.503  0.4646  0.9198  0.7541
 7134SOL     OW32860   3.687   2.956   2.930  0.3551  0.3961  0.2883
 7134SOL    HW132861   3.655   2.966   3.020  0.8240  0.5628  0.4334
 7134SOL    HW232862   3.622   2.904   2.882 -0.2347  1.5395 -0.1811
 7135SOL     OW32863   2.041   1.428   5.180  0.3513  0.5930 -0.3614
 7135SOL    HW132864   2.098   1.478   5.238  1.1328 -0.7996  0.0859
 7135SOL    HW232865   2.044   1.338   5.212 -1.2489  1.2194  1.4856
 7136SOL     OW32866   3.577   0.624   7.346  0.1780  0.2752 -0.5659
 7136SOL    HW132867   3.543   0.555   7.289 -1.7084 -0.1233  1.0008
 7136SOL    HW232868   3.509   0.623   7.414  1.6209 -2.7860  0.8263
 7137SOL     OW32869   4.607   0.744  13.776  0.0661  0.4382 -0.5417
 7137SOL    HW132870   4.518   0.754  13.810  0.4157  0.1857  0.4716
 7137SOL    HW232871   4.603   0.759  13.682  3.8516  1.5961 -0.5329
 7138SOL     OW32872   1.407   1.992   3.078 -0.0650  0.1877  0.5342
 7138SOL    HW132873   1.423   2.044   3.157 -0.3935  3.0227 -1.2776
 7138SOL    HW232874   1.336   2.035   3.030  0.7046  1.0878  0.1881
 7139SOL     OW32875   1.248   0.508   9.401  0.6430  0.0156 -0.3145
 7139SOL    HW132876   1.266   0.526   9.308 -0.9189 -2.7483 -1.1676
 7139SOL    HW232877   1.336   0.475   9.417 -0.9248 -3.0092  2.1834
 7140SOL     OW32878   1.131   0.330  14.779  0.6534 -0.1338 -0.6765
 7140SOL    HW132879   1.048   0.313  14.733 -1.5349 -0.0715  3.2146
 7140SOL    HW232880   1.189   0.359  14.708  2.7239 -0.3562  0.9402
 7141SOL     OW32881   2.931   2.952   4.980  0.1994 -0.0735 -0.1576
 7141SOL    HW132882   3.023   2.971   4.962  0.5951  1.4374  3.3751
 7141SOL    HW232883   2.912   3.004   5.058  0.9561  0.3076 -0.2229
 7142SOL     OW32884   2.767   3.512   7.670  0.3678 -0.3001 -0.1466
 7142SOL    HW132885   2.682   3.477   7.645  1.1121 -1.4179 -1.0850
 7142SOL    HW232886   2.759   3.601   7.634  0.9823  0.6007  1.9549
 7143SOL     OW32887   4.476   4.414  14.963  0.3262 -0.2670  0.7313
 7143SOL    HW132888   4.382   4.396  14.970 -0.2170  2.4905  0.6470
 7143SOL    HW232889   4.489   4.459  15.047 -0.6113  0.8508  0.2766
 7144SOL     OW32890   2.997   2.143  12.241  0.2109  0.1940  0.1696
 7144SOL    HW132891   2.911   2.162  12.279  0.2200  1.0872 -0.2519
 7144SOL    HW232892   2.988   2.190  12.158  0.0098 -0.8345 -0.3781
 7145SOL     OW32893   3.729   2.379   7.182 -0.0777 -0.0320  0.3490
 7145SOL    HW132894   3.679   2.299   7.162  1.1785 -0.4202 -1.2573
 7145SOL    HW232895   3.780   2.339   7.252  1.1090 -0.3554 -0.7050
 7146SOL     OW32896   1.593   0.517   1.861  0.1809 -0.9723  0.2432
 7146SOL    HW132897   1.619   0.442   1.914 -0.4101 -2.4602 -1.5726
 7146SOL    HW232898   1.534   0.483   1.793 -0.2586  1.4505 -0.5833
 7147SOL     OW32899   3.088   1.818   4.145 -0.1387  0.0857 -0.0017
 7147SOL    HW132900   3.028   1.892   4.141 -0.1030  0.0995 -0.3190
 7147SOL    HW232901   3.164   1.857   4.101 -0.7474  1.0847 -0.1469
 7148SOL     OW32902   4.668   4.281   5.950 -0.3747 -0.4042  0.3010
 7148SOL    HW132903   4.684   4.363   5.996  1.2340  0.2092 -1.3817
 7148SOL    HW232904   4.711   4.220   6.010  0.7415 -0.6379 -0.7304
 7149SOL     OW32905   1.196   3.281   2.087  0.2122 -0.1534 -0.8543
 7149SOL    HW132906   1.138   3.358   2.081 -1.3131 -1.1545  1.1852
 7149SOL    HW232907   1.194   3.250   1.996  0.2028 -3.2964  0.2498
 7150SOL     OW32908   1.056   3.717   2.198  0.7664 -1.0441  0.4472
 7150SOL    HW132909   1.106   3.772   2.137 -2.0062  0.0465 -0.8486
 7150SOL    HW232910   1.038   3.778   2.269  0.2873 -1.4825  0.6968
 7151SOL     OW32911   4.547   2.890   3.062  0.7358  0.6363 -0.1865
 7151SOL    HW132912   4.536   2.976   3.023  0.9149  0.4973 -0.5381
 7151SOL    HW232913   4.468   2.844   3.032  1.7401 -0.1171 -1.6438
 7152SOL     OW32914   2.403   3.307  15.694 -0.3013  0.1732  0.6991
 7152SOL    HW132915   2.422   3.353  15.612  0.4662  0.6386  1.1449
 7152SOL    HW232916   2.452   3.226  15.679  2.8190  1.9383  1.3723
 7153SOL     OW32917   0.615   2.297   3.798 -0.6432  0.0139  0.0850
 7153SOL    HW132918   0.532   2.336   3.827 -0.1987 -0.1401  1.5724
 7153SOL    HW232919   0.596   2.277   3.707 -0.9267  0.5811  0.0152
 7154SOL     OW32920   2.885   3.440   2.924  0.3979 -0.0895 -0.1787
 7154SOL    HW132921   2.874   3.353   2.884 -0.8693 -0.6178  1.3201
 7154SOL    HW232922   2.980   3.444   2.911  0.5684  1.0516  1.4861
 7155SOL     OW32923   1.129   1.598   7.245 -0.0076 -0.1799  0.9312
 7155SOL    HW132924   1.188   1.636   7.180 -2.7456 -0.4452 -1.6745
 7155SOL    HW232925   1.091   1.674   7.287 -1.7881 -0.5208 -0.0980
 7156SOL     OW32926   1.599   2.549   8.299  0.4275 -0.0993  0.9959
 7156SOL    HW132927   1.540   2.610   8.254 -0.8169 -1.9014  0.2012
 7156SOL    HW232928   1.662   2.613   8.333  1.1379 -0.0857 -0.3200
 7157SOL     OW32929   3.140   2.388   7.333 -0.1608  0.1647 -0.1761
 7157SOL    HW132930   3.196   2.311   7.319  1.2269  0.9356  1.1780
 7157SOL    HW232931   3.202   2.461   7.330  0.4958 -0.4645 -2.2949
 7158SOL     OW32932   4.553   0.515   6.866 -0.2008  0.0447 -0.3446
 7158SOL    HW132933   4.551   0.597   6.914 -0.5542 -0.1360 -0.0495
 7158SOL    HW232934   4.613   0.465   6.922 -1.7365 -0.3182  0.9855
 7159SOL     OW32935   2.344   2.971   6.107  0.1900 -0.0583  0.2099
 7159SOL    HW132936   2.398   3.048   6.087 -1.4300  1.2991  1.0197
 7159SOL    HW232937   2.350   2.941   6.017 -0.2743  1.3851 -0.2968
 7160SOL     OW32938   2.884   4.236   0.230 -0.1979  0.6069 -0.4645
 7160SOL    HW132939   2.854   4.153   0.269  1.9860 -0.4237 -1.0063
 7160SOL    HW232940   2.840   4.253   0.147  0.8600 -0.0866 -1.1626
 7161SOL     OW32941   0.093   2.928  12.331 -0.4063 -0.0923 -0.3974
 7161SOL    HW132942   0.075   2.902  12.421 -1.8779  2.3546  0.0262
 7161SOL    HW232943   0.150   2.857  12.301  1.7450  1.2891  0.4099
 7162SOL     OW32944   3.402   1.913  16.542  0.1834  0.1425 -0.2095
 7162SOL    HW132945   3.430   1.886  16.629 -1.6949  1.9444  0.9412
 7162SOL    HW232946   3.441   1.846  16.486 -2.5101 -1.8076  0.2400
 7163SOL     OW32947   0.806   4.525   8.637 -0.2562  0.4583  0.2559
 7163SOL    HW132948   0.896   4.558   8.642 -0.1671  0.1050  0.8982
 7163SOL    HW232949   0.811   4.439   8.594 -0.4313 -0.0831  1.3199
 7164SOL     OW32950   3.716   2.951   5.181 -0.3287  0.6892  0.0121
 7164SOL    HW132951   3.743   2.862   5.206 -0.8414  0.2410 -1.0368
 7164SOL    HW232952   3.714   2.940   5.086  1.6723 -0.6352  0.1299
 7165SOL     OW32953   2.816   4.362  15.902 -0.1945  0.4103 -0.0002
 7165SOL    HW132954   2.728   4.390  15.878  0.4668  2.5510  0.0828
 7165SOL    HW232955   2.866   4.436  15.867  0.9684 -0.4444 -0.1520
 7166SOL     OW32956   4.439   3.899   5.421 -0.0389 -0.3019 -0.3006
 7166SOL    HW132957   4.363   3.956   5.418  0.3711  0.2547 -0.0909
 7166SOL    HW232958   4.408   3.838   5.488 -0.0802  2.7637  2.4451
 7167SOL     OW32959   0.553   2.689  12.772  0.1432 -0.1305  0.0835
 7167SOL    HW132960   0.584   2.614  12.721  0.3252  0.2405 -0.3595
 7167SOL    HW232961   0.482   2.709  12.711 -0.3256 -1.8817  0.0778
 7168SOL     OW32962   4.445   2.996  15.736 -0.5416  0.4087 -0.6346
 7168SOL    HW132963   4.524   3.041  15.706  0.2656 -0.1227  0.7067
 7168SOL    HW232964   4.439   3.033  15.824 -0.4899  2.9606 -1.7010
 7169SOL     OW32965   2.460   1.374   8.606  0.5133  0.2444  0.7679
 7169SOL    HW132966   2.454   1.286   8.568 -0.5503  1.0466 -0.9254
 7169SOL    HW232967   2.431   1.428   8.532 -3.7958  0.5957  2.6929
 7170SOL     OW32968   0.707   2.752   2.969  0.2767  0.0707 -0.1889
 7170SOL    HW132969   0.718   2.769   2.875 -0.9000  1.9911  0.0266
 7170SOL    HW232970   0.665   2.831   3.000  2.0846  0.2743  1.7283
 7171SOL     OW32971   1.126   2.053  11.491 -0.6989  0.0600 -0.3654
 7171SOL    HW132972   1.100   1.968  11.457  1.2159  0.2406 -2.2778
 7171SOL    HW232973   1.049   2.074  11.543 -0.4769  3.2973 -1.3470
 7172SOL     OW32974   3.559   3.453   6.498 -0.3362 -0.0805  0.5576
 7172SOL    HW132975   3.593   3.479   6.584  2.1604  0.4463 -0.5999
 7172SOL    HW232976   3.629   3.486   6.442 -0.5838  1.1647  0.9628
 7173SOL     OW32977   2.525   3.726  16.171  0.1862  0.1124  0.1973
 7173SOL    HW132978   2.587   3.792  16.139  0.2253 -0.3254 -0.6299
 7173SOL    HW232979   2.475   3.699  16.094  2.0824  0.3582 -1.1334
 7174SOL     OW32980   3.585   1.733   8.697  0.7105 -0.0373  0.7468
 7174SOL    HW132981   3.492   1.752   8.710  0.7919  0.3003  0.8568
 7174SOL    HW232982   3.573   1.643   8.667 -0.3125  0.3017  0.1430
 7175SOL     OW32983   0.313   2.359   3.675 -0.3953 -0.2512 -0.5284
 7175SOL    HW132984   0.295   2.374   3.582 -0.9226  0.0560 -0.3750
 7175SOL    HW232985   0.369   2.284   3.654  0.3782  0.4089 -0.8014
 7176SOL     OW32986   4.039   1.381  11.514  0.0794  0.1069 -0.0759
 7176SOL    HW132987   3.961   1.399  11.461  0.3798  1.7770  0.0519
 7176SOL    HW232988   4.103   1.412  11.451 -1.2970 -0.0673 -1.5740
 7177SOL     OW32989   4.196   1.101   6.954 -0.2481 -0.0784  0.1884
 7177SOL    HW132990   4.125   1.138   7.006 -0.4659 -0.4773  0.1761
 7177SOL    HW232991   4.222   1.177   6.901  0.1060 -0.9019 -0.8175
 7178SOL     OW32992   1.624   3.942   2.842  0.7542  0.4267  0.0630
 7178SOL    HW132993   1.578   3.858   2.831  1.2404  0.2051 -0.2412
 7178SOL    HW232994   1.679   3.951   2.765 -0.6726  0.4585 -0.9591
 7179SOL     OW32995   3.969   3.551   9.991  0.1427  0.3209 -0.2646
 7179SOL    HW132996   4.021   3.540   9.912 -1.3041  0.3767 -1.2238
 7179SOL    HW232997   4.035   3.536  10.059 -0.5816  1.1601  0.6355
 7180SOL     OW32998   0.189   4.218   2.979 -0.6415  0.3437 -0.5048
 7180SOL    HW132999   0.223   4.276   3.046 -3.1743 -1.1401  2.0819
 7180SOL    HW233000   0.213   4.262   2.897 -0.8501  1.1317 -0.1386
 7181SOL     OW33001   0.870   2.520  14.910  0.1438  0.2199  0.1432
 7181SOL    HW133002   0.782   2.555  14.902  1.0026  2.2295 -0.4005
 7181SOL    HW233003   0.921   2.571  14.848  0.4236  0.5723  0.6552
 7182SOL     OW33004   1.546   0.059   1.351  0.4688  0.1982  0.5217
 7182SOL    HW133005   1.463   0.033   1.391 -0.1361  1.2282 -0.0714
 7182SOL    HW233006   1.614   0.001   1.385  2.4334  1.9645 -0.3783
 7183SOL     OW33007   2.892   0.607   0.278 -0.4166  0.4502  0.0114
 7183SOL    HW133008   2.963   0.575   0.223  0.3653  1.0283  0.6912
 7183SOL    HW233009   2.939   0.649   0.350 -1.4988  1.4414  0.1454
 7184SOL     OW33010   1.982   4.551   6.071  0.4271 -0.0963  0.4823
 7184SOL    HW133011   1.923   4.501   6.128  0.6273  0.8625  1.5282
 7184SOL    HW233012   2.068   4.534   6.108 -0.0124 -1.3893  0.9216
 7185SOL     OW33013   3.911   3.234   9.590 -0.5506  0.0313 -0.4904
 7185SOL    HW133014   3.834   3.225   9.647 -0.2871  0.6260 -0.0379
 7185SOL    HW233015   3.981   3.205   9.649  0.6328  0.3802 -1.7217
 7186SOL     OW33016   2.806   3.056   3.231 -0.5175 -0.1721  0.3609
 7186SOL    HW133017   2.794   3.150   3.235  2.1172  0.1976 -0.3673
 7186SOL    HW233018   2.879   3.051   3.170  0.3013 -0.1367  1.3383
 7187SOL     OW33019   1.313   2.786   5.450  0.4533 -0.1121  0.3540
 7187SOL    HW133020   1.330   2.860   5.392 -0.2041 -0.3302 -0.1138
 7187SOL    HW233021   1.399   2.779   5.492 -0.6878 -0.3645  2.6810
 7188SOL     OW33022   0.571   2.301   4.348 -0.1217 -0.2011  0.1228
 7188SOL    HW133023   0.493   2.334   4.392  0.9192  2.8706 -0.3189
 7188SOL    HW233024   0.617   2.382   4.326 -1.0950  0.3654  0.2063
 7189SOL     OW33025   2.074   1.900   5.933  0.7116 -0.1257  0.1678
 7189SOL    HW133026   1.991   1.893   5.979  0.9690 -0.4983  0.5731
 7189SOL    HW233027   2.036   1.940   5.854 -0.9654 -0.8730  0.5981
 7190SOL     OW33028   2.151   4.058   7.565  0.6726  0.2776 -0.3218
 7190SOL    HW133029   2.219   4.115   7.531 -0.0104  0.8597 -0.7133
 7190SOL    HW233030   2.181   4.051   7.656  0.3274 -1.5386 -0.3468
 7191SOL     OW33031   1.416   0.207  14.633  0.6610  0.2342 -0.0023
 7191SOL    HW133032   1.396   0.298  14.609  1.2466  0.3878  0.1032
 7191SOL    HW233033   1.361   0.155  14.573 -1.5126  0.1431  2.0615
 7192SOL     OW33034   0.338   0.177   3.985 -0.1552 -0.0067  0.1648
 7192SOL    HW133035   0.423   0.219   4.002 -0.3556  1.3070 -2.1507
 7192SOL    HW233036   0.343   0.121   4.063 -0.1989  0.3242  0.4109
 7193SOL     OW33037   1.593   0.799   5.722 -0.0824  0.4956 -0.1133
 7193SOL    HW133038   1.555   0.720   5.683 -0.1728  1.3129 -1.6757
 7193SOL    HW233039   1.519   0.858   5.706  0.7863  1.9844  1.3489
 7194SOL     OW33040   2.851   0.903   6.145  1.1655  0.1143  0.3130
 7194SOL    HW133041   2.907   0.826   6.131  0.1249 -0.0823 -2.7677
 7194SOL    HW233042   2.917   0.966   6.174  0.5941  1.0583 -0.4810
 7195SOL     OW33043   3.152   2.119  13.883  0.0402 -0.2027  0.2771
 7195SOL    HW133044   3.155   2.052  13.815  2.0422  1.3052 -1.1229
 7195SOL    HW233045   3.147   2.202  13.835  0.4683  0.2688  1.0356
 7196SOL     OW33046   2.711   2.751  12.967  0.0155 -0.0774 -0.6624
 7196SOL    HW133047   2.799   2.747  12.929  0.2379  0.3409 -0.1948
 7196SOL    HW233048   2.693   2.657  12.960 -1.8829  0.1367  1.2811
 7197SOL     OW33049   2.644   0.656  15.849 -0.3229 -0.6862  0.7483
 7197SOL    HW133050   2.608   0.702  15.773  1.6010  1.8889  1.3668
 7197SOL    HW233051   2.600   0.572  15.852  0.8179 -1.2683  1.2070
 7198SOL     OW33052   2.646   3.112   5.616 -0.6549 -0.8484  0.1178
 7198SOL    HW133053   2.643   3.033   5.670  3.0175 -0.7900  0.3651
 7198SOL    HW233054   2.599   3.175   5.671  0.7902  2.1589 -2.1131
 7199SOL     OW33055   0.866   2.462   7.261  0.0431  0.6704  0.2875
 7199SOL    HW133056   0.844   2.555   7.268 -0.6641  0.6152 -1.3377
 7199SOL    HW233057   0.908   2.452   7.347 -0.4671 -0.4385  0.4051
 7200SOL     OW33058   3.614   2.798  13.396  0.2219  0.1038 -0.3829
 7200SOL    HW133059   3.587   2.865  13.334  2.0127  2.1230  0.9992
 7200SOL    HW233060   3.706   2.821  13.409  0.3393 -0.2124 -0.6829
 7201SOL     OW33061   3.623   3.554  11.222  0.8069 -0.0090 -0.1422
 7201SOL    HW133062   3.528   3.566  11.221  0.8880  0.6644  0.6410
 7201SOL    HW233063   3.664   3.593  11.299  0.0164 -1.8545  1.1852
 7202SOL     OW33064   4.473   1.751   5.126  0.4529 -0.0147  0.6440
 7202SOL    HW133065   4.400   1.705   5.084  2.4885 -2.6371 -0.0399
 7202SOL    HW233066   4.441   1.756   5.215  1.4205 -1.6429  1.0819
 7203SOL     OW33067   1.121   0.690  10.983  0.1413 -0.7488  0.5897
 7203SOL    HW133068   1.034   0.651  10.974 -0.5632  0.9029  0.2395
 7203SOL    HW233069   1.171   0.652  10.910 -2.2662 -0.9972 -0.9195
 7204SOL     OW33070   2.162   0.230   3.096 -0.7556  0.1163 -0.1248
 7204SOL    HW133071   2.142   0.159   3.035 -0.0848 -1.7755  1.8812
 7204SOL    HW233072   2.237   0.261   3.045  0.8906 -0.2501  2.1083
 7205SOL     OW33073   4.092   4.238   3.467 -0.5199  0.3247 -0.1576
 7205SOL    HW133074   4.153   4.186   3.520 -1.0942 -1.2804 -1.0621
 7205SOL    HW233075   4.011   4.245   3.517 -0.7767 -1.6768 -0.2881
 7206SOL     OW33076   1.713   1.643   4.961 -0.2077  0.5031  0.1626
 7206SOL    HW133077   1.681   1.554   4.948 -2.3012  1.1776  0.5918
 7206SOL    HW233078   1.731   1.678   4.874  0.7152 -1.0134 -0.2441
 7207SOL     OW33079   1.937   3.112  13.701  0.0369 -0.0622  0.3252
 7207SOL    HW133080   1.959   3.022  13.725  0.9805 -0.1123 -0.7399
 7207SOL    HW233081   1.853   3.097  13.657 -0.1835 -2.6549  1.6656
 7208SOL     OW33082   4.443   2.585   6.304 -0.1056  0.0282  0.5489
 7208SOL    HW133083   4.378   2.524   6.340 -0.1908  0.9099  1.9017
 7208SOL    HW233084   4.442   2.564   6.211  0.4719 -0.5880  0.6781
 7209SOL     OW33085   3.664   1.653   5.052 -0.0584  0.3923  0.2778
 7209SOL    HW133086   3.606   1.632   4.979 -2.2883 -0.1744  2.1979
 7209SOL    HW233087   3.607   1.646   5.129 -0.3854  1.0993  0.0969
 7210SOL     OW33088   2.214   1.429  15.952  0.1794 -0.1895  0.5971
 7210SOL    HW133089   2.307   1.442  15.933  0.3529 -0.7793  1.0508
 7210SOL    HW233090   2.212   1.333  15.957  2.2837 -0.1989  1.3259
 7211SOL     OW33091   0.734   2.966  13.996 -0.1564 -0.0737 -0.5168
 7211SOL    HW133092   0.676   2.940  14.067  0.3934 -0.4155 -0.1952
 7211SOL    HW233093   0.705   3.057  14.003  3.8288  1.0661  1.4156
 7212SOL     OW33094   2.826   0.077   2.559  0.0633 -0.5338 -0.5718
 7212SOL    HW133095   2.741   0.058   2.519 -0.2593 -1.3353  0.4836
 7212SOL    HW233096   2.881   0.028   2.499  0.9280  0.5399 -0.6621
 7213SOL     OW33097   1.671   3.711   1.068 -0.4075 -0.1111  0.4128
 7213SOL    HW133098   1.750   3.766   1.058  0.1490 -0.5543  2.3932
 7213SOL    HW233099   1.701   3.621   1.056 -0.5201 -0.0919  0.0081
 7214SOL     OW33100   2.658   3.952   2.532 -0.3027  0.2105 -0.3385
 7214SOL    HW133101   2.722   3.906   2.586  1.1131  0.4315 -1.8253
 7214SOL    HW233102   2.604   3.888   2.486  0.1249  1.1205 -2.1179
 7215SOL     OW33103   2.891   4.153   8.275 -0.2620 -0.3336 -0.2074
 7215SOL    HW133104   2.819   4.094   8.294 -0.0589  0.5377  3.2446
 7215SOL    HW233105   2.916   4.182   8.363 -1.0893 -0.5452  0.0946
 7216SOL     OW33106   1.629   0.956  15.323 -0.6658 -0.2884  0.5718
 7216SOL    HW133107   1.654   0.949  15.415 -2.3173  0.9604  1.1257
 7216SOL    HW233108   1.542   0.917  15.323 -0.9118  0.2521 -0.3898
 7217SOL     OW33109   0.419   1.513   0.266 -0.0591  0.0966  0.1897
 7217SOL    HW133110   0.432   1.420   0.287 -1.2851 -0.5955 -2.2414
 7217SOL    HW233111   0.480   1.556   0.327 -1.2306 -1.2992  2.3307
 7218SOL     OW33112   4.542   3.801   1.580 -0.1124  0.1524 -0.0835
 7218SOL    HW133113   4.619   3.846   1.614  1.0911 -1.3511 -0.7651
 7218SOL    HW233114   4.506   3.856   1.510 -1.0035  1.2499  1.2575
 7219SOL     OW33115   3.547   2.767   2.457  0.2871 -0.6125  0.1532
 7219SOL    HW133116   3.494   2.803   2.387 -0.2484 -1.9274 -0.1119
 7219SOL    HW233117   3.613   2.833   2.480 -1.2258  0.8483  0.2652
 7220SOL     OW33118   4.344   2.030   2.974 -0.2925 -0.2560 -0.3824
 7220SOL    HW133119   4.318   2.122   2.985  0.5375 -0.1697  0.7479
 7220SOL    HW233120   4.259   1.997   2.945 -0.9888  1.7773 -0.6877
 7221SOL     OW33121   2.011   3.753   2.374 -0.0068 -0.5701 -0.3544
 7221SOL    HW133122   2.098   3.761   2.413 -1.2758  0.2520  2.3634
 7221SOL    HW233123   1.994   3.835   2.328 -1.0572  0.9495  2.7832
 7222SOL     OW33124   1.825   1.977  11.762 -0.2278  0.5119 -0.5037
 7222SOL    HW133125   1.885   1.917  11.719  1.8007 -0.1703  3.2217
 7222SOL    HW233126   1.820   1.945  11.853  1.2983 -0.0804 -0.6254
 7223SOL     OW33127   1.679   2.022   6.312  0.4751 -0.3324 -0.0054
 7223SOL    HW133128   1.644   2.110   6.299 -1.7194 -0.7525  2.9605
 7223SOL    HW233129   1.625   1.968   6.254 -0.3884  1.3720 -0.7702
 7224SOL     OW33130   0.682   3.447   5.843 -0.0766 -0.7770 -0.2523
 7224SOL    HW133131   0.632   3.371   5.812 -1.3359 -0.1383  0.2099
 7224SOL    HW233132   0.622   3.520   5.825  0.1633 -1.2488 -2.8752
 7225SOL     OW33133   2.851   3.164   9.439 -0.0544 -0.1986 -0.0854
 7225SOL    HW133134   2.887   3.151   9.527 -1.2039  0.8904  0.5522
 7225SOL    HW233135   2.775   3.220   9.455  0.1764 -0.0280  0.4140
 7226SOL     OW33136   3.656   3.957  12.213 -0.1676  0.7394 -0.4265
 7226SOL    HW133137   3.668   4.047  12.242  2.0339  0.9305 -1.9321
 7226SOL    HW233138   3.675   3.903  12.289 -3.1405  0.8491  0.4027
 7227SOL     OW33139   3.856   3.137   4.155  0.1362  0.6502  0.7303
 7227SOL    HW133140   3.948   3.155   4.135 -0.3992  1.6620 -0.8295
 7227SOL    HW233141   3.816   3.222   4.137  1.0762  0.4026 -2.5237
 7228SOL     OW33142   0.215   0.661  14.903 -0.2554  0.3625  0.0991
 7228SOL    HW133143   0.203   0.641  14.811  1.1276  0.8621 -0.1959
 7228SOL    HW233144   0.309   0.677  14.914 -0.8041  2.7829  1.2950
 7229SOL     OW33145   0.619   0.866   2.499  0.0471  0.2127 -0.1489
 7229SOL    HW133146   0.695   0.823   2.461 -0.0784 -1.3068  1.2997
 7229SOL    HW233147   0.614   0.814   2.579  1.5639  0.1105 -0.1064
 7230SOL     OW33148   4.587   4.010   9.828 -0.2646 -0.1999 -0.6256
 7230SOL    HW133149   4.525   4.080   9.806 -0.9655 -0.2747  1.1175
 7230SOL    HW233150   4.639   4.007   9.747  1.0540 -1.8947  0.2965
 7231SOL     OW33151   0.870   1.746   9.402 -0.9890  0.3330  0.0495
 7231SOL    HW133152   0.886   1.833   9.439  1.6961 -0.4214  0.6774
 7231SOL    HW233153   0.846   1.693   9.478  1.2127 -0.1502  0.4119
 7232SOL     OW33154   1.212   4.293  15.229  0.3178  0.0458  0.3668
 7232SOL    HW133155   1.134   4.263  15.277  0.9631  0.2884  1.5627
 7232SOL    HW233156   1.168   4.311  15.146  1.1658  0.2970 -0.0204
 7233SOL     OW33157   4.491   1.187  13.156  0.0647 -0.4618  0.3299
 7233SOL    HW133158   4.575   1.182  13.110 -0.5088 -0.1772 -0.7507
 7233SOL    HW233159   4.454   1.103  13.131 -0.5897  0.0096 -0.3084
 7234SOL     OW33160   0.468   3.820  10.244  0.2715 -0.2062  0.4924
 7234SOL    HW133161   0.414   3.876  10.300 -2.6134 -1.0900 -1.4613
 7234SOL    HW233162   0.492   3.739  10.290  0.4339 -0.1030  0.5927
 7235SOL     OW33163   4.347   1.618   7.302 -0.2199  0.3817  0.1694
 7235SOL    HW133164   4.310   1.706   7.302 -0.6245  0.2090 -2.2702
 7235SOL    HW233165   4.403   1.630   7.225 -1.7789  0.1308 -0.9946
 7236SOL     OW33166   1.069   2.714   4.426  0.0056 -0.0591  0.4677
 7236SOL    HW133167   1.039   2.795   4.469  0.6129  1.3050 -1.6552
 7236SOL    HW233168   1.159   2.747   4.418 -0.7706  2.2712  1.2694
 7237SOL     OW33169   1.177   3.444  17.005  0.1165 -1.0356 -0.2855
 7237SOL    HW133170   1.258   3.405  17.038  1.0162  1.0854  0.0600
 7237SOL    HW233171   1.190   3.535  17.033 -2.5286 -0.1515 -1.9153
 7238SOL     OW33172   2.282   1.360   8.820  0.2872  0.6605  0.0634
 7238SOL    HW133173   2.338   1.368   8.743  0.1561  0.8113 -0.0156
 7238SOL    HW233174   2.222   1.434   8.824  2.8087  2.6094  2.5225
 7239SOL     OW33175   2.078   0.404  10.563  0.3867  0.0174 -0.0433
 7239SOL    HW133176   2.003   0.461  10.547  1.1335  1.1227  0.3690
 7239SOL    HW233177   2.129   0.464  10.619 -1.4413 -1.5665  3.3230
 7240SOL     OW33178   2.666   4.353   5.541  0.0780  0.4982 -0.3387
 7240SOL    HW133179   2.588   4.409   5.540  0.7192  1.4092  0.8905
 7240SOL    HW233180   2.662   4.297   5.463 -1.5287  0.9558 -0.5975
 7241SOL     OW33181   0.372   0.863   6.509 -0.2198 -0.4710  0.2639
 7241SOL    HW133182   0.417   0.898   6.586  0.5594 -0.3214 -0.2625
 7241SOL    HW233183   0.281   0.848   6.534 -1.1267  4.8326  0.0844
 7242SOL     OW33184   4.390   2.877   7.748  0.3291 -0.4968 -0.3313
 7242SOL    HW133185   4.362   2.827   7.824 -0.8616 -0.2654 -0.6158
 7242SOL    HW233186   4.427   2.952   7.796 -3.0666 -0.4197  2.1611
 7243SOL     OW33187   0.604   1.477  10.403  0.3081  0.8092  0.2308
 7243SOL    HW133188   0.679   1.536  10.394  0.7232  0.2655  0.0973
 7243SOL    HW233189   0.588   1.493  10.496 -0.6605 -2.0058  0.5406
 7244SOL     OW33190   1.151   4.193   2.348 -0.3000  0.1492  0.4244
 7244SOL    HW133191   1.131   4.270   2.294 -1.0901 -1.8363 -2.0936
 7244SOL    HW233192   1.081   4.200   2.414 -0.2201 -1.6736  0.7021
 7245SOL     OW33193   0.156   1.735   7.087  0.2020 -0.2895  0.5655
 7245SOL    HW133194   0.091   1.728   7.158  2.0742 -0.6152  2.2410
 7245SOL    HW233195   0.223   1.790   7.127  1.0899  0.1548 -1.5491
 7246SOL     OW33196   2.920   3.136   5.177  0.0179  0.0901  0.2719
 7246SOL    HW133197   2.869   3.199   5.125 -0.6768  1.3690  2.5183
 7246SOL    HW233198   2.867   3.130   5.256  1.7628 -0.2686  1.4077
 7247SOL     OW33199   0.154   0.279   3.554  0.3005  0.3799 -0.0424
 7247SOL    HW133200   0.167   0.243   3.642  0.9800  0.9585  0.0951
 7247SOL    HW233201   0.161   0.194   3.509 -0.0093  0.8223 -0.9085
 7248SOL     OW33202   1.510   2.965   3.574 -0.5698  0.2710 -0.3461
 7248SOL    HW133203   1.601   2.958   3.604 -1.3763  0.7527  2.1657
 7248SOL    HW233204   1.525   2.970   3.479  1.1246 -1.0484 -0.1622
 7249SOL     OW33205   2.965   1.072   6.333  0.1348  0.3432  0.0560
 7249SOL    HW133206   3.028   1.010   6.369 -0.3297 -0.5131 -0.6132
 7249SOL    HW233207   2.948   1.127   6.410 -0.4498  1.0127 -0.5622
 7250SOL     OW33208   1.213   2.946   3.083 -0.7253  0.5822  0.2320
 7250SOL    HW133209   1.308   2.940   3.068 -0.9438 -0.8086 -0.6108
 7250SOL    HW233210   1.188   2.863   3.042  0.6159  0.8071 -1.0507
 7251SOL     OW33211   0.556   2.556   4.226 -0.2481 -0.4972  0.4969
 7251SOL    HW133212   0.501   2.605   4.287 -1.3643  0.4069 -1.2422
 7251SOL    HW233213   0.521   2.587   4.143  1.9343 -1.4606 -0.7919
 7252SOL     OW33214   1.443   4.326   8.094 -0.4089  0.2581 -0.0446
 7252SOL    HW133215   1.419   4.234   8.106  0.5263  0.1004  0.6778
 7252SOL    HW233216   1.395   4.343   8.014  1.2066 -0.0896 -1.0896
 7253SOL     OW33217   1.021   4.600   8.948 -0.5590  0.1952 -0.3621
 7253SOL    HW133218   0.930   4.623   8.929 -0.7415  0.1169  0.4171
 7253SOL    HW233219   1.001   4.571   9.037  1.5825 -2.2144 -0.6708
 7254SOL     OW33220   3.500   1.869   3.836 -0.2651 -0.4728 -0.0644
 7254SOL    HW133221   3.572   1.914   3.880 -0.3212 -0.9803  0.5431
 7254SOL    HW233222   3.424   1.924   3.853 -0.9694 -0.5818 -2.8729
 7255SOL     OW33223   0.728   2.465  15.261  0.6494  0.1299 -0.5840
 7255SOL    HW133224   0.649   2.441  15.212  1.7622 -0.1892 -2.1924
 7255SOL    HW233225   0.757   2.387  15.308 -0.8615  0.0591  0.2559
 7256SOL     OW33226   1.199   3.356   8.301  0.0670 -0.2982  0.4221
 7256SOL    HW133227   1.190   3.404   8.383  0.2905  2.2013 -1.0177
 7256SOL    HW233228   1.178   3.265   8.320 -1.0602 -0.8928 -3.5563
 7257SOL     OW33229   2.950   3.703  14.075  0.0135 -0.3218  0.4023
 7257SOL    HW133230   3.001   3.758  14.016  0.3939 -1.5003 -0.3631
 7257SOL    HW233231   2.903   3.763  14.133 -1.0001  0.9413 -1.6830
 7258SOL     OW33232   4.453   4.673   3.911  0.0227 -0.8128 -0.2001
 7258SOL    HW133233   4.373   4.710   3.950 -0.7431 -1.5150 -1.0884
 7258SOL    HW233234   4.500   0.025   3.876 -0.1903 -1.3216 -1.5969
 7259SOL     OW33235   1.747   1.928   3.362 -0.3534 -0.4564 -0.1237
 7259SOL    HW133236   1.780   1.849   3.404 -0.3155  1.0363  2.6981
 7259SOL    HW233237   1.679   1.952   3.425  0.8007  1.6833  0.3305
 7260SOL     OW33238   0.090   1.059   6.273  0.2905  0.2846 -0.0799
 7260SOL    HW133239   0.026   1.085   6.338  0.1101  0.0759 -0.1724
 7260SOL    HW233240   0.160   1.118   6.299 -0.0721  0.9660 -0.6518
 7261SOL     OW33241   1.527   1.140   2.840  0.3477  0.1379 -0.2901
 7261SOL    HW133242   1.507   1.217   2.786  0.1993  0.0443 -0.3698
 7261SOL    HW233243   1.443   1.094   2.837  0.5934 -0.3591  0.5736
 7262SOL     OW33244   2.655   3.010  13.065  0.1528  0.3181  0.4094
 7262SOL    HW133245   2.686   2.922  13.043  0.4685  1.1291 -2.3121
 7262SOL    HW233246   2.729   3.053  13.108  1.0958  0.2547 -1.1456
 7263SOL     OW33247   4.452   3.947   4.646 -0.2776  0.2872  0.5252
 7263SOL    HW133248   4.421   4.037   4.638 -1.9150 -0.3768 -0.5584
 7263SOL    HW233249   4.370   3.898   4.652 -1.9528  2.7350 -2.3139
 7264SOL     OW33250   3.722   3.861   8.819  0.3641 -0.3538 -0.2810
 7264SOL    HW133251   3.796   3.868   8.879  0.6431 -2.0771 -0.4156
 7264SOL    HW233252   3.676   3.942   8.839  0.4424 -0.1465 -0.9414
 7265SOL     OW33253   3.609   1.223   7.637  0.7723 -0.4785 -0.0904
 7265SOL    HW133254   3.658   1.240   7.718 -2.5133  1.4833  1.4854
 7265SOL    HW233255   3.560   1.143   7.658  0.9194 -0.5848 -0.1557
 7266SOL     OW33256   3.036   2.444   7.072 -0.3320 -0.3848  0.3114
 7266SOL    HW133257   3.076   2.416   7.154  0.9964  0.4926 -0.0455
 7266SOL    HW233258   3.056   2.536   7.087  2.1611 -1.0630  1.1623
 7267SOL     OW33259   3.330   0.722   4.742 -0.4156  0.4617  0.0133
 7267SOL    HW133260   3.303   0.730   4.833 -1.5158 -0.8060 -0.2154
 7267SOL    HW233261   3.416   0.680   4.749 -0.4348  0.8203  2.4184
 7268SOL     OW33262   1.882   4.627   3.606  0.1071  0.2123  0.2670
 7268SOL    HW133263   1.799   4.660   3.641  0.5044  1.7199 -0.2049
 7268SOL    HW233264   1.911   4.577   3.682 -2.5922 -0.3077  0.9786
 7269SOL     OW33265   1.333   2.961   4.990 -0.0534  0.5700  0.0318
 7269SOL    HW133266   1.423   2.976   4.961 -0.3506  2.1297 -0.0752
 7269SOL    HW233267   1.283   2.976   4.910 -0.0930  2.2723  0.3747
 7270SOL     OW33268   4.273   1.890   8.126  0.3887 -0.9807  0.1545
 7270SOL    HW133269   4.279   1.908   8.219  1.1644 -0.0356 -0.0772
 7270SOL    HW233270   4.366   1.883   8.105  0.4344 -0.1264  0.0559
 7271SOL     OW33271   2.710   3.224   4.140 -0.0473 -0.2923  0.1802
 7271SOL    HW133272   2.762   3.263   4.211 -0.7215 -1.4350  1.2867
 7271SOL    HW233273   2.677   3.142   4.175  0.1792 -1.1878 -1.7327
 7272SOL     OW33274   2.886   1.986  11.115  0.2882 -0.6989  0.7137
 7272SOL    HW133275   2.801   1.981  11.071  0.4473 -0.1417  0.3467
 7272SOL    HW233276   2.916   1.896  11.126 -2.2847 -1.4655  1.6141
 7273SOL     OW33277   4.408   1.797   0.200  0.0901  0.0219  0.1291
 7273SOL    HW133278   4.435   1.877   0.246  0.2207 -0.8111  1.5143
 7273SOL    HW233279   4.466   1.731   0.237  1.5548  0.4695 -1.4067
 7274SOL     OW33280   3.397   1.533   8.928 -0.5109 -0.5426 -0.4776
 7274SOL    HW133281   3.314   1.578   8.910 -0.2935 -0.0200 -0.1638
 7274SOL    HW233282   3.401   1.505   8.836  1.4660 -3.0743  0.3858
 7275SOL     OW33283   4.123   2.194  15.732 -0.5637 -0.5255  0.3184
 7275SOL    HW133284   4.200   2.233  15.775 -2.7633  3.2188  0.8856
 7275SOL    HW233285   4.070   2.181  15.811 -0.2459 -1.3826  0.3839
 7276SOL     OW33286   1.974   2.350   2.712  0.1150 -0.3215 -0.8066
 7276SOL    HW133287   2.018   2.319   2.791  1.9712 -0.1162 -1.7671
 7276SOL    HW233288   2.042   2.403   2.671 -1.9151  0.9727 -2.5593
 7277SOL     OW33289   3.145   2.379  17.611  0.3248  0.6953  0.0911
 7277SOL    HW133290   3.139   2.468  17.577  2.0996  1.5461  1.9757
 7277SOL    HW233291   3.099   2.392  17.694 -0.8048  1.4024 -0.6560
 7278SOL     OW33292   3.271   2.663   6.169  0.1953 -0.3271 -0.0505
 7278SOL    HW133293   3.219   2.710   6.234 -0.5411 -0.1796 -0.7485
 7278SOL    HW233294   3.319   2.732   6.123 -1.8126  1.6618  0.8536
 7279SOL     OW33295   3.696   3.173   8.178 -0.8200  0.2584  0.0288
 7279SOL    HW133296   3.695   3.185   8.083  2.7739 -1.2119 -0.1892
 7279SOL    HW233297   3.772   3.228   8.198 -1.4574  1.0009  0.4520
 7280SOL     OW33298   0.575   0.551   8.267  0.1064  0.0833  0.4696
 7280SOL    HW133299   0.565   0.593   8.352 -0.5946 -3.0983  1.9445
 7280SOL    HW233300   0.627   0.476   8.294  0.7627  0.6948  0.8873
 7281SOL     OW33301   4.717   4.326   8.539  0.4566  0.4058 -0.2828
 7281SOL    HW133302   4.622   4.320   8.545  0.5099 -0.0958  0.0417
 7281SOL    HW233303   0.015   4.330   8.632 -3.2012  0.3599  0.5693
 7282SOL     OW33304   3.429   3.205   6.501 -0.5259  0.1885 -0.0389
 7282SOL    HW133305   3.366   3.235   6.435  0.4845 -1.5837 -1.8016
 7282SOL    HW233306   3.499   3.271   6.496  1.1746 -1.5471  0.9376
 7283SOL     OW33307   3.255   1.782  11.178  0.1093 -0.7656 -0.0456
 7283SOL    HW133308   3.273   1.711  11.239 -0.6443 -2.5793 -1.9655
 7283SOL    HW233309   3.163   1.766  11.156 -0.0453 -1.2790  0.9598
 7284SOL     OW33310   3.356   0.809   9.109  0.3628 -0.6961  0.2194
 7284SOL    HW133311   3.443   0.770   9.118  1.6511  2.2319  0.2652
 7284SOL    HW233312   3.330   0.813   9.202 -2.7891  3.5511 -0.8501
 7285SOL     OW33313   2.220   3.101  13.317 -0.2090  0.1106  0.5500
 7285SOL    HW133314   2.152   3.051  13.270 -0.1762  1.4651 -0.9272
 7285SOL    HW233315   2.158   3.138  13.379  0.3554  0.1766  1.0679
 7286SOL     OW33316   3.792   3.825  15.227 -0.6961  0.8573  0.4205
 7286SOL    HW133317   3.828   3.809  15.315  1.2278 -2.0064 -0.9011
 7286SOL    HW233318   3.845   3.765  15.174 -4.6972 -1.8680 -0.4781
 7287SOL     OW33319   0.243   1.916   7.325  0.1226  1.4158  0.2728
 7287SOL    HW133320   0.246   2.004   7.361 -2.3922  2.2215 -1.4921
 7287SOL    HW233321   0.148   1.901   7.324  0.3690 -0.3195  2.0846
 7288SOL     OW33322   3.452   4.439  15.842 -0.6748  0.1965 -0.3631
 7288SOL    HW133323   3.427   4.488  15.921  0.5241 -1.2045  0.8863
 7288SOL    HW233324   3.399   4.488  15.779 -0.9488  0.3407 -0.0185
 7289SOL     OW33325   4.577   0.527   4.364 -0.3259  0.1562  0.0701
 7289SOL    HW133326   4.535   0.612   4.379 -0.5804 -0.5368  3.2550
 7289SOL    HW233327   4.645   0.556   4.303  1.4550  1.8494  2.8726
 7290SOL     OW33328   2.022   1.038   4.587 -0.0709 -0.3750 -0.6650
 7290SOL    HW133329   1.992   0.967   4.643  2.8261 -0.1055  1.2162
 7290SOL    HW233330   2.100   1.070   4.632 -2.3041 -0.0387  2.9639
 7291SOL     OW33331   4.705   4.184   4.944 -0.3376 -0.2086  0.0878
 7291SOL    HW133332   0.058   4.219   4.900  0.1528 -0.4978  0.7016
 7291SOL    HW233333   4.707   4.092   4.917 -0.1696 -0.5167  1.1383
 7292SOL     OW33334   3.577   2.978   6.587  0.4735 -0.1390 -0.2174
 7292SOL    HW133335   3.527   3.053   6.554  0.7097  0.2887  0.4058
 7292SOL    HW233336   3.652   3.024   6.624 -0.6594  1.7881 -0.3088
 7293SOL     OW33337   3.065   0.503  14.202  0.1332  0.4146  0.2512
 7293SOL    HW133338   3.131   0.434  14.213 -0.5393 -0.1323  0.8949
 7293SOL    HW233339   3.025   0.512  14.288  0.3953 -0.4579  0.4712
 7294SOL     OW33340   2.506   3.773  10.630 -0.1698  0.1010 -0.3302
 7294SOL    HW133341   2.562   3.695  10.630 -1.5137 -0.8426 -1.6507
 7294SOL    HW233342   2.525   3.828  10.555  2.8939 -0.5921 -0.0624
 7295SOL     OW33343   3.656   0.006   9.661  0.9452  0.6958 -0.1833
 7295SOL    HW133344   3.705   0.032   9.739 -0.0487 -2.1451  1.3670
 7295SOL    HW233345   3.645   0.090   9.615  0.7590 -1.0856 -3.4103
 7296SOL     OW33346   4.463   2.456   7.066  0.3787  0.2422  0.1462
 7296SOL    HW133347   4.447   2.544   7.101 -1.8255  0.4054 -1.2610
 7296SOL    HW233348   4.551   2.442   7.101  0.8820 -0.4071 -1.3558
 7297SOL     OW33349   2.763   2.670   0.902 -0.3271 -0.1932  0.5187
 7297SOL    HW133350   2.828   2.642   0.967  2.7669 -1.2550 -3.0780
 7297SOL    HW233351   2.796   2.621   0.827  1.8378 -0.0014  1.3749
 7298SOL     OW33352   2.826   0.083  10.807 -0.0556 -0.3100 -0.0206
 7298SOL    HW133353   2.794   0.126  10.887 -0.2380 -0.1982 -0.1525
 7298SOL    HW233354   2.771   0.005  10.808  0.8770 -0.9725 -0.6056
 7299SOL     OW33355   1.059   4.284  14.997 -0.0979 -0.3251 -0.0535
 7299SOL    HW133356   0.968   4.254  15.003  0.1088 -0.5116  2.0250
 7299SOL    HW233357   1.041   4.368  14.956 -0.9207 -0.4578  0.0381
 7300SOL     OW33358   4.190   4.186   2.345  0.2649  0.0402  0.1034
 7300SOL    HW133359   4.128   4.165   2.415  0.9039  1.0763  0.9724
 7300SOL    HW233360   4.262   4.227   2.394  0.8424  0.1848 -0.8617
 7301SOL     OW33361   0.144   2.429   0.780  0.2256  0.1468 -0.4485
 7301SOL    HW133362   0.144   2.335   0.801  1.9884  0.4288  0.8187
 7301SOL    HW233363   0.053   2.444   0.803  0.6644  1.1383  0.6284
 7302SOL     OW33364   3.945   4.174   8.241 -0.4095 -0.4301  0.1112
 7302SOL    HW133365   3.918   4.092   8.283  1.6297 -1.0576  0.2024
 7302SOL    HW233366   3.867   4.225   8.223  0.1467  0.3939  0.0438
 7303SOL     OW33367   3.581   3.675   9.824 -0.0833  0.0543 -0.2414
 7303SOL    HW133368   3.512   3.640   9.880  0.3882 -0.0415  0.2840
 7303SOL    HW233369   3.522   3.724   9.767 -2.1628 -2.3209 -0.1480
 7304SOL     OW33370   2.533   3.561   7.927  0.4112 -0.3183  0.3631
 7304SOL    HW133371   2.597   3.491   7.916 -0.0453 -0.5976 -0.5381
 7304SOL    HW233372   2.562   3.602   8.008 -1.9711  1.9395  0.0665
 7305SOL     OW33373   2.510   0.111  13.971 -0.1273  0.0906  0.2143
 7305SOL    HW133374   2.422   0.149  13.967  0.1121  0.6995  0.7287
 7305SOL    HW233375   2.561   0.192  13.975  0.3298 -0.0727 -2.1360
 7306SOL     OW33376   4.003   1.244   5.917  0.1358  0.6969 -0.3454
 7306SOL    HW133377   3.941   1.231   5.989  2.2224 -3.5160  0.7152
 7306SOL    HW233378   4.084   1.240   5.968  0.3940  2.3154 -0.6391
 7307SOL     OW33379   4.552   3.634  17.508  0.2004 -0.7439 -0.0771
 7307SOL    HW133380   4.499   3.660  17.432  1.0225  1.3827  0.0664
 7307SOL    HW233381   4.607   3.569  17.465  2.6463  0.3545  1.4264
 7308SOL     OW33382   1.139   2.243   2.465  0.0892 -0.1057 -0.1771
 7308SOL    HW133383   1.183   2.217   2.546  2.8562 -0.2332 -1.7277
 7308SOL    HW233384   1.116   2.333   2.487 -0.2544  0.3686 -2.5315
 7309SOL     OW33385   3.942   1.085   3.618 -0.0881  0.2129 -0.2522
 7309SOL    HW133386   4.005   1.055   3.683 -0.2938 -1.9737 -1.0443
 7309SOL    HW233387   3.992   1.108   3.540  1.1468 -0.3556  0.3768
 7310SOL     OW33388   3.707   2.511   7.716 -0.3661 -0.0100  0.0123
 7310SOL    HW133389   3.643   2.549   7.655  0.5347  0.8116 -0.4114
 7310SOL    HW233390   3.665   2.522   7.801 -0.5084 -2.4137  0.2654
 7311SOL     OW33391   4.572   2.081   1.195  0.2262 -0.0212 -0.0705
 7311SOL    HW133392   4.513   2.058   1.267  1.8873 -1.8021  0.7377
 7311SOL    HW233393   4.630   2.005   1.190  0.7389  0.2552  1.6981
 7312SOL     OW33394   1.356   1.204   4.042 -0.2789  0.0109 -0.3549
 7312SOL    HW133395   1.349   1.245   3.956  0.9839  0.6950 -0.1343
 7312SOL    HW233396   1.451   1.196   4.049  0.0626  1.9296 -2.9691
 7313SOL     OW33397   2.118   1.091  13.967 -0.0817 -0.3248  0.0865
 7313SOL    HW133398   2.141   1.176  13.929  1.8289 -1.9762 -2.4929
 7313SOL    HW233399   2.187   1.038  13.926 -1.6178 -2.8604  0.7752
 7314SOL     OW33400   2.579   1.878   2.376 -0.3412  0.3349  0.2760
 7314SOL    HW133401   2.499   1.826   2.386 -0.0653  0.0278  0.8670
 7314SOL    HW233402   2.544   1.962   2.346  1.4663  1.4372  1.2455
 7315SOL     OW33403   0.776   0.194   8.863  0.2241 -0.0263  0.5750
 7315SOL    HW133404   0.705   0.237   8.816  1.4543 -0.9332 -2.0982
 7315SOL    HW233405   0.750   0.102   8.858 -0.6437  0.2150  0.7090
 7316SOL     OW33406   4.656   0.851  16.282 -0.3247 -0.0257 -0.4373
 7316SOL    HW133407   4.612   0.788  16.339  2.7936 -3.1157 -1.4234
 7316SOL    HW233408   0.017   0.861  16.325 -0.0954  1.1454 -1.1468
 7317SOL     OW33409   2.208   2.375   4.975 -0.0680  0.0873 -0.3144
 7317SOL    HW133410   2.200   2.461   4.933 -2.0562  0.7957  1.4952
 7317SOL    HW233411   2.161   2.398   5.055  0.3320  0.1067 -0.0859
 7318SOL     OW33412   2.404   4.277   9.707 -0.3769  0.1788  0.2721
 7318SOL    HW133413   2.339   4.305   9.643 -0.8725  0.0594  0.7278
 7318SOL    HW233414   2.467   4.349   9.704 -0.1739  0.0133  0.4912
 7319SOL     OW33415   1.523   3.064   4.810  0.3120 -0.3248  0.1651
 7319SOL    HW133416   1.450   3.071   4.748 -0.2033 -0.7671  0.7158
 7319SOL    HW233417   1.598   3.109   4.770  0.1856 -0.0962  0.1854
 7320SOL     OW33418   1.393   2.142   3.614 -0.3778  0.5034 -0.3039
 7320SOL    HW133419   1.359   2.154   3.702 -3.9496 -2.8255 -1.2458
 7320SOL    HW233420   1.462   2.208   3.616  0.5102 -0.4265 -0.2465
 7321SOL     OW33421   1.267   4.697  16.580 -0.2519 -0.0688  0.5505
 7321SOL    HW133422   1.361   4.710  16.590 -0.2470  0.5580 -0.3179
 7321SOL    HW233423   1.243   4.617  16.627  1.2250 -0.2524  0.9713
 7322SOL     OW33424   4.519   3.290   0.004 -0.3728  0.1765 -0.0755
 7322SOL    HW133425   4.500   3.225   0.071  0.6605  0.4727  0.4959
 7322SOL    HW233426   4.440   3.343   0.021  0.7431  1.1707  1.9562
 7323SOL     OW33427   1.630   1.033   0.596 -0.3953 -0.3762 -0.1925
 7323SOL    HW133428   1.572   1.062   0.666 -0.6178  0.5936 -0.7717
 7323SOL    HW233429   1.591   0.946   0.585  0.7266 -0.5177 -2.9136
 7324SOL     OW33430   2.029   2.150  14.402  0.1472 -0.1676  0.1144
 7324SOL    HW133431   1.935   2.168  14.394  0.3034  0.2079 -0.8665
 7324SOL    HW233432   2.030   2.139  14.497  1.2681  0.8591  0.2209
 7325SOL     OW33433   4.419   1.677   3.769  0.4738 -0.2270 -0.1067
 7325SOL    HW133434   4.403   1.583   3.766  1.1616 -0.3499  0.1241
 7325SOL    HW233435   4.361   1.704   3.698 -0.4466 -0.1324  0.6725
 7326SOL     OW33436   4.109   3.220   1.035  0.7207  0.0487 -0.6875
 7326SOL    HW133437   4.162   3.248   1.110 -1.0768 -1.9473  1.3384
 7326SOL    HW233438   4.142   3.133   1.012  0.5807 -0.0629 -0.4677
 7327SOL     OW33439   2.051   4.580   1.124 -0.2997  0.0349  0.6259
 7327SOL    HW133440   2.125   4.641   1.114 -0.0448 -0.3670  0.0368
 7327SOL    HW233441   2.044   4.590   1.219 -2.9034 -2.8224  0.7508
 7328SOL     OW33442   0.590   1.687  11.893  0.0702 -0.2546 -0.5011
 7328SOL    HW133443   0.580   1.745  11.817 -0.2409 -1.4568 -1.3758
 7328SOL    HW233444   0.510   1.697  11.945 -0.2359  2.4239 -1.4467
 7329SOL     OW33445   2.524   1.484   0.398  0.4002 -0.7437 -0.5722
 7329SOL    HW133446   2.489   1.471   0.310  1.0524 -0.3211 -0.8884
 7329SOL    HW233447   2.531   1.394   0.431  1.1999 -0.0932  1.0038
 7330SOL     OW33448   2.758   4.659  14.912 -0.3503 -0.1906  0.2016
 7330SOL    HW133449   2.842   4.687  14.948 -0.2805 -0.5921  0.3556
 7330SOL    HW233450   2.779   4.565  14.909  1.6346  0.3009 -1.0839
 7331SOL     OW33451   3.680   4.371  15.569  0.1205 -0.3862  0.0097
 7331SOL    HW133452   3.730   4.390  15.489  1.5862 -3.8183  0.1243
 7331SOL    HW233453   3.591   4.379  15.535  0.4636  1.2246 -0.5451
 7332SOL     OW33454   3.062   2.013   5.439 -0.2165  0.1272 -0.0416
 7332SOL    HW133455   3.122   2.086   5.454 -1.4839  1.8053 -3.1845
 7332SOL    HW233456   3.002   2.064   5.386  0.9582  1.2969 -0.2532
 7333SOL     OW33457   4.555   2.341   0.313  0.0025 -0.3422  0.4120
 7333SOL    HW133458   4.561   2.424   0.361 -4.4882 -0.4249  1.1450
 7333SOL    HW233459   4.556   2.287   0.392 -1.8890  1.6952  1.8399
 7334SOL     OW33460   1.218   2.427   3.092 -0.0580 -0.4971 -0.2872
 7334SOL    HW133461   1.132   2.454   3.125 -0.3494  1.9097 -3.0699
 7334SOL    HW233462   1.261   2.404   3.175 -2.2811  2.2996  1.6352
 7335SOL     OW33463   0.415   3.418   0.083  0.0261 -0.0125  0.3942
 7335SOL    HW133464   0.460   3.388   0.162  0.0833  1.6000  0.9669
 7335SOL    HW233465   0.325   3.385   0.091  0.6603 -1.4230  1.6590
 7336SOL     OW33466   1.031   0.598   4.590  0.6037 -0.2035 -0.4662
 7336SOL    HW133467   0.966   0.668   4.594 -2.7706 -3.2321 -2.0424
 7336SOL    HW233468   1.026   0.568   4.499 -1.3586  1.6934 -0.9680
 7337SOL     OW33469   0.352   0.827  13.899  0.0121  0.1977  0.3256
 7337SOL    HW133470   0.267   0.868  13.882 -0.8079 -0.7424  2.1544
 7337SOL    HW233471   0.367   0.783  13.815 -1.6535 -0.1741  0.2304
 7338SOL     OW33472   2.549   1.408  16.490 -0.1288  0.3765 -0.0159
 7338SOL    HW133473   2.564   1.501  16.507 -2.6529  0.6134  0.9296
 7338SOL    HW233474   2.511   1.411  16.403 -0.1952  0.0410  0.0024
 7339SOL     OW33475   4.093   1.182  12.716  0.4146 -0.3028 -0.1939
 7339SOL    HW133476   4.040   1.159  12.640  0.7870  1.2285 -0.9168
 7339SOL    HW233477   4.059   1.260  12.759 -1.4858 -0.6126 -1.1662
 7340SOL     OW33478   1.802   1.160  15.166  1.1018  0.1747 -0.7078
 7340SOL    HW133479   1.730   1.097  15.178  1.3148  0.4444  2.0151
 7340SOL    HW233480   1.781   1.201  15.082 -1.9487 -0.5273 -0.2969
 7341SOL     OW33481   0.408   4.161  16.439  0.0437 -0.0939  0.0596
 7341SOL    HW133482   0.372   4.238  16.483  1.6424  0.2944  0.6999
 7341SOL    HW233483   0.435   4.105  16.512 -1.7140 -1.6865 -0.5145
 7342SOL     OW33484   4.167   1.352   8.501  0.1796 -0.5484  0.2389
 7342SOL    HW133485   4.178   1.415   8.572  0.1526 -0.0637 -0.1887
 7342SOL    HW233486   4.252   1.347   8.456 -0.7465  0.6610 -1.6588
 7343SOL     OW33487   4.147   2.096   8.876  0.3260  0.3430 -0.5146
 7343SOL    HW133488   4.185   2.176   8.841  1.0150  0.1576 -0.1955
 7343SOL    HW233489   4.205   2.037   8.829 -0.8630 -0.9002 -0.4481
 7344SOL     OW33490   3.651   3.090   5.933  0.1899 -0.0680  0.1048
 7344SOL    HW133491   3.631   3.078   6.026 -1.5456 -0.5090 -0.3357
 7344SOL    HW233492   3.572   3.128   5.895 -0.2302 -1.1524 -0.0982
 7345SOL     OW33493   0.175   1.357   1.072  0.7073 -0.0046 -0.2390
 7345SOL    HW133494   0.134   1.333   0.989  2.8395 -1.3982 -0.8896
 7345SOL    HW233495   0.264   1.361   1.037  0.6668 -2.9816 -0.6857
 7346SOL     OW33496   2.187   2.485  15.615 -0.0454 -0.1037 -0.4115
 7346SOL    HW133497   2.158   2.413  15.670  0.2422 -0.4291 -0.6883
 7346SOL    HW233498   2.138   2.561  15.648 -0.7711 -0.6917 -0.1517
 7347SOL     OW33499   1.667   0.431  17.438  0.6662 -0.1796 -0.3036
 7347SOL    HW133500   1.700   0.446  17.349 -0.6245 -0.0364 -0.7596
 7347SOL    HW233501   1.600   0.363  17.431  1.1401 -0.6499 -0.2286
 7348SOL     OW33502   0.726   4.601  11.024 -0.1506 -0.2724 -0.4653
 7348SOL    HW133503   0.639   4.570  10.998 -0.3327  0.4147 -0.6821
 7348SOL    HW233504   0.722   4.582  11.117 -0.9543  1.4407 -0.1349
 7349SOL     OW33505   1.253   2.171   8.426 -0.0878 -0.6093 -0.0192
 7349SOL    HW133506   1.342   2.206   8.422  0.0684 -0.7716  1.8301
 7349SOL    HW233507   1.210   2.238   8.373 -0.5179 -0.7605  0.1360
 7350SOL     OW33508   3.176   0.419   6.268 -0.0641 -0.0170  0.0815
 7350SOL    HW133509   3.104   0.357   6.277  1.6467 -2.3151 -1.9915
 7350SOL    HW233510   3.228   0.382   6.196 -1.8616 -0.7314 -0.8616
 7351SOL     OW33511   1.450   1.085   3.621  0.9891  0.2632  0.2556
 7351SOL    HW133512   1.395   1.049   3.551 -0.3831  0.9007  1.0019
 7351SOL    HW233513   1.533   1.083   3.574  1.6007  1.2780  1.2855
 7352SOL     OW33514   2.095   0.101   4.156  0.1390 -0.2952  0.4220
 7352SOL    HW133515   2.143   0.018   4.160  1.0818  0.2018 -0.3885
 7352SOL    HW233516   2.128   0.154   4.229 -1.5204  0.7746  0.3808
 7353SOL     OW33517   0.933   3.212  12.086  0.5647  0.2352 -0.3634
 7353SOL    HW133518   1.018   3.194  12.126  0.0059  0.0347  0.7232
 7353SOL    HW233519   0.932   3.171  11.999  1.1018 -2.1203  0.7543
 7354SOL     OW33520   3.622   2.917  10.418 -0.0693 -0.1009  0.4141
 7354SOL    HW133521   3.597   2.849  10.480  1.2433 -1.8223 -0.9433
 7354SOL    HW233522   3.536   2.940  10.384  0.5837  0.4064 -0.9026
 7355SOL     OW33523   3.592   0.047  13.850  0.2322  0.3925 -0.1870
 7355SOL    HW133524   3.501   0.020  13.858  0.4260 -0.8889 -2.3284
 7355SOL    HW233525   3.591   0.136  13.815 -0.5403  0.4753  0.0448
 7356SOL     OW33526   3.218   2.442   6.452  0.2942  0.4603  0.8967
 7356SOL    HW133527   3.302   2.487   6.442  0.4496 -0.2627 -1.0640
 7356SOL    HW233528   3.217   2.402   6.365 -0.5315 -1.9662  2.0161
 7357SOL     OW33529   1.246   3.911   1.081  0.4740  0.3752  0.5742
 7357SOL    HW133530   1.293   3.839   1.040  0.2507  1.0300 -0.8316
 7357SOL    HW233531   1.157   3.881   1.064  1.6612 -3.4199  1.0018
 7358SOL     OW33532   1.209   4.712   7.166  0.0460 -0.4705  0.6828
 7358SOL    HW133533   1.174   4.635   7.211 -2.9055  1.4413  1.6419
 7358SOL    HW233534   1.195   4.692   7.073  1.1135  0.5896  0.2867
 7359SOL     OW33535   1.974   2.731   8.380 -0.3767 -0.2299 -0.9243
 7359SOL    HW133536   1.897   2.789   8.372 -2.8558 -3.1231  1.8270
 7359SOL    HW233537   2.017   2.771   8.456 -1.2547 -1.6457  0.3352
 7360SOL     OW33538   4.210   0.784   0.807  0.3914 -0.6124  0.1088
 7360SOL    HW133539   4.161   0.864   0.825  0.6978 -0.4673  0.3047
 7360SOL    HW233540   4.235   0.797   0.715 -1.9835  0.0574 -0.4337
 7361SOL     OW33541   4.544   1.121   5.270 -0.1071  0.0907  0.7640
 7361SOL    HW133542   4.568   1.136   5.362  0.8233  1.7638  0.2379
 7361SOL    HW233543   4.481   1.190   5.250  0.4702  0.8803  1.6583
 7362SOL     OW33544   4.368   0.588  12.849 -0.2574 -0.2611 -0.6537
 7362SOL    HW133545   4.339   0.602  12.940 -1.1762  0.1432 -1.0121
 7362SOL    HW233546   4.287   0.609  12.803 -0.3579 -0.2687 -0.4804
 7363SOL     OW33547   0.088   2.033   9.612 -0.3847  0.5944 -0.1542
 7363SOL    HW133548   0.134   2.052   9.529  0.9103  0.5899  0.5571
 7363SOL    HW233549   0.138   2.078   9.680  0.5504 -0.1861 -0.3186
 7364SOL     OW33550   2.654   0.890   4.560  0.3009 -0.4221 -0.0042
 7364SOL    HW133551   2.646   0.797   4.535 -3.1501  0.2745 -1.4359
 7364SOL    HW233552   2.741   0.913   4.527  1.0013  0.8690  2.7810
 7365SOL     OW33553   2.071   4.140  12.831 -0.2986  0.1087 -0.8244
 7365SOL    HW133554   2.029   4.175  12.910  0.7544 -4.6572  1.8169
 7365SOL    HW233555   2.129   4.080  12.877  0.1204  1.2147  0.1102
 7366SOL     OW33556   1.649   0.384  16.533  0.2924  0.4457  0.1519
 7366SOL    HW133557   1.702   0.400  16.455  0.6127 -0.2311  0.2261
 7366SOL    HW233558   1.623   0.472  16.558 -2.6281 -0.7340  1.3440
 7367SOL     OW33559   3.278   2.396   4.259 -0.3219 -0.4174  0.7748
 7367SOL    HW133560   3.304   2.474   4.307 -1.6333  0.4980 -0.0174
 7367SOL    HW233561   3.202   2.421   4.207  1.3945 -2.4373 -2.7422
 7368SOL     OW33562   1.190   4.111   2.797 -0.2650 -0.4396  0.5674
 7368SOL    HW133563   1.279   4.146   2.790 -0.1678 -0.8403 -0.2139
 7368SOL    HW233564   1.141   4.190   2.818 -0.2278 -0.1558 -0.4355
 7369SOL     OW33565   1.904   0.345   5.103  0.1623 -0.3758  0.6503
 7369SOL    HW133566   1.825   0.395   5.084 -0.1412 -0.6387  1.2263
 7369SOL    HW233567   1.895   0.367   5.196 -0.1467  0.0194  0.5250
 7370SOL     OW33568   2.115   1.370   7.764 -0.3028 -0.1154 -0.3206
 7370SOL    HW133569   2.063   1.398   7.688  0.7565  0.0044 -1.0059
 7370SOL    HW233570   2.072   1.285   7.771 -2.3788  0.9726  0.1402
 7371SOL     OW33571   3.118   3.500   6.130 -0.2806 -0.2257  0.2988
 7371SOL    HW133572   3.180   3.564   6.164 -0.9796  0.5109  0.1867
 7371SOL    HW233573   3.054   3.519   6.198 -0.7954 -1.6973  0.2280
 7372SOL     OW33574   4.049   3.736  15.697  0.0011 -0.8577 -0.6371
 7372SOL    HW133575   4.054   3.832  15.694 -0.4892 -0.8811 -2.1332
 7372SOL    HW233576   4.011   3.720  15.784 -0.0694  2.5499 -0.0481
 7373SOL     OW33577   2.409   1.775   1.412 -0.1456  0.0644 -0.0796
 7373SOL    HW133578   2.460   1.735   1.341  0.2465  0.3502  0.0329
 7373SOL    HW233579   2.463   1.850   1.440 -0.8807  0.6938 -0.3581
 7374SOL     OW33580   2.446   2.110   6.653 -0.9168 -0.0095  0.3926
 7374SOL    HW133581   2.453   2.156   6.736  0.5938  0.3033  0.1029
 7374SOL    HW233582   2.352   2.094   6.649 -1.0144  0.3881  1.1922
 7375SOL     OW33583   4.645   0.597   8.941  0.1236  0.3850  0.5657
 7375SOL    HW133584   4.597   0.587   9.023  0.8342 -0.9105  0.8274
 7375SOL    HW233585   4.593   0.670   8.908 -1.7366 -1.7116 -1.1337
 7376SOL     OW33586   4.634   0.578   8.263  0.8082 -0.5250 -0.0038
 7376SOL    HW133587   4.618   0.607   8.352  1.1057 -0.2962 -0.0248
 7376SOL    HW233588   0.001   0.551   8.281  1.6392  0.3472 -2.9009
 7377SOL     OW33589   2.657   2.625   7.156  0.1519 -0.7390 -0.3656
 7377SOL    HW133590   2.710   2.685   7.104  1.8841 -0.5539  1.6007
 7377SOL    HW233591   2.710   2.546   7.170  0.5901 -0.8230 -2.5950
 7378SOL     OW33592   3.841   0.036   7.450  0.2991 -0.8203 -0.2924
 7378SOL    HW133593   3.906   0.096   7.488 -0.6373 -0.4154  0.6851
 7378SOL    HW233594   3.775   0.044   7.519 -0.1936  0.3929 -0.9035
 7379SOL     OW33595   0.343   1.944   0.439  0.5585 -0.7453  0.2457
 7379SOL    HW133596   0.305   2.029   0.461  2.4126 -0.2732  1.5393
 7379SOL    HW233597   0.394   1.951   0.358  0.6037  1.6456  0.4939
 7380SOL     OW33598   2.439   2.769   6.682 -0.0507 -0.3359 -0.1421
 7380SOL    HW133599   2.363   2.738   6.633 -0.1440  0.5493 -0.5585
 7380SOL    HW233600   2.509   2.774   6.617  0.7363 -0.4643  0.6992
 7381SOL     OW33601   0.002   1.948   2.505  0.0065 -0.3399  0.4500
 7381SOL    HW133602   4.658   1.928   2.569  1.0264 -1.7231  1.0994
 7381SOL    HW233603   0.083   1.961   2.555  0.4270  2.5927 -1.0152
 7382SOL     OW33604   3.486   1.775  12.648  0.9565  0.1202  0.3098
 7382SOL    HW133605   3.434   1.709  12.695  1.0052 -0.4511 -0.4416
 7382SOL    HW233606   3.555   1.784  12.714  1.2871  2.5539 -0.3848
 7383SOL     OW33607   3.670   2.829   3.216 -0.8403  0.4098  0.0310
 7383SOL    HW133608   3.665   2.738   3.245 -3.7884  0.4182 -0.4815
 7383SOL    HW233609   3.584   2.853   3.182 -0.6219  1.1003 -0.0266
 7384SOL     OW33610   1.594   2.334   5.728  0.0952 -0.1882  0.0359
 7384SOL    HW133611   1.639   2.276   5.667 -1.1355 -1.3447  0.2403
 7384SOL    HW233612   1.631   2.419   5.704 -1.1342  0.3053 -0.1002
 7385SOL     OW33613   2.465   2.336   5.282 -0.1503  0.4158  0.1497
 7385SOL    HW133614   2.555   2.361   5.302  0.1254 -1.1800  0.8644
 7385SOL    HW233615   2.437   2.326   5.373  0.1450 -0.3517  0.1522
 7386SOL     OW33616   4.088   2.943  10.824  0.1064  0.4318 -0.0093
 7386SOL    HW133617   4.124   2.918  10.908  2.1081 -0.8258 -1.2368
 7386SOL    HW233618   4.017   2.879  10.814 -1.1330  1.8799 -0.5457
 7387SOL     OW33619   3.735   3.086   0.110 -0.1354  0.2828 -0.1456
 7387SOL    HW133620   3.658   3.118   0.063 -0.0753  0.8973  0.1810
 7387SOL    HW233621   3.691   3.032   0.176 -1.0748  0.3987 -0.6710
 7388SOL     OW33622   4.454   0.286   7.041  0.2065  0.4370 -0.2927
 7388SOL    HW133623   4.416   0.347   7.104  0.7214  0.2110  0.2459
 7388SOL    HW233624   4.548   0.305   7.040  0.7172 -1.7950  2.8791
 7389SOL     OW33625   1.507   1.885  15.227  0.1913  0.3134 -0.1014
 7389SOL    HW133626   1.486   1.801  15.268 -0.7691  0.2337 -0.7478
 7389SOL    HW233627   1.482   1.949  15.293 -0.7951 -2.8486  2.6162
 7390SOL     OW33628   1.734   2.350  14.792  0.1987 -0.4554  0.2789
 7390SOL    HW133629   1.712   2.262  14.822  4.2422 -0.7162  2.3459
 7390SOL    HW233630   1.767   2.331  14.704 -0.3333 -0.4180  0.0666
 7391SOL     OW33631   0.100   0.110   9.033 -0.2377  0.3564  0.4318
 7391SOL    HW133632   0.171   0.135   9.092  0.5334  1.6067 -1.0360
 7391SOL    HW233633   0.055   0.054   9.096  1.1895 -0.9276  0.3111
 7392SOL     OW33634   2.112   1.687   2.848 -0.1011  0.5172 -0.4300
 7392SOL    HW133635   2.151   1.624   2.909  0.6240 -0.5426 -1.9993
 7392SOL    HW233636   2.069   1.757   2.897  4.0585  2.1777  0.7903
 7393SOL     OW33637   1.882   3.303   2.811  0.6211 -0.0643  0.5115
 7393SOL    HW133638   1.975   3.281   2.808  0.4857 -0.5712  0.1289
 7393SOL    HW233639   1.892   3.390   2.772 -0.5012 -0.1398  0.0375
 7394SOL     OW33640   0.425   3.246  16.696  0.2883 -0.2007 -0.0146
 7394SOL    HW133641   0.481   3.285  16.629  0.7511  0.5745  0.8179
 7394SOL    HW233642   0.404   3.318  16.756  1.7033  1.8277 -1.9369
 7395SOL     OW33643   3.853   3.443   2.286 -0.5849  0.1102 -0.1858
 7395SOL    HW133644   3.935   3.489   2.264 -1.0784  0.8011 -0.5865
 7395SOL    HW233645   3.792   3.482   2.223  0.7135  0.7952 -1.0245
 7396SOL     OW33646   3.466   2.498  13.990  0.2159 -0.0340  0.1807
 7396SOL    HW133647   3.561   2.504  13.991  0.3222 -1.2310 -2.0539
 7396SOL    HW233648   3.459   2.453  13.906 -1.7818 -1.3461  1.0506
 7397SOL     OW33649   3.840   2.750   0.002 -0.0090 -0.3078  0.1014
 7397SOL    HW133650   3.823   2.689   0.074 -1.4041  0.8313  0.7138
 7397SOL    HW233651   3.751   2.780  17.680  0.8953  1.7203 -0.9776
 7398SOL     OW33652   1.567   1.086   2.476 -0.6998 -0.0481  0.2226
 7398SOL    HW133653   1.492   1.144   2.465  0.1948  1.1545  0.3818
 7398SOL    HW233654   1.632   1.141   2.521 -0.5462 -0.3277  0.3409
 7399SOL     OW33655   3.991   0.993   1.203 -0.0012 -0.1790  0.4269
 7399SOL    HW133656   3.900   1.022   1.198  0.4916  1.0896 -1.2375
 7399SOL    HW233657   4.011   0.968   1.112 -2.1692  0.8504 -0.3291
 7400SOL     OW33658   1.905   2.545   4.638 -0.5344  0.5776  0.6379
 7400SOL    HW133659   1.891   2.570   4.729 -1.7629 -1.2976  0.9788
 7400SOL    HW233660   1.903   2.449   4.638  2.0749  0.5534  2.2904
 7401SOL     OW33661   3.926   3.693   2.914 -0.2676  0.0397  0.5240
 7401SOL    HW133662   3.918   3.753   2.839 -0.1598 -0.5197  0.0676
 7401SOL    HW233663   3.935   3.749   2.991 -0.1551  1.7504 -0.7119
 7402SOL     OW33664   0.138   1.350   9.828  0.2543 -0.0169 -0.2880
 7402SOL    HW133665   0.177   1.269   9.796 -0.6435 -0.6186  0.1336
 7402SOL    HW233666   0.045   1.329   9.843  0.6167  0.6039  2.8554
 7403SOL     OW33667   3.302   3.249   8.919  0.7942 -0.1305  0.3163
 7403SOL    HW133668   3.208   3.271   8.919  0.1881 -2.7656 -0.6275
 7403SOL    HW233669   3.298   3.171   8.863 -0.6735  1.1296 -1.3504
 7404SOL     OW33670   4.075   1.563   3.486  0.2842  0.4975 -0.7725
 7404SOL    HW133671   4.104   1.635   3.541  0.3643 -0.4133  0.3638
 7404SOL    HW233672   4.157   1.519   3.466  0.0233 -1.1578  1.8896
 7405SOL     OW33673   3.887   0.097   4.195  0.0432 -0.1142 -0.1374
 7405SOL    HW133674   3.797   0.070   4.213  0.3682  0.0452  1.6711
 7405SOL    HW233675   3.906   0.156   4.268  0.8982  1.8576 -1.9466
 7406SOL     OW33676   0.306   2.592  11.478 -0.4831 -0.1240 -0.2999
 7406SOL    HW133677   0.345   2.534  11.413  1.4175  0.8214 -0.0032
 7406SOL    HW233678   0.373   2.599  11.547 -1.0133 -0.4667  0.2455
 7407SOL     OW33679   3.455   2.025   8.913  0.0837 -0.3080 -0.2687
 7407SOL    HW133680   3.506   2.084   8.857 -0.1003  0.0713 -0.0414
 7407SOL    HW233681   3.437   1.951   8.855 -1.0665 -1.4628  1.5816
 7408SOL     OW33682   0.448   2.586   2.959 -0.0619  0.6252 -0.2564
 7408SOL    HW133683   0.413   2.664   3.003 -0.9451  0.0129  0.1363
 7408SOL    HW233684   0.538   2.610   2.938  0.8826 -0.9991  2.0064
 7409SOL     OW33685   0.403   4.224   9.477  0.0810  0.4364  0.1863
 7409SOL    HW133686   0.374   4.254   9.563  2.0623 -1.6655  1.5965
 7409SOL    HW233687   0.333   4.164   9.452 -0.1124  0.7199  0.0507
 7410SOL     OW33688   0.455   0.354  15.099 -0.1328 -0.2668 -0.1313
 7410SOL    HW133689   0.468   0.447  15.118 -0.4164 -0.4959  1.2130
 7410SOL    HW233690   0.499   0.318  15.176 -0.3966 -0.9996 -0.3226
 7411SOL     OW33691   2.609   2.489  14.564  0.0114  0.1864 -0.5020
 7411SOL    HW133692   2.627   2.553  14.632  1.1211 -3.0683  2.2647
 7411SOL    HW233693   2.540   2.434  14.601 -0.5939 -0.3776 -2.4453
 7412SOL     OW33694   3.382   1.480   6.505 -0.0815  0.3758 -0.3647
 7412SOL    HW133695   3.378   1.534   6.426 -0.5427 -0.5425 -0.9688
 7412SOL    HW233696   3.289   1.461   6.518 -0.3920  2.2864  0.0995
 7413SOL     OW33697   0.927   2.511   5.636  0.2131  0.1554 -0.5100
 7413SOL    HW133698   0.862   2.513   5.566 -1.0436  1.0512  0.6967
 7413SOL    HW233699   0.967   2.597   5.626 -0.9609  0.7620  0.1091
 7414SOL     OW33700   3.788   3.517   9.729  0.0140  1.1912  0.1859
 7414SOL    HW133701   3.708   3.566   9.744 -1.8188 -0.9714 -2.3746
 7414SOL    HW233702   3.747   3.433   9.706  0.7701  1.4543 -2.1021
 7415SOL     OW33703   3.093   4.601   1.200 -0.2368 -0.2908  0.0634
 7415SOL    HW133704   3.094   4.695   1.178 -0.3774 -0.1836  0.5027
 7415SOL    HW233705   3.130   4.594   1.288 -0.2742  0.2852  0.1283
 7416SOL     OW33706   0.264   2.832   1.031 -0.1303 -0.6036  0.0853
 7416SOL    HW133707   0.248   2.790   0.946  0.8078  1.3488 -1.0738
 7416SOL    HW233708   0.197   2.791   1.085  1.4831 -2.2208  0.8078
 7417SOL     OW33709   3.370   3.539   9.930 -0.1734  0.7272  0.1254
 7417SOL    HW133710   3.343   3.627   9.954 -0.5065  0.0288  2.3588
 7417SOL    HW233711   3.341   3.484  10.004 -0.3967  1.0564  0.2855
 7418SOL     OW33712   1.181   1.583  15.421  0.4231 -0.5183 -0.4387
 7418SOL    HW133713   1.152   1.499  15.387 -1.2862 -0.1835  0.1832
 7418SOL    HW233714   1.120   1.643  15.377 -0.3086  0.5295  1.9782
 7419SOL     OW33715   2.641   0.829   4.931  0.1042 -0.0787 -0.7066
 7419SOL    HW133716   2.650   0.864   5.020  2.2041 -1.0622 -0.5285
 7419SOL    HW233717   2.717   0.872   4.892 -0.7851  1.6208 -0.5526
 7420SOL     OW33718   0.616   4.386   2.358 -0.9789  0.4422  0.3789
 7420SOL    HW133719   0.644   4.477   2.352  0.8309  0.0192  2.5469
 7420SOL    HW233720   0.645   4.342   2.278 -2.0571  0.3911  0.0180
 7421SOL     OW33721   1.221   3.718   6.730  0.1421  0.2200 -0.4798
 7421SOL    HW133722   1.200   3.772   6.654  0.4769  1.3999  0.2651
 7421SOL    HW233723   1.169   3.763   6.797 -3.1822 -0.8818 -2.3575
 7422SOL     OW33724   3.175   0.242   7.959  0.3289 -0.2740 -0.1084
 7422SOL    HW133725   3.097   0.274   7.913 -1.5429 -0.7064  2.7465
 7422SOL    HW233726   3.138   0.207   8.040  0.6680 -0.4658 -0.0385
 7423SOL     OW33727   4.547   4.692   8.799  0.7880  0.3750  0.4850
 7423SOL    HW133728   4.633   4.689   8.757  1.8605  1.8069  2.5696
 7423SOL    HW233729   4.492   4.674   8.723  1.8260  1.3741 -0.5051
 7424SOL     OW33730   1.522   3.018  11.919 -0.2808  0.0822 -0.2085
 7424SOL    HW133731   1.503   2.940  11.865  3.2638 -0.3353 -0.8459
 7424SOL    HW233732   1.560   3.077  11.854 -0.9056 -0.0617 -0.7038
 7425SOL     OW33733   0.420   2.997   2.010 -0.1916  0.7961  0.2434
 7425SOL    HW133734   0.445   3.077   2.057  0.3836 -0.0204  1.3220
 7425SOL    HW233735   0.389   2.948   2.086 -0.2517 -1.1009 -1.0144
 7426SOL     OW33736   2.140   3.378   5.025 -0.3258 -0.6487  0.0050
 7426SOL    HW133737   2.155   3.435   5.100  0.7971  1.1192 -1.5503
 7426SOL    HW233738   2.157   3.295   5.070 -1.1638 -1.4574 -1.1659
 7427SOL     OW33739   2.644   3.249   0.830  0.1874  0.7676 -0.4613
 7427SOL    HW133740   2.591   3.211   0.760 -0.3871  0.5543  0.0883
 7427SOL    HW233741   2.651   3.339   0.799 -1.9179  0.2501 -2.3996
 7428SOL     OW33742   2.415   1.179   3.461 -0.2764 -0.1644  0.6679
 7428SOL    HW133743   2.373   1.096   3.439  0.2097 -0.4796  0.9108
 7428SOL    HW233744   2.463   1.184   3.379 -0.6544  0.2484  0.4714
 7429SOL     OW33745   4.094   0.719   8.741  0.1395  0.4122 -0.4738
 7429SOL    HW133746   4.039   0.728   8.663  1.4712  0.5083 -1.3998
 7429SOL    HW233747   4.088   0.626   8.766  0.9697  0.6437  0.5924
 7430SOL     OW33748   3.321   1.949   5.678  0.0260 -0.4735 -0.2954
 7430SOL    HW133749   3.408   1.919   5.705  0.4586  0.3914 -0.6999
 7430SOL    HW233750   3.320   2.027   5.734  0.5462 -0.1763 -0.6899
 7431SOL     OW33751   1.058   0.683   1.202 -0.4091  0.1461 -0.2808
 7431SOL    HW133752   1.068   0.751   1.269 -0.9492 -0.2396  0.1893
 7431SOL    HW233753   1.024   0.731   1.126 -0.8820  1.0282  0.4809
 7432SOL     OW33754   2.955   4.208   3.870  1.0378  0.0663  0.9939
 7432SOL    HW133755   2.934   4.192   3.778  3.1420 -1.3084  0.7784
 7432SOL    HW233756   2.871   4.181   3.908  1.0417 -1.2968  0.0555
 7433SOL     OW33757   3.021   3.033   8.489 -0.1890  0.0273 -0.3949
 7433SOL    HW133758   3.083   3.104   8.503  0.3096 -0.6875  1.0612
 7433SOL    HW233759   2.962   3.040   8.565  1.4079 -1.1087  0.9626
 7434SOL     OW33760   3.623   1.831  15.683  0.0537 -0.6735 -0.2310
 7434SOL    HW133761   3.568   1.903  15.652  1.0421  0.8630  1.5502
 7434SOL    HW233762   3.567   1.779  15.741  1.0136 -1.7732 -0.2739
 7435SOL     OW33763   2.547   2.431  16.187 -0.1599  0.8002  0.1466
 7435SOL    HW133764   2.507   2.380  16.258 -0.0119  0.1245 -0.2542
 7435SOL    HW233765   2.581   2.368  16.123  3.4992  1.9772  0.9737
 7436SOL     OW33766   2.985   0.565   5.392 -0.2604 -0.3274 -0.0165
 7436SOL    HW133767   3.007   0.572   5.485 -2.2969 -0.3242  0.4640
 7436SOL    HW233768   2.891   0.555   5.381 -0.1252 -1.4468 -0.2017
 7437SOL     OW33769   3.484   3.345   1.923  0.2681 -0.4533  0.6976
 7437SOL    HW133770   3.420   3.398   1.875  1.6669  1.1116  0.5612
 7437SOL    HW233771   3.432   3.326   2.001  0.2935  1.2797  1.1300
 7438SOL     OW33772   0.815   3.526   4.760  0.0218 -0.3239 -0.1878
 7438SOL    HW133773   0.751   3.455   4.767  0.5236 -0.7103  0.4344
 7438SOL    HW233774   0.789   3.560   4.674 -0.1323  0.5444  0.2023
 7439SOL     OW33775   4.077   1.615   5.887  0.3715 -0.0923 -0.6826
 7439SOL    HW133776   4.030   1.584   5.965  0.2109  1.8975  0.0202
 7439SOL    HW233777   4.046   1.706   5.882  2.3138  0.5764 -0.4876
 7440SOL     OW33778   2.548   3.608   4.594 -0.1171 -0.3045 -0.1020
 7440SOL    HW133779   2.578   3.614   4.504  1.6137 -0.2560  0.4688
 7440SOL    HW233780   2.461   3.576   4.571 -0.8955  0.2037  2.1117
 7441SOL     OW33781   3.723   0.107   7.145 -0.5164  0.4680  0.7186
 7441SOL    HW133782   3.650   0.045   7.144 -0.0230 -0.0961 -0.8886
 7441SOL    HW233783   3.760   0.086   7.231 -1.1441  0.2863  0.9458
 7442SOL     OW33784   1.147   4.466  16.456  0.0584  0.1068  0.2735
 7442SOL    HW133785   1.064   4.504  16.484 -0.4697 -1.2248  0.5234
 7442SOL    HW233786   1.145   4.392  16.516  0.7186 -1.9715 -2.2801
 7443SOL     OW33787   0.303   1.257   4.265 -1.1845  0.2761 -0.2794
 7443SOL    HW133788   0.217   1.251   4.307 -0.9182 -2.0172 -0.0745
 7443SOL    HW233789   0.369   1.252   4.334 -1.0724  0.6729 -0.3573
 7444SOL     OW33790   0.884   1.547   0.387  0.1183  0.3236  0.2629
 7444SOL    HW133791   0.946   1.589   0.447  0.1858  2.3790 -1.2441
 7444SOL    HW233792   0.949   1.528   0.319  1.9094 -0.1695  2.1331
 7445SOL     OW33793   1.954   0.526   1.273  0.0792  0.0659  0.4798
 7445SOL    HW133794   1.859   0.521   1.264  0.1610  0.3742 -0.6493
 7445SOL    HW233795   1.955   0.532   1.368 -2.7567  2.4093  0.3537
 7446SOL     OW33796   3.733   0.515  13.813 -0.1396  0.2707 -0.0132
 7446SOL    HW133797   3.769   0.488  13.897  0.1157  1.7819  0.3716
 7446SOL    HW233798   3.663   0.571  13.848 -0.8126 -0.3993 -0.2857
 7447SOL     OW33799   0.042   4.307   8.804 -0.6551 -0.2103  0.0272
 7447SOL    HW133800   0.099   4.367   8.851 -0.9338 -1.1724  1.6217
 7447SOL    HW233801   4.690   4.300   8.863 -1.5028 -0.3992 -1.0851
 7448SOL     OW33802   2.452   2.674  16.388 -0.1781  0.4170  0.0402
 7448SOL    HW133803   2.491   2.594  16.354 -2.0806 -0.6372  0.3390
 7448SOL    HW233804   2.519   2.742  16.382 -0.9281  1.1062 -0.5552
 7449SOL     OW33805   2.271   2.655   9.457 -0.0550 -0.2407 -0.1196
 7449SOL    HW133806   2.317   2.603   9.391  3.1868  2.2095  0.2616
 7449SOL    HW233807   2.203   2.689   9.398 -0.3544 -2.3860 -1.0142
 7450SOL     OW33808   3.377   4.372   7.092 -0.1750 -0.0450 -0.5176
 7450SOL    HW133809   3.408   4.458   7.121  2.4691 -1.2087  0.1443
 7450SOL    HW233810   3.358   4.334   7.178 -1.7612  1.6208 -0.1305
 7451SOL     OW33811   4.399   2.377   7.668  0.5444  0.0476  0.5372
 7451SOL    HW133812   4.322   2.340   7.709  1.9011 -1.9514  1.2781
 7451SOL    HW233813   4.443   2.427   7.737 -1.5483  1.7184  0.6503
 7452SOL     OW33814   3.908   4.208   7.376  0.0721  0.4387  0.1606
 7452SOL    HW133815   3.844   4.224   7.446  1.1788  1.7159  0.8703
 7452SOL    HW233816   3.923   4.298   7.350 -1.4712  0.5212 -0.4588
 7453SOL     OW33817   1.718   1.626   8.672 -0.4036  0.6922  0.2087
 7453SOL    HW133818   1.760   1.687   8.610  0.5751 -0.9621 -0.7572
 7453SOL    HW233819   1.696   1.686   8.743 -1.4498  1.2014 -0.5542
 7454SOL     OW33820   2.062   4.370   3.407  0.5166 -0.8278 -0.4186
 7454SOL    HW133821   1.971   4.391   3.388  0.6328 -0.5548 -0.6708
 7454SOL    HW233822   2.067   4.398   3.498  0.3998  0.1422 -0.7133
 7455SOL     OW33823   1.951   1.678  12.030 -0.3169 -0.2294  0.4193
 7455SOL    HW133824   1.905   1.699  12.111 -0.1772  0.7708  0.2356
 7455SOL    HW233825   1.881   1.644  11.974 -0.3690  0.1169  0.2747
 7456SOL     OW33826   3.841   2.612   9.434  0.0056 -0.1594  0.1647
 7456SOL    HW133827   3.792   2.541   9.476 -1.4973  2.4176  2.7653
 7456SOL    HW233828   3.786   2.629   9.357  1.1053 -0.1193 -0.6230
 7457SOL     OW33829   2.961   3.556   2.357  0.7266  0.3212 -0.1999
 7457SOL    HW133830   2.972   3.651   2.347 -0.0361  0.4651  0.3604
 7457SOL    HW233831   2.868   3.548   2.337  0.5272 -0.2545  0.9780
 7458SOL     OW33832   3.066   4.520   4.498 -1.1004  0.2081  0.5096
 7458SOL    HW133833   3.118   4.441   4.515 -0.5729  0.2633 -0.8150
 7458SOL    HW233834   2.976   4.501   4.524 -0.7918 -0.1804  1.2807
 7459SOL     OW33835   3.229   0.783   9.981 -0.1035  0.0413 -0.2078
 7459SOL    HW133836   3.189   0.696   9.973 -0.6324  0.4035 -1.5283
 7459SOL    HW233837   3.148   0.829   9.963 -0.4409 -0.3971  0.2034
 7460SOL     OW33838   1.236   1.635   2.327  0.3667 -0.0653  0.3025
 7460SOL    HW133839   1.295   1.570   2.290  0.8185 -0.3916  1.6083
 7460SOL    HW233840   1.178   1.580   2.380  1.5548 -0.5666  1.0797
 7461SOL     OW33841   3.151   3.021  12.527 -0.5626  0.6521  0.7507
 7461SOL    HW133842   3.073   3.071  12.507 -1.3870 -0.8751  0.1251
 7461SOL    HW233843   3.104   2.945  12.563 -1.3991  0.1523 -1.4257
 7462SOL     OW33844   1.236   0.897   3.483 -0.5498  0.0062 -0.0707
 7462SOL    HW133845   1.318   0.888   3.434 -1.2082  0.0375 -1.1710
 7462SOL    HW233846   1.202   0.811   3.458 -1.7730  0.4736 -0.0310
 7463SOL     OW33847   0.182   2.337   2.390  0.0821 -0.4737  0.4005
 7463SOL    HW133848   0.092   2.314   2.415 -0.4797  0.8042 -0.4357
 7463SOL    HW233849   0.162   2.357   2.299  0.1799  0.1022  0.5078
 7464SOL     OW33850   2.094   3.862   2.802  0.9091  0.7290  0.6117
 7464SOL    HW133851   2.058   3.854   2.714  1.2198 -3.7202  0.9049
 7464SOL    HW233852   2.016   3.893   2.850  0.4198  1.0207 -0.3805
 7465SOL     OW33853   2.601   2.045  15.976  0.5288  0.1642  0.2133
 7465SOL    HW133854   2.571   1.970  15.924 -0.0833 -0.1704  1.0516
 7465SOL    HW233855   2.533   2.053  16.043  3.3223  0.4536  2.9972
 7466SOL     OW33856   1.904   1.046   2.090  0.1816 -0.2560  0.2099
 7466SOL    HW133857   1.814   1.036   2.120  0.5391  0.2952  1.5170
 7466SOL    HW233858   1.919   1.136   2.120  1.0082  0.4110 -2.2407
 7467SOL     OW33859   3.116   4.273   8.141 -0.0557  0.6154 -0.0666
 7467SOL    HW133860   3.044   4.248   8.199  0.6695 -0.1023  0.5226
 7467SOL    HW233861   3.151   4.351   8.184  1.2173 -0.0705  0.1567
 7468SOL     OW33862   1.892   0.650  12.526  0.0800  0.7259  0.4953
 7468SOL    HW133863   1.908   0.572  12.579 -1.8214 -0.4986 -0.7626
 7468SOL    HW233864   1.959   0.711  12.558  1.1528  0.2858 -0.9095
 7469SOL     OW33865   3.432   0.946   5.112 -0.0528 -0.2125 -0.4483
 7469SOL    HW133866   3.416   0.854   5.128 -1.0380 -0.2959 -1.8843
 7469SOL    HW233867   3.489   0.973   5.184 -2.2029 -0.7940  1.4564
 7470SOL     OW33868   2.533   0.754   3.024 -0.4937  0.2731 -0.6839
 7470SOL    HW133869   2.591   0.688   3.062 -2.5653 -2.1103 -1.6594
 7470SOL    HW233870   2.450   0.723   3.062 -0.1971 -1.0876 -1.1344
 7471SOL     OW33871   2.553   4.059   6.802  0.4942 -0.2601 -0.0546
 7471SOL    HW133872   2.641   4.050   6.764  0.5173 -0.4012  0.0331
 7471SOL    HW233873   2.525   4.147   6.777  0.7901  0.0653  0.7636
 7472SOL     OW33874   0.702   1.817   4.383 -0.1031 -0.2726  0.2517
 7472SOL    HW133875   0.740   1.846   4.300  0.3846  0.5598  0.7676
 7472SOL    HW233876   0.711   1.722   4.371 -0.7139 -0.3639  0.5321
 7473SOL     OW33877   3.771   0.844  10.792 -0.1562  0.1121  0.4731
 7473SOL    HW133878   3.847   0.790  10.773  1.5478  1.8208  2.3330
 7473SOL    HW233879   3.725   0.839  10.709  0.0026 -0.8545  0.4490
 7474SOL     OW33880   2.726   0.968   3.531  0.4574  0.0354 -0.3090
 7474SOL    HW133881   2.649   0.975   3.588 -1.1869 -0.3922 -2.4573
 7474SOL    HW233882   2.719   0.875   3.510 -1.8079  0.5661 -1.8638
 7475SOL     OW33883   2.868   0.940   4.770  0.3926 -0.1522 -0.2939
 7475SOL    HW133884   2.900   1.027   4.797 -2.9422  0.1676  2.5921
 7475SOL    HW233885   2.788   0.958   4.721  1.5271 -0.8271 -2.3903
 7476SOL     OW33886   0.010   3.694   1.223 -0.1443  0.6826  0.3246
 7476SOL    HW133887   0.007   3.650   1.138  0.3291  1.7712 -0.2562
 7476SOL    HW233888   0.104   3.693   1.243 -0.1304  0.8663  0.2686
 7477SOL     OW33889   4.470   1.433   3.175 -0.4351  0.6064 -0.1932
 7477SOL    HW133890   4.490   1.351   3.130  0.4978 -0.0128  1.3603
 7477SOL    HW233891   4.465   1.493   3.100 -0.1150  3.2790  1.9482
 7478SOL     OW33892   0.987   1.783   0.109  0.2636 -0.4451 -0.0674
 7478SOL    HW133893   0.923   1.814   0.173 -1.5458 -1.3651 -1.4248
 7478SOL    HW233894   1.031   1.720   0.166  1.1143  0.2052 -0.0063
 7479SOL     OW33895   0.576   1.162   8.231  0.4716  0.7453  0.1258
 7479SOL    HW133896   0.662   1.142   8.194 -0.2396 -1.5709 -0.2274
 7479SOL    HW233897   0.588   1.235   8.293 -1.6693  0.9813  0.2580
 7480SOL     OW33898   4.324   0.963  15.188 -0.4981  0.3577 -0.1904
 7480SOL    HW133899   4.309   0.978  15.281 -1.2830  2.9624 -0.7353
 7480SOL    HW233900   4.240   0.989  15.150  0.1787  0.1380 -1.8384
 7481SOL     OW33901   1.320   1.355  11.877 -0.2611  0.5379 -0.3395
 7481SOL    HW133902   1.312   1.365  11.782  2.4836  0.6853 -0.5326
 7481SOL    HW233903   1.363   1.270  11.872 -0.9717  0.1275  0.5930
 7482SOL     OW33904   4.047   2.313   6.132 -0.3560  0.0575  0.2199
 7482SOL    HW133905   4.055   2.244   6.198  4.0298 -0.6698 -1.0545
 7482SOL    HW233906   4.070   2.275   6.047  0.8457 -0.4919  0.7854
 7483SOL     OW33907   2.908   1.649   5.041  0.6319  0.4963  0.0351
 7483SOL    HW133908   2.839   1.686   5.096 -0.0635  3.3855 -2.7461
 7483SOL    HW233909   2.855   1.640   4.962  2.6448  0.0744 -1.2703
 7484SOL     OW33910   0.642   0.508   7.374  0.0794 -0.2867 -0.2342
 7484SOL    HW133911   0.607   0.595   7.359  1.4338  0.1210 -1.0075
 7484SOL    HW233912   0.612   0.473   7.290 -1.9376  4.1482 -1.3051
 7485SOL     OW33913   1.960   2.697  14.590 -0.3039 -0.8098 -0.1486
 7485SOL    HW133914   1.908   2.665  14.664  0.0747  0.0902  0.5205
 7485SOL    HW233915   2.012   2.619  14.571  0.0217 -0.1020 -2.1190
 7486SOL     OW33916   3.144   4.229   9.320  0.4915  0.2026 -0.3111
 7486SOL    HW133917   3.068   4.283   9.341  2.8050  2.2333  2.7725
 7486SOL    HW233918   3.104   4.143   9.334 -1.2813  1.0024 -0.3701
 7487SOL     OW33919   1.660   1.426   0.763 -0.2597  0.6258  0.3683
 7487SOL    HW133920   1.578   1.376   0.765  0.8490 -1.1895  0.7345
 7487SOL    HW233921   1.722   1.353   0.767 -0.8084  0.0891 -0.9760
 7488SOL     OW33922   1.933   1.801   7.712  0.1520 -0.5451 -0.8595
 7488SOL    HW133923   1.974   1.769   7.632 -0.3997 -0.0086 -1.3527
 7488SOL    HW233924   1.863   1.736   7.718  0.5342 -0.7544  1.3159
 7489SOL     OW33925   1.788   3.717   0.291 -0.3817  0.2302  0.0912
 7489SOL    HW133926   1.720   3.681   0.348 -1.5624 -1.0708 -2.0983
 7489SOL    HW233927   1.789   3.649   0.223  3.3519  1.4188 -1.0591
 7490SOL     OW33928   0.319   3.433   5.594  0.4676  0.0023 -0.8067
 7490SOL    HW133929   0.399   3.400   5.635  0.7122  0.7806 -0.6487
 7490SOL    HW233930   0.248   3.416   5.656  1.7797  0.7731  0.9223
 7491SOL     OW33931   3.830   2.274  17.458  0.6861 -0.2276 -0.5095
 7491SOL    HW133932   3.884   2.310  17.529  0.5490  1.5342 -1.2981
 7491SOL    HW233933   3.760   2.339  17.463  0.4471 -0.5616  0.5196
 7492SOL     OW33934   3.859   2.875   7.658 -0.0089 -0.1203 -0.2413
 7492SOL    HW133935   3.905   2.959   7.665 -2.5486  0.9273  3.4749
 7492SOL    HW233936   3.819   2.863   7.744 -0.7943 -1.1433 -0.7423
 7493SOL     OW33937   4.409   2.418   3.707  0.3713 -0.4313 -0.0622
 7493SOL    HW133938   4.494   2.444   3.672 -0.3950  0.3565 -1.3338
 7493SOL    HW233939   4.406   2.463   3.792 -1.4791  0.7576 -0.7682
 7494SOL     OW33940   2.065   0.099   8.700 -0.0138  0.3124  0.4587
 7494SOL    HW133941   2.137   0.162   8.708  0.9701 -0.9512  1.3506
 7494SOL    HW233942   1.992   0.159   8.682 -0.9710 -0.6591  1.1160
 7495SOL     OW33943   4.203   4.361  11.729  0.8379  0.3379  0.7412
 7495SOL    HW133944   4.207   4.267  11.748  2.1926  0.4013  0.7203
 7495SOL    HW233945   4.284   4.379  11.682  1.0617  0.9586  1.3642
 7496SOL     OW33946   2.779   0.844   3.848  0.6965 -0.1667 -0.3118
 7496SOL    HW133947   2.874   0.856   3.853  0.8479 -1.2575 -0.5570
 7496SOL    HW233948   2.763   0.772   3.788 -2.7001 -0.1364  0.5437
 7497SOL     OW33949   4.556   0.478   6.026  0.0749  0.1213 -0.1176
 7497SOL    HW133950   4.482   0.453   6.082  0.0011  1.9771  0.6188
 7497SOL    HW233951   4.549   0.574   6.029  0.6854  0.1339  1.1864
 7498SOL     OW33952   4.425   4.246   7.891  0.2326  0.3694 -0.2000
 7498SOL    HW133953   4.516   4.217   7.890  0.0110 -0.3949  1.6421
 7498SOL    HW233954   4.422   4.301   7.969  1.7395 -0.2946  0.3065
 7499SOL     OW33955   3.549   0.375  12.504 -0.4528 -0.2308  0.2017
 7499SOL    HW133956   3.583   0.462  12.523 -0.5416 -0.5074  1.6202
 7499SOL    HW233957   3.470   0.379  12.558  0.2412 -0.9265  1.2612
 7500SOL     OW33958   4.294   3.010   7.038 -0.5882  0.2433 -0.4198
 7500SOL    HW133959   4.323   3.029   6.949  0.1572 -1.4942 -0.5435
 7500SOL    HW233960   4.374   3.043   7.079  0.1446 -1.2240 -0.6903
 7501SOL     OW33961   0.916   2.519  10.960 -0.5190  0.1864 -0.3367
 7501SOL    HW133962   0.836   2.483  10.921 -0.3932  1.5613 -1.8893
 7501SOL    HW233963   0.956   2.549  10.878  0.6282  0.2880  0.2584
 7502SOL     OW33964   0.076   1.945  12.765  0.0148 -0.6496  0.0815
 7502SOL    HW133965   0.071   2.004  12.840 -2.0534 -0.0113 -0.5582
 7502SOL    HW233966   0.147   1.971  12.707  0.2964 -0.4811  0.5022
 7503SOL     OW33967   0.760   2.570   5.407  0.2192 -0.0903 -0.2886
 7503SOL    HW133968   0.705   2.608   5.476  0.8511 -0.3375  0.3536
 7503SOL    HW233969   0.738   2.622   5.331  1.8593 -1.7297 -1.8819
 7504SOL     OW33970   2.230   2.745   7.352 -0.1188  0.2344 -0.6409
 7504SOL    HW133971   2.315   2.714   7.320 -0.7554 -0.8948 -1.2119
 7504SOL    HW233972   2.233   2.736   7.447 -0.8514  2.9667 -0.3611
 7505SOL     OW33973   0.337   3.537   1.498  0.3117 -0.2316 -0.3546
 7505SOL    HW133974   0.386   3.456   1.486 -1.1347 -1.4582  1.9954
 7505SOL    HW233975   0.372   3.587   1.424  0.8876 -0.5407 -0.2900
 7506SOL     OW33976   3.792   1.452  12.899  0.1837 -0.1717  0.2422
 7506SOL    HW133977   3.703   1.487  12.887  0.7185  0.5916 -1.5653
 7506SOL    HW233978   3.850   1.505  12.845 -2.1081 -0.1361 -2.2201
 7507SOL     OW33979   1.286   3.267   6.466 -0.0390 -0.0225  0.2518
 7507SOL    HW133980   1.220   3.335   6.474 -1.5552 -1.4611  0.0638
 7507SOL    HW233981   1.366   3.319   6.476 -0.4275  0.4628  0.8460
 7508SOL     OW33982   3.484   2.032   7.563 -0.2459 -0.2083  0.3597
 7508SOL    HW133983   3.468   2.114   7.609 -1.3892 -0.6321  0.7191
 7508SOL    HW233984   3.408   1.977   7.580 -1.0295  0.7226 -0.1774
 7509SOL     OW33985   3.735   1.316   7.055  0.0006 -0.1625  0.2161
 7509SOL    HW133986   3.752   1.231   7.095 -3.7413  0.3495  2.8598
 7509SOL    HW233987   3.641   1.317   7.035 -0.0021  1.7370  0.2912
 7510SOL     OW33988   3.612   2.388   8.224  0.2611 -0.1154 -0.0624
 7510SOL    HW133989   3.633   2.335   8.146 -0.4857 -1.4698  0.6481
 7510SOL    HW233990   3.517   2.391   8.231  0.2702 -0.1568  0.0777
 7511SOL     OW33991   1.004   3.019   2.707  0.1241 -0.2534  0.6623
 7511SOL    HW133992   1.066   2.964   2.661 -0.6410  0.1391 -0.8261
 7511SOL    HW233993   1.049   3.102   2.721 -1.1654  1.0779 -3.0903
 7512SOL     OW33994   1.053   4.624   6.465 -0.1236  0.1728 -0.1073
 7512SOL    HW133995   1.105   4.556   6.508  0.1296  0.1897 -0.3917
 7512SOL    HW233996   0.966   4.585   6.455 -0.6539  1.5374 -0.8596
 7513SOL     OW33997   1.676   2.045   5.650  0.1182 -0.0576  0.2091
 7513SOL    HW133998   1.683   2.072   5.558 -0.6786  0.3261  0.2637
 7513SOL    HW233999   1.620   1.968   5.639  0.5882  0.0878 -3.1177
 7514SOL     OW34000   1.880   0.935   6.108 -0.1953  0.2598  0.1081
 7514SOL    HW134001   1.931   0.865   6.066 -0.3326  0.4549 -0.3817
 7514SOL    HW234002   1.794   0.917   6.071 -0.8159  0.6256  1.3867
 7515SOL     OW34003   2.851   3.388  16.710  0.4837 -0.2207 -0.1375
 7515SOL    HW134004   2.931   3.425  16.748  0.4279  0.4257 -0.6429
 7515SOL    HW234005   2.802   3.468  16.691 -0.0588 -0.7357 -0.9294
 7516SOL     OW34006   0.840   0.487   0.987 -0.2801 -0.1742 -0.2217
 7516SOL    HW134007   0.795   0.548   0.928  0.3567  0.8011  0.2877
 7516SOL    HW234008   0.915   0.546   0.993 -1.2564  1.1724 -1.1374
 7517SOL     OW34009   1.543   2.962   7.038 -0.3990 -0.1100 -0.3942
 7517SOL    HW134010   1.584   2.898   6.979  1.6578  1.0937 -0.2882
 7517SOL    HW234011   1.612   2.986   7.099  0.2370 -1.3679 -0.6136
 7518SOL     OW34012   4.276   0.393   4.624 -0.0661  0.2794  0.3404
 7518SOL    HW134013   4.222   0.367   4.549  0.5836  1.3742 -0.5012
 7518SOL    HW234014   4.357   0.344   4.609 -0.8411 -0.7148 -0.6941
 7519SOL     OW34015   2.101   0.297   4.789  0.8845 -0.1981  0.2841
 7519SOL    HW134016   2.097   0.315   4.695 -1.2155 -0.3172  0.3370
 7519SOL    HW234017   2.017   0.337   4.812  2.1006  1.8487  1.1541
 7520SOL     OW34018   3.388   0.042  10.087 -0.4281  0.9402  0.2929
 7520SOL    HW134019   3.308   0.075  10.047 -2.1754 -4.8097 -0.9640
 7520SOL    HW234020   3.411   4.698  10.023 -1.0010  2.7910 -1.8718
 7521SOL     OW34021   4.606   3.914   4.009  0.2750 -0.3019  0.1826
 7521SOL    HW134022   4.615   3.868   4.092  0.6789 -0.8035 -0.1426
 7521SOL    HW234023   4.584   4.002   4.041 -1.5426 -0.0846 -1.6212
 7522SOL     OW34024   2.856   0.642   2.434  0.3119  0.3553  0.7580
 7522SOL    HW134025   2.822   0.553   2.420 -0.4040  0.3659  2.3753
 7522SOL    HW234026   2.804   0.704   2.382  0.7327  1.3108  1.4899
 7523SOL     OW34027   0.239   4.197  12.303  0.9340  0.1943 -0.5817
 7523SOL    HW134028   0.214   4.105  12.308  0.0272  0.5252  0.6938
 7523SOL    HW234029   0.236   4.221  12.210 -0.0404 -3.8864 -1.5676
 7524SOL     OW34030   3.186   3.439   3.333 -1.2601  0.0409 -0.0050
 7524SOL    HW134031   3.199   3.349   3.362 -0.2604  0.5251  1.0597
 7524SOL    HW234032   3.157   3.477   3.416  2.4152  2.3532  0.2332
 7525SOL     OW34033   0.032   1.647   8.017 -0.2633  0.3712 -0.3536
 7525SOL    HW134034   0.115   1.690   8.041 -0.6931 -0.0427  1.8713
 7525SOL    HW234035   0.046   1.557   8.046  2.1441  1.2795  1.3229
 7526SOL     OW34036   3.405   0.721   6.271  0.0340 -0.0176  0.3522
 7526SOL    HW134037   3.371   0.810   6.268 -1.8536 -0.6910  1.5901
 7526SOL    HW234038   3.376   0.696   6.359  0.9499  5.2500  2.1293
 7527SOL     OW34039   0.056   2.265   2.119  0.4990 -0.0338 -0.4663
 7527SOL    HW134040   4.694   2.231   2.149  0.5506 -0.5287 -0.8699
 7527SOL    HW234041   0.034   2.277   2.027  0.5859 -2.1042 -0.7534
 7528SOL     OW34042   1.374   0.658  11.130 -0.8538  1.1835 -0.5754
 7528SOL    HW134043   1.284   0.687  11.135 -1.7226 -2.0271  2.1434
 7528SOL    HW234044   1.392   0.668  11.223  0.5220  1.7542 -0.8895
 7529SOL     OW34045   3.190   1.267   3.184 -0.2093 -0.4163  0.7678
 7529SOL    HW134046   3.191   1.327   3.260  0.8450 -1.9316  1.9495
 7529SOL    HW234047   3.130   1.197   3.211  0.9623 -1.8053 -0.2624
 7530SOL     OW34048   2.336   2.029   4.782 -0.0560 -0.1534 -0.2380
 7530SOL    HW134049   2.382   1.969   4.841  1.6216  1.0490 -0.3202
 7530SOL    HW234050   2.277   1.962   4.747 -1.7490  0.9341  0.6000
 7531SOL     OW34051   0.292   0.267   2.360 -0.1132 -0.4383  0.1098
 7531SOL    HW134052   0.346   0.336   2.321  3.1527 -0.7755  4.0798
 7531SOL    HW234053   0.311   0.190   2.305  1.1618 -0.4096  0.5091
 7532SOL     OW34054   1.541   2.377   3.015  0.0873 -0.3899  0.5721
 7532SOL    HW134055   1.591   2.395   2.936  0.3867  1.8730  1.2926
 7532SOL    HW234056   1.450   2.372   2.986  0.7829 -3.2310 -1.1518
 7533SOL     OW34057   1.968   0.009   2.767 -0.2434 -0.4859  0.2563
 7533SOL    HW134058   1.975   0.085   2.709 -0.8416 -0.1219  0.6521
 7533SOL    HW234059   1.873   0.014   2.782 -0.5810 -1.1868 -1.6740
 7534SOL     OW34060   4.335   0.146   3.618 -0.2417  0.3175  0.0074
 7534SOL    HW134061   4.390   0.141   3.696  0.6056 -0.3434 -0.6329
 7534SOL    HW234062   4.380   0.221   3.578  0.7370 -1.4780 -2.3053
 7535SOL     OW34063   2.695   4.054   4.665  0.6365  0.0149 -0.0288
 7535SOL    HW134064   2.657   3.982   4.715  1.9048 -1.6973 -1.5456
 7535SOL    HW234065   2.661   4.136   4.701 -0.8089 -1.1388  1.2151
 7536SOL     OW34066   2.672   4.173  12.168  0.2184 -0.5726  0.2250
 7536SOL    HW134067   2.695   4.182  12.076 -1.6708 -0.7619 -0.2630
 7536SOL    HW234068   2.577   4.159  12.159  0.2478 -0.6368  0.0197
 7537SOL     OW34069   2.531   0.074  13.236 -0.3150 -0.4987 -0.0086
 7537SOL    HW134070   2.546   4.703  13.226  1.3254 -0.3725  1.2180
 7537SOL    HW234071   2.618   0.100  13.206 -1.5899  2.6994 -0.8867
 7538SOL     OW34072   0.891   3.335   3.712  0.0198 -0.1702 -0.1852
 7538SOL    HW134073   0.906   3.429   3.725 -1.3073  0.1002 -0.6044
 7538SOL    HW234074   0.813   3.335   3.656  0.6664 -0.1160 -1.0757
 7539SOL     OW34075   0.973   2.091   0.539  0.5050  0.1491  0.0451
 7539SOL    HW134076   1.008   2.124   0.457  0.5679  1.0920  0.4522
 7539SOL    HW234077   1.032   2.017   0.554  1.9736  1.2400 -0.3907
 7540SOL     OW34078   1.200   3.609   3.899  0.1353  0.4541 -0.0463
 7540SOL    HW134079   1.190   3.656   3.981 -1.2908  2.5399 -1.4153
 7540SOL    HW234080   1.115   3.615   3.856 -0.0366 -0.2798  0.1987
 7541SOL     OW34081   1.765   2.614  15.976  0.0829  0.6065  0.3986
 7541SOL    HW134082   1.733   2.531  15.940  0.9437 -0.3241  1.7874
 7541SOL    HW234083   1.798   2.650  15.894  1.6368  1.8108  1.5601
 7542SOL     OW34084   4.099   1.874  16.531 -0.3766 -0.1539 -0.1309
 7542SOL    HW134085   4.036   1.931  16.576  0.7493 -0.5720  1.9849
 7542SOL    HW234086   4.169   1.936  16.511 -0.5813  1.1670  3.1595
 7543SOL     OW34087   2.436   3.632   7.647 -0.6966 -0.0716  0.1397
 7543SOL    HW134088   2.471   3.627   7.736  0.5652  1.2275 -0.3006
 7543SOL    HW234089   2.468   3.554   7.602 -0.7895  0.3828 -0.7169
 7544SOL     OW34090   3.385   1.073   4.033 -0.0770 -0.5336 -0.1828
 7544SOL    HW134091   3.300   1.112   4.011 -1.5294 -2.0937  2.6478
 7544SOL    HW234092   3.401   1.127   4.110  0.1782  0.4852 -0.9586
 7545SOL     OW34093   3.768   2.016   1.618 -0.2100 -0.8760 -0.2993
 7545SOL    HW134094   3.730   2.100   1.592  1.8164 -0.2785 -1.3535
 7545SOL    HW234095   3.687   1.965   1.618  0.1313 -1.4422  3.2188
 7546SOL     OW34096   3.122   2.243  16.235 -0.4763  0.0472 -0.0414
 7546SOL    HW134097   3.033   2.265  16.209 -0.3733  0.1568 -0.3029
 7546SOL    HW234098   3.120   2.205  16.323 -2.3275 -1.2338 -0.6223
 7547SOL     OW34099   4.396   0.892   9.238  0.4790  0.3755 -0.1802
 7547SOL    HW134100   4.443   0.929   9.313  0.7000 -1.4686  0.5978
 7547SOL    HW234101   4.431   0.803   9.227  1.3819  0.7587 -0.4449
 7548SOL     OW34102   1.637   4.117   1.116 -0.6671 -0.1256 -0.1816
 7548SOL    HW134103   1.584   4.044   1.085  1.2249 -2.5882  2.3447
 7548SOL    HW234104   1.625   4.177   1.043 -2.2123  0.5934  0.6565
 7549SOL     OW34105   0.342   3.367   4.527  0.4925  0.8740  0.0656
 7549SOL    HW134106   0.304   3.453   4.505  0.9898  0.5756 -1.9788
 7549SOL    HW234107   0.331   3.316   4.446  0.2413 -2.1234  1.9874
 7550SOL     OW34108   0.567   3.958  10.482  0.7866 -0.4355 -0.1023
 7550SOL    HW134109   0.570   3.863  10.476  1.3447 -0.4756  0.6849
 7550SOL    HW234110   0.525   3.982  10.565 -0.0901 -1.9458 -0.1221
 7551SOL     OW34111   0.117   3.163  14.029  0.0694  0.1929 -0.1160
 7551SOL    HW134112   0.157   3.250  14.030 -1.3980  0.8707  0.5127
 7551SOL    HW234113   0.036   3.176  14.078  1.5376 -0.5154  2.4805
 7552SOL     OW34114   2.319   2.889   8.445 -0.4333 -0.9755 -0.4161
 7552SOL    HW134115   2.261   2.897   8.370  0.8674 -1.6382 -1.4956
 7552SOL    HW234116   2.409   2.912   8.419 -0.5185 -0.9381 -0.6793
 7553SOL     OW34117   2.440   0.872   7.665 -0.0494 -0.4549 -0.1447
 7553SOL    HW134118   2.419   0.965   7.658  1.5312 -0.1560 -1.0662
 7553SOL    HW234119   2.532   0.874   7.636 -0.4983 -0.2233 -1.5720
 7554SOL     OW34120   2.154   1.177  13.661 -0.8794 -0.1351  0.3235
 7554SOL    HW134121   2.222   1.183  13.728  0.9836  2.2061 -1.7957
 7554SOL    HW234122   2.197   1.117  13.600 -0.6914  0.4604 -0.1226
 7555SOL     OW34123   0.617   1.586   0.443 -0.8168  0.7685 -0.5455
 7555SOL    HW134124   0.650   1.665   0.486 -0.4544 -0.8579  2.1515
 7555SOL    HW234125   0.703   1.568   0.406 -1.0289 -1.6225  0.1512
 7556SOL     OW34126   3.722   3.478   1.960 -0.3512  0.6778 -0.2518
 7556SOL    HW134127   3.639   3.438   1.934  0.2413 -1.3021  0.8865
 7556SOL    HW234128   3.755   3.413   2.022 -1.8643 -0.4263 -0.5903
 7557SOL     OW34129   0.947   4.173   8.936 -0.7783 -0.1992  0.3188
 7557SOL    HW134130   1.009   4.242   8.959 -1.9810  1.9349 -2.8193
 7557SOL    HW234131   0.946   4.191   8.842 -0.7628  1.7166  0.6870
 7558SOL     OW34132   4.056   2.401  14.161  0.0148  0.1491  0.1457
 7558SOL    HW134133   4.061   2.306  14.154 -2.5020  0.1304 -1.2674
 7558SOL    HW234134   3.963   2.401  14.186  0.3109  2.5746  1.1858
 7559SOL     OW34135   0.206   0.731   7.389  0.5879 -0.4485 -0.4050
 7559SOL    HW134136   0.242   0.806   7.436  1.9586 -1.0360 -0.5088
 7559SOL    HW234137   0.130   0.715   7.444  0.8947  1.7745  0.6573
 7560SOL     OW34138   1.109   1.132   3.684 -0.5601  0.7013 -0.2980
 7560SOL    HW134139   1.101   1.225   3.706 -1.8274  0.0416  1.9827
 7560SOL    HW234140   1.204   1.120   3.678 -0.3866  1.6076  0.6787
 7561SOL     OW34141   1.612   2.771   6.854  0.0674 -0.1758 -0.1908
 7561SOL    HW134142   1.542   2.737   6.799 -1.7477  1.2778  1.1936
 7561SOL    HW234143   1.648   2.693   6.897  0.0387 -0.4704 -0.7041
 7562SOL     OW34144   0.678   3.065   7.284  0.3878 -0.4292 -0.7862
 7562SOL    HW134145   0.583   3.075   7.273  0.7067  1.4371 -1.7700
 7562SOL    HW234146   0.692   3.155   7.313 -1.5768 -1.3650  3.0630
 7563SOL     OW34147   3.149   0.035   7.144 -0.5415 -0.1630  0.0290
 7563SOL    HW134148   3.169   4.666   7.159 -3.5537 -0.8396  0.0137
 7563SOL    HW234149   3.154   0.041   7.049  0.1612 -0.6134  0.0395
 7564SOL     OW34150   1.564   3.350   2.586 -0.0385  0.7315  0.7076
 7564SOL    HW134151   1.537   3.310   2.503  0.3508  1.4178  0.2496
 7564SOL    HW234152   1.627   3.413   2.552  3.4726 -2.2886  1.6212
 7565SOL     OW34153   1.348   4.211  11.963  0.0677 -0.2177 -0.0855
 7565SOL    HW134154   1.342   4.260  12.045  2.4263  0.8268 -0.5288
 7565SOL    HW234155   1.284   4.141  11.974 -0.1229  0.0451  0.4634
 7566SOL     OW34156   0.376   3.737   5.529  0.8996 -0.0904  0.8131
 7566SOL    HW134157   0.339   3.739   5.441 -3.3441 -0.2675  2.6140
 7566SOL    HW234158   0.395   3.644   5.544  0.6790 -0.3516 -0.5420
 7567SOL     OW34159   2.752   3.947   1.797 -0.1274  0.3911 -0.1674
 7567SOL    HW134160   2.713   3.867   1.832  1.1419 -0.0641  0.1971
 7567SOL    HW234161   2.829   3.910   1.754  1.2332  2.0939  0.8452
 7568SOL     OW34162   0.154   1.296   4.014 -0.5145  0.5652 -0.5163
 7568SOL    HW134163   0.117   1.376   4.053  1.7669  0.2582  2.3105
 7568SOL    HW234164   0.210   1.263   4.084  0.5279  1.4781 -0.9338
 7569SOL     OW34165   2.496   0.479   2.285  0.3362 -0.2121 -0.2281
 7569SOL    HW134166   2.534   0.437   2.208  0.8809  3.0362 -1.7411
 7569SOL    HW234167   2.531   0.568   2.283 -1.0234  0.3780  2.5119
 7570SOL     OW34168   4.044   3.980  13.613 -0.6904  0.0238 -0.0313
 7570SOL    HW134169   3.974   4.039  13.640  0.4162  0.2546  2.3392
 7570SOL    HW234170   4.024   3.990  13.520 -2.7029 -1.1733  0.2494
 7571SOL     OW34171   0.726   0.080  11.300  0.2201 -0.0638  0.7879
 7571SOL    HW134172   0.808   0.030  11.307  1.6766  1.6878 -3.7938
 7571SOL    HW234173   0.664   0.007  11.301  0.4572 -0.2480  2.2433
 7572SOL     OW34174   1.677   3.421  12.054  0.5714  0.3865  0.3280
 7572SOL    HW134175   1.753   3.433  11.998  1.8295 -0.2857  1.9286
 7572SOL    HW234176   1.713   3.390  12.137 -0.8894  1.2936  1.3235
 7573SOL     OW34177   2.737   3.626   5.859 -0.3892 -0.3593  0.0017
 7573SOL    HW134178   2.722   3.646   5.951 -2.4786 -2.1882  0.0755
 7573SOL    HW234179   2.756   3.713   5.825 -2.0122  0.3481  0.8957
 7574SOL     OW34180   3.721   1.916  11.380  0.4116 -0.9413  0.2412
 7574SOL    HW134181   3.763   1.874  11.305  0.0830  0.1643 -0.5656
 7574SOL    HW234182   3.627   1.903  11.367  0.0663 -0.6480  2.3702
 7575SOL     OW34183   2.869   2.287   2.060 -0.4818  0.8152 -0.0173
 7575SOL    HW134184   2.868   2.226   2.133  0.6430  0.5929 -0.1803
 7575SOL    HW234185   2.816   2.355   2.101  2.4425  2.5849  0.8584
 7576SOL     OW34186   1.323   1.185  13.265  1.3431  0.0356  0.2798
 7576SOL    HW134187   1.402   1.132  13.266  0.2912 -1.5746 -0.8981
 7576SOL    HW234188   1.339   1.254  13.201  1.9079 -0.2336  0.1322
 7577SOL     OW34189   3.615   0.535   6.513 -0.4905  0.4876  0.0202
 7577SOL    HW134190   3.678   0.499   6.576 -0.2825  0.4249 -0.2223
 7577SOL    HW234191   3.639   0.626   6.497 -0.0868 -0.1566 -3.0538
 7578SOL     OW34192   0.233   4.261   5.229  0.6109 -0.1216 -0.3367
 7578SOL    HW134193   0.275   4.181   5.199  0.4643  0.2947 -1.6314
 7578SOL    HW234194   0.145   4.224   5.242  1.4030 -1.2073  1.8802
 7579SOL     OW34195   3.832   1.171  13.267  0.5953  0.1589  0.2772
 7579SOL    HW134196   3.835   1.084  13.227 -1.9662  1.0076 -1.7627
 7579SOL    HW234197   3.909   1.168  13.323 -0.3860 -0.5051  1.5901
 7580SOL     OW34198   1.043   2.343   8.396  0.1645  0.0952  0.1575
 7580SOL    HW134199   0.950   2.323   8.405 -0.1332  1.8318  0.9133
 7580SOL    HW234200   1.074   2.334   8.487  2.0780  0.0035 -0.5110
 7581SOL     OW34201   2.864   0.745   7.279 -0.7510  0.4836  0.1622
 7581SOL    HW134202   2.954   0.713   7.272 -1.0209 -0.4414  0.9158
 7581SOL    HW234203   2.844   0.739   7.186 -2.2958 -0.7689  0.5729
 7582SOL     OW34204   0.026   0.241   5.660  0.1507  0.3699 -0.6133
 7582SOL    HW134205   4.687   0.314   5.655  1.1906  1.1296 -2.7504
 7582SOL    HW234206   4.704   0.187   5.725 -0.7587 -0.7574 -2.1849
 7583SOL     OW34207   2.068   3.603   6.977  0.2400 -0.1115 -0.0627
 7583SOL    HW134208   2.101   3.662   7.045 -0.9470 -0.7996  1.1047
 7583SOL    HW234209   2.145   3.550   6.957 -0.4989 -0.9133 -0.7771
 7584SOL     OW34210   3.169   3.630   4.765 -0.3453 -0.2902 -0.0144
 7584SOL    HW134211   3.204   3.716   4.789 -1.5568  0.6342 -1.5488
 7584SOL    HW234212   3.247   3.587   4.728  0.3947 -0.8352  2.1988
 7585SOL     OW34213   3.867   1.287   6.144 -0.4079  0.0669  0.5969
 7585SOL    HW134214   3.775   1.281   6.168 -0.3640 -1.1609  0.4790
 7585SOL    HW234215   3.903   1.244   6.223  0.1855 -1.0441 -0.2707
 7586SOL     OW34216   0.035   2.048   3.459 -0.2132 -0.6887  0.0527
 7586SOL    HW134217   0.107   2.067   3.399  0.5463 -2.8539  0.2746
 7586SOL    HW234218   4.689   2.099   3.416 -0.1196 -1.6553 -1.2401
 7587SOL     OW34219   0.971   2.713  14.190 -0.0738  0.6039  0.0572
 7587SOL    HW134220   1.011   2.680  14.109 -2.0919 -2.9888  0.5297
 7587SOL    HW234221   1.047   2.752  14.233 -1.9156  1.0171  2.9651
 7588SOL     OW34222   1.657   3.609   5.085  0.4005 -0.3255 -0.3377
 7588SOL    HW134223   1.695   3.523   5.100  2.6072  0.6561 -0.3881
 7588SOL    HW234224   1.648   3.631   5.178 -2.7732 -0.1291 -0.6971
 7589SOL     OW34225   3.430   1.566   3.058  0.1108 -0.3710 -0.4312
 7589SOL    HW134226   3.348   1.552   3.011  0.1418 -4.3842  0.7336
 7589SOL    HW234227   3.407   1.632   3.123 -1.5560 -1.6792  0.2937
 7590SOL     OW34228   0.351   2.270   0.206 -0.4742  0.5086 -0.1570
 7590SOL    HW134229   0.345   2.318   0.124 -2.3550  0.8525  0.1918
 7590SOL    HW234230   0.267   2.225   0.202 -0.9190  1.3583 -0.3036
 7591SOL     OW34231   4.630   1.788   6.953  0.5673 -0.1942 -0.3647
 7591SOL    HW134232   4.603   1.710   7.002 -1.5148  0.7222 -0.0694
 7591SOL    HW234233   4.710   1.805   7.004 -1.6845  1.5259  2.5723
 7592SOL     OW34234   3.013   4.349   8.431  0.6844  1.0751  0.1134
 7592SOL    HW134235   2.986   4.441   8.436 -1.2889  0.3256  3.1793
 7592SOL    HW234236   2.999   4.319   8.521  2.1263  2.5215  0.8167
 7593SOL     OW34237   2.152   3.765  12.665  0.2940 -0.0160 -0.1885
 7593SOL    HW134238   2.107   3.822  12.602  0.2626  0.2791  0.1021
 7593SOL    HW234239   2.079   3.719  12.706 -0.2945 -0.9666 -2.2730
 7594SOL     OW34240   2.823   4.417   2.534 -0.4940  0.5075  0.6501
 7594SOL    HW134241   2.825   4.425   2.629 -1.7539  0.0055  0.7071
 7594SOL    HW234242   2.756   4.350   2.520 -0.3397  0.4262  0.2852
 7595SOL     OW34243   4.484   4.526   3.476 -0.3567 -0.2617 -0.6975
 7595SOL    HW134244   4.494   4.436   3.448  0.5078 -0.9289  1.7013
 7595SOL    HW234245   4.413   4.552   3.417  0.0301  0.5932 -0.7961
 7596SOL     OW34246   2.935   1.487   3.260 -0.4201  0.5336  0.2386
 7596SOL    HW134247   3.003   1.431   3.223 -0.3802  1.8413 -1.7122
 7596SOL    HW234248   2.983   1.569   3.274  0.6460  0.1239 -1.0244
 7597SOL     OW34249   2.160   3.800   8.095 -0.1816  0.4755  0.4099
 7597SOL    HW134250   2.160   3.718   8.045  0.8198 -0.2405  1.5684
 7597SOL    HW234251   2.219   3.850   8.040  0.1037  0.6865  0.9042
 7598SOL     OW34252   0.410   4.663   6.578 -1.1315 -0.1005 -0.1125
 7598SOL    HW134253   0.352   4.718   6.526 -1.5474 -1.7541 -1.4179
 7598SOL    HW234254   0.357   4.641   6.654 -1.8980 -0.3069 -0.7060
 7599SOL     OW34255   1.614   1.011  11.013  0.1072 -0.0338 -0.2206
 7599SOL    HW134256   1.558   0.939  10.983  0.4607  0.5638 -2.2921
 7599SOL    HW234257   1.557   1.084  10.993  2.0796  0.9495 -2.3189
 7600SOL     OW34258   3.323   2.572  16.072  0.0931  0.0669 -0.0459
 7600SOL    HW134259   3.383   2.634  16.114  0.0853 -0.3599  0.5871
 7600SOL    HW234260   3.284   2.626  16.002 -0.9700 -0.5718  0.0506
 7601SOL     OW34261   1.286   4.247  17.181 -0.0265  0.2595  0.2103
 7601SOL    HW134262   1.251   4.167  17.141  0.3400  0.2310 -0.0613
 7601SOL    HW234263   1.310   4.303  17.106 -2.8274  0.5708 -0.4744
 7602SOL     OW34264   2.781   3.622  12.501 -0.2022  0.5122  0.7736
 7602SOL    HW134265   2.864   3.655  12.467 -1.2725  1.2894 -1.0787
 7602SOL    HW234266   2.715   3.653  12.439 -3.1741  0.7430  4.0577
 7603SOL     OW34267   0.969   1.252   3.948  0.2351  1.0668 -0.2686
 7603SOL    HW134268   1.029   1.178   3.944 -0.4647  0.5197 -0.5494
 7603SOL    HW234269   1.027   1.326   3.932  1.2190 -0.1630 -2.3699
 7604SOL     OW34270   3.674   0.791  11.800  0.2261  0.2255  0.3104
 7604SOL    HW134271   3.630   0.855  11.856  0.1651 -2.1197  2.9145
 7604SOL    HW234272   3.683   0.835  11.716  0.8379  0.0676  0.2912
 7605SOL     OW34273   1.112   4.375   5.463  0.0355  0.0099 -0.2144
 7605SOL    HW134274   1.058   4.429   5.520  0.3081  0.7686 -0.6746
 7605SOL    HW234275   1.197   4.404   5.496  0.1521 -0.9861  0.3570
 7606SOL     OW34276   3.236   0.186   5.638  0.2350 -0.6639  0.3400
 7606SOL    HW134277   3.202   0.180   5.549 -2.7770 -0.8664  1.4998
 7606SOL    HW234278   3.322   0.226   5.624  0.5217 -1.1844  0.6310
 7607SOL     OW34279   0.069   0.808   0.421 -0.1287  0.4184 -0.6828
 7607SOL    HW134280   0.043   0.716   0.431 -0.0809  0.5181  0.3835
 7607SOL    HW234281   0.051   0.836   0.511 -0.6512 -2.8254  0.2369
 7608SOL     OW34282   0.531   1.704   7.958  0.2241 -0.4696 -0.4685
 7608SOL    HW134283   0.599   1.709   7.891 -0.2489  2.0776 -0.7824
 7608SOL    HW234284   0.518   1.798   7.968 -0.8543 -0.8182  1.3264
 7609SOL     OW34285   2.471   0.200   7.135 -0.3357  0.4064  0.3820
 7609SOL    HW134286   2.476   0.196   7.039  0.8846 -1.6163  0.5241
 7609SOL    HW234287   2.417   0.277   7.150 -2.7005 -1.0030 -0.7958
 7610SOL     OW34288   3.012   0.605   3.618  0.1446  0.2060 -0.5295
 7610SOL    HW134289   3.105   0.609   3.639  0.3068  2.6821 -1.6334
 7610SOL    HW234290   2.982   0.544   3.685  0.0710 -1.0336 -1.7015
 7611SOL     OW34291   4.251   1.520   8.708  0.9799 -0.2019 -0.8091
 7611SOL    HW134292   4.171   1.504   8.760  1.7092  1.6465  0.8949
 7611SOL    HW234293   4.290   1.591   8.760 -0.8516 -1.9852  3.0625
 7612SOL     OW34294   0.635   2.700   9.604 -0.0727  0.1012 -0.1968
 7612SOL    HW134295   0.701   2.645   9.647 -0.2976  0.7280  0.9579
 7612SOL    HW234296   0.686   2.711   9.524 -0.1853 -0.4280 -0.3359
 7613SOL     OW34297   3.862   2.682   4.321  0.2055  0.6964  0.2952
 7613SOL    HW134298   3.840   2.775   4.327 -2.8896 -0.1194  1.4129
 7613SOL    HW234299   3.786   2.635   4.353  0.9196  1.0983  2.5778
 7614SOL     OW34300   0.902   4.253   2.475 -0.0645  0.3848  0.3482
 7614SOL    HW134301   0.855   4.221   2.552  1.4379  1.8606  1.8845
 7614SOL    HW234302   0.832   4.290   2.422  1.2391  1.3132 -0.7520
 7615SOL     OW34303   3.568   0.442   8.479  0.0671  0.4725  0.0105
 7615SOL    HW134304   3.573   0.378   8.550  1.5199 -0.7154 -1.1471
 7615SOL    HW234305   3.554   0.524   8.526 -2.0679  0.2527 -0.2518
 7616SOL     OW34306   2.971   3.521   6.763  0.2711  0.2969 -0.0673
 7616SOL    HW134307   3.010   3.569   6.836  3.7118 -3.1051  0.3117
 7616SOL    HW234308   2.941   3.451   6.821 -0.2177  0.7087  0.1796
 7617SOL     OW34309   0.402   2.038   7.580 -0.2530 -0.1406  0.2248
 7617SOL    HW134310   0.467   2.029   7.510  0.7141 -1.4303  1.2785
 7617SOL    HW234311   0.395   2.131   7.603 -1.8402 -0.3071  0.3934
 7618SOL     OW34312   3.222   1.280  15.570 -0.0039 -0.2619  0.3561
 7618SOL    HW134313   3.159   1.352  15.559 -0.8067 -0.7527  1.7654
 7618SOL    HW234314   3.174   1.212  15.522 -0.6350  0.6607 -0.3424
 7619SOL     OW34315   0.849   0.534  10.490 -0.5339 -0.0889 -0.3377
 7619SOL    HW134316   0.825   0.457  10.438  0.2051  1.4072 -2.8787
 7619SOL    HW234317   0.766   0.581  10.483 -0.8620 -0.7502 -0.8966
 7620SOL     OW34318   1.952   4.203   3.975  0.0879 -0.1765  0.2290
 7620SOL    HW134319   1.975   4.116   3.944  0.3916 -1.3507  3.7548
 7620SOL    HW234320   2.038   4.244   3.967  0.5987 -1.3127 -0.1479
 7621SOL     OW34321   2.821   4.306   4.322 -0.3886  0.3185 -0.4861
 7621SOL    HW134322   2.883   4.239   4.352 -0.7203 -0.2823 -1.1539
 7621SOL    HW234323   2.877   4.352   4.259  0.8178  0.5719  0.7689
 7622SOL     OW34324   4.505   3.321   3.530 -0.3223 -0.6733  0.1531
 7622SOL    HW134325   4.560   3.344   3.605  1.2443 -1.4483 -0.7567
 7622SOL    HW234326   4.437   3.386   3.545  1.1667  1.3812 -2.0682
 7623SOL     OW34327   2.248   1.215  17.011  0.3506  0.1586  0.4231
 7623SOL    HW134328   2.253   1.160  16.933  0.0572  1.0450 -0.2158
 7623SOL    HW234329   2.185   1.160  17.058  1.3554 -0.6450  0.8193
 7624SOL     OW34330   1.642   2.243   1.441  0.7280 -0.5378 -0.1190
 7624SOL    HW134331   1.620   2.208   1.527 -2.9607  1.1071 -0.3752
 7624SOL    HW234332   1.557   2.226   1.399  1.9259 -1.0770 -2.3437
 7625SOL     OW34333   2.220   1.441   3.075  0.0234 -0.1753  0.0580
 7625SOL    HW134334   2.195   1.355   3.041  0.0564  0.5920 -1.9063
 7625SOL    HW234335   2.302   1.452   3.026 -0.2359  0.5436 -0.2017
 7626SOL     OW34336   3.114   3.497   3.619  0.0951  0.3596  0.1487
 7626SOL    HW134337   3.163   3.549   3.683 -1.0853  1.1863  0.3721
 7626SOL    HW234338   3.133   3.409   3.654 -0.2422 -0.2139 -1.1099
 7627SOL     OW34339   4.360   3.559  17.265  0.2316  0.1283  0.7013
 7627SOL    HW134340   4.362   3.579  17.171  1.4519  0.4780  0.7961
 7627SOL    HW234341   4.267   3.558  17.285 -0.1992  0.1526 -1.2558
 7628SOL     OW34342   0.726   2.911   3.974 -0.1440  0.4085 -0.0849
 7628SOL    HW134343   0.635   2.900   4.000 -0.4903  1.2991 -0.8988
 7628SOL    HW234344   0.776   2.849   4.026  0.0035  0.7629  0.1926
 7629SOL     OW34345   2.285   3.937   8.465 -0.4219  0.1843  0.4810
 7629SOL    HW134346   2.282   3.973   8.553  2.8090  1.7736 -0.0427
 7629SOL    HW234347   2.194   3.956   8.443 -0.5588 -1.3613 -0.2637
 7630SOL     OW34348   3.749   1.595   3.114  0.3326 -1.0180  0.4535
 7630SOL    HW134349   3.722   1.661   3.177  2.1309 -0.3224  0.5016
 7630SOL    HW234350   3.747   1.512   3.162 -0.6571 -2.3098 -1.8187
 7631SOL     OW34351   3.501   1.057  10.619  0.3088 -0.0169 -0.4007
 7631SOL    HW134352   3.480   1.117  10.548 -1.8799  0.3235  0.5322
 7631SOL    HW234353   3.586   1.027  10.586 -0.0481 -0.3312 -1.0260
 7632SOL     OW34354   4.436   0.755   4.361 -0.3583 -0.6277  0.3326
 7632SOL    HW134355   4.372   0.777   4.294  1.1314 -0.4957 -1.0436
 7632SOL    HW234356   4.410   0.824   4.422  1.9499  2.6064 -2.3750
 7633SOL     OW34357   1.307   1.479   1.243 -0.4703 -0.4046 -0.3822
 7633SOL    HW134358   1.221   1.489   1.202  0.9495  0.6475 -3.0725
 7633SOL    HW234359   1.290   1.435   1.327 -0.2512  0.4235  0.0993
 7634SOL     OW34360   0.828   4.123   5.572  0.0771 -0.4883 -0.0254
 7634SOL    HW134361   0.752   4.075   5.604 -0.4683  0.0929 -0.4585
 7634SOL    HW234362   0.810   4.216   5.587 -2.3273 -1.0143  0.2326
 7635SOL     OW34363   1.977   2.028   5.730  0.2338 -0.1758 -0.2201
 7635SOL    HW134364   1.882   2.026   5.716 -0.0518 -0.3122  1.7159
 7635SOL    HW234365   2.022   1.996   5.652  1.9712  1.3425  0.1541
 7636SOL     OW34366   2.454   2.868   9.486 -0.2117 -0.5208 -1.0182
 7636SOL    HW134367   2.418   2.781   9.508 -0.7700  0.1504  0.7668
 7636SOL    HW234368   2.387   2.905   9.429 -0.1555  1.0352 -0.0590
 7637SOL     OW34369   0.489   1.718  16.703 -0.1234 -0.1729  0.0153
 7637SOL    HW134370   0.528   1.789  16.755 -0.5247  1.3698 -1.7938
 7637SOL    HW234371   0.412   1.702  16.758  0.3380 -0.8210  0.4811
 7638SOL     OW34372   1.765   2.232   3.359 -0.1078 -0.7963 -0.2454
 7638SOL    HW134373   1.799   2.309   3.313 -0.1256  0.8926  2.5226
 7638SOL    HW234374   1.845   2.181   3.374 -1.0117 -3.0687 -3.1683
 7639SOL     OW34375   3.537   4.402   6.127 -0.2034  0.3945 -0.2889
 7639SOL    HW134376   3.484   4.480   6.108  0.7297  1.2966  0.7488
 7639SOL    HW234377   3.515   4.400   6.220 -2.6422 -1.4439 -0.9145
 7640SOL     OW34378   2.808   3.321   1.631 -0.3446  0.3073 -0.7841
 7640SOL    HW134379   2.810   3.291   1.540  0.5138 -1.9436 -0.0189
 7640SOL    HW234380   2.776   3.411   1.624 -0.8758  0.2875  1.4851
 7641SOL     OW34381   4.101   2.017   7.071 -0.2466 -0.3349  0.1695
 7641SOL    HW134382   4.137   1.951   7.130 -0.1070 -1.8417 -1.5825
 7641SOL    HW234383   4.118   1.982   6.984  1.4382  0.5807  0.1398
 7642SOL     OW34384   3.379   1.316  11.462  0.1349 -0.2009 -0.0001
 7642SOL    HW134385   3.331   1.321  11.545 -0.1665  0.2525 -0.2051
 7642SOL    HW234386   3.416   1.403  11.447  0.9063 -0.4888  0.2059
 7643SOL     OW34387   3.336   3.021   7.534 -0.0651 -0.2120 -0.5314
 7643SOL    HW134388   3.289   3.014   7.617 -0.5819  0.1216 -0.7943
 7643SOL    HW234389   3.394   2.945   7.525 -0.6354 -0.6774 -0.3091
 7644SOL     OW34390   3.788   1.895  15.918 -0.1237  0.0848  0.2830
 7644SOL    HW134391   3.748   1.890  15.832  2.2666  4.3375 -1.0783
 7644SOL    HW234392   3.859   1.832  15.910 -1.3451 -1.0809 -1.2592
 7645SOL     OW34393   2.312   3.879   6.769  0.2209 -0.0744 -0.3846
 7645SOL    HW134394   2.382   3.850   6.710  1.5601 -0.4735  1.3868
 7645SOL    HW234395   2.366   3.927   6.831  0.4926 -1.2167  0.2556
 7646SOL     OW34396   0.135   1.271   3.081 -0.0806  1.0808 -0.6357
 7646SOL    HW134397   0.112   1.238   3.167  0.3018  3.0073  0.2149
 7646SOL    HW234398   0.231   1.272   3.087 -0.1657  2.2547  0.5537
 7647SOL     OW34399   0.301   1.022   5.336  0.2085  0.1333  0.1699
 7647SOL    HW134400   0.222   1.004   5.388  1.9908  0.1863  2.9084
 7647SOL    HW234401   0.276   1.108   5.304 -0.6930  0.5821  2.0352
 7648SOL     OW34402   0.859   1.443   6.917 -0.5080 -0.0425  0.1381
 7648SOL    HW134403   0.814   1.514   6.963  0.9584 -0.2032  1.8301
 7648SOL    HW234404   0.936   1.428   6.972 -1.3345 -1.4750  0.9107
 7649SOL     OW34405   4.368   3.135   1.573 -0.0992 -0.2948  0.1378
 7649SOL    HW134406   4.319   3.117   1.493 -0.0032 -0.1727  0.0523
 7649SOL    HW234407   4.325   3.077   1.636 -0.1536  1.3672  1.6086
 7650SOL     OW34408   2.802   2.608  12.010 -0.4623  0.2211 -0.3301
 7650SOL    HW134409   2.774   2.700  12.003  3.0320  1.5036  2.5003
 7650SOL    HW234410   2.822   2.600  11.917 -0.4783  0.8211 -0.3906
 7651SOL     OW34411   1.914   0.206  16.329  0.2228 -0.1951 -0.7944
 7651SOL    HW134412   1.866   0.204  16.246 -1.3229 -1.2165  0.1022
 7651SOL    HW234413   1.987   0.148  16.308 -1.2873 -1.9816 -1.1381
 7652SOL     OW34414   2.300   3.481   8.478  0.3885  0.6746 -0.1062
 7652SOL    HW134415   2.278   3.448   8.391 -1.2463 -0.7918  0.8615
 7652SOL    HW234416   2.247   3.560   8.486 -0.0351  0.1478  2.2298
 7653SOL     OW34417   4.699   2.982  16.419 -0.0504 -0.6070 -0.1970
 7653SOL    HW134418   0.049   3.041  16.436  0.1091 -0.4537 -1.4232
 7653SOL    HW234419   0.015   2.903  16.382 -0.9302 -0.5212 -1.3210
 7654SOL     OW34420   0.721   4.184   0.218 -0.1024 -0.6055  0.5580
 7654SOL    HW134421   0.719   4.144   0.131 -0.7172  0.0789  0.2622
 7654SOL    HW234422   0.640   4.235   0.222 -0.8440 -1.8303  1.1060
 7655SOL     OW34423   0.424   2.418  12.254  0.2257  0.1869  0.2983
 7655SOL    HW134424   0.430   2.353  12.324 -0.2382 -0.9660 -0.7405
 7655SOL    HW234425   0.508   2.401  12.211 -0.8527  0.5130 -1.9374
 7656SOL     OW34426   4.608   1.228  16.958 -0.0994  0.0646 -0.2689
 7656SOL    HW134427   4.516   1.225  16.932 -0.8665  1.4277  2.3461
 7656SOL    HW234428   4.636   1.314  16.929  0.0801  1.2080  3.2884
 7657SOL     OW34429   3.454   3.462   3.922  0.1012 -0.0644 -0.1216
 7657SOL    HW134430   3.423   3.410   3.848 -1.4789 -0.3497  0.7427
 7657SOL    HW234431   3.538   3.493   3.889  0.1480 -0.7398 -0.6586
 7658SOL     OW34432   3.240   0.025   6.350 -0.7034  0.0468  0.2278
 7658SOL    HW134433   3.300   0.096   6.369  0.3654 -0.7820 -0.0584
 7658SOL    HW234434   3.157   0.071   6.334 -0.9644 -0.5885 -0.2670
 7659SOL     OW34435   2.793   4.701   3.507 -0.4278  0.7228 -0.1645
 7659SOL    HW134436   2.825   0.067   3.516  1.6022 -0.0442  0.4222
 7659SOL    HW234437   2.874   4.650   3.501  0.4143  1.9909  0.5273
 7660SOL     OW34438   1.874   4.664   8.884 -0.5544  0.1537  0.3310
 7660SOL    HW134439   1.924   4.591   8.921  1.8492  2.9841  2.6954
 7660SOL    HW234440   1.944   4.719   8.847 -1.2224  0.5815 -0.3095
 7661SOL     OW34441   0.640   2.204   7.135  0.2046 -0.6838  0.2378
 7661SOL    HW134442   0.576   2.263   7.176  1.8742  2.2682 -1.3612
 7661SOL    HW234443   0.716   2.259   7.156  0.3962 -1.5027  1.6571
 7662SOL     OW34444   3.617   1.972   7.312  0.2078  0.1052  0.2459
 7662SOL    HW134445   3.708   1.960   7.339  0.1584 -0.0609  0.3357
 7662SOL    HW234446   3.572   1.984   7.396 -1.7254 -3.1845 -0.3344
 7663SOL     OW34447   0.321   1.647   3.935 -0.0626 -0.2163 -0.6169
 7663SOL    HW134448   0.334   1.567   3.986  0.9431  0.1331 -0.3204
 7663SOL    HW234449   0.406   1.652   3.891 -0.3017 -2.2916 -1.3084
 7664SOL     OW34450   1.722   4.480   7.746 -0.1506 -0.2146 -0.0089
 7664SOL    HW134451   1.643   4.530   7.724 -1.6465 -2.3564  0.5962
 7664SOL    HW234452   1.711   4.467   7.840  4.1543  1.0986  0.7230
 7665SOL     OW34453   3.960   0.285   7.801 -0.0963 -0.0310 -0.3174
 7665SOL    HW134454   3.894   0.273   7.733  1.2677  1.1681 -1.8445
 7665SOL    HW234455   3.914   0.329   7.873  0.7435  0.4341 -0.0604
 7666SOL     OW34456   4.140   1.866   7.876  0.2656 -0.5176  0.0191
 7666SOL    HW134457   4.184   1.884   7.960 -1.2987 -0.5228  0.8463
 7666SOL    HW234458   4.211   1.879   7.814 -0.5156  2.3141 -0.2621
 7667SOL     OW34459   3.103   1.005   5.243 -0.3518 -0.5050 -0.5552
 7667SOL    HW134460   3.143   0.935   5.295  0.0124  0.7022  0.7667
 7667SOL    HW234461   3.035   1.043   5.298 -0.8546 -1.0403 -0.8084
 7668SOL     OW34462   1.236   4.489   3.887 -0.4482 -0.0100 -0.5823
 7668SOL    HW134463   1.255   4.487   3.794 -3.1530  1.9810 -1.1784
 7668SOL    HW234464   1.219   4.395   3.899 -0.7977 -0.0161 -1.1349
 7669SOL     OW34465   2.337   3.797   3.412  0.3974  0.4850  0.1296
 7669SOL    HW134466   2.419   3.806   3.363  0.6212  2.7204  0.9480
 7669SOL    HW234467   2.321   3.890   3.423  1.1349  0.6871 -0.5003
 7670SOL     OW34468   3.941   1.830   4.795  0.3622  0.0487 -0.1921
 7670SOL    HW134469   4.001   1.756   4.793 -0.3617 -0.6062  1.8017
 7670SOL    HW234470   3.902   1.825   4.708 -0.2053  2.2194 -0.0722
 7671SOL     OW34471   0.997   1.214   1.851 -0.3475 -0.6722  0.3483
 7671SOL    HW134472   1.007   1.307   1.870  1.6083 -0.7377 -0.4017
 7671SOL    HW234473   0.960   1.212   1.762  0.2690  1.7518  0.0379
 7672SOL     OW34474   0.775   4.432   8.356  0.0692  0.5168  0.1610
 7672SOL    HW134475   0.713   4.498   8.385 -0.1578  0.3697  0.0079
 7672SOL    HW234476   0.731   4.418   8.273  1.9469  2.8993 -1.2297
 7673SOL     OW34477   0.466   2.397   8.420  0.0767 -1.3476  0.1480
 7673SOL    HW134478   0.547   2.385   8.469  0.0381 -0.3180  0.4788
 7673SOL    HW234479   0.499   2.435   8.338 -2.3478  0.0513 -0.1643
 7674SOL     OW34480   0.762   0.111   5.974 -0.4777 -0.3009  0.7616
 7674SOL    HW134481   0.674   0.129   6.006  0.4645  1.4615  2.3907
 7674SOL    HW234482   0.748   0.157   5.891  1.5888 -0.3425  0.3925
 7675SOL     OW34483   1.232   0.563   5.596 -0.4069 -0.3912  0.8523
 7675SOL    HW134484   1.250   0.536   5.505 -1.3494 -1.9128  1.1240
 7675SOL    HW234485   1.258   0.483   5.642 -1.0216 -1.8139 -1.2375
 7676SOL     OW34486   0.683   1.510   2.549  0.0872  0.7085  0.0649
 7676SOL    HW134487   0.654   1.497   2.459  1.1758  2.2907 -0.5126
 7676SOL    HW234488   0.705   1.603   2.557  2.0576  0.4213 -2.0471
 7677SOL     OW34489   2.625   1.555   2.676  0.1868  0.0009 -0.1422
 7677SOL    HW134490   2.678   1.478   2.654  0.6782 -0.3652  2.3593
 7677SOL    HW234491   2.687   1.599   2.735 -0.0637  0.2994 -0.1030
 7678SOL     OW34492   0.203   1.101  15.318  0.3779  0.5856 -0.0417
 7678SOL    HW134493   0.291   1.121  15.284  0.2309  0.0847 -0.7043
 7678SOL    HW234494   0.203   1.154  15.397  2.4164 -0.3136  0.5562
 7679SOL     OW34495   1.311   0.486  15.029 -0.6415 -0.1942  0.2585
 7679SOL    HW134496   1.401   0.458  15.043 -0.7656 -1.2260 -1.0699
 7679SOL    HW234497   1.281   0.466  15.118  0.0740 -0.6720  0.3891
 7680SOL     OW34498   2.613   2.009   3.728  0.5843 -0.0232  0.5628
 7680SOL    HW134499   2.532   2.021   3.678  1.1505  0.1299 -0.3225
 7680SOL    HW234500   2.649   2.097   3.740 -3.0171  1.5172  0.1844
 7681SOL     OW34501   4.252   0.161   3.261 -0.1193 -0.0587  0.3418
 7681SOL    HW134502   4.337   0.159   3.219  0.0546 -1.6252  0.7721
 7681SOL    HW234503   4.202   0.227   3.212 -0.1050 -0.3123 -0.0110
 7682SOL     OW34504   4.590   2.173   7.749  0.0356  0.0733  0.6981
 7682SOL    HW134505   4.541   2.221   7.683  1.7249  0.3841 -0.3498
 7682SOL    HW234506   4.659   2.134   7.695  0.5278  0.8385  0.7806
 7683SOL     OW34507   2.008   3.219   3.057  0.0383 -0.1676  0.2111
 7683SOL    HW134508   1.942   3.151   3.044  0.2727 -0.0767 -1.4254
 7683SOL    HW234509   1.969   3.297   3.019  0.1578  0.0876  0.6190
 7684SOL     OW34510   0.626   0.052   4.109  0.4008 -0.4410  0.0088
 7684SOL    HW134511   0.602   4.702   4.053  0.8557 -0.2613 -0.4143
 7684SOL    HW234512   0.717   0.058   4.082  0.6353  0.0606  0.9256
 7685SOL     OW34513   3.361   2.979   3.779  0.2545 -0.3143 -0.6272
 7685SOL    HW134514   3.360   2.883   3.784  0.8140 -0.3331 -0.9760
 7685SOL    HW234515   3.336   2.998   3.870 -0.6065  0.0860 -0.9394
 7686SOL     OW34516   1.492   1.862   6.129 -0.2874  0.1474 -0.1167
 7686SOL    HW134517   1.407   1.821   6.145 -1.1330  1.4896 -1.1761
 7686SOL    HW234518   1.480   1.910   6.047 -0.0301 -0.1027 -0.2986
 7687SOL     OW34519   3.320   1.880   6.067 -0.2101 -0.1511 -0.1124
 7687SOL    HW134520   3.359   1.794   6.053 -1.1350 -0.4831 -0.6903
 7687SOL    HW234521   3.232   1.864   6.101 -0.3878 -1.2849 -1.1061
 7688SOL     OW34522   0.671   4.654   3.185  0.3459 -0.0642 -0.3785
 7688SOL    HW134523   0.728   4.697   3.249 -0.7734  1.1332 -0.1797
 7688SOL    HW234524   0.657   0.005   3.126 -0.0619  1.4078  1.5439
 7689SOL     OW34525   1.848   2.810  12.975  0.4538 -0.2728 -0.2007
 7689SOL    HW134526   1.821   2.825  13.066 -0.2821 -1.3610 -0.2315
 7689SOL    HW234527   1.915   2.743  12.992  0.0688 -0.9676 -1.4124
 7690SOL     OW34528   1.864   2.003  16.604  0.6748 -0.4246 -0.9027
 7690SOL    HW134529   1.841   2.091  16.633  0.9694 -1.2039  1.7181
 7690SOL    HW234530   1.804   1.988  16.531  1.4908  0.0461 -1.6763
 7691SOL     OW34531   3.976   3.621  13.008  0.3220 -0.2639 -0.1004
 7691SOL    HW134532   3.994   3.716  13.008 -1.2239  0.0198 -0.3734
 7691SOL    HW234533   3.899   3.628  13.064  2.4042 -0.3283  2.7412
 7692SOL     OW34534   1.281   1.908   4.261 -0.4110  0.0933  0.2734
 7692SOL    HW134535   1.239   1.994   4.261  1.2708  0.9072  1.6781
 7692SOL    HW234536   1.246   1.876   4.344  0.8486 -0.9206  0.4189
 7693SOL     OW34537   4.047   2.104   2.464  0.2754 -0.3166  0.1246
 7693SOL    HW134538   3.966   2.154   2.466 -0.2572 -1.1045 -1.4890
 7693SOL    HW234539   4.072   2.110   2.556 -1.0305  0.1420  0.4501
 7694SOL     OW34540   4.495   0.155   9.730  0.2458 -0.3094 -0.4552
 7694SOL    HW134541   4.463   0.244   9.718  0.5638 -0.1194  0.1210
 7694SOL    HW234542   4.590   0.164   9.723 -0.0535  2.7479 -0.4525
 7695SOL     OW34543   4.292   4.066   3.584 -0.2149 -0.1791 -0.2801
 7695SOL    HW134544   4.280   4.072   3.679  1.6813 -0.2475 -0.0251
 7695SOL    HW234545   4.299   3.972   3.572 -1.9267 -0.2585 -0.6377
 7696SOL     OW34546   0.507   4.383   1.343 -0.1681 -0.2467  0.4591
 7696SOL    HW134547   0.508   4.427   1.428  0.7939 -1.0890  0.8873
 7696SOL    HW234548   0.419   4.410   1.315  0.4970  2.1590  0.7109
 7697SOL     OW34549   1.128   3.377  10.882 -0.1566 -0.1622  0.0439
 7697SOL    HW134550   1.135   3.333  10.967 -2.4629 -0.0632  0.2762
 7697SOL    HW234551   1.192   3.447  10.891 -0.5958  0.2485 -0.0748
 7698SOL     OW34552   0.061   3.090   0.139 -0.4804  0.2555 -0.0615
 7698SOL    HW134553   0.056   3.096   0.235 -0.4627  2.8181 -0.2250
 7698SOL    HW234554   0.079   3.182   0.117 -1.7864  0.6801  0.6112
 7699SOL     OW34555   2.002   0.559   7.381  0.9027 -0.2003  0.6325
 7699SOL    HW134556   2.024   0.585   7.291  3.5413 -0.4597  1.2044
 7699SOL    HW234557   2.019   0.635   7.436 -0.2463 -1.2702  2.4513
 7700SOL     OW34558   4.102   2.642  10.399  0.3298 -0.9124 -0.0547
 7700SOL    HW134559   4.022   2.690  10.380  0.4350 -0.9480 -0.5852
 7700SOL    HW234560   4.080   2.604  10.484 -1.2777  0.4918  0.1468
 7701SOL     OW34561   4.069   2.530   2.492 -0.0946 -0.0404  0.4596
 7701SOL    HW134562   4.003   2.565   2.552 -0.2313 -2.1320  1.5187
 7701SOL    HW234563   4.071   2.606   2.433  1.0500  0.5308  1.2478
 7702SOL     OW34564   1.163   1.836   0.612  0.8252  0.1375 -0.3352
 7702SOL    HW134565   1.144   1.751   0.651  1.8339  0.2297  0.3599
 7702SOL    HW234566   1.233   1.806   0.553  1.7785  3.8515 -1.1038
 7703SOL     OW34567   1.017   4.152   3.428  0.4487 -0.0583 -0.2634
 7703SOL    HW134568   0.958   4.130   3.500  0.3049 -0.0151 -0.3686
 7703SOL    HW234569   1.099   4.142   3.476 -0.0626 -1.8030  0.2353
 7704SOL     OW34570   1.381   2.959   6.489 -0.0083  0.3627 -0.2296
 7704SOL    HW134571   1.451   2.973   6.427 -0.0061 -0.4963 -0.4270
 7704SOL    HW234572   1.321   3.033   6.475 -2.4973 -1.2837  1.4811
 7705SOL     OW34573   4.330   2.625   6.024 -0.5813 -0.4425 -0.1194
 7705SOL    HW134574   4.388   2.700   6.033  0.2481 -1.1115  0.0533
 7705SOL    HW234575   4.359   2.586   5.942 -0.3309  0.4671 -0.4625
 7706SOL     OW34576   3.607   3.702  10.988  0.2015  0.1197 -0.0253
 7706SOL    HW134577   3.624   3.653  11.068  3.9615  1.5368  0.0288
 7706SOL    HW234578   3.511   3.694  10.989  0.4069 -2.6942 -1.5644
 7707SOL     OW34579   3.607   1.656  14.134 -0.7873 -0.2141 -0.2843
 7707SOL    HW134580   3.580   1.596  14.064 -3.4476 -1.9914  2.2695
 7707SOL    HW234581   3.693   1.623  14.159  0.0684  0.7526 -1.9338
 7708SOL     OW34582   0.020   3.264   9.816  0.4804 -0.5764  0.4677
 7708SOL    HW134583   4.665   3.318   9.808  1.8249  1.4096  0.6528
 7708SOL    HW234584   0.078   3.317   9.871 -1.3666  0.5287  1.3378
 7709SOL     OW34585   1.979   1.694   5.085  0.1287 -0.0634  0.1165
 7709SOL    HW134586   1.899   1.692   5.033 -1.1255 -0.6630  2.0598
 7709SOL    HW234587   1.989   1.605   5.117 -0.0726  0.3065  1.2157
 7710SOL     OW34588   3.314   3.180  12.662  0.0708 -0.1106 -0.0844
 7710SOL    HW134589   3.242   3.137  12.615 -1.0072  2.4805 -0.8258
 7710SOL    HW234590   3.359   3.101  12.691 -4.1999 -2.3943  0.3639
 7711SOL     OW34591   1.852   2.167   5.056  0.6021  0.3849  0.0289
 7711SOL    HW134592   1.759   2.154   5.038  0.0152  1.6968  2.1719
 7711SOL    HW234593   1.862   2.262   5.055  0.5673  0.3780 -1.2755
 7712SOL     OW34594   0.722   4.365  14.576  0.0007  0.0718 -0.7374
 7712SOL    HW134595   0.812   4.333  14.577  0.1318  0.4460 -0.5064
 7712SOL    HW234596   0.690   4.332  14.492  1.9797 -1.6771 -0.8135
 7713SOL     OW34597   2.209   2.408  10.100 -0.4013  0.0185  0.1617
 7713SOL    HW134598   2.254   2.426  10.018  0.2963 -1.6336  0.1885
 7713SOL    HW234599   2.119   2.427  10.073 -1.2647  0.7870  3.4557
 7714SOL     OW34600   4.692   1.625   5.955 -0.1765  0.4441  0.2451
 7714SOL    HW134601   4.656   1.558   5.897 -4.4056  2.7684  0.2033
 7714SOL    HW234602   4.609   1.669   5.973 -1.2566 -1.4482 -0.1122
 7715SOL     OW34603   4.702   0.968   1.953 -0.0716  0.0531 -0.4437
 7715SOL    HW134604   4.707   0.953   2.047 -1.0762  0.7188 -0.2827
 7715SOL    HW234605   4.623   1.022   1.955  1.0485  1.6854  0.1641
 7716SOL     OW34606   4.476   1.464   2.902  0.2209 -0.0303  0.7316
 7716SOL    HW134607   4.489   1.534   2.838  2.8738  0.7162  2.0544
 7716SOL    HW234608   4.560   1.422   2.885 -0.2263  0.1575 -1.9580
 7717SOL     OW34609   1.613   2.305   2.188 -0.2238 -0.4682 -0.7198
 7717SOL    HW134610   1.601   2.274   2.277  0.8216 -0.8128 -0.7061
 7717SOL    HW234611   1.698   2.348   2.185 -0.4517 -0.0932 -1.9285
 7718SOL     OW34612   3.202   3.283   8.337  0.2193  0.1269  0.0286
 7718SOL    HW134613   3.265   3.298   8.408  0.3537 -0.5552  0.0596
 7718SOL    HW234614   3.221   3.190   8.321  2.4120  0.7678 -1.0140
 7719SOL     OW34615   0.411   1.089   1.964 -0.0965 -0.4982 -0.1313
 7719SOL    HW134616   0.332   1.139   1.945 -1.0708 -1.7261  0.6552
 7719SOL    HW234617   0.483   1.151   1.976 -1.2181  1.2140 -2.5047
 7720SOL     OW34618   4.705   1.148  12.022  0.7670  0.0479 -0.3661
 7720SOL    HW134619   4.648   1.102  11.960 -1.1693  0.8658  0.7988
 7720SOL    HW234620   4.640   1.174  12.088 -0.1418 -0.9752 -0.8686
 7721SOL     OW34621   3.413   2.331  14.886  0.1780 -0.4592  0.3361
 7721SOL    HW134622   3.503   2.334  14.919  0.1309 -2.4816  0.6511
 7721SOL    HW234623   3.400   2.236  14.881 -1.9925 -0.0219 -2.0102
 7722SOL     OW34624   2.696   1.328  11.359  0.0344 -0.0552 -0.3140
 7722SOL    HW134625   2.647   1.280  11.292 -0.2185 -1.3582  0.7939
 7722SOL    HW234626   2.647   1.286  11.430  0.2569  1.0389  0.4868
 7723SOL     OW34627   0.466   2.052  16.326 -0.2170  0.8102  0.3848
 7723SOL    HW134628   0.482   2.142  16.297  3.0289 -0.6507 -2.4019
 7723SOL    HW234629   0.471   2.057  16.422 -3.4638  1.4526  0.5090
 7724SOL     OW34630   4.479   2.266   4.121  0.2968  0.5390  0.2355
 7724SOL    HW134631   4.415   2.315   4.070 -0.0267 -1.8918 -1.7314
 7724SOL    HW234632   4.527   2.220   4.052  0.3945  1.5186 -0.3543
 7725SOL     OW34633   1.194   2.155  14.345 -0.2522 -0.5952  0.2945
 7725SOL    HW134634   1.202   2.080  14.286  0.2341 -0.3898  0.0937
 7725SOL    HW234635   1.118   2.192  14.301 -1.1688 -3.4207 -0.4743
 7726SOL     OW34636   4.670   4.360   7.347 -0.2256 -0.0967 -0.0581
 7726SOL    HW134637   0.028   4.329   7.308  0.7613  1.6808  0.5671
 7726SOL    HW234638   4.660   4.301   7.422 -0.4259  0.3668  0.2801
 7727SOL     OW34639   1.988   1.940  16.862  0.4499  0.1013 -0.1227
 7727SOL    HW134640   2.065   1.997  16.870  0.5887 -0.0941 -0.0788
 7727SOL    HW234641   1.944   1.963  16.780 -2.5230  2.4463  2.1375
 7728SOL     OW34642   2.040   1.817   0.110  0.0409 -0.1906  0.1160
 7728SOL    HW134643   2.102   1.778   0.048  0.8662  0.4964  0.5105
 7728SOL    HW234644   2.084   1.819   0.195 -1.8603 -1.8146  1.1466
 7729SOL     OW34645   3.177   1.851   0.292 -0.2875  0.0024 -0.2147
 7729SOL    HW134646   3.225   1.774   0.263  0.0372  0.5644 -1.1862
 7729SOL    HW234647   3.194   1.852   0.386 -2.4012  0.1504  0.1579
 7730SOL     OW34648   0.061   1.436   0.815  0.5229  0.3983  0.0560
 7730SOL    HW134649   0.132   1.500   0.822  2.1462 -1.4970  0.9928
 7730SOL    HW234650   4.722   1.508   0.809  0.9367  0.6497 -1.1108
 7731SOL     OW34651   4.417   0.554   2.359 -0.3415 -0.3582 -0.3728
 7731SOL    HW134652   4.476   0.524   2.289  1.0761 -0.9017  1.0658
 7731SOL    HW234653   4.337   0.533   2.311 -0.3788 -1.0256 -0.0086
 7732SOL     OW34654   3.310   1.767   8.757  0.0559  0.0450 -0.4462
 7732SOL    HW134655   3.232   1.805   8.797 -0.8892 -0.0384 -2.2107
 7732SOL    HW234656   3.279   1.690   8.710 -2.6519  1.5126 -1.1001
 7733SOL     OW34657   1.949   2.156   7.152  0.2736 -0.1319 -0.3223
 7733SOL    HW134658   2.024   2.196   7.195 -2.2273  0.8504  3.1179
 7733SOL    HW234659   1.990   2.105   7.082 -1.4583 -0.5222 -1.0653
 7734SOL     OW34660   3.208   4.646   4.715  0.4592  0.8445  0.3985
 7734SOL    HW134661   3.212   4.562   4.762 -1.1564 -1.0024 -2.7519
 7734SOL    HW234662   3.160   4.626   4.634 -0.7121  0.6087  1.1484
 7735SOL     OW34663   1.355   1.408   3.413 -0.0835  0.2282 -0.5168
 7735SOL    HW134664   1.427   1.349   3.388  0.0414  1.0363 -2.0772
 7735SOL    HW234665   1.290   1.399   3.343  0.0218  2.4792 -0.8875
 7736SOL     OW34666   1.746   3.616   8.635  0.0899 -0.4068 -0.5084
 7736SOL    HW134667   1.795   3.654   8.708 -0.1035 -0.1852 -0.4927
 7736SOL    HW234668   1.812   3.558   8.597  2.9892  2.2153  0.5436
 7737SOL     OW34669   4.343   1.324   1.350  0.1078  0.0284 -0.3243
 7737SOL    HW134670   4.285   1.252   1.373  1.1257 -0.3321  1.1148
 7737SOL    HW234671   4.315   1.362   1.267 -1.6716 -0.3923  0.0834
 7738SOL     OW34672   0.111   3.543   1.682  0.0379  0.1131  0.1269
 7738SOL    HW134673   0.186   3.514   1.630 -0.2110  2.1298 -1.3385
 7738SOL    HW234674   0.041   3.537   1.617  0.3516 -0.0250 -0.2015
 7739SOL     OW34675   2.231   0.488   8.693 -0.4172  0.1758 -0.3791
 7739SOL    HW134676   2.222   0.582   8.707 -0.7345  0.0701  0.1160
 7739SOL    HW234677   2.234   0.458   8.784  1.1132 -0.1714 -0.5515
 7740SOL     OW34678   4.581   1.666   9.010 -0.7218 -0.1384  0.1524
 7740SOL    HW134679   4.666   1.700   8.982 -0.8510  0.0409 -0.0177
 7740SOL    HW234680   4.602   1.573   9.012 -4.3325 -0.9403 -0.1341
 7741SOL     OW34681   3.927   2.028   9.432  0.0734  0.7332  0.1775
 7741SOL    HW134682   3.921   1.984   9.347 -2.3693 -2.1029  1.8132
 7741SOL    HW234683   3.874   2.105   9.412 -0.4971  0.0509 -0.9189
 7742SOL     OW34684   1.286   4.586   4.934 -1.0192 -0.2637  0.8068
 7742SOL    HW134685   1.266   4.570   4.842 -1.3968  2.0826  0.4762
 7742SOL    HW234686   1.381   4.597   4.937 -0.9142 -1.0655  0.3959
 7743SOL     OW34687   2.460   2.300   4.837 -0.1021  0.1601 -0.1102
 7743SOL    HW134688   2.445   2.208   4.813  2.3560 -0.1132 -0.5839
 7743SOL    HW234689   2.372   2.325   4.865  0.5188  1.1290  0.9358
 7744SOL     OW34690   4.392   4.367   6.178  0.1039 -0.4225  0.3587
 7744SOL    HW134691   4.410   4.279   6.209 -0.3484 -0.6583 -0.0527
 7744SOL    HW234692   4.406   4.418   6.258 -0.7455  0.4208 -0.0320
 7745SOL     OW34693   1.729   4.052   2.495 -0.5305 -0.5696 -0.3155
 7745SOL    HW134694   1.637   4.070   2.514 -0.3895 -0.7927  0.5746
 7745SOL    HW234695   1.738   4.124   2.432  0.6654 -0.6111 -0.1939
 7746SOL     OW34696   2.048   2.156   8.997 -0.5773  0.3312  0.1696
 7746SOL    HW134697   1.953   2.170   8.997 -0.2060  2.8428  1.8957
 7746SOL    HW234698   2.076   2.224   8.935 -0.6469 -0.0141 -0.2378
 7747SOL     OW34699   0.572   1.828   3.720  0.2004  0.5505  0.2604
 7747SOL    HW134700   0.538   1.901   3.668  1.2747 -0.7533 -2.2637
 7747SOL    HW234701   0.562   1.870   3.805 -0.1613  0.7608  0.1088
 7748SOL     OW34702   1.057   1.860   4.405 -0.3597  0.0913  0.0473
 7748SOL    HW134703   1.063   1.772   4.368  1.6177 -0.3335  1.3275
 7748SOL    HW234704   1.004   1.902   4.337  2.5104 -0.7488 -2.7337
 7749SOL     OW34705   0.298   1.164   7.552  0.2303  0.1351 -0.3825
 7749SOL    HW134706   0.294   1.260   7.550  0.4656  0.1405 -0.7163
 7749SOL    HW234707   0.233   1.148   7.620  0.1968  0.4758 -0.3310
 7750SOL     OW34708   1.804   4.203   7.686 -0.2205 -0.1028  0.0428
 7750SOL    HW134709   1.748   4.265   7.733 -0.6809 -0.2419 -0.3181
 7750SOL    HW234710   1.872   4.260   7.649 -1.4750 -0.5061 -2.8848
 7751SOL     OW34711   3.329   3.848   1.265  0.3589  0.3591 -0.0727
 7751SOL    HW134712   3.408   3.873   1.219  0.6352  0.8190  0.6400
 7751SOL    HW234713   3.371   3.815   1.344  0.7651 -0.5932 -0.6925
 7752SOL     OW34714   3.884   2.656   2.696 -0.2659 -0.0192 -0.3084
 7752SOL    HW134715   3.842   2.662   2.782  0.2312  0.9056 -0.1309
 7752SOL    HW234716   3.904   2.749   2.687  0.9245 -0.3298 -0.9598
 7753SOL     OW34717   1.362   4.415   4.284  0.0573 -0.2476  0.1239
 7753SOL    HW134718   1.270   4.394   4.272  0.1005  1.3232 -2.8941
 7753SOL    HW234719   1.401   4.406   4.197 -0.6782  3.3800 -0.6093
 7754SOL     OW34720   1.772   3.728   9.015 -0.6386 -0.0252 -0.1484
 7754SOL    HW134721   1.700   3.705   9.074 -1.0760 -0.9547 -1.0516
 7754SOL    HW234722   1.817   3.645   9.005 -0.8469 -0.2084  0.4538
 7755SOL     OW34723   2.238   2.159  13.224 -0.1440 -0.3467  0.0660
 7755SOL    HW134724   2.159   2.127  13.267 -0.6935 -2.1018 -2.2111
 7755SOL    HW234725   2.265   2.237  13.272 -0.7496  0.8633 -1.5336
 7756SOL     OW34726   2.390   0.648  17.353 -0.6461  0.5590 -0.3791
 7756SOL    HW134727   2.388   0.726  17.408  0.0696  0.6714 -0.5013
 7756SOL    HW234728   2.386   0.685  17.265  1.3526  2.4715  0.3237
 7757SOL     OW34729   3.773   1.590  15.666 -0.1864  0.2896 -0.3330
 7757SOL    HW134730   3.727   1.553  15.591  0.0762 -1.5562  0.4300
 7757SOL    HW234731   3.733   1.675  15.683 -2.7214 -0.8002 -0.8522
 7758SOL     OW34732   3.990   1.953  16.903 -0.4582 -0.5444  0.2342
 7758SOL    HW134733   4.004   1.989  16.815  0.8157  0.8423  1.0118
 7758SOL    HW234734   4.048   2.004  16.959 -0.7415  0.4939 -0.4268
 7759SOL     OW34735   3.406   3.695   5.374  0.4701 -0.0286 -0.7091
 7759SOL    HW134736   3.370   3.782   5.390  2.3433  0.1276  2.6691
 7759SOL    HW234737   3.388   3.641   5.451 -1.8295  2.7341  0.6495
 7760SOL     OW34738   2.521   0.690   0.202 -0.5476  0.2356  0.4353
 7760SOL    HW134739   2.559   0.691   0.114 -1.5600 -2.4309 -0.0143
 7760SOL    HW234740   2.595   0.684   0.263  1.8995  0.8755 -2.4765
 7761SOL     OW34741   3.204   1.187  13.039 -0.2733 -0.1181  0.0721
 7761SOL    HW134742   3.141   1.221  13.102  1.4009  2.6310  0.2545
 7761SOL    HW234743   3.151   1.161  12.963 -0.5007  3.2611 -0.9297
 7762SOL     OW34744   2.885   2.370   7.867  0.4797  0.2782 -0.4016
 7762SOL    HW134745   2.791   2.363   7.879  0.6126  1.1434  1.1713
 7762SOL    HW234746   2.876   2.463   7.846  2.8262  0.7963  0.8235
 7763SOL     OW34747   1.616   1.839  11.005  0.4073  0.1229 -0.1658
 7763SOL    HW134748   1.616   1.744  10.999  0.1183  0.0906  0.3342
 7763SOL    HW234749   1.707   1.848  11.033 -0.3699  1.6337  1.9538
 7764SOL     OW34750   0.902   2.233  11.106 -0.1956  0.1275 -0.1383
 7764SOL    HW134751   0.869   2.202  11.021  0.8275 -2.0548  0.2746
 7764SOL    HW234752   0.935   2.322  11.092 -0.6240 -0.0920 -2.5835
 7765SOL     OW34753   1.349   4.381   2.993 -0.4063 -0.0206 -0.3800
 7765SOL    HW134754   1.297   4.461   2.996 -1.0173 -0.3801 -1.5484
 7765SOL    HW234755   1.315   4.333   3.069 -2.5945  2.1249 -0.0048
 7766SOL     OW34756   2.325   0.243   9.156  0.5052 -0.6432  0.0097
 7766SOL    HW134757   2.400   0.274   9.206  1.3277  0.1048 -1.6679
 7766SOL    HW234758   2.354   0.152   9.147  1.2490 -0.4442  0.4537
 7767SOL     OW34759   0.474   3.851   4.548 -0.3163 -0.4770 -0.7305
 7767SOL    HW134760   0.488   3.763   4.584 -1.0374 -0.0433  0.6060
 7767SOL    HW234761   0.433   3.817   4.469 -1.2830 -0.3699 -0.2750
 7768SOL     OW34762   2.510   0.084  12.663  0.5533  0.4580  0.5773
 7768SOL    HW134763   2.441   0.141  12.630  0.5014 -0.3916 -0.7989
 7768SOL    HW234764   2.519   0.114  12.753 -1.0158 -2.4725  1.6889
 7769SOL     OW34765   1.897   1.398   6.854 -0.0383 -0.1140  0.0685
 7769SOL    HW134766   1.804   1.413   6.870 -0.5662 -1.4516 -1.7429
 7769SOL    HW234767   1.899   1.333   6.784 -2.9080 -1.0416  0.8258
 7770SOL     OW34768   0.910   1.423   8.348 -0.4169  0.5526 -0.0157
 7770SOL    HW134769   0.921   1.340   8.395  0.7071  1.2551  0.9497
 7770SOL    HW234770   1.001   1.440   8.323 -1.0181  1.9782 -1.1983
 7771SOL     OW34771   2.462   2.284   2.847  0.0824  0.1408  0.7523
 7771SOL    HW134772   2.531   2.223   2.821  1.0076  1.8282 -0.7394
 7771SOL    HW234773   2.512   2.328   2.916  0.5814 -0.1555  0.5819
 7772SOL     OW34774   3.035   4.125  17.581  0.3092 -0.3190  0.5754
 7772SOL    HW134775   3.084   4.196  17.540 -0.2163  0.4979  1.3606
 7772SOL    HW234776   3.093   4.081  17.643  0.9445 -2.2859 -1.3927
 7773SOL     OW34777   1.568   2.049   0.902 -0.5270 -0.0664  0.7120
 7773SOL    HW134778   1.566   2.141   0.928 -0.2314  0.1816 -0.1476
 7773SOL    HW234779   1.492   2.013   0.948 -1.6127 -0.4043 -1.3652
 7774SOL     OW34780   2.641   1.705   4.546 -0.3930  0.2987 -0.2726
 7774SOL    HW134781   2.641   1.771   4.477  1.0517  1.6623  1.0169
 7774SOL    HW234782   2.642   1.763   4.623 -0.6274  1.0849 -0.8668
 7775SOL     OW34783   1.882   1.204   1.267 -0.5280  0.3742 -0.0171
 7775SOL    HW134784   1.874   1.299   1.266 -0.1809  0.3942 -0.6854
 7775SOL    HW234785   1.898   1.183   1.175 -1.2916 -1.3118  0.2356
 7776SOL     OW34786   4.055   0.473  12.305 -0.4564  0.1368  0.5754
 7776SOL    HW134787   4.045   0.556  12.352  0.8028  2.0259 -2.5219
 7776SOL    HW234788   3.964   0.455  12.281 -0.1286 -0.6212 -0.1124
 7777SOL     OW34789   0.476   0.219   5.098  0.4399 -0.6295 -0.6609
 7777SOL    HW134790   0.555   0.270   5.080 -0.9732  1.7631  0.0086
 7777SOL    HW234791   0.421   0.256   5.029  0.7246 -0.3178 -0.7172
 7778SOL     OW34792   4.257   3.423   8.720 -0.9478 -0.6985  0.2611
 7778SOL    HW134793   4.224   3.500   8.675 -0.0922 -1.4497 -1.6518
 7778SOL    HW234794   4.257   3.455   8.810  0.3074  2.9309 -1.0179
 7779SOL     OW34795   4.703   4.253   6.685 -0.0003 -0.0123  0.3296
 7779SOL    HW134796   4.653   4.297   6.754  2.5359  1.7007  1.0831
 7779SOL    HW234797   0.029   4.180   6.722 -0.3144 -1.2982 -1.7530
 7780SOL     OW34798   1.091   0.892   1.405  0.3942 -0.2240  0.0919
 7780SOL    HW134799   1.129   0.980   1.401  0.0906 -0.0750  0.4755
 7780SOL    HW234800   1.063   0.884   1.496 -0.2338  0.8979 -0.0111
 7781SOL     OW34801   1.827   3.838   5.335  0.1476  0.1480 -0.0397
 7781SOL    HW134802   1.772   3.887   5.397 -0.7828 -0.4564 -0.3741
 7781SOL    HW234803   1.792   3.871   5.253 -2.1539 -0.6721  0.5945
 7782SOL     OW34804   1.577   3.714  17.347  0.0918  0.3804 -0.0371
 7782SOL    HW134805   1.482   3.707  17.352  0.0730 -0.8689 -1.9855
 7782SOL    HW234806   1.599   3.636  17.397 -2.0513 -1.7899 -2.4606
 7783SOL     OW34807   2.296   0.006   3.649 -0.8300 -0.1167  0.0831
 7783SOL    HW134808   2.249   4.659   3.695 -0.9743 -0.3216 -0.3673
 7783SOL    HW234809   2.351   4.675   3.592 -1.6453 -0.5090 -0.3283
 7784SOL     OW34810   0.735   1.865  11.583 -0.7700 -0.1924 -0.0129
 7784SOL    HW134811   0.652   1.883  11.627 -0.2991 -1.2593  1.3294
 7784SOL    HW234812   0.780   1.950  11.578 -1.4378  0.3978  3.5420
 7785SOL     OW34813   3.552   3.328   5.006 -0.3659  0.2068 -1.0670
 7785SOL    HW134814   3.531   3.362   4.919 -0.4548  0.0614 -1.1023
 7785SOL    HW234815   3.522   3.397   5.065 -0.8836 -0.6762 -0.2957
 7786SOL     OW34816   1.688   4.124   8.060 -0.0306  0.3990  0.0877
 7786SOL    HW134817   1.728   4.095   8.142  2.4109  1.0297 -0.8940
 7786SOL    HW234818   1.597   4.099   8.080  0.4539  0.3025  2.2332
 7787SOL     OW34819   0.811   0.248   0.810 -0.1315 -1.0593 -0.6002
 7787SOL    HW134820   0.728   0.252   0.857  0.3858  0.2572  0.1978
 7787SOL    HW234821   0.853   0.324   0.852  0.5010 -1.1896 -0.9984
 7788SOL     OW34822   1.161   1.569   0.292 -0.2087  0.0111 -0.5118
 7788SOL    HW134823   1.199   1.482   0.285 -1.0410 -0.3446 -0.5003
 7788SOL    HW234824   1.235   1.619   0.329 -0.6965  0.9433 -0.7827
 7789SOL     OW34825   4.534   2.769   4.995 -0.1882 -0.0295  0.3489
 7789SOL    HW134826   4.611   2.818   5.023 -0.1834 -0.0011  0.2850
 7789SOL    HW234827   4.531   2.782   4.900 -0.1296 -1.7663  0.1145
 7790SOL     OW34828   2.252   1.166   6.338 -0.1304 -0.0275  1.3890
 7790SOL    HW134829   2.192   1.199   6.404  0.3333 -1.2559  2.4322
 7790SOL    HW234830   2.209   1.084   6.313 -0.2524  0.2261  0.7658
 7791SOL     OW34831   1.257   3.085  15.898  0.4823  0.1522  0.4702
 7791SOL    HW134832   1.209   3.067  15.818 -3.5190 -0.7086  3.0222
 7791SOL    HW234833   1.180   3.109  15.950 -0.5357 -0.2903 -0.8432
 7792SOL     OW34834   4.721   2.382   3.876 -0.5076  0.0265  0.5559
 7792SOL    HW134835   4.685   2.297   3.851  2.9679 -1.9611  2.2246
 7792SOL    HW234836   0.065   2.403   3.811  0.3001 -3.3465  0.3298
 7793SOL     OW34837   1.666   2.974   9.497  0.4277  0.3990  0.5232
 7793SOL    HW134838   1.585   2.946   9.540 -0.5590 -1.2587 -2.4514
 7793SOL    HW234839   1.718   2.910   9.545  1.3785  0.6913 -0.1338
 7794SOL     OW34840   0.140   0.488   6.393 -0.1694 -0.3494 -0.2063
 7794SOL    HW134841   0.091   0.428   6.449 -1.5872 -1.0726 -2.2317
 7794SOL    HW234842   0.188   0.541   6.457 -0.3818 -1.0716  0.5396
 7795SOL     OW34843   0.891   3.755  13.675 -0.6661 -0.1738  0.1332
 7795SOL    HW134844   0.968   3.753  13.732  0.7498 -0.3120 -1.7769
 7795SOL    HW234845   0.851   3.839  13.699 -0.5849 -0.3188  0.7662
 7796SOL     OW34846   3.676   0.318   6.274  1.1634 -0.2161  0.1919
 7796SOL    HW134847   3.768   0.337   6.293  0.3146  0.9788  3.0945
 7796SOL    HW234848   3.632   0.389   6.320  1.3301 -0.7749  1.2086
 7797SOL     OW34849   0.321   1.651   6.051 -0.5946 -0.3098 -0.6170
 7797SOL    HW134850   0.319   1.724   6.112 -1.1923  0.6382 -1.7653
 7797SOL    HW234851   0.265   1.693   5.986  0.1032  0.8137 -0.4841
 7798SOL     OW34852   2.047   4.563  14.983 -0.0429  0.1098  0.3177
 7798SOL    HW134853   2.142   4.554  14.986  0.1732  2.3860  0.2993
 7798SOL    HW234854   2.016   4.474  14.966  0.5642  0.3172 -1.9310
 7799SOL     OW34855   4.363   2.179   5.293  0.0789  0.0918  0.3967
 7799SOL    HW134856   4.383   2.255   5.239  2.4933 -2.7483 -2.6701
 7799SOL    HW234857   4.331   2.111   5.233 -0.1038  0.8669 -0.3836
 7800SOL     OW34858   4.522   2.277   9.220  0.3122  0.2993  0.4210
 7800SOL    HW134859   4.560   2.240   9.300 -1.7755  1.1016  1.7961
 7800SOL    HW234860   4.432   2.267   9.252  0.9371  0.6172  2.2933
 7801SOL     OW34861   1.548   3.758  16.285 -0.0944  0.0605 -0.4840
 7801SOL    HW134862   1.573   3.788  16.198 -2.2883  0.7009 -0.8933
 7801SOL    HW234863   1.554   3.840  16.335 -0.3260  0.1676 -0.6344
 7802SOL     OW34864   0.867   1.900   4.181 -0.7657  0.3019  0.2373
 7802SOL    HW134865   0.805   1.955   4.133  0.1813  1.6246  0.5383
 7802SOL    HW234866   0.920   1.850   4.119 -2.1779 -0.5307 -0.3225
 7803SOL     OW34867   4.466   3.498   5.902  0.0286  0.3701  0.0689
 7803SOL    HW134868   4.486   3.561   5.833 -0.2586  0.3800 -0.0047
 7803SOL    HW234869   4.477   3.566   5.969 -2.1178  1.4053 -0.6459
 7804SOL     OW34870   3.062   3.257   5.652 -0.4750 -0.3818 -0.3213
 7804SOL    HW134871   3.079   3.315   5.726  1.2884 -1.0470 -0.1968
 7804SOL    HW234872   3.075   3.315   5.577  0.8933 -0.3195 -0.0441
 7805SOL     OW34873   0.494   2.704   0.543  0.3564  0.0829 -0.1130
 7805SOL    HW134874   0.499   2.630   0.482 -0.8589 -0.8124  0.8574
 7805SOL    HW234875   0.564   2.759   0.509  1.1034  0.0480  1.3338
 7806SOL     OW34876   0.621   0.958   4.608  0.0516 -0.8700 -0.2426
 7806SOL    HW134877   0.545   0.956   4.667  1.4968 -3.4604  1.5526
 7806SOL    HW234878   0.675   1.021   4.655 -0.2559  0.2655 -1.4358
 7807SOL     OW34879   3.598   0.455  11.281  0.0156 -0.4340 -0.2731
 7807SOL    HW134880   3.609   0.544  11.248 -3.8141 -0.0404 -0.5589
 7807SOL    HW234881   3.670   0.403  11.246  1.2675  1.0683  0.1121
 7808SOL     OW34882   3.905   0.081   8.127  0.1273 -0.0708 -0.7250
 7808SOL    HW134883   3.921   0.176   8.130  0.3911 -0.0966 -1.3987
 7808SOL    HW234884   3.871   0.076   8.217  0.1709 -0.4920 -0.7357
 7809SOL     OW34885   1.727   3.980  17.022  0.9540  0.2373 -0.1448
 7809SOL    HW134886   1.767   3.972  17.109  0.3620 -1.4249 -0.0186
 7809SOL    HW234887   1.760   3.905  16.973 -1.5798 -0.7401 -0.3505
 7810SOL     OW34888   1.237   0.551   8.817  0.2681  0.0142 -0.0928
 7810SOL    HW134889   1.265   0.460   8.815  0.6209  0.1521 -1.3864
 7810SOL    HW234890   1.211   0.549   8.725 -0.5295 -0.1806  0.1409
 7811SOL     OW34891   0.353   4.477   0.658  0.3056 -0.3092  0.1919
 7811SOL    HW134892   0.398   4.418   0.597  0.6119  0.4409 -0.3065
 7811SOL    HW234893   0.433   4.517   0.691 -0.0903 -0.9398  1.8870
 7812SOL     OW34894   1.734   3.188   3.394 -0.2721 -0.0242  0.1214
 7812SOL    HW134895   1.730   3.121   3.462 -1.1942  1.0574  1.1390
 7812SOL    HW234896   1.779   3.255   3.445 -0.3086 -0.4269  0.6846
 7813SOL     OW34897   2.713   4.305   9.456  0.3141  0.2324 -0.1029
 7813SOL    HW134898   2.791   4.328   9.405 -0.4564 -0.3568 -1.5353
 7813SOL    HW234899   2.649   4.300   9.385  0.0389  0.1870  0.1492
 7814SOL     OW34900   3.298   0.311   4.422  0.4006 -0.3033 -0.2045
 7814SOL    HW134901   3.258   0.269   4.498  1.4964  0.6728  0.8946
 7814SOL    HW234902   3.282   0.404   4.437  0.5951 -1.1127  4.8944
 7815SOL     OW34903   3.981   3.814   4.923  0.2324  0.5377  0.4156
 7815SOL    HW134904   4.037   3.737   4.913 -1.4165 -0.1078 -3.8238
 7815SOL    HW234905   4.053   3.874   4.944 -2.5544  3.4704  1.5223
 7816SOL     OW34906   2.351   3.101   5.415  0.3415  0.3754  0.3588
 7816SOL    HW134907   2.400   3.109   5.497 -1.4542 -1.0416  1.5640
 7816SOL    HW234908   2.356   3.006   5.403  3.4633  0.6319 -0.3479
 7817SOL     OW34909   4.213   3.668   6.479 -0.7906  0.0980  0.1873
 7817SOL    HW134910   4.239   3.578   6.462  0.4047  0.4849 -0.0289
 7817SOL    HW234911   4.146   3.660   6.547 -1.2618 -0.1500 -0.3137
 7818SOL     OW34912   0.650   2.373   1.386  0.3882  0.2877  0.8220
 7818SOL    HW134913   0.743   2.371   1.362 -0.0709  1.2230 -1.0627
 7818SOL    HW234914   0.613   2.425   1.314  0.3836  1.0412  1.3594
 7819SOL     OW34915   4.374   3.821   2.574 -0.1875 -0.3833 -0.2198
 7819SOL    HW134916   4.415   3.900   2.539 -1.2500  1.5915  2.9734
 7819SOL    HW234917   4.298   3.815   2.516 -0.4513  1.3832 -0.0486
 7820SOL     OW34918   0.533   0.328   5.372  0.4112  0.7032 -0.3969
 7820SOL    HW134919   0.474   0.348   5.445 -0.1876 -0.4342 -0.5603
 7820SOL    HW234920   0.546   0.413   5.330  3.6504  1.2233  1.7353
 7821SOL     OW34921   0.176   2.963   0.754 -0.6789  0.0753 -0.3257
 7821SOL    HW134922   0.120   3.038   0.734 -2.0864 -1.3550 -1.7843
 7821SOL    HW234923   0.103   2.902   0.768  0.4620 -1.3769 -0.7097
 7822SOL     OW34924   0.536   2.277  11.296  0.2769  0.3425 -0.3215
 7822SOL    HW134925   0.616   2.266  11.347  0.4725 -0.5861 -0.8345
 7822SOL    HW234926   0.473   2.240  11.357  0.4470  1.0321  0.2771
 7823SOL     OW34927   0.483   3.831   5.220 -0.2839  0.9030  0.5840
 7823SOL    HW134928   0.467   3.893   5.292  0.4764 -0.3859  1.8659
 7823SOL    HW234929   0.406   3.847   5.165 -1.5248 -1.6649  1.5762
 7824SOL     OW34930   2.156   4.659  13.118 -0.4221 -0.0457  0.1421
 7824SOL    HW134931   2.166   4.566  13.139  2.6860 -0.2489 -2.1282
 7824SOL    HW234932   2.142   4.661  13.023 -0.4124  0.4716  0.1526
 7825SOL     OW34933   2.733   0.687   3.550 -0.5012  0.5073 -1.0265
 7825SOL    HW134934   2.681   0.610   3.574  2.6822 -0.8974  1.4434
 7825SOL    HW234935   2.826   0.664   3.556 -0.7957 -0.4042  0.3087
 7826SOL     OW34936   3.981   0.515   9.774  0.5686 -0.2711 -0.3537
 7826SOL    HW134937   4.033   0.543   9.699  0.3083  0.1569 -0.3748
 7826SOL    HW234938   3.900   0.483   9.734  1.1962 -2.4717  0.1265
 7827SOL     OW34939   2.441   2.298   5.539 -0.5971  0.3099  0.4432
 7827SOL    HW134940   2.444   2.322   5.631  0.1881  2.9388 -0.2696
 7827SOL    HW234941   2.456   2.204   5.554  2.0883  0.8494  1.0020
 7828SOL     OW34942   0.995   1.709   6.316 -0.2234 -0.5369  0.4407
 7828SOL    HW134943   0.998   1.669   6.403  1.2440  1.5663  1.3752
 7828SOL    HW234944   0.909   1.683   6.284 -0.5201  1.5938 -0.5485
 7829SOL     OW34945   2.175   1.367   8.380  0.0589 -0.5780 -0.4412
 7829SOL    HW134946   2.202   1.426   8.309 -1.3691  0.7575  0.1373
 7829SOL    HW234947   2.105   1.419   8.419 -0.3877 -1.4676 -0.0653
 7830SOL     OW34948   3.232   1.049   6.040  0.4499 -0.2183 -0.4535
 7830SOL    HW134949   3.142   1.065   6.014  0.6029 -0.7307 -1.2956
 7830SOL    HW234950   3.268   1.136   6.027  0.5846 -0.5952 -2.5578
 7831SOL     OW34951   2.169   4.524   6.631 -0.0380  0.2184  0.1245
 7831SOL    HW134952   2.095   4.484   6.585  2.3782  0.3183 -3.8804
 7831SOL    HW234953   2.230   4.528   6.557  1.8557  1.2190  1.7443
 7832SOL     OW34954   1.070   1.388   7.075 -0.2462 -0.2629 -0.3220
 7832SOL    HW134955   1.097   1.318   7.135 -2.2207  0.3858  1.3225
 7832SOL    HW234956   1.100   1.461   7.129 -0.0536 -0.9015  0.4443
 7833SOL     OW34957   1.951   1.189   5.301  0.0524 -0.1471  0.6961
 7833SOL    HW134958   1.982   1.192   5.392 -0.6495 -1.0205  0.9723
 7833SOL    HW234959   1.929   1.096   5.296 -0.2570  0.2063 -3.8002
 7834SOL     OW34960   1.620   4.106   4.060 -0.0008  0.1269  0.5100
 7834SOL    HW134961   1.714   4.096   4.067  0.0806  0.9619  0.6767
 7834SOL    HW234962   1.601   4.030   4.005 -0.5319  1.5651 -1.3297
 7835SOL     OW34963   0.363   3.210   1.555  0.4344 -0.2263  0.2514
 7835SOL    HW134964   0.403   3.270   1.618 -0.5143  0.6374  0.0293
 7835SOL    HW234965   0.277   3.197   1.593  0.3329 -1.6909 -0.4921
 7836SOL     OW34966   1.580   2.232   0.088  0.0526 -0.1153  0.3236
 7836SOL    HW134967   1.620   2.154   0.048 -3.1854 -0.9842 -1.2176
 7836SOL    HW234968   1.534   2.271   0.013  0.8111  2.2783  1.1058
 7837SOL     OW34969   4.691   2.990   3.986  0.2693 -0.2153  0.1574
 7837SOL    HW134970   0.051   2.948   3.964  0.4245  0.5668 -0.7094
 7837SOL    HW234971   4.637   2.913   4.002 -0.2521  0.1839  0.3136
 7838SOL     OW34972   4.243   1.726   2.672  0.0320 -0.2833  0.9514
 7838SOL    HW134973   4.162   1.773   2.651 -1.1571 -2.3084  0.9566
 7838SOL    HW234974   4.226   1.720   2.766 -0.1286 -1.3643  0.8488
 7839SOL     OW34975   1.035   2.144   1.618 -0.2170 -0.2084  0.5831
 7839SOL    HW134976   1.067   2.159   1.706 -1.0142 -0.0968  0.8531
 7839SOL    HW234977   0.958   2.199   1.629 -0.4222 -0.4522  0.3696
 7840SOL     OW34978   0.553   4.660  13.670  0.0933  0.1965  0.3170
 7840SOL    HW134979   0.632   4.612  13.647  0.3522  0.8187 -0.1140
 7840SOL    HW234980   0.509   4.611  13.739  4.5407 -1.1164  2.1443
 7841SOL     OW34981   2.610   2.306   7.920 -0.7186 -0.1490 -0.4894
 7841SOL    HW134982   2.537   2.246   7.933 -1.1641  0.4993  0.0429
 7841SOL    HW234983   2.574   2.379   7.971  0.4008 -0.4239  0.6979
 7842SOL     OW34984   3.227   0.719  17.400  0.2857  0.6455  0.7121
 7842SOL    HW134985   3.237   0.626  17.376 -2.1366  0.4837  0.2276
 7842SOL    HW234986   3.272   0.772  17.335  2.1149 -0.8892  0.7228
 7843SOL     OW34987   1.829   1.547  12.516  0.0294  0.4467  0.2181
 7843SOL    HW134988   1.847   1.640  12.505  0.0137  0.3697 -0.4402
 7843SOL    HW234989   1.897   1.523  12.580  1.8872 -2.3740 -2.8291
 7844SOL     OW34990   2.942   1.049   7.234  0.8121 -0.4037 -0.5365
 7844SOL    HW134991   2.949   0.979   7.299 -1.8692  0.9851  1.2024
 7844SOL    HW234992   2.948   1.121   7.297  0.6943 -0.6415 -0.2569
 7845SOL     OW34993   3.920   0.908   2.576 -0.3424 -0.0459  0.2883
 7845SOL    HW134994   3.988   0.840   2.578 -1.1111 -0.8511 -1.1131
 7845SOL    HW234995   3.855   0.867   2.634 -0.5138 -0.0861  0.0672
 7846SOL     OW34996   0.546   3.877   3.745  0.2974  0.2190  0.1236
 7846SOL    HW134997   0.546   3.973   3.748  0.8254  0.1749  1.7084
 7846SOL    HW234998   0.466   3.846   3.788  0.3144 -0.7241 -0.5135
 7847SOL     OW34999   1.533   2.089   2.047  0.0570  0.9416 -0.3875
 7847SOL    HW135000   1.441   2.105   2.026 -0.2529  0.2675  0.5102
 7847SOL    HW235001   1.542   2.175   2.089  2.4927 -0.6359  2.3268
 7848SOL     OW35002   3.233   0.468   5.297  0.2070  0.3319  0.0883
 7848SOL    HW135003   3.161   0.508   5.346 -1.4600 -0.5787 -1.6465
 7848SOL    HW235004   3.225   0.516   5.215  0.8252  2.6682  1.3959
 7849SOL     OW35005   1.631   2.606   6.025 -0.3574  0.0410 -0.4171
 7849SOL    HW135006   1.562   2.541   6.017 -0.5717  0.3694 -1.2484
 7849SOL    HW235007   1.643   2.635   5.935  2.1161  2.5185  0.7037
 7850SOL     OW35008   4.095   4.075  10.205 -0.1964 -1.1510 -0.1939
 7850SOL    HW135009   4.185   4.067  10.173 -0.3328  0.0227 -0.8771
 7850SOL    HW235010   4.045   4.057  10.126 -0.6161  1.4587 -0.5292
 7851SOL     OW35011   4.410   3.308   5.600  0.4094  0.0913 -0.5254
 7851SOL    HW135012   4.344   3.354   5.651 -0.4473 -1.3376 -0.3547
 7851SOL    HW235013   4.479   3.375   5.611  1.5133 -1.2724  0.7889
 7852SOL     OW35014   0.661   2.653  15.475  0.3693 -0.5072 -0.5308
 7852SOL    HW135015   0.579   2.609  15.497  0.1302 -1.1401 -2.6349
 7852SOL    HW235016   0.713   2.587  15.429  2.7838  1.5737 -0.8479
 7853SOL     OW35017   0.769   2.573   8.881  0.5673 -0.9215  0.4905
 7853SOL    HW135018   0.745   2.481   8.867  0.5568 -0.9454  0.6651
 7853SOL    HW235019   0.768   2.608   8.792 -0.7850 -2.6697 -0.1842
 7854SOL     OW35020   0.863   0.089   4.821 -0.2541 -0.1190  0.6899
 7854SOL    HW135021   0.912   0.020   4.867 -0.8409 -2.1456 -1.7113
 7854SOL    HW235022   0.783   0.095   4.872 -0.0918  3.8145  0.4384
 7855SOL     OW35023   1.929   4.265   2.037 -0.0988  0.4028 -0.1258
 7855SOL    HW135024   1.857   4.259   1.974 -2.0173  0.9379  1.9608
 7855SOL    HW235025   1.871   4.257   2.113 -0.3814 -0.0892 -0.3909
 7856SOL     OW35026   0.922   1.717   4.607 -0.0518  0.3424  0.1843
 7856SOL    HW135027   0.923   1.784   4.539  0.1834  0.0098 -0.1380
 7856SOL    HW235028   0.832   1.730   4.636 -0.4584 -0.8322 -0.5434
 7857SOL     OW35029   4.189   3.844   2.394 -0.1315 -0.1382  0.3270
 7857SOL    HW135030   4.099   3.852   2.361 -1.0929  0.9264  3.1350
 7857SOL    HW235031   4.231   3.861   2.310 -0.9621  1.1665  0.1697
 7858SOL     OW35032   3.801   4.274  12.993  0.5717  0.1940 -0.4413
 7858SOL    HW135033   3.874   4.219  12.964 -1.2865 -2.3510 -0.3337
 7858SOL    HW235034   3.808   4.343  12.927  3.4768 -1.3732 -1.7773
 7859SOL     OW35035   4.304   2.906  12.495 -0.1699  0.3994 -0.6819
 7859SOL    HW135036   4.220   2.944  12.470  0.8937  3.9652  1.0971
 7859SOL    HW235037   4.303   2.814  12.469 -0.5777 -0.5591  2.6720
 7860SOL     OW35038   3.630   0.466   2.809  0.0677  0.0914 -0.0905
 7860SOL    HW135039   3.628   0.420   2.893 -0.1880  1.8739  0.8732
 7860SOL    HW235040   3.717   0.504   2.812  0.1339  0.0433 -1.1021
 7861SOL     OW35041   0.811   0.654   3.479 -0.8028  0.1692 -0.2903
 7861SOL    HW135042   0.865   0.586   3.520  0.3637  0.8921 -0.6309
 7861SOL    HW235043   0.855   0.733   3.510 -0.8198  0.1533 -0.2239
 7862SOL     OW35044   4.482   2.477   9.441 -0.0787 -0.4826 -0.1530
 7862SOL    HW135045   4.533   2.396   9.430  0.6210  0.2532 -2.2609
 7862SOL    HW235046   4.416   2.427   9.489  0.3726  1.0398  2.0443
 7863SOL     OW35047   1.362   0.209   2.810  0.3828 -0.0212 -0.1864
 7863SOL    HW135048   1.457   0.217   2.805  0.4233 -0.1533  0.3186
 7863SOL    HW235049   1.359   0.141   2.877 -0.4007  0.7754  0.5994
 7864SOL     OW35050   3.753   4.554  11.901  0.0947 -0.6706  0.0731
 7864SOL    HW135051   3.706   4.625  11.857 -2.4002 -1.3721  1.5516
 7864SOL    HW235052   3.841   4.544  11.868  0.2404 -1.6084  0.7355
 7865SOL     OW35053   3.919   1.266   9.227 -0.3569  0.1969  0.6150
 7865SOL    HW135054   3.966   1.302   9.302  0.0375 -0.4890  0.7026
 7865SOL    HW235055   3.970   1.188   9.205 -1.1385 -0.6014  1.6194
 7866SOL     OW35056   0.959   4.498   0.564 -0.9936 -0.0603  0.6200
 7866SOL    HW135057   1.015   4.428   0.597  0.5272  0.7145 -0.3097
 7866SOL    HW235058   0.917   4.519   0.647  1.4580 -0.5811  1.9893
 7867SOL     OW35059   2.256   2.470  10.366  0.3326  0.2057  0.2849
 7867SOL    HW135060   2.223   2.558  10.351  1.2543  0.5073  0.0263
 7867SOL    HW235061   2.258   2.439  10.276 -1.4688  1.5188 -0.1801
 7868SOL     OW35062   3.845   0.055   5.170 -0.1554  0.6617 -0.2905
 7868SOL    HW135063   3.765   0.024   5.214 -0.7352 -0.9476 -2.4439
 7868SOL    HW235064   3.873   4.709   5.110  1.0648 -0.0023  1.0581
 7869SOL     OW35065   0.428   1.002   6.300 -0.2508 -0.0962  0.3738
 7869SOL    HW135066   0.392   0.932   6.354 -0.4895 -1.0231 -0.9827
 7869SOL    HW235067   0.364   1.069   6.327  0.2161 -0.0820  1.4460
 7870SOL     OW35068   2.357   1.613   3.208 -0.1928  0.1084  0.1135
 7870SOL    HW135069   2.409   1.646   3.136  0.0591 -1.5847 -0.4712
 7870SOL    HW235070   2.288   1.562   3.166  0.3147  0.4555 -1.1285
 7871SOL     OW35071   4.583   3.166   9.374 -0.2238  0.3814 -0.3130
 7871SOL    HW135072   4.550   3.143   9.287  1.1948  1.3403 -1.0995
 7871SOL    HW235073   4.673   3.183   9.349  0.2705  0.8679  1.8157
 7872SOL     OW35074   3.477   2.066   4.881  0.6241 -0.0703  0.5891
 7872SOL    HW135075   3.392   2.034   4.849  1.3689 -0.0106 -1.3975
 7872SOL    HW235076   3.534   2.018   4.821  1.2807  0.0986  1.0793
 7873SOL     OW35077   3.021   4.269   7.898  0.5595 -0.5891  0.5219
 7873SOL    HW135078   2.979   4.354   7.913 -0.1865 -0.5506 -1.7680
 7873SOL    HW235079   3.089   4.267   7.965  2.1857 -1.7192 -1.1539
 7874SOL     OW35080   3.649   1.232  14.257  0.3153  0.1413 -0.2471
 7874SOL    HW135081   3.676   1.268  14.173  1.4233 -0.0494  0.0271
 7874SOL    HW235082   3.573   1.288  14.275  0.0182 -0.7153  1.1473
 7875SOL     OW35083   4.603   0.355   9.243  0.0042 -0.2060 -0.0893
 7875SOL    HW135084   4.568   0.401   9.167  1.2808 -0.3162 -0.7405
 7875SOL    HW235085   4.541   0.377   9.313 -1.7328 -3.6664 -0.5577
 7876SOL     OW35086   3.567   0.696   9.374  0.3791  0.6534  0.2121
 7876SOL    HW135087   3.617   0.756   9.318  0.7176 -1.0761 -1.3329
 7876SOL    HW235088   3.637   0.648   9.417  1.6525  1.5759 -0.8301
 7877SOL     OW35089   4.266   2.449   4.018 -0.0594  0.3625 -0.2308
 7877SOL    HW135090   4.224   2.475   4.099  1.0391  1.0717  0.1111
 7877SOL    HW235091   4.242   2.523   3.962 -0.8962  0.8096  0.7305
 7878SOL     OW35092   2.418   4.604  16.167  0.3438  0.0115  0.8048
 7878SOL    HW135093   2.448   4.579  16.080 -1.8454  0.5678 -0.1112
 7878SOL    HW235094   2.330   4.565  16.173 -0.7227  2.2495 -0.3604
 7879SOL     OW35095   3.192   4.429   4.858 -0.5233 -0.0270 -0.1897
 7879SOL    HW135096   3.161   4.420   4.948 -0.9599 -0.7371 -0.4178
 7879SOL    HW235097   3.199   4.337   4.834  0.6916 -0.6487  2.4850
 7880SOL     OW35098   1.796   1.407   8.324  0.5162  0.2959  0.9861
 7880SOL    HW135099   1.750   1.490   8.339 -1.2062 -0.6729  0.9748
 7880SOL    HW235100   1.816   1.409   8.230  1.7195  2.1573  1.2558
 7881SOL     OW35101   0.818   4.258  13.120 -0.2090  0.2131 -0.0301
 7881SOL    HW135102   0.758   4.274  13.047 -1.4032 -0.1169  0.8837
 7881SOL    HW235103   0.817   4.342  13.166  0.3264  0.0301  0.3135
 7882SOL     OW35104   3.110   2.922  15.662 -0.1208  0.1699  0.6598
 7882SOL    HW135105   3.123   2.894  15.571  0.8263  0.4345  0.7192
 7882SOL    HW235106   3.126   3.014  15.644 -0.7095  0.0711 -0.3850
 7883SOL     OW35107   2.167   1.986   4.499 -0.1181 -0.2663 -0.1222
 7883SOL    HW135108   2.252   1.958   4.464  0.2464 -0.3153  0.7970
 7883SOL    HW235109   2.139   2.030   4.419  0.9564 -0.1814 -0.4598
 7884SOL     OW35110   1.058   2.684  14.788  0.0416 -0.6947 -0.1804
 7884SOL    HW135111   0.981   2.739  14.774  1.7713  1.0562 -2.9103
 7884SOL    HW235112   1.122   2.733  14.736  0.3758 -0.3289  0.5712
 7885SOL     OW35113   3.341   1.603  10.846 -0.1733 -0.2449 -0.3719
 7885SOL    HW135114   3.273   1.665  10.872 -0.9274 -1.3770  0.4174
 7885SOL    HW235115   3.312   1.570  10.761 -0.0655 -0.4133 -0.3438
 7886SOL     OW35116   4.033   2.486   8.057 -0.3345  0.1175 -0.0913
 7886SOL    HW135117   4.039   2.394   8.081  5.2964 -0.2411 -2.8157
 7886SOL    HW235118   4.034   2.515   8.148  0.0830  0.7187 -0.2908
 7887SOL     OW35119   2.155   3.070   4.762 -0.0774 -0.5860  0.4755
 7887SOL    HW135120   2.082   3.010   4.745 -0.3060 -0.5754  1.4537
 7887SOL    HW235121   2.225   3.018   4.722  0.3326 -0.8839  1.5754
 7888SOL     OW35122   3.281   2.035   4.165 -0.2914 -0.2006  0.1964
 7888SOL    HW135123   3.295   2.016   4.073  0.4817 -1.5463  0.6020
 7888SOL    HW235124   3.371   2.039   4.197  0.7289 -1.2928 -2.5891
 7889SOL     OW35125   3.872   2.814   6.452  0.1647 -0.6451  0.4378
 7889SOL    HW135126   3.839   2.846   6.368  1.2743 -0.1651  0.1846
 7889SOL    HW235127   3.945   2.873   6.474  0.7084 -1.7410  1.5268
 7890SOL     OW35128   2.988   4.195   9.601 -0.0280  0.1670  0.4756
 7890SOL    HW135129   2.928   4.169   9.531  1.4602  0.3323 -0.8730
 7890SOL    HW235130   3.016   4.109   9.632  2.6502  0.8969  0.0895
 7891SOL     OW35131   0.470   1.126   8.913 -0.2115  0.0969 -0.2264
 7891SOL    HW135132   0.440   1.059   8.851 -0.0939  0.0640 -0.2488
 7891SOL    HW235133   0.436   1.207   8.875  0.8690  0.1654 -1.0496
 7892SOL     OW35134   4.282   0.270   5.239  0.1301 -0.4382  0.1163
 7892SOL    HW135135   4.366   0.241   5.275 -0.3629  0.2818  1.8618
 7892SOL    HW235136   4.254   0.212   5.169 -1.5766  0.4239  0.1023
 7893SOL     OW35137   1.047   2.862  11.758  0.4304 -0.1336  0.9531
 7893SOL    HW135138   1.031   2.770  11.780 -0.6713 -0.2292 -0.1714
 7893SOL    HW235139   1.115   2.854  11.691 -1.7281  1.0386 -1.4096
 7894SOL     OW35140   4.625   0.721  14.968  0.0385  0.3999  0.2251
 7894SOL    HW135141   4.535   0.710  14.999 -0.0385 -3.1555 -1.1877
 7894SOL    HW235142   4.608   0.779  14.894 -1.6343 -1.1877 -0.6535
 7895SOL     OW35143   4.408   1.423   1.837 -0.4322 -0.4911 -0.0424
 7895SOL    HW135144   4.478   1.477   1.875 -2.5318  1.5676  0.9158
 7895SOL    HW235145   4.334   1.432   1.896 -1.6272 -1.2439 -1.4443
 7896SOL     OW35146   3.191   3.170   5.198 -0.0000 -0.6256 -0.6293
 7896SOL    HW135147   3.097   3.186   5.205 -0.2088 -1.6891 -0.9831
 7896SOL    HW235148   3.193   3.138   5.107  0.8455  1.3222 -1.2942
 7897SOL     OW35149   1.933   3.885   2.592 -0.1861  0.2359 -0.0825
 7897SOL    HW135150   1.945   3.816   2.527 -1.7240  0.7639 -0.9248
 7897SOL    HW235151   1.853   3.929   2.562 -0.7884  0.2659  1.5879
 7898SOL     OW35152   0.225   3.550  14.949  0.1929  0.1821 -0.7116
 7898SOL    HW135153   0.243   3.460  14.924 -2.2079 -0.1745 -1.1173
 7898SOL    HW235154   0.246   3.555  15.043 -1.4515  0.1811 -0.3441
 7899SOL     OW35155   1.608   4.682  15.792  0.4369 -0.1253 -0.4222
 7899SOL    HW135156   1.545   4.619  15.827  1.5988  0.1737  2.1882
 7899SOL    HW235157   1.687   4.663  15.841  0.5554  0.1520 -0.5071
 7900SOL     OW35158   2.402   3.166   3.303 -0.2824  0.4960 -0.2198
 7900SOL    HW135159   2.448   3.250   3.307 -0.9954  0.8931 -0.3832
 7900SOL    HW235160   2.355   3.194   3.224  1.1127  1.6056 -0.6618
 7901SOL     OW35161   3.614   2.901   4.565 -0.2802 -0.4581  0.3010
 7901SOL    HW135162   3.527   2.885   4.527 -0.2551  2.1177 -0.8543
 7901SOL    HW235163   3.662   2.940   4.492 -2.7470  0.7512 -0.6820
 7902SOL     OW35164   0.888   3.795   1.902 -1.0834 -0.0416 -0.0777
 7902SOL    HW135165   0.847   3.873   1.939 -0.8615  0.3493 -0.6580
 7902SOL    HW235166   0.866   3.722   1.961  0.9992  0.2933  1.1154
 7903SOL     OW35167   0.238   2.711   6.946  0.4265  0.1872  0.4243
 7903SOL    HW135168   0.230   2.732   7.039  1.3558  3.6855 -0.2927
 7903SOL    HW235169   0.322   2.754   6.933 -0.1768  1.1608 -0.2221
 7904SOL     OW35170   0.542   1.561   3.776  0.6054 -0.3934 -0.3995
 7904SOL    HW135171   0.563   1.650   3.746  0.5552 -1.2163 -2.8061
 7904SOL    HW235172   0.619   1.552   3.833  0.4280 -0.8084 -0.2291
 7905SOL     OW35173   4.274   2.075  14.364 -0.1653  0.0724 -0.1627
 7905SOL    HW135174   4.353   2.111  14.404  0.5280 -0.7586 -0.7813
 7905SOL    HW235175   4.217   2.114  14.431 -0.7881  0.3880 -0.8730
 7906SOL     OW35176   0.393   0.972   8.262  0.2492 -0.3414 -0.2902
 7906SOL    HW135177   0.457   1.043   8.264 -0.2126  0.0873 -0.8956
 7906SOL    HW235178   0.330   1.021   8.314  0.8199  0.1815 -0.0908
 7907SOL     OW35179   4.161   2.283   6.500 -0.0232  0.3819 -0.0544
 7907SOL    HW135180   4.152   2.275   6.595  0.2139 -1.1427 -0.1591
 7907SOL    HW235181   4.071   2.268   6.470  0.2152  1.8540 -1.4756
 7908SOL     OW35182   0.479   1.183   1.232 -0.6518  0.1235  0.3586
 7908SOL    HW135183   0.504   1.263   1.278  1.3581  0.2795 -1.0290
 7908SOL    HW235184   0.390   1.182   1.269 -0.0881 -1.3229  1.6564
 7909SOL     OW35185   1.401   0.606   0.848  0.2578 -1.0375  0.2467
 7909SOL    HW135186   1.323   0.551   0.856 -0.8969  0.1905 -2.3568
 7909SOL    HW235187   1.416   0.628   0.940  0.3201 -0.5866  0.1269
 7910SOL     OW35188   3.590   3.345   7.193 -0.1403 -0.5796  0.0727
 7910SOL    HW135189   3.619   3.314   7.108  1.1204  1.6526 -0.3205
 7910SOL    HW235190   3.581   3.256   7.227  2.8999 -2.3571 -3.8081
 7911SOL     OW35191   3.217   3.410  15.697 -0.2053 -0.2299 -0.3588
 7911SOL    HW135192   3.252   3.471  15.632 -2.2788 -0.2587 -1.5144
 7911SOL    HW235193   3.176   3.473  15.757  2.1481  0.8536  0.1107
 7912SOL     OW35194   3.499   2.299   4.121 -0.2809 -0.0629  0.2466
 7912SOL    HW135195   3.410   2.330   4.141 -0.4081 -0.2806  0.0111
 7912SOL    HW235196   3.551   2.319   4.200 -0.0301 -1.8909  0.5324
 7913SOL     OW35197   3.380   0.914  10.830 -0.1769  0.1426 -0.4869
 7913SOL    HW135198   3.428   0.948  10.755 -2.4813  1.0765 -1.5526
 7913SOL    HW235199   3.395   0.821  10.818  1.0512  0.2066  0.6006
 7914SOL     OW35200   4.190   1.253   0.635  0.8619 -0.0030  0.0301
 7914SOL    HW135201   4.216   1.239   0.727  0.8310  2.4573  0.4181
 7914SOL    HW235202   4.120   1.189   0.626  0.7994  0.0993 -0.1987
 7915SOL     OW35203   2.458   0.519  12.513  0.0079 -0.2662  0.1546
 7915SOL    HW135204   2.480   0.547  12.424 -1.0571  1.4962  0.4378
 7915SOL    HW235205   2.527   0.545  12.575  0.2640 -0.2400 -0.1438
 7916SOL     OW35206   0.942   4.265  12.346 -0.4872  0.4015  0.1836
 7916SOL    HW135207   0.862   4.318  12.350 -0.2922  0.7693 -0.6302
 7916SOL    HW235208   0.892   4.193  12.309 -0.7670  0.3835  0.6009
 7917SOL     OW35209   4.307   2.874   8.131  0.2759 -0.1675 -0.3128
 7917SOL    HW135210   4.243   2.931   8.088 -0.2698  0.0680  0.7914
 7917SOL    HW235211   4.281   2.791   8.092  0.2671 -0.6167  0.6507
 7918SOL     OW35212   0.740   0.880   8.337 -0.0567 -0.3831 -0.0970
 7918SOL    HW135213   0.695   0.795   8.342  2.3227 -1.4510  2.8934
 7918SOL    HW235214   0.754   0.885   8.242  1.0244 -0.5014  0.0565
 7919SOL     OW35215   4.301   2.384   2.930  0.3289  0.2517 -0.0247
 7919SOL    HW135216   4.206   2.396   2.936  0.1864 -0.0283 -1.8242
 7919SOL    HW235217   4.315   2.414   2.840 -3.2118  2.1985  0.0751
 7920SOL     OW35218   3.738   1.026  15.139  0.6381  0.0613  0.6239
 7920SOL    HW135219   3.711   1.031  15.047  1.0720 -0.1876  0.4815
 7920SOL    HW235220   3.721   0.932  15.146  0.5575  0.0162 -0.1671
 7921SOL     OW35221   1.465   0.056   5.096 -0.0878  0.0835 -0.4567
 7921SOL    HW135222   1.552   0.067   5.058  1.4833 -2.4119  2.4308
 7921SOL    HW235223   1.413   0.098   5.028 -0.0497 -0.4813 -0.8363
 7922SOL     OW35224   1.559   3.025  12.207  0.1933 -0.3391  0.4149
 7922SOL    HW135225   1.547   3.056  12.117 -1.2709 -0.2737  0.6413
 7922SOL    HW235226   1.467   3.015  12.232  0.7206 -1.2627  2.0509
 7923SOL     OW35227   1.197   1.145   1.384  0.1493 -0.0361 -0.4469
 7923SOL    HW135228   1.164   1.227   1.421 -2.0020 -0.2512 -1.9447
 7923SOL    HW235229   1.172   1.167   1.294  2.8859  1.5224 -0.8590
 7924SOL     OW35230   3.319   2.625   4.409  0.0785 -0.3925 -0.1378
 7924SOL    HW135231   3.403   2.665   4.431  0.5066 -2.0826  1.3532
 7924SOL    HW235232   3.249   2.690   4.413 -0.7872 -1.3631  0.5060
 7925SOL     OW35233   3.339   2.402   8.213  0.3112  0.3559  0.1740
 7925SOL    HW135234   3.320   2.362   8.297  0.8122  0.3445  0.2848
 7925SOL    HW235235   3.310   2.492   8.228  1.8733  0.9994 -0.6293
 7926SOL     OW35236   2.249   3.183  14.930  0.3950 -0.4624  0.3762
 7926SOL    HW135237   2.198   3.235  14.993 -0.7581  0.7538 -1.5893
 7926SOL    HW235238   2.190   3.116  14.897 -1.0449  0.5595  0.8946
 7927SOL     OW35239   2.762   1.197   3.017  0.6479  0.0632  0.3501
 7927SOL    HW135240   2.761   1.291   3.030 -0.8771 -0.0193  0.8415
 7927SOL    HW235241   2.856   1.196   2.997  0.3461 -0.6909 -1.0181
 7928SOL     OW35242   0.485   4.341   4.512  0.1928 -0.3224 -0.3871
 7928SOL    HW135243   0.569   4.369   4.550  0.2949 -1.0503 -0.0902
 7928SOL    HW235244   0.463   4.271   4.573  0.4166  0.1610  0.2615
 7929SOL     OW35245   2.435   0.036   9.617 -0.7894 -0.3462  0.2631
 7929SOL    HW135246   2.414   4.669   9.643  1.1861 -1.1098 -0.7962
 7929SOL    HW235247   2.352   0.058   9.575 -0.9718 -0.3913  0.6012
 7930SOL     OW35248   4.482   2.799   0.484 -0.2447 -0.0995 -0.2482
 7930SOL    HW135249   4.445   2.746   0.414 -0.4951 -1.7011  1.1148
 7930SOL    HW235250   4.571   2.765   0.473  0.4837  1.6241  0.2787
 7931SOL     OW35251   2.215   0.171  14.001  0.3956  0.5831  0.2728
 7931SOL    HW135252   2.237   0.114  14.074 -0.7480  0.8724  0.8512
 7931SOL    HW235253   2.120   0.166  14.012  0.4936  0.3152  0.9827
 7932SOL     OW35254   0.657   1.089  16.046  0.3898 -0.1409  0.3094
 7932SOL    HW135255   0.727   1.105  15.982 -0.8614  0.8041 -0.8487
 7932SOL    HW235256   0.626   1.015  15.994  1.1464 -0.2079 -0.0607
 7933SOL     OW35257   1.966   0.318   8.413  0.0379 -0.5701  0.1103
 7933SOL    HW135258   1.905   0.302   8.341  0.0706  0.4787 -0.1517
 7933SOL    HW235259   1.908   0.363   8.474  3.0273  1.1586  1.7355
 7934SOL     OW35260   1.302   0.818  14.031 -0.0830  0.5995 -0.0880
 7934SOL    HW135261   1.236   0.840  13.965  0.4525  4.7247  0.7560
 7934SOL    HW235262   1.270   0.733  14.062  0.1443  0.5722  0.0782
 7935SOL     OW35263   3.226   2.102  16.027  0.0239 -0.2209 -0.2724
 7935SOL    HW135264   3.265   2.162  15.964 -0.7397  0.6688  0.0933
 7935SOL    HW235265   3.186   2.163  16.088  2.7124  0.8112  0.4117
 7936SOL     OW35266   4.223   1.513   1.093  0.1531 -0.0071  0.4387
 7936SOL    HW135267   4.301   1.538   1.044 -0.1722 -2.8910 -1.5924
 7936SOL    HW235268   4.203   1.595   1.137 -0.4930  0.7204 -1.2099
 7937SOL     OW35269   2.148   1.661   1.731  0.2441  0.4316  1.0762
 7937SOL    HW135270   2.128   1.578   1.689  2.9391  0.6965 -0.7240
 7937SOL    HW235271   2.156   1.628   1.820  0.0574 -1.3860  0.4225
 7938SOL     OW35272   2.093   4.613  12.547 -0.1895  0.0684  0.1429
 7938SOL    HW135273   2.004   4.642  12.530 -0.5961 -1.0882  0.3507
 7938SOL    HW235274   2.088   4.522  12.521  0.7260  0.3741 -1.0968
 7939SOL     OW35275   2.374   2.203  12.465 -0.2101  0.0463 -0.3220
 7939SOL    HW135276   2.439   2.271  12.481  0.5953 -0.3300 -1.9940
 7939SOL    HW235277   2.404   2.133  12.524  0.1634  0.6819  0.2338
 7940SOL     OW35278   3.645   1.801   6.618  0.6055  0.0661  0.2038
 7940SOL    HW135279   3.616   1.883   6.659 -2.3802 -2.1102  2.4053
 7940SOL    HW235280   3.599   1.803   6.534  0.0206  0.1944  0.5287
 7941SOL     OW35281   1.349   0.194   8.129  0.6519  0.2160 -0.3381
 7941SOL    HW135282   1.381   0.259   8.066  0.2116  0.0937 -0.6890
 7941SOL    HW235283   1.259   0.226   8.136  1.3644  2.2614 -0.5124
 7942SOL     OW35284   3.872   4.038  12.717  0.3182  0.2861  0.6809
 7942SOL    HW135285   3.840   3.966  12.661 -0.7546  0.6852  0.7765
 7942SOL    HW235286   3.891   4.111  12.658  0.6225 -0.1957  0.1818
 7943SOL     OW35287   0.418   0.809   3.344  0.7108 -0.3959  0.3441
 7943SOL    HW135288   0.335   0.851   3.322  0.3469 -1.4586 -0.3607
 7943SOL    HW235289   0.470   0.888   3.359  0.5180 -0.3527  0.7795
 7944SOL     OW35290   2.174   3.818   8.840 -0.6008  0.3921  0.3592
 7944SOL    HW135291   2.262   3.814   8.803 -0.4805  3.1921  0.3248
 7944SOL    HW235292   2.181   3.760   8.916 -0.0783 -0.0641 -0.0401
 7945SOL     OW35293   0.604   2.691   6.659 -0.1199 -0.2890 -0.1406
 7945SOL    HW135294   0.698   2.709   6.659  0.2036 -1.9601  2.4582
 7945SOL    HW235295   0.585   2.751   6.587 -1.1366 -0.6291 -0.1490
 7946SOL     OW35296   3.047   1.856  16.376  0.2024  0.2622 -0.8143
 7946SOL    HW135297   3.119   1.914  16.399 -0.6843  1.0073  0.1083
 7946SOL    HW235298   2.975   1.881  16.435  0.8757 -0.8575  0.4639
 7947SOL     OW35299   4.243   2.782   4.938 -0.2834 -0.0032 -0.9727
 7947SOL    HW135300   4.220   2.728   5.014  0.3530  0.1671 -0.6614
 7947SOL    HW235301   4.331   2.811   4.958  0.4640 -2.2062 -1.0038
 7948SOL     OW35302   2.020   0.426  13.065  0.6058  0.2204  0.3209
 7948SOL    HW135303   2.054   0.408  12.977  0.6324  1.2657  0.1197
 7948SOL    HW235304   2.022   0.337  13.101 -0.4262  0.2098  0.3641
 7949SOL     OW35305   0.202   2.581   2.502  0.0604  0.3066  0.6192
 7949SOL    HW135306   0.190   2.492   2.467 -0.8434 -0.0954  1.9636
 7949SOL    HW235307   0.203   2.565   2.596  0.4991  1.8314  0.8695
 7950SOL     OW35308   4.036   3.381  15.674 -0.3473 -0.4612 -0.1691
 7950SOL    HW135309   4.096   3.307  15.663  0.0263 -0.4680  1.9770
 7950SOL    HW235310   3.950   3.339  15.684  0.1794 -1.3961  0.4319
 7951SOL     OW35311   3.928   3.205   6.984  1.1145  0.0765  0.3122
 7951SOL    HW135312   3.900   3.153   7.060 -1.7332 -1.7212 -2.0163
 7951SOL    HW235313   4.019   3.207   7.014  0.9722 -0.6471  0.7913
 7952SOL     OW35314   2.132   0.747   4.138 -0.4887 -0.0072  0.2210
 7952SOL    HW135315   2.125   0.834   4.097 -0.8036 -0.0827  0.1133
 7952SOL    HW235316   2.226   0.745   4.158 -0.6253  1.8277  1.0928
 7953SOL     OW35317   2.504   0.819   5.722  0.1554  0.3265 -0.0822
 7953SOL    HW135318   2.586   0.777   5.747 -1.1457 -1.2623  1.5172
 7953SOL    HW235319   2.444   0.763   5.771  0.8601 -1.2631 -1.0332
 7954SOL     OW35320   4.413   2.751   8.342 -0.5010 -0.4683  0.3454
 7954SOL    HW135321   4.390   2.807   8.415 -2.9659 -0.9279 -0.0765
 7954SOL    HW235322   4.359   2.792   8.274 -1.2993 -1.2897  0.4872
 7955SOL     OW35323   0.082   0.653   2.994 -0.1518  0.5180  0.5703
 7955SOL    HW135324   0.036   0.627   2.914  1.3380 -0.9990  0.2107
 7955SOL    HW235325   0.149   0.711   2.959  0.5545  0.0130  1.0973
 7956SOL     OW35326   2.469   2.491   8.790  0.4093 -0.9479  0.2674
 7956SOL    HW135327   2.443   2.514   8.879 -1.8472  0.2023 -0.6927
 7956SOL    HW235328   2.495   2.400   8.801  0.6326 -0.9251 -0.0730
 7957SOL     OW35329   0.211   1.674   0.856  0.2905 -0.0572  0.0649
 7957SOL    HW135330   0.248   1.699   0.771  0.8803  0.3373  0.4354
 7957SOL    HW235331   0.297   1.667   0.898  0.7006 -1.5971 -1.0266
 7958SOL     OW35332   4.395   0.564   1.216  0.3633  0.2699  0.2466
 7958SOL    HW135333   4.327   0.611   1.168 -1.1281 -0.7716  1.3237
 7958SOL    HW235334   4.376   0.585   1.308  2.0902 -1.3296  0.9610
 7959SOL     OW35335   2.749   0.798  13.259  0.4834  0.0178  0.3316
 7959SOL    HW135336   2.693   0.875  13.252  0.3655 -0.1616 -0.6671
 7959SOL    HW235337   2.700   0.741  13.319 -0.4045 -0.4460 -0.8353
 7960SOL     OW35338   2.397   3.373   8.981 -0.0043  0.0479 -0.0079
 7960SOL    HW135339   2.385   3.342   8.891  0.0586  1.1672 -0.4031
 7960SOL    HW235340   2.338   3.317   9.031 -0.0070 -0.2229 -0.3157
 7961SOL     OW35341   0.720   1.801   0.582  0.7865 -0.2758 -0.1663
 7961SOL    HW135342   0.675   1.884   0.563  0.6040 -0.6527 -1.3694
 7961SOL    HW235343   0.769   1.818   0.662 -1.5732 -0.7456  1.3801
 7962SOL     OW35344   1.830   2.426   1.523 -0.3504  0.3246 -0.3659
 7962SOL    HW135345   1.879   2.357   1.478  1.1766 -0.6405  2.8181
 7962SOL    HW235346   1.742   2.392   1.504  0.4990 -0.7383 -2.4053
 7963SOL     OW35347   3.768   4.316  16.586 -0.3260  1.1506 -0.0878
 7963SOL    HW135348   3.838   4.251  16.576 -0.0299  1.3220  0.9176
 7963SOL    HW235349   3.692   4.266  16.615  0.6608  1.1333  2.4744
 7964SOL     OW35350   2.154   3.768   7.183 -0.3875 -0.0225 -0.4487
 7964SOL    HW135351   2.243   3.792   7.158 -1.3327  2.7740 -1.0913
 7964SOL    HW235352   2.156   3.742   7.276 -1.0130  0.5410 -0.2815
 7965SOL     OW35353   0.369   3.335  10.833  0.6055  0.3963  0.2701
 7965SOL    HW135354   0.357   3.258  10.889  1.7889  0.8882  1.1964
 7965SOL    HW235355   0.403   3.394  10.900  0.5899 -1.2399  1.7069
 7966SOL     OW35356   4.703   1.912   6.735 -0.5606  0.4875 -0.1078
 7966SOL    HW135357   0.069   1.880   6.741  0.3221  3.6173  3.3296
 7966SOL    HW235358   4.662   1.873   6.812  0.2685  1.4174  0.7963
 7967SOL     OW35359   0.614   4.466  13.846  0.8228 -0.7205 -0.3382
 7967SOL    HW135360   0.705   4.437  13.843  1.2369  0.9173 -4.0054
 7967SOL    HW235361   0.578   4.402  13.907  0.5992 -0.5456 -0.2861
 7968SOL     OW35362   0.762   0.016  10.803  0.0913  0.1780 -0.3156
 7968SOL    HW135363   0.744   4.718  10.895  2.8401  1.9826  0.6223
 7968SOL    HW235364   0.744   4.656  10.759 -1.9961 -0.7266  2.1937
 7969SOL     OW35365   1.628   3.086   7.888  0.5928  0.2326 -0.0966
 7969SOL    HW135366   1.583   3.111   7.807  0.1558 -1.3120 -0.3407
 7969SOL    HW235367   1.712   3.126   7.868 -0.4526  2.0959 -0.6964
 7970SOL     OW35368   2.816   0.615   9.212 -0.0633  0.2932  0.3039
 7970SOL    HW135369   2.842   0.694   9.260 -1.4986  1.2734 -0.5689
 7970SOL    HW235370   2.755   0.654   9.150  0.6924 -1.6636 -1.6830
 7971SOL     OW35371   2.509   4.535   5.215 -0.2203 -0.0723 -0.7383
 7971SOL    HW135372   2.507   4.587   5.135  1.5702  0.1315 -0.6554
 7971SOL    HW235373   2.500   4.451   5.169  1.1200 -0.5231 -0.1893
 7972SOL     OW35374   2.676   0.438   7.633  0.0229 -0.9337  0.5570
 7972SOL    HW135375   2.607   0.445   7.699  0.0002  0.9120  0.3395
 7972SOL    HW235376   2.663   0.511   7.572  1.6046 -0.0762  1.2364
 7973SOL     OW35377   4.054   1.956  13.842  0.6719  0.3707 -0.7064
 7973SOL    HW135378   3.973   1.985  13.884 -0.4413 -0.7509 -2.0311
 7973SOL    HW235379   4.069   2.034  13.789  0.9155  0.1349 -0.9847
 7974SOL     OW35380   1.848   3.901   6.204  0.3061  0.4680 -0.0232
 7974SOL    HW135381   1.828   3.821   6.156  1.0190 -0.3662  1.0742
 7974SOL    HW235382   1.929   3.876   6.249 -0.6006 -4.2379 -0.9934
 7975SOL     OW35383   2.838   3.266   1.354  0.2890  0.1452 -0.3183
 7975SOL    HW135384   2.905   3.197   1.356 -0.3421 -0.4587 -0.2963
 7975SOL    HW235385   2.843   3.295   1.263  1.2181  1.0680  0.0203
 7976SOL     OW35386   1.082   2.740   8.896 -0.8696 -0.1254 -0.2746
 7976SOL    HW135387   1.163   2.790   8.901  1.8753 -4.3463 -2.3836
 7976SOL    HW235388   1.041   2.776   8.817 -0.6943  0.5064 -0.0770
 7977SOL     OW35389   0.565   1.500  15.812 -0.1044  0.0876  0.7029
 7977SOL    HW135390   0.595   1.588  15.792  0.9847 -1.4926 -4.6579
 7977SOL    HW235391   0.578   1.490  15.907 -2.2667 -1.6812  0.8055
 7978SOL     OW35392   1.127   0.853   8.232 -0.3584  0.0291  0.9847
 7978SOL    HW135393   1.085   0.772   8.259 -1.1900 -0.2149 -0.9721
 7978SOL    HW235394   1.164   0.822   8.149 -1.7855 -0.5221  0.5423
 7979SOL     OW35395   0.201   1.193   7.840 -0.0836 -0.0374  0.3144
 7979SOL    HW135396   0.238   1.227   7.922  1.3211 -1.5167  0.2898
 7979SOL    HW235397   0.108   1.210   7.851 -0.2503 -0.5338 -0.3714
 7980SOL     OW35398   3.815   0.249   3.130  1.0520  0.1824  0.2181
 7980SOL    HW135399   3.729   0.290   3.123  1.0327  0.3658  1.5132
 7980SOL    HW235400   3.831   0.220   3.040 -1.2010 -0.1035 -0.0756
 7981SOL     OW35401   2.576   2.858   3.679  0.3146  0.2619  0.3747
 7981SOL    HW135402   2.492   2.905   3.682 -1.7797 -3.3893 -0.3403
 7981SOL    HW235403   2.551   2.791   3.615 -0.1353  1.7463 -0.9870
 7982SOL     OW35404   1.796   0.982  13.764  0.3801  0.2399  0.2050
 7982SOL    HW135405   1.719   0.969  13.820  0.6905 -0.1498  0.5475
 7982SOL    HW235406   1.822   1.069  13.794  0.1280 -0.0381  1.2118
 7983SOL     OW35407   2.972   2.145   2.295 -0.3859  0.3113 -0.2314
 7983SOL    HW135408   3.062   2.176   2.300 -0.6097  0.6448  1.4813
 7983SOL    HW235409   2.937   2.134   2.383  1.2336 -0.4538  0.2965
 7984SOL     OW35410   4.412   3.096  15.383  0.1001 -0.0698 -0.5040
 7984SOL    HW135411   4.495   3.048  15.373  0.9136  1.2177 -0.0010
 7984SOL    HW235412   4.367   3.033  15.438 -0.9377  1.4913  0.4315
 7985SOL     OW35413   0.262   2.554   2.768  0.6670 -0.2437  0.5084
 7985SOL    HW135414   0.357   2.557   2.767  0.7320 -2.2570  1.2233
 7985SOL    HW235415   0.252   2.573   2.862  1.1596 -0.0362  0.5189
 7986SOL     OW35416   2.513   3.477   5.075 -0.2212  0.0329  0.0661
 7986SOL    HW135417   2.452   3.544   5.106 -1.9000 -1.7603  0.6408
 7986SOL    HW235418   2.485   3.394   5.114 -0.8678  0.3420  0.2588
 7987SOL     OW35419   2.601   4.594   6.779 -0.6141 -0.4525 -0.2287
 7987SOL    HW135420   2.672   4.635   6.829 -1.6856  0.1726  0.7720
 7987SOL    HW235421   2.548   4.664   6.741  1.1592  0.5287 -0.8906
 7988SOL     OW35422   2.516   1.529   4.084  0.1922  0.1495  0.1991
 7988SOL    HW135423   2.551   1.512   4.171 -1.1649  1.3556  0.9925
 7988SOL    HW235424   2.452   1.459   4.078  0.8758 -0.4241 -0.4304
 7989SOL     OW35425   1.943   3.925   4.818 -0.0874  0.1930 -0.0161
 7989SOL    HW135426   1.945   3.969   4.733 -1.0177 -2.2712 -1.3041
 7989SOL    HW235427   1.850   3.906   4.808  0.6537 -2.3277 -2.0620
 7990SOL     OW35428   1.939   1.877  16.117  0.0301  0.1779 -0.1317
 7990SOL    HW135429   2.017   1.833  16.084 -0.1563 -0.6144  0.5075
 7990SOL    HW235430   1.978   1.930  16.187 -0.8658  1.1493 -0.3607
 7991SOL     OW35431   1.734   0.777   9.157  0.1833 -0.1182 -0.0605
 7991SOL    HW135432   1.762   0.866   9.181 -1.6595  1.0964 -2.4013
 7991SOL    HW235433   1.763   0.722   9.229  0.7329 -0.6361 -0.6739
 7992SOL     OW35434   3.291   0.100   2.686 -0.1519 -0.1940 -0.1317
 7992SOL    HW135435   3.337   0.040   2.628  1.1548  0.5244  0.1408
 7992SOL    HW235436   3.288   0.180   2.633  1.1971  2.0437  3.1309
 7993SOL     OW35437   0.211   0.771  10.430 -0.6123  0.4234  0.2260
 7993SOL    HW135438   0.159   0.735  10.502  1.2890 -0.0728  1.3599
 7993SOL    HW235439   0.296   0.771  10.474 -1.0026 -1.8136  1.0101
 7994SOL     OW35440   0.925   0.443   3.609  0.0186  0.4976  0.1812
 7994SOL    HW135441   0.958   0.447   3.699 -0.4782 -0.9988  0.4295
 7994SOL    HW235442   0.864   0.369   3.613 -0.9073  1.1814 -1.2832
 7995SOL     OW35443   0.953   2.189   3.339 -0.4620  0.0564  0.5792
 7995SOL    HW135444   1.021   2.124   3.325 -0.6765  0.2582 -1.4019
 7995SOL    HW235445   0.995   2.250   3.400  0.7807  0.6613 -0.8874
 7996SOL     OW35446   1.095   1.329   5.218  0.1417  0.6021 -0.3488
 7996SOL    HW135447   1.008   1.343   5.183 -0.2337 -0.5828  0.1052
 7996SOL    HW235448   1.101   1.409   5.271  2.8388 -0.3885  0.8667
 7997SOL     OW35449   4.071   0.867   8.262  0.6495 -0.1145  0.1563
 7997SOL    HW135450   4.104   0.932   8.201  0.4423 -2.4279 -2.4136
 7997SOL    HW235451   4.131   0.793   8.253 -0.1408 -0.7891  0.3153
 7998SOL     OW35452   2.438   0.319   5.199  0.4751  0.0629 -0.1058
 7998SOL    HW135453   2.400   0.399   5.164  0.9155  0.6041  0.6661
 7998SOL    HW235454   2.432   0.266   5.119  2.8236  0.6366 -0.6804
 7999SOL     OW35455   4.640   2.708   2.472  0.0741 -0.0121 -0.9397
 7999SOL    HW135456   4.656   2.632   2.528 -3.4662 -2.0322 -2.6914
 7999SOL    HW235457   4.558   2.742   2.507  0.0681 -1.0630  0.0734
 8000SOL     OW35458   4.022   3.927   5.926  0.6866 -0.0264  0.1959
 8000SOL    HW135459   4.099   3.892   5.970  0.9534  0.1020 -0.1703
 8000SOL    HW235460   3.966   3.851   5.943 -1.0054  0.8650 -1.4286
 8001SOL     OW35461   2.518   2.864   2.066  0.6311  0.1396 -0.1999
 8001SOL    HW135462   2.491   2.774   2.047 -0.4822  0.7773 -1.6243
 8001SOL    HW235463   2.476   2.917   1.998 -1.6705 -2.2116 -0.6199
 8002SOL     OW35464   3.812   0.340   1.786  0.2402  0.1578 -0.0750
 8002SOL    HW135465   3.729   0.330   1.832 -1.8282 -3.5403 -4.5854
 8002SOL    HW235466   3.844   0.415   1.836 -0.3083  0.7267 -0.5668
 8003SOL     OW35467   2.891   3.695   4.736  0.2066 -0.1772  0.0431
 8003SOL    HW135468   2.978   3.663   4.760 -0.6681 -1.1660  1.9038
 8003SOL    HW235469   2.907   3.687   4.641  0.2760 -1.4578  0.1654
 8004SOL     OW35470   3.626   2.283  10.162  0.2366  0.0179  0.2625
 8004SOL    HW135471   3.663   2.250  10.080  2.0050  0.3968  0.9105
 8004SOL    HW235472   3.551   2.326  10.120  0.9873  0.9332 -0.1351
 8005SOL     OW35473   2.521   0.606   2.753 -0.3276  0.3960  0.0986
 8005SOL    HW135474   2.537   0.662   2.830  1.0625  1.6164 -1.0624
 8005SOL    HW235475   2.507   0.675   2.688  0.7087 -0.6845 -1.2582
 8006SOL     OW35476   3.741   2.236   7.676  0.1899 -0.1665  0.1605
 8006SOL    HW135477   3.720   2.329   7.686 -0.7215 -0.5469  1.7254
 8006SOL    HW235478   3.652   2.203   7.680  0.2288 -0.4847 -1.4900
 8007SOL     OW35479   3.032   3.655  10.116  0.2417 -0.2970  0.7150
 8007SOL    HW135480   2.953   3.634  10.066  1.9492  0.2117 -2.2005
 8007SOL    HW235481   2.999   3.727  10.169 -3.4913 -2.5149  1.3945
 8008SOL     OW35482   1.534   2.494   6.437  0.1385  0.5975  0.1063
 8008SOL    HW135483   1.588   2.570   6.414  0.0986  0.9516  1.1504
 8008SOL    HW235484   1.450   2.528   6.406  0.2882 -0.3684 -1.3659
 8009SOL     OW35485   2.405   0.087   7.744 -0.4405 -0.2871 -1.2040
 8009SOL    HW135486   2.331   0.145   7.762  0.1998 -0.4055  1.7305
 8009SOL    HW235487   2.368   0.002   7.719 -0.4827 -0.5766 -0.1550
 8010SOL     OW35488   2.022   0.458  14.774 -0.1087 -0.1129 -0.3158
 8010SOL    HW135489   2.104   0.435  14.729  0.3503  2.7835 -0.9502
 8010SOL    HW235490   2.032   0.420  14.862  5.2488  0.3893 -0.6721
 8011SOL     OW35491   0.960   4.147   0.382  0.6719 -0.1790  0.2982
 8011SOL    HW135492   0.892   4.192   0.333 -0.4160 -2.2055 -0.0317
 8011SOL    HW235493   1.040   4.188   0.348  0.8357 -2.2971 -1.8376
 8012SOL     OW35494   3.896   2.765   6.011  0.2732  0.7419 -0.5193
 8012SOL    HW135495   3.864   2.810   6.090 -3.2423 -0.1346 -1.4509
 8012SOL    HW235496   3.980   2.738   6.046  0.1345  0.4060 -0.4494
 8013SOL     OW35497   4.055   3.026   6.542 -0.3888 -0.3613  0.0075
 8013SOL    HW135498   4.147   3.012   6.562 -0.3587  0.3091  0.3325
 8013SOL    HW235499   4.016   3.000   6.626  3.0064 -0.8603  1.4047
 8014SOL     OW35500   3.950   1.126  14.192 -0.3157 -0.0438  0.0661
 8014SOL    HW135501   3.966   1.159  14.280 -0.5773  0.1694  0.0346
 8014SOL    HW235502   3.905   1.203  14.157 -3.8758 -0.7649  3.0463
 8015SOL     OW35503   0.082   3.041   7.315 -0.6288  0.5100 -0.0780
 8015SOL    HW135504   0.069   3.103   7.387 -0.6187  0.3343  0.0764
 8015SOL    HW235505   0.010   3.045   7.252  0.3329 -0.5362 -1.2393
 8016SOL     OW35506   2.857   2.887   5.656 -0.6718 -0.1809 -0.0800
 8016SOL    HW135507   2.838   2.799   5.687 -0.8058 -0.0734  0.1406
 8016SOL    HW235508   2.809   2.936   5.723 -0.9777 -0.2253 -0.2691
 8017SOL     OW35509   0.163   2.110   4.336 -0.0823 -0.1161 -0.3323
 8017SOL    HW135510   0.124   2.023   4.345 -1.2351  0.5516  1.1703
 8017SOL    HW235511   0.137   2.144   4.251  0.1758 -1.3471 -0.9030
 8018SOL     OW35512   3.334   4.195   9.014  0.4257  0.2627 -0.8443
 8018SOL    HW135513   3.292   4.256   8.954 -2.4024  0.6936  1.5521
 8018SOL    HW235514   3.264   4.184   9.079  1.6538  1.0260  0.6333
 8019SOL     OW35515   1.723   2.988   7.272  0.0156 -0.6044 -0.5791
 8019SOL    HW135516   1.796   2.994   7.334  0.2071 -3.2550 -0.5726
 8019SOL    HW235517   1.654   2.954   7.329  0.9637 -0.6351  0.5487
 8020SOL     OW35518   3.398   0.766   4.208  0.0804  0.0198 -0.8980
 8020SOL    HW135519   3.339   0.827   4.254 -0.6987 -1.8132  0.5076
 8020SOL    HW235520   3.330   0.706   4.178 -0.1933  0.4702 -1.1840
 8021SOL     OW35521   0.367   1.095   1.007 -0.0431  0.1878  0.2976
 8021SOL    HW135522   0.305   1.037   1.052  0.5480  1.3833  2.6850
 8021SOL    HW235523   0.417   1.141   1.075  2.3315 -3.8582  1.2963
 8022SOL     OW35524   2.270   2.340   6.496  0.1881  0.0740 -0.5441
 8022SOL    HW135525   2.250   2.249   6.518  1.5906 -0.0547  0.1740
 8022SOL    HW235526   2.257   2.374   6.584  1.8041  0.8968 -0.6232
 8023SOL     OW35527   1.685   4.708   3.106 -0.0797  0.5544 -0.3114
 8023SOL    HW135528   1.658   4.655   3.180  1.0499  1.8851  1.0743
 8023SOL    HW235529   1.778   4.685   3.099  0.1891  1.3465  0.5495
 8024SOL     OW35530   1.176   4.472   0.967 -0.5927  0.3175 -0.0907
 8024SOL    HW135531   1.136   4.550   0.930 -1.5219 -0.1750 -0.1391
 8024SOL    HW235532   1.105   4.460   1.030 -0.2075  2.3764  0.7362
 8025SOL     OW35533   0.027   0.472   7.774  0.3814 -0.9418  0.7895
 8025SOL    HW135534   0.032   0.540   7.841  0.1725  1.9586 -2.1854
 8025SOL    HW235535   0.102   0.414   7.790  1.7679  0.2009 -1.6607
 8026SOL     OW35536   3.580   1.665   6.238  0.3103  0.1718  0.7944
 8026SOL    HW135537   3.501   1.622   6.203  0.5179  0.7445 -0.4003
 8026SOL    HW235538   3.549   1.745   6.280 -2.5142 -0.4309 -0.1091
 8027SOL     OW35539   1.135   4.115  12.133  0.1822  0.3170 -0.2907
 8027SOL    HW135540   1.094   4.172  12.198 -0.4396 -1.7006  1.0959
 8027SOL    HW235541   1.066   4.125  12.068 -0.4883 -2.5704 -0.0218
 8028SOL     OW35542   1.734   1.667   9.393  0.3338  0.2333 -0.0502
 8028SOL    HW135543   1.744   1.643   9.301  0.3149  1.8402 -0.4827
 8028SOL    HW235544   1.811   1.626   9.432 -0.8960 -1.1404  0.9343
 8029SOL     OW35545   4.597   2.296  11.671  0.6184  0.3362 -0.0476
 8029SOL    HW135546   4.526   2.240  11.639  1.0566 -0.9403  1.1936
 8029SOL    HW235547   4.585   2.283  11.765 -0.1562 -0.5296 -0.2691
 8030SOL     OW35548   1.953   0.925   5.683  0.3100 -0.4718 -0.5030
 8030SOL    HW135549   1.923   0.845   5.639 -2.8537  0.6611 -0.3626
 8030SOL    HW235550   1.921   0.911   5.772  0.8439 -0.7966 -0.3555
 8031SOL     OW35551   4.117   0.436   2.732  0.1208  0.7198  0.2304
 8031SOL    HW135552   4.204   0.470   2.753 -0.2580  1.2821  0.8819
 8031SOL    HW235553   4.130   0.406   2.642 -0.2197  0.2773  0.3265
 8032SOL     OW35554   0.384   1.426   2.177 -0.0247 -0.4445 -0.1889
 8032SOL    HW135555   0.299   1.418   2.220 -0.7345  0.8952 -1.3406
 8032SOL    HW235556   0.413   1.510   2.214 -0.5619  0.4285 -1.7391
 8033SOL     OW35557   1.325   3.059   8.691  0.5695  0.2736 -0.0129
 8033SOL    HW135558   1.340   2.965   8.681  0.5287  0.2096  0.4931
 8033SOL    HW235559   1.231   3.053   8.707  0.3249  0.2890 -1.4567
 8034SOL     OW35560   3.669   4.141   3.877  0.2598 -0.5682 -0.1591
 8034SOL    HW135561   3.692   4.233   3.887 -0.3138 -0.3493 -0.7941
 8034SOL    HW235562   3.677   4.114   3.968  0.9400  2.3542  0.6602
 8035SOL     OW35563   2.142   3.824   0.872 -0.4785 -0.0460 -0.0727
 8035SOL    HW135564   2.237   3.821   0.877 -0.4230  0.2794 -0.9887
 8035SOL    HW235565   2.136   3.919   0.859 -1.6645 -0.3788 -1.9847
 8036SOL     OW35566   2.760   0.858   8.526 -0.1900  0.0278  0.0841
 8036SOL    HW135567   2.823   0.875   8.597  0.6541 -0.6575 -0.5021
 8036SOL    HW235568   2.785   0.914   8.453 -0.4046  2.9313  2.1954
 8037SOL     OW35569   4.310   3.300  13.834 -0.0635  0.1174 -1.0325
 8037SOL    HW135570   4.243   3.368  13.838 -0.1979 -0.0724  0.0073
 8037SOL    HW235571   4.366   3.336  13.903 -2.9467 -0.8108  1.7762
 8038SOL     OW35572   1.448   0.638   8.277 -0.4386  0.1670 -0.0022
 8038SOL    HW135573   1.537   0.611   8.252 -0.5901 -0.0630 -0.2956
 8038SOL    HW235574   1.464   0.732   8.279  1.7669 -0.1957 -0.4332
 8039SOL     OW35575   1.312   2.279   6.363 -0.0347 -0.3218  0.4971
 8039SOL    HW135576   1.395   2.233   6.375 -0.6131 -1.8934 -1.3264
 8039SOL    HW235577   1.252   2.253   6.432 -0.4357 -0.6688  0.0212
 8040SOL     OW35578   4.125   1.177  13.353  0.1606 -0.4711 -0.4441
 8040SOL    HW135579   4.155   1.205  13.266  2.2699  1.7563  0.9888
 8040SOL    HW235580   4.126   1.258  13.404  1.3739  1.0361 -2.8783
 8041SOL     OW35581   4.536   4.454   3.781 -0.7476  0.0971 -0.2220
 8041SOL    HW135582   4.497   4.526   3.830  0.5280  0.8252 -0.2963
 8041SOL    HW235583   4.493   4.467   3.697  0.1727 -1.7584 -0.9841
 8042SOL     OW35584   1.984   3.902   9.283 -0.2409 -0.7146 -0.6309
 8042SOL    HW135585   2.025   3.831   9.332  0.0959  0.7737  1.2168
 8042SOL    HW235586   1.895   3.908   9.315  0.6491  0.4203  1.5604
 8043SOL     OW35587   3.482   2.326   8.659 -0.3360  0.3296  0.1666
 8043SOL    HW135588   3.422   2.283   8.721  1.3767 -1.7190  0.3794
 8043SOL    HW235589   3.566   2.304   8.699 -0.2862  0.2182  0.0014
 8044SOL     OW35590   1.512   1.382   1.592 -0.4578  0.1305  0.4987
 8044SOL    HW135591   1.541   1.331   1.517 -3.4229 -0.6984 -0.0795
 8044SOL    HW235592   1.545   1.327   1.663 -1.3966 -1.1263 -0.0306
 8045SOL     OW35593   4.689   3.162  16.624  0.5654  0.4967 -0.2331
 8045SOL    HW135594   0.031   3.182  16.557  0.8365 -0.5002 -0.2690
 8045SOL    HW235595   4.668   3.073  16.595  1.7174  0.6642 -1.5950
 8046SOL     OW35596   4.063   0.915   9.429 -0.3125  0.1493 -0.5410
 8046SOL    HW135597   3.973   0.924   9.396 -0.0605 -4.0409 -2.4253
 8046SOL    HW235598   4.122   0.923   9.354  0.1429 -2.8435 -0.4973
 8047SOL     OW35599   1.747   3.993   9.042 -0.6478 -0.3854 -0.2697
 8047SOL    HW135600   1.731   3.899   9.050  0.2847 -0.3317  2.3899
 8047SOL    HW235601   1.687   4.029   8.977 -0.5471 -1.6219 -1.0461
 8048SOL     OW35602   4.482   3.012  12.297  0.2336  0.6006  0.2043
 8048SOL    HW135603   4.465   2.941  12.359  2.6073 -0.2313 -0.1073
 8048SOL    HW235604   4.395   3.039  12.269 -0.4087 -1.5157  0.1636
 8049SOL     OW35605   1.646   0.527   9.294 -0.3671 -0.5368  0.1950
 8049SOL    HW135606   1.697   0.585   9.351 -1.0637 -1.3804  1.6612
 8049SOL    HW235607   1.573   0.584   9.273  0.7615  1.4002  1.5106
 8050SOL     OW35608   1.844   4.035  12.122 -0.2560  0.0204  0.7179
 8050SOL    HW135609   1.834   3.961  12.061  0.3634 -1.4110  2.3512
 8050SOL    HW235610   1.755   4.053  12.151 -0.8267  2.6357 -2.6066
 8051SOL     OW35611   0.432   0.218   7.288  0.1655  0.1697  0.2183
 8051SOL    HW135612   0.368   0.177   7.231  0.8700  0.1749 -0.5782
 8051SOL    HW235613   0.472   0.279   7.226  0.0180 -1.2881 -1.3080
 8052SOL     OW35614   3.470   1.816  13.283  0.0246 -0.2508 -0.9967
 8052SOL    HW135615   3.565   1.821  13.292 -0.0298 -0.3750 -0.3454
 8052SOL    HW235616   3.466   1.808  13.188 -1.1821 -1.1840 -0.8606
 8053SOL     OW35617   3.480   1.248  12.567 -0.3969 -0.0789 -0.2101
 8053SOL    HW135618   3.435   1.247  12.482  1.0298 -0.5230 -0.9638
 8053SOL    HW235619   3.417   1.235  12.638  0.0659  0.4216  0.2888
 8054SOL     OW35620   3.362   3.354   8.533 -0.4106  0.1567 -0.0352
 8054SOL    HW135621   3.456   3.366   8.548 -0.3770  1.1280 -1.0072
 8054SOL    HW235622   3.337   3.410   8.608  2.5314  2.4458 -0.7784
 8055SOL     OW35623   3.029   3.738   5.596  0.1516  0.1529 -0.3875
 8055SOL    HW135624   2.950   3.760   5.644  0.4559 -0.3137  0.3217
 8055SOL    HW235625   3.093   3.714   5.663 -0.2039 -1.5143 -0.6600
 8056SOL     OW35626   4.294   1.701  12.358  0.5583  0.1090 -0.2998
 8056SOL    HW135627   4.365   1.762  12.375 -0.1883  1.2534 -1.3413
 8056SOL    HW235628   4.215   1.754  12.350  0.6605 -0.1229 -2.8812
 8057SOL     OW35629   2.620   3.972   9.267  0.1118 -0.6853 -0.1021
 8057SOL    HW135630   2.576   4.057   9.272  1.9320  0.2886 -0.7240
 8057SOL    HW235631   2.574   3.933   9.193 -0.3589 -1.0714  0.3899
 8058SOL     OW35632   0.667   3.417   7.925  0.2159  0.2686 -0.5370
 8058SOL    HW135633   0.649   3.358   7.999  0.6877 -1.1092 -1.5294
 8058SOL    HW235634   0.603   3.400   7.856 -0.4988 -0.0472  0.2004
 8059SOL     OW35635   1.523   1.308  10.582 -0.0078  0.1275 -0.1038
 8059SOL    HW135636   1.450   1.311  10.521  0.7829  2.5290 -0.9486
 8059SOL    HW235637   1.579   1.232  10.564 -0.3701  0.0028 -0.6951
 8060SOL     OW35638   1.485   1.645   9.263  0.6463 -0.4766 -0.3802
 8060SOL    HW135639   1.550   1.648   9.333 -0.0948 -0.6004  0.3101
 8060SOL    HW235640   1.433   1.720   9.290 -0.3097 -1.3860  0.3294
 8061SOL     OW35641   1.605   4.086   7.521  0.2050 -0.5790  0.2960
 8061SOL    HW135642   1.565   4.168   7.493  2.0664  0.7875  1.6398
 8061SOL    HW235643   1.687   4.116   7.560 -0.2398  1.6501 -0.4777
 8062SOL     OW35644   1.162   4.664   4.093  0.4911  0.5917  0.0305
 8062SOL    HW135645   1.137   0.003   4.025 -0.4545  0.6982  0.4758
 8062SOL    HW235646   1.225   4.610   4.045 -1.2848 -0.3000 -1.3192
 8063SOL     OW35647   2.184   3.337   5.478  0.1595  0.4225  0.2236
 8063SOL    HW135648   2.143   3.298   5.556  0.5626  0.2502  0.3497
 8063SOL    HW235649   2.240   3.264   5.450  2.0905  2.3715 -0.9515
 8064SOL     OW35650   3.359   2.772   6.583  0.2662 -0.0142  0.0471
 8064SOL    HW135651   3.404   2.855   6.571 -0.3989  0.2370 -0.7137
 8064SOL    HW235652   3.439   2.720   6.593  1.0867  0.9222 -1.5400
 8065SOL     OW35653   4.309   2.420   3.433 -0.2688 -0.1705  0.1768
 8065SOL    HW135654   4.234   2.476   3.411  1.5094  2.6092  1.2458
 8065SOL    HW235655   4.318   2.430   3.528  1.6778 -2.2338  0.2031
 8066SOL     OW35656   2.039   4.196   4.657 -0.0267  0.7390 -0.0774
 8066SOL    HW135657   1.997   4.281   4.649 -0.7327  0.6609  2.5982
 8066SOL    HW235658   1.978   4.149   4.600 -1.6352  1.9395  0.6455
 8067SOL     OW35659   4.409   1.977   2.123 -0.4032  0.4513  0.0206
 8067SOL    HW135660   4.440   1.891   2.149 -0.4944  0.7142  1.0005
 8067SOL    HW235661   4.329   1.996   2.174  0.7230 -1.0993  2.3646
 8068SOL     OW35662   1.182   0.938  11.755  0.8461  0.4799 -0.0191
 8068SOL    HW135663   1.187   0.883  11.677 -1.0569 -1.6359  1.3547
 8068SOL    HW235664   1.159   1.026  11.727  0.2343  1.0174  2.1387
 8069SOL     OW35665   4.068   3.112   7.593 -0.3474  0.3519 -0.0797
 8069SOL    HW135666   4.010   3.113   7.516  0.0856  0.4796 -0.4061
 8069SOL    HW235667   4.139   3.145   7.538 -0.2903  0.6259  0.1582
 8070SOL     OW35668   3.472   3.852   6.564 -0.0472  0.6796 -0.2595
 8070SOL    HW135669   3.503   3.823   6.478 -1.7905 -0.2042 -0.5945
 8070SOL    HW235670   3.461   3.944   6.542 -0.4947  0.6756 -0.0570
 8071SOL     OW35671   1.008   3.960  12.358  0.7089 -0.0143  0.0377
 8071SOL    HW135672   0.979   3.991  12.443  0.3839 -2.0065  0.6634
 8071SOL    HW235673   0.935   3.988  12.304 -0.9188 -0.9582  1.7426
 8072SOL     OW35674   2.168   0.776   6.100 -0.0387  0.1046 -0.4730
 8072SOL    HW135675   2.244   0.738   6.055  0.2966  0.2811 -0.0543
 8072SOL    HW235676   2.176   0.865   6.065  0.3155  0.5202  0.6704
 8073SOL     OW35677   1.305   3.961   7.596 -0.3996 -0.1337  0.3971
 8073SOL    HW135678   1.238   4.014   7.554  1.3814  2.6821  1.0702
 8073SOL    HW235679   1.296   3.984   7.688  0.5311  3.1880 -0.3394
 8074SOL     OW35680   3.961   0.913   5.647  0.5055 -0.0572 -0.2733
 8074SOL    HW135681   3.890   0.895   5.585 -0.6557 -1.1094  1.3347
 8074SOL    HW235682   3.980   1.006   5.639  2.9009 -0.7889 -2.9900
 8075SOL     OW35683   4.238   3.491   6.127 -0.1283 -0.7034 -0.2327
 8075SOL    HW135684   4.302   3.486   6.056 -0.4214 -1.7739 -0.4099
 8075SOL    HW235685   4.167   3.451   6.078 -0.9713 -0.8203  1.0916
 8076SOL     OW35686   0.019   1.913   8.380 -0.1000 -0.0165  0.1407
 8076SOL    HW135687   4.654   1.908   8.343  0.8529 -0.4622 -2.1125
 8076SOL    HW235688   0.023   1.977   8.452 -1.5451  0.2857 -0.0470
 8077SOL     OW35689   3.824   2.018   3.085 -0.7454  0.6052  0.1460
 8077SOL    HW135690   3.792   2.076   3.154  1.1537  1.4205  0.3290
 8077SOL    HW235691   3.741   1.999   3.040 -0.7659  3.8542 -1.1726
 8078SOL     OW35692   1.965   0.917  12.811  0.5357  0.1346  0.4288
 8078SOL    HW135693   2.020   0.907  12.889  0.1229 -1.0374  0.5701
 8078SOL    HW235694   2.022   0.884  12.742  0.9135 -0.9497  1.2464
 8079SOL     OW35695   0.590   0.628   3.212 -0.7012  0.5292  0.0924
 8079SOL    HW135696   0.544   0.684   3.275 -0.9293  1.2462 -0.7095
 8079SOL    HW235697   0.628   0.690   3.150 -0.0035  0.4949  0.4799
 8080SOL     OW35698   3.654   3.679   1.774  0.5716  0.2294 -0.4772
 8080SOL    HW135699   3.668   3.753   1.834 -0.8714 -1.5016  1.9820
 8080SOL    HW235700   3.681   3.608   1.833  1.1327  0.9379  0.1324
 8081SOL     OW35701   0.616   0.756   2.775  0.5501  0.5323  0.2753
 8081SOL    HW135702   0.643   0.781   2.863 -2.5897 -0.8324  1.6121
 8081SOL    HW235703   0.594   0.663   2.782  1.1156  0.2616 -1.4541
 8082SOL     OW35704   2.959   3.067   1.194  0.3159  0.5446  0.1676
 8082SOL    HW135705   3.029   3.062   1.129 -0.7537  0.5163 -0.9909
 8082SOL    HW235706   2.891   3.037   1.134 -0.9981  0.2988  1.7994
 8083SOL     OW35707   1.360   2.286   6.804  0.8917 -0.7186 -0.7223
 8083SOL    HW135708   1.384   2.198   6.773  1.9906 -0.2328 -1.2288
 8083SOL    HW235709   1.346   2.259   6.895 -3.3173  0.4788 -1.0197
 8084SOL     OW35710   3.233   0.584   8.661 -0.5303  0.2072 -0.2013
 8084SOL    HW135711   3.160   0.635   8.696 -1.6420 -0.3665 -1.6862
 8084SOL    HW235712   3.196   0.560   8.577 -0.2261  0.9399 -0.5450
 8085SOL     OW35713   1.950   2.935   3.040  0.2867  0.6767  0.1924
 8085SOL    HW135714   1.989   2.864   2.989  0.6343  1.2451 -0.3395
 8085SOL    HW235715   1.875   2.953   2.983 -0.0600 -2.4440 -0.3335
 8086SOL     OW35716   3.690   2.533  13.449  0.1188 -0.1671 -0.1269
 8086SOL    HW135717   3.674   2.628  13.452  0.2472 -0.0827 -2.8063
 8086SOL    HW235718   3.700   2.518  13.543  2.2440 -1.8699 -0.6201
 8087SOL     OW35719   1.037   2.933   1.958 -0.0399  0.0031 -0.2138
 8087SOL    HW135720   0.960   2.905   1.909 -1.0790 -0.5927  1.7440
 8087SOL    HW235721   1.026   3.027   1.943  0.8472  0.0262 -0.6932
 8088SOL     OW35722   1.592   4.661  16.965 -0.9107 -0.2100 -0.0696
 8088SOL    HW135723   1.649   4.682  16.892  0.7552 -0.5355  1.1491
 8088SOL    HW235724   1.646   4.676  17.043  1.2613  2.4189 -2.0959
 8089SOL     OW35725   0.045   3.286   4.467  0.2028 -0.5238  0.1364
 8089SOL    HW135726   0.048   3.242   4.552  1.6548  2.3400  1.5978
 8089SOL    HW235727   0.016   3.215   4.411 -2.5959 -0.2573  1.2110
 8090SOL     OW35728   1.816   4.012   8.625 -0.4827  0.1148 -0.5723
 8090SOL    HW135729   1.855   3.940   8.676 -0.1455  1.2798  0.8004
 8090SOL    HW235730   1.895   4.066   8.616  0.5891 -1.6737 -1.9177
 8091SOL     OW35731   1.532   3.416   6.517  0.5591 -0.4845 -0.0391
 8091SOL    HW135732   1.554   3.323   6.517  0.5839 -0.4782 -0.5318
 8091SOL    HW235733   1.504   3.422   6.609  1.3898 -1.0493  0.2508
 8092SOL     OW35734   2.907   1.640   6.689 -0.0897 -0.0825  0.0018
 8092SOL    HW135735   2.863   1.579   6.630 -1.5634 -0.6146  1.6400
 8092SOL    HW235736   2.850   1.642   6.766  0.1468 -0.4607  0.1856
 8093SOL     OW35737   1.095   4.418   4.178 -0.1437 -0.0295 -0.1486
 8093SOL    HW135738   1.108   4.511   4.161 -0.5065 -0.0699 -0.6503
 8093SOL    HW235739   1.017   4.413   4.123  0.0498  0.9182 -0.5117
 8094SOL     OW35740   1.131   3.912   6.547  0.6646 -0.7310 -0.6319
 8094SOL    HW135741   1.102   3.991   6.501  0.8528 -2.6431 -3.9694
 8094SOL    HW235742   1.140   3.849   6.476 -3.7457 -0.9071 -1.0258
 8095SOL     OW35743   1.259   1.759   7.554  0.3294  0.1227 -0.5502
 8095SOL    HW135744   1.199   1.769   7.479  1.5261 -2.3402 -1.8450
 8095SOL    HW235745   1.195   1.742   7.623  0.6914  0.3355 -0.1639
 8096SOL     OW35746   3.320   1.559   4.326  0.7092  0.0010  0.1327
 8096SOL    HW135747   3.363   1.565   4.411  0.8072  2.0103 -0.0485
 8096SOL    HW235748   3.373   1.625   4.281  0.2857  0.0354 -0.3119
 8097SOL     OW35749   2.903   4.412   4.903 -0.2920  0.3137 -0.2669
 8097SOL    HW135750   2.981   4.467   4.896 -1.0649  1.4974  0.4698
 8097SOL    HW235751   2.843   4.464   4.848 -0.2815  0.6493  0.0434
 8098SOL     OW35752   3.540   3.982  12.492  0.1803  0.1672  0.6488
 8098SOL    HW135753   3.617   3.925  12.485  0.2995  0.5982 -1.6211
 8098SOL    HW235754   3.559   4.055  12.434 -0.6739 -0.6957 -0.7306
 8099SOL     OW35755   2.436   1.686   2.531 -0.3206  0.0699 -0.0710
 8099SOL    HW135756   2.487   1.614   2.568 -0.2387 -1.6280 -3.4604
 8099SOL    HW235757   2.470   1.763   2.576  1.1406  0.3264 -1.6134
 8100SOL     OW35758   4.419   3.435   3.969  0.3451  0.1373 -0.4365
 8100SOL    HW135759   4.451   3.506   3.915  0.5020 -1.2926 -2.2304
 8100SOL    HW235760   4.405   3.475   4.055 -1.4452 -1.0027 -0.2043
 8101SOL     OW35761   0.796   3.156   2.167 -0.6728  0.1518 -0.1435
 8101SOL    HW135762   0.839   3.165   2.082 -1.4941  0.0680 -0.5748
 8101SOL    HW235763   0.736   3.086   2.141  2.9192 -2.4743 -1.2458
 8102SOL     OW35764   1.807   3.133   4.981  0.1507 -0.7450  0.1136
 8102SOL    HW135765   1.784   3.157   4.891  0.8335  0.8878  0.3690
 8102SOL    HW235766   1.822   3.218   5.023  0.4617  0.0767 -1.6176
 8103SOL     OW35767   2.850   1.760   6.995 -0.4194 -0.4819 -0.2885
 8103SOL    HW135768   2.944   1.757   6.979 -0.5539  1.5384 -1.4320
 8103SOL    HW235769   2.860   1.793   7.085 -0.4062 -0.0424 -0.4520
 8104SOL     OW35770   1.427   1.567   4.354  0.2569 -0.0951 -0.4935
 8104SOL    HW135771   1.475   1.640   4.316 -0.8210  2.2398  2.7125
 8104SOL    HW235772   1.467   1.491   4.310 -0.7222 -1.3722  0.8238
 8105SOL     OW35773   2.457   2.332   5.826 -0.2546  0.7282  0.2057
 8105SOL    HW135774   2.545   2.313   5.861 -0.7038  0.1798  1.0364
 8105SOL    HW235775   2.410   2.339   5.908  1.8269  0.0767  1.4654
 8106SOL     OW35776   3.944   0.356   8.215 -0.8332 -0.5042  0.5365
 8106SOL    HW135777   3.871   0.410   8.245  0.4264  1.4960  0.0515
 8106SOL    HW235778   3.999   0.354   8.293 -1.3579  1.4450  0.9645
 8107SOL     OW35779   2.363   3.638  13.502 -0.1159 -0.0255  0.0907
 8107SOL    HW135780   2.280   3.675  13.533 -0.9354 -0.6846 -1.2781
 8107SOL    HW235781   2.403   3.590  13.574 -0.6367  0.6737  0.8395
 8108SOL     OW35782   1.124   1.496   1.821  0.4597  0.6856 -0.1288
 8108SOL    HW135783   1.041   1.538   1.800 -1.6578 -1.9541  2.9641
 8108SOL    HW235784   1.174   1.544   1.755  3.1962 -1.3662  0.4378
 8109SOL     OW35785   0.607   1.310   7.142 -0.0218 -0.2586  0.0080
 8109SOL    HW135786   0.678   1.246   7.146  0.9682  0.8650  0.6050
 8109SOL    HW235787   0.651   1.384   7.184 -3.2992  0.7983  1.5923
 8110SOL     OW35788   3.490   3.054   5.313  0.0142  0.0040 -0.3437
 8110SOL    HW135789   3.427   2.994   5.353 -0.9565  1.1477 -0.1637
 8110SOL    HW235790   3.560   2.999   5.279 -1.2659 -1.3630 -0.7545
 8111SOL     OW35791   4.179   2.016  17.101  0.2479  0.0413 -0.3466
 8111SOL    HW135792   4.136   2.084  17.152  1.8097  0.8329 -0.0681
 8111SOL    HW235793   4.234   1.984  17.172 -1.1167 -1.9359 -0.1747
 8112SOL     OW35794   1.406   3.694   0.986 -0.4665  0.3887 -0.0090
 8112SOL    HW135795   1.493   3.726   0.964  0.1249 -0.7070  0.7529
 8112SOL    HW235796   1.435   3.643   1.062  0.0618 -0.2732 -0.6599
 8113SOL     OW35797   1.753   1.965  13.975 -0.1218  0.4439  0.0009
 8113SOL    HW135798   1.797   2.043  13.943  0.7695 -0.3788 -0.7847
 8113SOL    HW235799   1.821   1.938  14.037 -1.7995 -2.2261  0.6880
 8114SOL     OW35800   2.263   1.113   4.693 -0.4679 -0.0737 -0.1577
 8114SOL    HW135801   2.312   1.085   4.771  0.4623 -3.5662 -2.0051
 8114SOL    HW235802   2.312   1.079   4.619  0.7423  0.5021  0.3562
 8115SOL     OW35803   2.427   2.404   7.001  0.0270  0.1118  0.1878
 8115SOL    HW135804   2.517   2.431   7.017  0.2498 -0.1441 -0.6144
 8115SOL    HW235805   2.393   2.487   6.967  0.2879 -0.1265 -0.6631
 8116SOL     OW35806   1.100   1.727  13.395  0.1537  0.0522 -0.3797
 8116SOL    HW135807   1.020   1.712  13.345 -1.5380  1.4814  1.9515
 8116SOL    HW235808   1.136   1.799  13.343  1.2412 -0.4713 -0.3717
 8117SOL     OW35809   1.798   0.404   9.601 -0.5177 -0.0156  0.0604
 8117SOL    HW135810   1.727   0.466   9.612 -1.9970 -1.4270 -1.4522
 8117SOL    HW235811   1.856   0.413   9.676 -0.1837  1.6449 -0.3940
 8118SOL     OW35812   1.238   0.220   7.321 -0.4366 -0.3868 -0.4867
 8118SOL    HW135813   1.209   0.132   7.296  0.9939 -0.9459 -0.1493
 8118SOL    HW235814   1.331   0.227   7.301 -0.8285  1.1667 -1.6805
 8119SOL     OW35815   2.669   2.918   5.257 -0.1074 -0.6662 -0.6893
 8119SOL    HW135816   2.656   2.893   5.165 -1.1514  1.0884 -1.0356
 8119SOL    HW235817   2.618   2.845   5.293  2.9559 -1.8215  1.2979
 8120SOL     OW35818   1.499   0.808   8.856  0.2426  0.2383 -0.1867
 8120SOL    HW135819   1.527   0.899   8.842  2.9859 -0.4420  0.9161
 8120SOL    HW235820   1.404   0.809   8.869  0.2714  1.7012 -0.0211
 8121SOL     OW35821   3.446   3.687   5.725  0.4430  0.1278 -0.0734
 8121SOL    HW135822   3.412   3.776   5.734 -0.5318 -0.1920 -0.6519
 8121SOL    HW235823   3.375   3.636   5.687  0.8485  0.9748 -1.9500
 8122SOL     OW35824   3.273   0.565  14.999  0.8842  0.0232 -0.0412
 8122SOL    HW135825   3.346   0.589  14.941  1.0987 -0.4172  0.0432
 8122SOL    HW235826   3.285   0.470  14.999 -2.6063 -0.4188 -0.6575
 8123SOL     OW35827   4.685   3.457   2.937 -0.3268  0.0870 -0.0991
 8123SOL    HW135828   4.709   3.548   2.956 -0.1621  0.2618 -1.1541
 8123SOL    HW235829   4.599   3.453   2.978 -0.5636  0.6521 -0.5448
 8124SOL     OW35830   4.631   0.411   3.813 -0.2182 -0.5133  0.5617
 8124SOL    HW135831   4.718   0.438   3.845 -0.2790  0.3465 -0.0054
 8124SOL    HW235832   4.579   0.489   3.832 -0.7942 -0.4887 -1.1700
 8125SOL     OW35833   1.084   3.397   8.046  0.1810  0.3338 -0.1673
 8125SOL    HW135834   1.144   3.365   7.978 -0.4695  0.2319 -0.7038
 8125SOL    HW235835   1.137   3.415   8.123 -3.0907  0.3145  2.0830
 8126SOL     OW35836   1.970   4.186   6.360 -0.2998 -0.1395  0.4240
 8126SOL    HW135837   2.004   4.151   6.443 -0.8750 -0.6539  0.4492
 8126SOL    HW235838   1.878   4.161   6.375 -1.1400  1.6307 -1.6975
 8127SOL     OW35839   4.446   1.007   9.782 -0.8197  0.2000 -0.1411
 8127SOL    HW135840   4.465   0.992   9.689 -2.2706  3.0743 -0.9157
 8127SOL    HW235841   4.507   0.948   9.826  1.2845  2.4009 -0.1179
 8128SOL     OW35842   2.348   3.940   4.567 -0.0323  0.1015  0.5017
 8128SOL    HW135843   2.438   3.932   4.535 -1.1938  0.7948 -2.9127
 8128SOL    HW235844   2.351   3.880   4.642 -3.0815  0.4625  0.9172
 8129SOL     OW35845   1.081   0.285   8.116 -0.7046  0.4251 -0.6428
 8129SOL    HW135846   1.032   0.208   8.146 -2.3810  0.7410 -2.5720
 8129SOL    HW235847   1.009   0.349   8.115 -0.4928  0.7338  2.1343
 8130SOL     OW35848   1.838   2.142   2.347  0.4054  0.3543  0.0833
 8130SOL    HW135849   1.871   2.209   2.288 -1.9425  2.9838  1.7911
 8130SOL    HW235850   1.765   2.186   2.389  0.8543  1.9110 -0.7642
 8131SOL     OW35851   0.319   3.878   8.405  0.4144 -0.2908  0.3064
 8131SOL    HW135852   0.409   3.902   8.427  0.2823 -0.3624  0.9487
 8131SOL    HW235853   0.262   3.945   8.443 -0.9281 -0.4610 -1.3942
 8132SOL     OW35854   4.152   2.927   6.265 -0.1460  0.2200 -0.2375
 8132SOL    HW135855   4.162   2.919   6.360  1.9913 -0.6117 -0.5463
 8132SOL    HW235856   4.088   2.859   6.246 -0.1967  0.6933 -1.7463
 8133SOL     OW35857   0.407   2.655   1.999 -0.4758  0.1079 -0.3986
 8133SOL    HW135858   0.464   2.688   1.929 -0.6613 -0.1573 -0.6751
 8133SOL    HW235859   0.333   2.637   1.942 -0.7476  2.0810 -0.6665
 8134SOL     OW35860   1.032   1.157   5.869 -0.1739 -0.0076  0.5845
 8134SOL    HW135861   0.979   1.178   5.793  0.0480 -1.0098  0.1518
 8134SOL    HW235862   1.033   1.061   5.863 -0.3596 -0.0245  0.8134
 8135SOL     OW35863   3.365   3.425  10.539 -0.1533 -0.5083 -0.8294
 8135SOL    HW135864   3.337   3.430  10.630  3.5108 -0.9521  0.3115
 8135SOL    HW235865   3.458   3.417  10.561 -0.5489  0.2981  1.1247
 8136SOL     OW35866   0.888   1.488  15.800  0.4282 -0.7764 -0.4529
 8136SOL    HW135867   0.948   1.555  15.832 -2.5377  0.3962  2.5390
 8136SOL    HW235868   0.808   1.497  15.850  1.1246 -3.0441  1.0802
 8137SOL     OW35869   2.234   2.964   3.146  0.0434 -0.1400 -0.1138
 8137SOL    HW135870   2.282   3.045   3.162 -1.8919  0.8631  0.7337
 8137SOL    HW235871   2.155   2.990   3.099  0.5222  0.1781 -0.7378
 8138SOL     OW35872   4.564   4.222   2.700 -0.1394  0.9776 -0.3323
 8138SOL    HW135873   4.535   4.310   2.676 -0.1668  0.9772 -0.3008
 8138SOL    HW235874   4.586   4.234   2.793 -1.3566 -1.4645  0.2482
 8139SOL     OW35875   0.926   4.402   3.431  0.5938  0.6204  0.1966
 8139SOL    HW135876   0.965   4.429   3.515 -2.0722 -0.0401  1.6308
 8139SOL    HW235877   0.957   4.312   3.423  0.0960  0.5082 -0.3992
 8140SOL     OW35878   1.317   1.961  16.142 -0.5731  0.1503  0.3639
 8140SOL    HW135879   1.411   1.968  16.120 -1.0328 -0.4337 -1.8067
 8140SOL    HW235880   1.292   2.053  16.134  0.7509  0.4489 -0.5367
 8141SOL     OW35881   4.486   1.579   1.014  0.0119 -0.0413 -0.5815
 8141SOL    HW135882   4.524   1.571   0.926 -0.8310  0.0099 -0.9512
 8141SOL    HW235883   4.560   1.554   1.068  1.0088 -0.3784 -2.0889
 8142SOL     OW35884   4.252   0.527  13.626  0.2120  0.4861  0.1394
 8142SOL    HW135885   4.307   0.483  13.691  2.9037  1.1994 -1.6452
 8142SOL    HW235886   4.231   0.459  13.561  0.4232  1.8090 -1.3102
 8143SOL     OW35887   3.199   0.809   5.466 -0.7211 -0.1390 -0.8868
 8143SOL    HW135888   3.287   0.774   5.454 -0.9508 -1.7160  2.0775
 8143SOL    HW235889   3.163   0.744   5.527 -0.7755  0.4932 -0.2552
 8144SOL     OW35890   2.437   1.459  10.989  0.3180 -0.4277 -0.3455
 8144SOL    HW135891   2.408   1.517  10.918 -0.6126  1.9984  2.0058
 8144SOL    HW235892   2.513   1.508  11.020 -0.4428  0.4207  0.1739
 8145SOL     OW35893   1.131   2.902   7.350 -0.6734  0.0685 -0.2388
 8145SOL    HW135894   1.079   2.935   7.276  0.2476  3.7343  0.7480
 8145SOL    HW235895   1.215   2.944   7.335 -0.2188 -1.1563 -1.1441
 8146SOL     OW35896   1.230   1.247   6.045 -0.1179  0.2343  0.4867
 8146SOL    HW135897   1.214   1.175   6.106 -2.2965 -0.2768 -0.6723
 8146SOL    HW235898   1.164   1.227   5.978  0.0744  1.0922  0.0403
 8147SOL     OW35899   2.454   1.012  10.804  0.1815  0.2638  0.2501
 8147SOL    HW135900   2.453   1.052  10.891 -4.2123  1.9071 -0.5953
 8147SOL    HW235901   2.458   0.919  10.829  1.6700  0.2681  0.0297
 8148SOL     OW35902   0.662   3.036  13.734  0.1695 -0.3616 -0.6864
 8148SOL    HW135903   0.677   3.009  13.824 -2.0991  0.7685  0.0477
 8148SOL    HW235904   0.739   3.093  13.728  2.1368 -3.0338 -1.0169
 8149SOL     OW35905   0.306   1.370  11.213  0.3182 -0.2234  0.1227
 8149SOL    HW135906   0.309   1.436  11.282  0.5987 -0.2073  0.0927
 8149SOL    HW235907   0.328   1.301  11.277  2.1401  0.0153 -0.2478
 8150SOL     OW35908   2.317   4.201  14.955 -0.3030 -0.2444  0.1379
 8150SOL    HW135909   2.275   4.179  14.872 -0.0056 -1.3575  0.2943
 8150SOL    HW235910   2.282   4.286  14.983  1.6549  1.5071 -2.6640
 8151SOL     OW35911   4.009   2.015  14.441 -0.2128  0.6480 -0.3093
 8151SOL    HW135912   3.914   2.004  14.451 -0.3703  1.1434 -1.2325
 8151SOL    HW235913   4.024   2.092  14.496  0.2880 -0.1599  0.6813
 8152SOL     OW35914   1.251   3.054   2.239  1.1732 -0.3786 -0.1494
 8152SOL    HW135915   1.257   3.129   2.180 -1.4985 -0.0899 -0.0447
 8152SOL    HW235916   1.156   3.062   2.248  0.9953 -4.1677  1.4906
 8153SOL     OW35917   3.560   2.025  10.235  0.6652 -0.2797 -0.1872
 8153SOL    HW135918   3.529   2.057  10.320 -0.1238  0.4535 -0.7454
 8153SOL    HW235919   3.584   2.115  10.212 -0.0777 -0.2976 -1.0673
 8154SOL     OW35920   1.806   1.196   2.786 -0.1747  0.1051  0.1651
 8154SOL    HW135921   1.836   1.122   2.733  2.7128  2.6668 -1.7999
 8154SOL    HW235922   1.718   1.168   2.809  0.1942 -1.1012  0.1006
 8155SOL     OW35923   2.153   3.097  16.356  0.0106 -0.2748  0.8781
 8155SOL    HW135924   2.234   3.088  16.306 -0.9940  1.5185 -1.0402
 8155SOL    HW235925   2.174   3.046  16.435  2.5814 -1.1670 -0.3904
 8156SOL     OW35926   2.125   1.511   1.951  0.1581 -0.2378 -0.0856
 8156SOL    HW135927   2.188   1.572   1.989  1.2555  0.1333 -2.5310
 8156SOL    HW235928   2.143   1.423   1.985  0.1474 -1.2800 -2.7401
 8157SOL     OW35929   4.393   0.632  14.276  0.1432 -0.0064 -0.5073
 8157SOL    HW135930   4.445   0.572  14.223  0.3193 -2.1877  2.1314
 8157SOL    HW235931   4.320   0.645  14.215 -1.9188 -1.4401  1.6313
 8158SOL     OW35932   0.935   0.540  13.133 -0.4008 -0.3288 -0.1570
 8158SOL    HW135933   0.986   0.621  13.136  1.4721 -1.4164 -2.3756
 8158SOL    HW235934   0.851   0.579  13.157  0.8343  1.0795  1.8799
 8159SOL     OW35935   1.685   4.316  15.091  0.4041 -0.2000 -0.0559
 8159SOL    HW135936   1.693   4.338  14.999 -1.1836  0.1044 -0.1176
 8159SOL    HW235937   1.756   4.364  15.135  1.6561 -1.0586 -1.1332
 8160SOL     OW35938   3.945   2.879   6.791 -0.0574  0.5088  0.6400
 8160SOL    HW135939   4.000   2.885   6.869 -0.3026  0.7044  0.7949
 8160SOL    HW235940   3.860   2.875   6.835 -0.7318 -0.0874 -0.6953
 8161SOL     OW35941   4.080   0.634   9.979 -0.1646  0.0399  0.5671
 8161SOL    HW135942   4.026   0.596   9.909  0.6038  0.0455 -0.0350
 8161SOL    HW235943   4.159   0.653   9.928  0.8048 -0.6406  1.8209
 8162SOL     OW35944   3.484   2.285   5.188  0.1813 -0.4318 -0.3147
 8162SOL    HW135945   3.462   2.346   5.119  0.4001 -0.0635 -0.0585
 8162SOL    HW235946   3.433   2.317   5.262 -1.2249  0.2656 -1.6020
 8163SOL     OW35947   0.697   0.791  10.616 -0.3918 -0.4210  0.1835
 8163SOL    HW135948   0.702   0.706  10.660  0.1337  0.1915  1.3039
 8163SOL    HW235949   0.686   0.856  10.686 -2.6048  0.7640 -1.2584
 8164SOL     OW35950   4.346   2.162   1.040  0.0704 -0.1815  0.0283
 8164SOL    HW135951   4.425   2.130   1.084 -0.4249 -2.3930 -0.6908
 8164SOL    HW235952   4.388   2.238   1.000 -1.6157  2.3735  3.1584
 8165SOL     OW35953   2.117   0.569   4.562  0.0194 -0.1418 -0.5766
 8165SOL    HW135954   2.146   0.619   4.638 -1.6124 -2.8411  1.8408
 8165SOL    HW235955   2.041   0.625   4.544 -0.3205 -1.2665 -2.5610
 8166SOL     OW35956   1.829   2.939   2.785  0.0547 -0.4072 -0.6999
 8166SOL    HW135957   1.800   3.016   2.736 -1.1239 -0.3984  0.0003
 8166SOL    HW235958   1.838   2.875   2.714 -0.5788  0.1754 -1.3024
 8167SOL     OW35959   0.797   2.900   1.547 -0.5708  0.0266  0.6160
 8167SOL    HW135960   0.798   2.937   1.458  1.6177  1.0223  1.0412
 8167SOL    HW235961   0.706   2.898   1.575 -0.5066 -1.8026  0.6857
 8168SOL     OW35962   2.133   3.014   9.654 -0.4580  0.6859  0.4290
 8168SOL    HW135963   2.155   2.936   9.704  0.7947  2.2745  2.3124
 8168SOL    HW235964   2.041   3.030   9.674 -0.4103 -2.3191  2.8945
 8169SOL     OW35965   2.302   3.520   4.535 -0.1269  0.3084  0.3837
 8169SOL    HW135966   2.229   3.485   4.586 -1.6249 -0.4115 -2.2512
 8169SOL    HW235967   2.264   3.543   4.450  1.8377 -1.2485 -0.9251
 8170SOL     OW35968   4.659   0.578  14.680  0.4230 -0.2418 -0.3840
 8170SOL    HW135969   4.582   0.594  14.625 -0.2277  3.2615  1.5727
 8170SOL    HW235970   4.627   0.628  14.755  1.0379 -0.4069 -0.0139
 8171SOL     OW35971   2.198   3.246  14.075  0.2117 -0.7665  0.1105
 8171SOL    HW135972   2.227   3.170  14.126  1.5888 -0.4527 -0.2021
 8171SOL    HW235973   2.246   3.221  13.996 -0.1214  0.5535 -0.5145
 8172SOL     OW35974   3.381   0.255   4.131  0.0875  0.1239  0.7280
 8172SOL    HW135975   3.368   0.237   4.224  1.9007 -0.7610  0.7997
 8172SOL    HW235976   3.319   0.200   4.084  0.8835  1.9597 -2.4550
 8173SOL     OW35977   1.167   3.208   2.808  0.0225 -0.0044 -0.0737
 8173SOL    HW135978   1.197   3.219   2.898 -2.1322  1.0235  0.5361
 8173SOL    HW235979   1.254   3.215   2.769 -0.6350  3.5107 -0.9484
 8174SOL     OW35980   3.417   2.151   6.152  0.5961 -0.0095 -0.0087
 8174SOL    HW135981   3.397   2.222   6.092  0.9990  1.3743  1.4943
 8174SOL    HW235982   3.346   2.091   6.130  1.3797 -0.8571 -0.2381
 8175SOL     OW35983   1.680   0.790   7.481  0.1115 -0.0259  0.1428
 8175SOL    HW135984   1.716   0.786   7.392  0.8118  0.1142  0.4171
 8175SOL    HW235985   1.609   0.848   7.455  0.9778  1.0086  0.0993
 8176SOL     OW35986   2.581   3.179   6.825 -0.9729  0.0678  0.4160
 8176SOL    HW135987   2.615   3.248   6.768 -0.5713 -0.4427  0.0402
 8176SOL    HW235988   2.639   3.183   6.901  0.5191 -0.6786 -0.6800
 8177SOL     OW35989   2.218   2.986   9.394  0.1347  0.2346  0.2765
 8177SOL    HW135990   2.154   2.940   9.340 -0.4860  1.9262 -0.4109
 8177SOL    HW235991   2.174   3.051   9.448 -0.2675  0.2611 -0.0825
 8178SOL     OW35992   3.551   4.626   8.044 -0.4036 -0.1915  0.2703
 8178SOL    HW135993   3.558   4.662   8.133  0.8114  0.9928 -0.3027
 8178SOL    HW235994   3.457   4.611   8.054 -0.8131  0.8908 -1.8475
 8179SOL     OW35995   1.160   2.115  11.171  0.2911  0.0365 -0.1378
 8179SOL    HW135996   1.180   2.039  11.116 -0.9697  1.1912 -2.2112
 8179SOL    HW235997   1.066   2.117  11.153 -0.1282  0.5440  2.0748
 8180SOL     OW35998   0.056   3.136   2.203  0.2574 -0.1176  0.1524
 8180SOL    HW135999   4.684   3.136   2.205  0.2543  1.2644  0.0639
 8180SOL    HW236000   0.086   3.057   2.248  0.1714 -0.1661  0.1244
 8181SOL     OW36001   2.414   3.459  15.448  0.1087  0.6920  0.1864
 8181SOL    HW136002   2.421   3.534  15.389 -1.5044  0.6235 -0.0797
 8181SOL    HW236003   2.494   3.411  15.427  1.3167  1.6285  2.7242
 8182SOL     OW36004   2.616   3.065  12.486 -0.0395 -0.3928  0.7361
 8182SOL    HW136005   2.678   2.993  12.496  0.7544  0.1097 -0.5624
 8182SOL    HW236006   2.557   3.029  12.420 -0.6440  1.3695  0.2976
 8183SOL     OW36007   4.252   3.028   0.873 -0.7269 -0.4126  0.0317
 8183SOL    HW136008   4.262   3.016   0.778  0.4926 -0.1751  0.1249
 8183SOL    HW236009   4.344   3.019   0.900 -0.7836 -1.3412 -0.0886
 8184SOL     OW36010   4.407   4.076  12.152  0.5218 -0.1226  0.2787
 8184SOL    HW136011   4.364   4.160  12.171  0.5293 -0.2533  0.8602
 8184SOL    HW236012   4.499   4.102  12.152  0.4246  0.2194  2.1480
 8185SOL     OW36013   3.794   1.383   2.004 -0.5596 -0.0532  0.3122
 8185SOL    HW136014   3.723   1.319   2.002 -1.6408  1.1404  0.3870
 8185SOL    HW236015   3.859   1.339   2.058  0.5552 -1.6259 -2.2697
 8186SOL     OW36016   0.794   1.675   8.190  0.1131 -0.0543  0.2200
 8186SOL    HW136017   0.810   1.593   8.238  2.2220  0.8435  1.0161
 8186SOL    HW236018   0.698   1.683   8.194  0.0873 -0.1883 -0.1045
 8187SOL     OW36019   1.272   3.160   6.188 -0.3013  0.3122  0.0366
 8187SOL    HW136020   1.363   3.186   6.176 -0.9423  1.9780 -1.0765
 8187SOL    HW236021   1.249   3.201   6.272 -0.9012 -0.4873  0.2666
 8188SOL     OW36022   2.462   2.037  11.528 -0.8264 -0.4775  0.2080
 8188SOL    HW136023   2.472   2.132  11.539  1.6322 -0.6478 -0.6025
 8188SOL    HW236024   2.450   2.016  11.621 -0.9093 -0.0554  0.2966
 8189SOL     OW36025   0.918   1.081  10.900 -0.1712  0.3415 -0.1708
 8189SOL    HW136026   0.880   1.160  10.940  0.0661 -0.3036  1.3565
 8189SOL    HW236027   0.840   1.059  10.849 -0.7838  1.2624  0.3655
 8190SOL     OW36028   1.602   1.701   4.653 -0.3197  0.4361 -0.3448
 8190SOL    HW136029   1.688   1.730   4.683 -0.1644  0.0601 -0.4306
 8190SOL    HW236030   1.631   1.655   4.574 -0.3067  1.3608 -0.8780
 8191SOL     OW36031   2.483   3.672   6.167 -0.1008 -0.2517  0.2335
 8191SOL    HW136032   2.462   3.579   6.156  0.2034 -0.2046 -0.7446
 8191SOL    HW236033   2.579   3.677   6.166 -0.2373  2.1115 -0.4865
 8192SOL     OW36034   1.460   4.116   9.399  0.1742 -0.4347 -0.2148
 8192SOL    HW136035   1.418   4.070   9.326 -0.5696 -2.0743  1.2591
 8192SOL    HW236036   1.544   4.148   9.364 -0.3489  1.2626  0.1051
 8193SOL     OW36037   2.505   1.883   9.575 -0.1864 -0.4060  0.1527
 8193SOL    HW136038   2.547   1.830   9.506  0.8691 -1.3818  1.5436
 8193SOL    HW236039   2.547   1.969   9.570 -3.3789  1.0491 -1.1320
 8194SOL     OW36040   3.142   4.385  16.681  0.0219 -0.0401  0.0274
 8194SOL    HW136041   3.087   4.320  16.726 -0.6054 -0.0921 -0.8193
 8194SOL    HW236042   3.179   4.445  16.746  0.3715 -0.8747  0.5997
 8195SOL     OW36043   0.275   1.897   6.773 -0.3597  0.1304  0.4313
 8195SOL    HW136044   0.324   1.840   6.714 -0.8246  0.4177 -0.2318
 8195SOL    HW236045   0.271   1.973   6.715  0.0347 -0.8521 -0.8944
 8196SOL     OW36046   3.215   3.882   7.828 -0.7395  0.3085 -0.2816
 8196SOL    HW136047   3.264   3.955   7.789 -0.5586 -0.8583 -2.2697
 8196SOL    HW236048   3.208   3.821   7.754 -3.2267  0.5683 -0.2525
 8197SOL     OW36049   0.447   3.138   2.835  0.1750  0.2715 -0.0054
 8197SOL    HW136050   0.416   3.083   2.763 -0.4559 -0.6690  0.9798
 8197SOL    HW236051   0.529   3.169   2.798  0.7993  0.4890  1.5767
 8198SOL     OW36052   2.948   4.508   0.947 -0.6777  0.2890  0.5912
 8198SOL    HW136053   2.971   4.569   1.017  1.3560 -2.0712  2.0069
 8198SOL    HW236054   2.938   4.425   0.994  0.7608  1.1928  2.4815
 8199SOL     OW36055   0.251   0.532   0.407  0.5426  0.4354  0.2364
 8199SOL    HW136056   0.246   0.505   0.315 -0.7274  2.1599 -0.1979
 8199SOL    HW236057   0.164   0.517   0.444  0.1414  0.3883 -0.7091
 8200SOL     OW36058   3.435   0.046   8.256  0.0767 -0.4324  0.2859
 8200SOL    HW136059   3.428   0.085   8.343  1.8216  0.8958 -0.1616
 8200SOL    HW236060   3.349   0.006   8.246  0.4641 -1.3951  0.7125
 8201SOL     OW36061   3.170   3.112   4.929 -0.0880 -0.4472 -0.4614
 8201SOL    HW136062   3.145   3.203   4.916  1.4201  0.4112  2.8328
 8201SOL    HW236063   3.219   3.095   4.848 -1.3508  0.2496 -1.3701
 8202SOL     OW36064   3.415   0.949   8.536 -0.0616  0.0657 -0.5395
 8202SOL    HW136065   3.329   0.990   8.524  1.4632  3.0851 -1.1178
 8202SOL    HW236066   3.465   1.021   8.575 -1.3478  1.0603 -0.7409
 8203SOL     OW36067   3.863   4.676   5.779 -0.1804  0.0927  0.4066
 8203SOL    HW136068   3.952   4.647   5.760  0.1472  0.6133  1.1548
 8203SOL    HW236069   3.820   4.591   5.784  0.7647 -0.6514 -3.7124
 8204SOL     OW36070   1.161   3.429   6.691  0.1309 -0.1355 -1.2583
 8204SOL    HW136071   1.152   3.524   6.692  0.8885 -0.0618 -1.8831
 8204SOL    HW236072   1.255   3.419   6.700  0.1356  0.6599 -0.4923
 8205SOL     OW36073   3.707   3.324  11.387 -0.2624 -0.7135 -0.5112
 8205SOL    HW136074   3.698   3.414  11.356 -2.3651 -0.3244  1.2536
 8205SOL    HW236075   3.678   3.314  11.478  1.0661  0.7730  0.0979
 8206SOL     OW36076   4.266   1.923   1.654  0.4285  0.1857  0.0926
 8206SOL    HW136077   4.209   1.867   1.706  0.3805 -1.9920 -2.2910
 8206SOL    HW236078   4.342   1.865   1.642 -0.6307 -0.9987 -0.8488
 8207SOL     OW36079   0.941   0.227   6.826  0.3961  0.5748 -0.1101
 8207SOL    HW136080   0.961   0.134   6.822  0.1171  0.6171 -2.8440
 8207SOL    HW236081   0.966   0.252   6.915 -1.7796  0.7208  0.4730
 8208SOL     OW36082   2.588   2.902   7.918  0.0141 -0.2693  0.0273
 8208SOL    HW136083   2.575   2.822   7.868 -0.1997 -0.2575  0.0660
 8208SOL    HW236084   2.506   2.922   7.962 -1.6572 -0.7737 -2.8482
 8209SOL     OW36085   3.860   0.900   3.277  0.2420  0.1389 -0.0709
 8209SOL    HW136086   3.811   0.978   3.301  0.7952  0.9487 -1.5801
 8209SOL    HW236087   3.921   0.906   3.351 -1.6267  0.6205  1.4374
 8210SOL     OW36088   3.140   4.164   3.337 -0.1296 -0.4327  0.7250
 8210SOL    HW136089   3.118   4.093   3.277  0.7863  1.6136 -2.0574
 8210SOL    HW236090   3.204   4.207   3.280 -1.0510  2.1927  1.6535
 8211SOL     OW36091   3.709   2.843  11.380 -0.1629 -0.1693 -0.1469
 8211SOL    HW136092   3.750   2.763  11.346 -0.0622 -1.1600  2.3038
 8211SOL    HW236093   3.741   2.848  11.470  1.1888  0.0707 -0.6471
 8212SOL     OW36094   2.037   3.770  13.128  0.0997  0.2704  0.6930
 8212SOL    HW136095   2.057   3.686  13.169  1.6997  0.3952  0.1608
 8212SOL    HW236096   2.116   3.785  13.076 -0.2490 -2.4848 -0.6503
 8213SOL     OW36097   4.242   4.390   3.805 -0.1619 -0.0374 -0.2035
 8213SOL    HW136098   4.200   4.449   3.866 -1.7260  0.1112 -1.4132
 8213SOL    HW236099   4.252   4.443   3.726  0.0618 -0.3440 -0.3807
 8214SOL     OW36100   0.717   0.962   0.156  0.9140  0.0823  0.5411
 8214SOL    HW136101   0.729   1.049   0.118  1.1550 -0.5682 -0.8764
 8214SOL    HW236102   0.709   0.993   0.246  0.3618 -0.0992  0.5539
 8215SOL     OW36103   1.540   1.503  10.868  0.3266  0.0660  0.2938
 8215SOL    HW136104   1.625   1.462  10.854 -0.5149 -1.5919 -0.0069
 8215SOL    HW236105   1.534   1.572  10.803 -0.0045  1.1217  1.4447
 8216SOL     OW36106   2.461   4.203   3.002  0.3838 -0.1126 -0.1187
 8216SOL    HW136107   2.390   4.158   3.046  1.0598 -0.5301  0.5457
 8216SOL    HW236108   2.443   4.183   2.910 -3.5431  0.1683  0.6099
 8217SOL     OW36109   1.217   1.946   6.957 -0.2513 -0.5054  0.3597
 8217SOL    HW136110   1.230   1.862   7.001  2.8852  0.8260  1.9522
 8217SOL    HW236111   1.127   1.934   6.928 -0.7383  0.0335  1.6782
 8218SOL     OW36112   4.317   2.211   8.113  0.3513  0.2179 -0.2573
 8218SOL    HW136113   4.224   2.195   8.126  0.4867 -0.5167 -0.2301
 8218SOL    HW236114   4.337   2.242   8.201 -0.8547 -1.3164  0.5453
 8219SOL     OW36115   1.146   1.271  15.966 -0.0789  0.3927  0.3404
 8219SOL    HW136116   1.205   1.200  15.940  1.1001  1.0498  1.2297
 8219SOL    HW236117   1.200   1.346  15.940 -2.4819  1.3314 -2.0048
 8220SOL     OW36118   3.004   0.923   2.710  0.7548  0.1079 -0.3313
 8220SOL    HW136119   2.951   0.978   2.652  2.7265  3.2604  0.8801
 8220SOL    HW236120   2.957   0.840   2.704  0.3889  0.3597 -0.9573
 8221SOL     OW36121   2.769   3.660   6.160 -0.2349  0.2802  0.5681
 8221SOL    HW136122   2.776   3.755   6.164 -0.8565  0.3778 -0.8800
 8221SOL    HW236123   2.858   3.632   6.184 -0.5623  0.3604  1.9111
 8222SOL     OW36124   0.447   2.965   2.624  0.2876  0.2018 -0.3876
 8222SOL    HW136125   0.510   2.894   2.636  0.9044  0.7505 -0.3660
 8222SOL    HW236126   0.368   2.921   2.654  0.1906 -0.0363 -0.9813
 8223SOL     OW36127   3.263   1.530   8.661 -0.8156  0.7922  0.4250
 8223SOL    HW136128   3.242   1.530   8.568 -0.0018 -0.7256  0.2465
 8223SOL    HW236129   3.248   1.439   8.685  2.4607  0.1809  0.1790
 8224SOL     OW36130   0.475   4.508   3.659 -0.2814 -0.2936 -0.4976
 8224SOL    HW136131   0.538   4.528   3.590  0.2317  0.0749  0.0726
 8224SOL    HW236132   0.415   4.442   3.625  0.2303 -2.2117  2.2988
 8225SOL     OW36133   2.622   4.099   3.430 -0.5650  0.2931 -0.1625
 8225SOL    HW136134   2.695   4.098   3.492 -1.2832  1.7057  0.6982
 8225SOL    HW236135   2.610   4.193   3.418 -1.9523  0.3060  1.3896
 8226SOL     OW36136   4.372   0.621   0.359  0.4261  0.0954  0.2164
 8226SOL    HW136137   4.355   0.536   0.400 -0.7643 -0.8376 -2.2221
 8226SOL    HW236138   4.347   0.609   0.268  0.2379 -0.3553  0.3258
 8227SOL     OW36139   3.684   2.310   8.828  0.1924 -0.2907  0.1617
 8227SOL    HW136140   3.777   2.285   8.827 -0.2892 -2.1511  0.4549
 8227SOL    HW236141   3.659   2.319   8.920 -0.5954  1.2129 -0.2006
 8228SOL     OW36142   0.905   0.069   6.190  0.1577  0.0835  0.0693
 8228SOL    HW136143   0.865   0.074   6.103  0.3235  0.2867  0.0063
 8228SOL    HW236144   0.991   0.106   6.172 -0.3595  0.8457 -0.7901
 8229SOL     OW36145   0.934   1.335   6.100  0.1755 -0.2400 -0.5573
 8229SOL    HW136146   0.974   1.392   6.035  0.8409  1.4069  1.3212
 8229SOL    HW236147   0.992   1.259   6.103  1.8516  0.9611 -2.6499
 8230SOL     OW36148   2.321   1.736   6.411  0.0903 -0.3850  0.5725
 8230SOL    HW136149   2.240   1.783   6.395  0.5799  0.1642 -0.3297
 8230SOL    HW236150   2.286   1.648   6.422 -0.4767 -0.2762 -0.3192
 8231SOL     OW36151   3.231   1.626   8.398  0.1199 -0.1759  0.0324
 8231SOL    HW136152   3.173   1.695   8.366 -0.3018 -0.6178 -0.1663
 8231SOL    HW236153   3.304   1.623   8.337  0.2028 -0.3854  0.1398
 8232SOL     OW36154   0.758   1.878   7.714  0.4046 -0.1041 -0.5926
 8232SOL    HW136155   0.777   1.793   7.755 -1.7968  0.1010  0.8426
 8232SOL    HW236156   0.666   1.859   7.696  0.2252  0.8712 -0.6956
 8233SOL     OW36157   0.214   1.300   1.925 -0.1701  0.6946  0.0213
 8233SOL    HW136158   0.211   1.395   1.941  0.3471  0.7512 -0.2392
 8233SOL    HW236159   0.141   1.280   1.984  1.0326 -1.3369  0.7890
 8234SOL     OW36160   1.306   2.958  12.241 -1.0142  0.0805 -0.2144
 8234SOL    HW136161   1.277   2.920  12.159  0.8173 -0.4193 -0.6400
 8234SOL    HW236162   1.345   2.888  12.294 -3.1708 -2.0209 -1.4266
 8235SOL     OW36163   4.398   1.585   4.718 -0.2276 -0.3083 -0.3712
 8235SOL    HW136164   4.417   1.502   4.674 -1.6078 -1.3119  0.9292
 8235SOL    HW236165   4.463   1.649   4.689  2.0456 -1.1967  2.7936
 8236SOL     OW36166   2.389   0.907   2.715 -0.0036  0.0860  0.0623
 8236SOL    HW136167   2.458   0.952   2.764  0.5388 -0.5819 -0.0838
 8236SOL    HW236168   2.442   0.876   2.641 -0.7378 -0.5602 -0.1895
 8237SOL     OW36169   1.967   1.096   1.029  0.1356 -0.0179  0.0339
 8237SOL    HW136170   2.055   1.073   1.059  0.2054  0.5922  0.2979
 8237SOL    HW236171   1.928   1.009   1.019 -0.2595  0.2630 -0.8154
 8238SOL     OW36172   0.866   1.463   4.152  0.1326  0.0818 -0.4563
 8238SOL    HW136173   0.873   1.387   4.095 -0.3853 -0.2735 -0.0531
 8238SOL    HW236174   0.957   1.470   4.181 -0.1222  1.3828  0.0613
 8239SOL     OW36175   4.460   2.635   7.519 -0.4043 -0.1538 -0.5207
 8239SOL    HW136176   4.446   2.555   7.571 -0.8235 -0.3507 -0.9464
 8239SOL    HW236177   4.504   2.685   7.588 -1.9795  2.3145 -1.3285
 8240SOL     OW36178   3.469   3.887   8.129  0.0657  0.4286  0.1498
 8240SOL    HW136179   3.516   3.863   8.049  0.8955  0.4252  0.6391
 8240SOL    HW236180   3.437   3.975   8.108 -1.2012 -0.4529 -1.6800
 8241SOL     OW36181   1.984   2.909   6.517  0.1612  0.3333  0.1548
 8241SOL    HW136182   1.898   2.903   6.559  0.4896 -0.1248  0.7619
 8241SOL    HW236183   2.028   2.957   6.587  2.6833 -0.4969 -0.8585
 8242SOL     OW36184   2.162   0.716   3.610 -0.1179 -0.0954 -0.7462
 8242SOL    HW136185   2.125   0.802   3.587 -0.3203  0.4076  1.4365
 8242SOL    HW236186   2.245   0.758   3.634  1.2700 -1.7114 -2.7593
 8243SOL     OW36187   4.644   3.360   3.773  0.2180 -0.2624  0.4609
 8243SOL    HW136188   4.601   3.292   3.825 -1.6836  1.1873  0.7383
 8243SOL    HW236189   4.624   3.441   3.819 -2.3708  0.2261 -1.5728
 8244SOL     OW36190   4.699   0.015   7.097  0.0064 -0.3637 -0.5130
 8244SOL    HW136191   4.626   0.038   7.039 -1.2602  1.6527  1.8628
 8244SOL    HW236192   4.666   0.048   7.181 -1.3131 -0.5618 -0.9506
 8245SOL     OW36193   0.866   1.215   5.640 -0.4613  0.4379 -0.0672
 8245SOL    HW136194   0.782   1.250   5.668 -0.8652 -0.4131 -0.2144
 8245SOL    HW236195   0.840   1.169   5.561  1.5984  1.2643 -1.2355
 8246SOL     OW36196   2.401   1.003   4.473 -0.0507 -0.1717 -0.2214
 8246SOL    HW136197   2.425   1.072   4.412 -2.1349 -0.1600 -1.0289
 8246SOL    HW236198   2.483   0.956   4.489 -0.0390  0.6791  2.1420
 8247SOL     OW36199   1.618   1.918   6.577 -0.4607 -0.3469  0.2555
 8247SOL    HW136200   1.665   1.981   6.522  0.1165  0.7330  1.9992
 8247SOL    HW236201   1.551   1.884   6.518  0.2486  0.8619 -1.2579
 8248SOL     OW36202   2.934   3.843  16.648 -0.1097  0.7925  0.1806
 8248SOL    HW136203   2.895   3.882  16.569 -2.0297 -0.4096  0.5491
 8248SOL    HW236204   3.030   3.853  16.646  0.1039 -1.2754  0.7352
 8249SOL     OW36205   1.975   4.007   4.275  0.8589  0.1853  1.5219
 8249SOL    HW136206   1.912   3.947   4.235  1.9926  0.0569 -0.0527
 8249SOL    HW236207   2.029   3.949   4.329 -1.2608 -2.4021  0.8863
 8250SOL     OW36208   4.198   4.565  15.608  0.1646 -0.1795  0.5736
 8250SOL    HW136209   4.142   4.496  15.643  1.4050 -0.5948  1.7470
 8250SOL    HW236210   4.220   4.610  15.690 -0.1376  0.4155  0.3286
 8251SOL     OW36211   2.790   4.448   7.091  0.9672  0.7517  0.0169
 8251SOL    HW136212   2.828   4.494   7.166 -4.1330  0.8642  2.5406
 8251SOL    HW236213   2.779   4.532   7.045  3.7222 -0.4871 -2.9029
 8252SOL     OW36214   2.855   1.473   8.210  0.3116  0.4055  0.2537
 8252SOL    HW136215   2.892   1.552   8.250  1.1261 -0.0438  0.3927
 8252SOL    HW236216   2.808   1.505   8.133 -1.3979  1.3644  1.6940
 8253SOL     OW36217   3.922   4.219  15.448 -0.2302  0.9602 -0.8081
 8253SOL    HW136218   3.914   4.284  15.517  1.7218  0.8589 -0.4744
 8253SOL    HW236219   3.849   4.162  15.470  0.6518  0.9227  1.9594
 8254SOL     OW36220   0.076   0.771  13.272 -0.4814  0.3481  0.1620
 8254SOL    HW136221   0.123   0.790  13.191 -0.2580  1.3264  0.5251
 8254SOL    HW236222   4.707   0.777  13.246  0.0804  0.1595 -1.8111
 8255SOL     OW36223   2.608   4.430   4.180  0.4796 -0.0537  0.3423
 8255SOL    HW136224   2.673   4.369   4.214 -1.1087 -1.1502  1.4054
 8255SOL    HW236225   2.531   4.403   4.230  1.0846 -1.0305  0.7493
 8256SOL     OW36226   0.043   1.995   5.241 -0.4014  0.2431 -0.3417
 8256SOL    HW136227   0.134   2.014   5.216 -0.6787 -0.2320 -1.7047
 8256SOL    HW236228   0.033   1.911   5.196 -0.9553  0.4120 -0.5304
 8257SOL     OW36229   2.688   2.590   4.768  0.4606  0.1028  0.1724
 8257SOL    HW136230   2.716   2.681   4.772 -1.5824  0.8119 -1.8255
 8257SOL    HW236231   2.774   2.566   4.734  1.3466  1.6731  1.3645
 8258SOL     OW36232   1.617   4.214   6.018 -0.0620 -0.2669  0.8065
 8258SOL    HW136233   1.580   4.302   6.021  1.6173  0.4712 -0.7999
 8258SOL    HW236234   1.570   4.175   6.092  0.3967 -1.3483  0.5327
 8259SOL     OW36235   4.244   0.389   3.405  0.5347 -0.3870  0.3464
 8259SOL    HW136236   4.253   0.306   3.359 -1.4484 -0.1911 -0.3842
 8259SOL    HW236237   4.318   0.371   3.464  1.4849 -1.9656 -1.3416
 8260SOL     OW36238   3.179   4.040   0.714 -0.3651  0.2072 -0.6363
 8260SOL    HW136239   3.086   4.058   0.705 -0.7296 -1.5708 -0.5362
 8260SOL    HW236240   3.214   4.048   0.626 -0.2347  2.7053 -0.3414
 8261SOL     OW36241   1.257   1.915   8.170 -0.7869  0.4670  0.5158
 8261SOL    HW136242   1.186   1.979   8.166 -1.6850 -0.5599  0.0121
 8261SOL    HW236243   1.302   1.927   8.086 -0.4570 -1.6745  0.3990
 8262SOL     OW36244   0.226   0.786   4.794 -0.3207 -0.0058 -0.7085
 8262SOL    HW136245   0.169   0.713   4.820 -0.0994  0.2497  0.5261
 8262SOL    HW236246   0.172   0.811   4.719 -0.4466  0.5816 -0.4205
 8263SOL     OW36247   4.066   4.713   8.400  0.1042  0.8127 -0.6949
 8263SOL    HW136248   4.086   4.685   8.489 -0.5122  0.7556 -0.5790
 8263SOL    HW236249   3.975   0.015   8.414  0.4872  0.8950  1.5539
 8264SOL     OW36250   3.317   3.530   8.723 -0.1183 -0.0403  0.5450
 8264SOL    HW136251   3.226   3.548   8.748 -0.7631 -0.8654 -1.2685
 8264SOL    HW236252   3.353   3.617   8.742  2.6320 -1.0782  0.0591
 8265SOL     OW36253   3.649   4.424  17.608 -0.4131  0.2443  0.5650
 8265SOL    HW136254   3.571   4.459  17.651  0.3670  1.0671  1.2974
 8265SOL    HW236255   3.675   4.359  17.673 -3.5946 -0.8495  0.7427
 8266SOL     OW36256   2.884   3.637   3.511 -0.7408  0.3607 -0.1834
 8266SOL    HW136257   2.817   3.572   3.491  1.3898 -1.3953 -1.4899
 8266SOL    HW236258   2.952   3.578   3.543 -1.7286 -0.9263 -0.4840
 8267SOL     OW36259   4.121   2.070   9.160  0.1245 -0.5410  0.3229
 8267SOL    HW136260   4.135   2.084   9.066  3.2182 -2.3349  0.5125
 8267SOL    HW236261   4.047   2.010   9.154 -0.8247  0.5088  1.6425
 8268SOL     OW36262   1.189   0.738   1.958  0.2532 -0.4118  0.3800
 8268SOL    HW136263   1.166   0.829   1.939 -1.7545 -1.0067  0.0036
 8268SOL    HW236264   1.101   0.700   1.962  0.7503 -1.7149 -0.9076
 8269SOL     OW36265   1.310   3.982   8.386  0.2812  0.2143 -0.1732
 8269SOL    HW136266   1.299   3.887   8.385  3.0044 -0.0661 -1.0150
 8269SOL    HW236267   1.231   4.001   8.437 -2.1363 -0.0950 -3.7990
 8270SOL     OW36268   3.234   0.132   8.580 -0.5336  0.1861 -0.7439
 8270SOL    HW136269   3.298   0.196   8.613  0.4660 -1.5639  0.7278
 8270SOL    HW236270   3.221   0.086   8.663 -2.1605  0.2503 -0.9709
 8271SOL     OW36271   1.167   3.462   5.637 -0.2753  0.4338  0.1720
 8271SOL    HW136272   1.096   3.460   5.701  0.2877 -1.9290  0.7264
 8271SOL    HW236273   1.118   3.487   5.559  0.4862 -0.3893 -0.5704
 8272SOL     OW36274   3.084   2.676   5.483 -0.4444 -0.0290  0.3171
 8272SOL    HW136275   3.111   2.765   5.456  0.4145 -0.7517 -1.2412
 8272SOL    HW236276   3.133   2.667   5.565  0.7588 -0.0622 -0.3995
 8273SOL     OW36277   4.096   4.342   9.865 -0.3148 -0.0977  0.3095
 8273SOL    HW136278   4.012   4.301   9.886  0.0942 -0.1807  1.8267
 8273SOL    HW236279   4.122   4.383   9.948  1.1006  2.8911 -1.6160
 8274SOL     OW36280   3.953   2.294   4.621 -0.3869 -0.1340 -0.2501
 8274SOL    HW136281   3.970   2.387   4.601  0.0508  0.0314  0.8770
 8274SOL    HW236282   4.034   2.275   4.668 -0.0937 -0.0203 -0.7076
 8275SOL     OW36283   1.137   1.564   0.671  0.4616  0.4439 -0.4548
 8275SOL    HW136284   1.088   1.562   0.753 -0.5393  0.6433 -1.0452
 8275SOL    HW236285   1.139   1.471   0.648  0.2708  0.3363 -0.0270
 8276SOL     OW36286   4.315   2.439  10.582 -0.1064  0.1209 -0.3027
 8276SOL    HW136287   4.283   2.432  10.672 -1.6987 -0.2968 -0.9157
 8276SOL    HW236288   4.243   2.393  10.539 -0.6963  1.2311 -0.4776
 8277SOL     OW36289   3.077   2.073   6.062 -0.0200  0.2829  0.3931
 8277SOL    HW136290   3.099   2.033   6.146 -2.3233  1.4506  1.5466
 8277SOL    HW236291   3.099   2.165   6.075 -0.8582  0.6175 -0.5524
 8278SOL     OW36292   4.413   4.448   6.444  0.4531 -0.1716  0.1203
 8278SOL    HW136293   4.404   4.360   6.480 -1.4325 -0.1921 -0.3935
 8278SOL    HW236294   4.369   4.489   6.518  0.8464  1.5394 -0.5861
 8279SOL     OW36295   3.058   4.531   9.569  0.0622  0.2999  0.5243
 8279SOL    HW136296   3.059   4.559   9.661  2.1230  3.2764 -0.4306
 8279SOL    HW236297   3.112   4.452   9.579 -0.3359 -0.0525 -0.1460
 8280SOL     OW36298   1.858   0.862   4.302  0.0928  0.1928 -0.5123
 8280SOL    HW136299   1.944   0.902   4.315 -0.2990  1.0633 -0.6492
 8280SOL    HW236300   1.844   0.863   4.208  1.4857 -0.8845 -0.7317
 8281SOL     OW36301   2.958   4.284   6.235  0.3402  0.0577  0.0362
 8281SOL    HW136302   3.048   4.303   6.208 -0.4303  1.7795 -1.3651
 8281SOL    HW236303   2.914   4.282   6.150  2.7238 -0.4360 -1.1785
 8282SOL     OW36304   3.780   2.626   2.959  0.5568 -0.3905 -0.5336
 8282SOL    HW136305   3.757   2.647   3.049 -2.3705  1.7915 -1.7455
 8282SOL    HW236306   3.735   2.542   2.949 -2.1532  0.8532  1.1435
 8283SOL     OW36307   3.178   0.129   9.938  0.3848 -0.1296 -0.3874
 8283SOL    HW136308   3.191   0.177   9.856 -2.1179 -0.4127 -0.9482
 8283SOL    HW236309   3.082   0.125   9.935  0.3846 -1.1809  1.2474
 8284SOL     OW36310   1.777   2.097  17.477  0.0590  0.1094 -0.0938
 8284SOL    HW136311   1.794   2.007  17.450  2.6429 -0.0918  2.1323
 8284SOL    HW236312   1.816   2.085  17.563  1.6485  0.7205 -0.7265
 8285SOL     OW36313   1.239   2.204   5.800  0.1755  0.3821  0.7048
 8285SOL    HW136314   1.189   2.263   5.743  0.4114  0.5800  0.7018
 8285SOL    HW236315   1.221   2.249   5.882 -0.3516  1.1429  0.1749
 8286SOL     OW36316   4.413   4.530  17.240 -0.0795  0.1643 -0.4702
 8286SOL    HW136317   4.502   4.535  17.274 -0.2453 -0.5486  0.0666
 8286SOL    HW236318   4.366   4.532  17.323 -2.2999 -4.8381 -1.5712
 8287SOL     OW36319   3.578   1.399  10.273 -0.1012 -0.1560  0.4371
 8287SOL    HW136320   3.587   1.361  10.186 -0.8996 -1.6138  0.9921
 8287SOL    HW236321   3.663   1.443  10.278  0.5043 -1.1561 -1.2598
 8288SOL     OW36322   3.994   0.180   8.654  0.0616 -0.0826  0.2684
 8288SOL    HW136323   4.076   0.179   8.704  0.1817  2.5506  0.1126
 8288SOL    HW236324   4.010   0.250   8.591  1.7252  1.1778  2.0801
 8289SOL     OW36325   2.109   1.736  12.950  0.0602 -0.2162  0.1053
 8289SOL    HW136326   2.139   1.816  12.992  1.0861 -2.2047  3.2233
 8289SOL    HW236327   2.176   1.677  12.983  0.5946  1.1906  1.5124
 8290SOL     OW36328   0.486   2.296   7.967 -0.0154 -0.5390 -0.1622
 8290SOL    HW136329   0.431   2.358   8.015  1.0054 -0.9905  1.5820
 8290SOL    HW236330   0.540   2.267   8.040  0.8285  3.1250  0.6866
 8291SOL     OW36331   3.966   1.886  14.203 -0.1781  0.1886  0.3064
 8291SOL    HW136332   4.060   1.865  14.205  0.1855  1.9022  0.6480
 8291SOL    HW236333   3.958   1.917  14.293  0.0720  2.7040 -0.5275
 8292SOL     OW36334   4.171   4.589  17.106  0.2499 -0.2576 -0.3483
 8292SOL    HW136335   4.250   4.555  17.149  0.0479 -1.3751 -0.8682
 8292SOL    HW236336   4.112   4.598  17.180 -1.7785 -0.9483 -1.8788
 8293SOL     OW36337   0.195   1.459  17.446 -0.0226 -0.4861  0.3137
 8293SOL    HW136338   0.279   1.503  17.433  0.6948 -1.8014  0.5156
 8293SOL    HW236339   0.151   1.507  17.516  0.7433  1.3185 -0.4513
 8294SOL     OW36340   4.455   1.742   1.548 -0.4607  0.1690  0.4345
 8294SOL    HW136341   4.468   1.743   1.453 -1.0120  1.6505  0.3764
 8294SOL    HW236342   4.416   1.657   1.567  0.5838 -0.6494 -1.0893
 8295SOL     OW36343   0.490   4.419  11.089  0.1281  0.2894  0.3600
 8295SOL    HW136344   0.475   4.485  11.156  0.4042  1.0482 -0.3121
 8295SOL    HW236345   0.409   4.369  11.092 -1.1369  2.4436  1.9518
 8296SOL     OW36346   0.791   4.015  15.461 -0.3798  0.2074  0.4197
 8296SOL    HW136347   0.831   3.970  15.536  2.8604 -0.9147 -2.0186
 8296SOL    HW236348   0.724   4.069  15.504 -1.2662 -0.8291  0.3497
 8297SOL     OW36349   3.046   0.570   7.661  0.2471  0.1200  0.3246
 8297SOL    HW136350   2.994   0.553   7.740  0.6593  0.5093  0.6814
 8297SOL    HW236351   2.983   0.633   7.627 -1.9990 -1.6892  1.1566
 8298SOL     OW36352   3.106   2.856   5.257  0.1467  0.4406  0.4515
 8298SOL    HW136353   3.176   2.902   5.211 -0.2267  1.5168  0.9566
 8298SOL    HW236354   3.059   2.926   5.303  0.3603  0.7284  0.2292
 8299SOL     OW36355   1.165   0.446   1.866  0.4090 -0.3483 -0.6291
 8299SOL    HW136356   1.074   0.451   1.837  0.8523  1.0255 -1.7310
 8299SOL    HW236357   1.152   0.459   1.960  0.7036  2.1258 -0.9314
 8300SOL     OW36358   3.433   2.173   1.661 -0.1529 -0.4895  0.0341
 8300SOL    HW136359   3.400   2.258   1.689 -0.3271 -0.6210  0.2293
 8300SOL    HW236360   3.518   2.205   1.630 -0.0334 -0.5239  0.3294
 8301SOL     OW36361   2.291   0.030   1.859 -0.6312 -0.2420 -0.0692
 8301SOL    HW136362   2.295   4.669   1.905 -0.7700  0.1019  0.5654
 8301SOL    HW236363   2.260   0.077   1.936  0.4221 -0.4807  0.4936
 8302SOL     OW36364   0.301   4.117   6.034 -0.3287 -0.0166 -0.0901
 8302SOL    HW136365   0.331   4.027   6.041 -0.1264 -0.1798 -3.0566
 8302SOL    HW236366   0.269   4.135   6.123  0.3717  0.2405  0.1053
 8303SOL     OW36367   1.824   3.536  16.043  0.0611  0.2774 -0.3794
 8303SOL    HW136368   1.795   3.493  15.962 -0.8131 -0.6087  0.4008
 8303SOL    HW236369   1.919   3.521  16.045 -0.0475 -0.1118  1.8015
 8304SOL     OW36370   4.124   3.065   2.897  0.6677  0.3901  0.2903
 8304SOL    HW136371   4.070   3.102   2.967  2.9992  2.9167  0.7561
 8304SOL    HW236372   4.122   3.137   2.834 -1.7784 -0.0877 -0.1803
 8305SOL     OW36373   3.582   0.796   2.865  0.1307  0.6952  0.2491
 8305SOL    HW136374   3.659   0.742   2.845 -0.5954  0.2008 -1.2180
 8305SOL    HW236375   3.580   0.768   2.957 -1.0955 -0.5170 -0.1437
 8306SOL     OW36376   0.304   4.443   2.762 -0.4093 -0.3029 -0.0987
 8306SOL    HW136377   0.332   4.453   2.671  0.7891  3.9393  0.7562
 8306SOL    HW236378   0.350   4.518   2.799  0.8805  0.2580 -2.8498
 8307SOL     OW36379   3.248   1.038   2.436 -0.4638 -0.0240  0.3343
 8307SOL    HW136380   3.293   1.051   2.520  1.0859 -0.6404 -0.3794
 8307SOL    HW236381   3.171   1.084   2.468 -0.5248  0.7110 -0.8849
 8308SOL     OW36382   0.376   1.973   8.752  0.3848  0.6340  0.0703
 8308SOL    HW136383   0.338   2.059   8.771 -0.2984  0.0575  1.3180
 8308SOL    HW236384   0.307   1.917   8.786 -0.6959  1.0602 -1.4466
 8309SOL     OW36385   1.948   1.765   9.963  0.0306 -0.0180 -0.1544
 8309SOL    HW136386   1.866   1.739   9.920  0.5975  0.2573 -1.4030
 8309SOL    HW236387   1.912   1.817  10.035  0.2688 -1.5885  1.0886
 8310SOL     OW36388   3.920   3.814   6.279 -0.4568 -0.2840  0.3348
 8310SOL    HW136389   3.996   3.795   6.223 -0.7989 -1.3869  0.2329
 8310SOL    HW236390   3.855   3.845   6.216  1.3275  0.5828 -1.0764
 8311SOL     OW36391   1.655   2.318  10.266  0.2472  0.4987 -0.6761
 8311SOL    HW136392   1.656   2.258  10.340  1.8116 -0.7178 -1.6705
 8311SOL    HW236393   1.564   2.347  10.262 -0.3739 -1.2888  0.8025
 8312SOL     OW36394   1.971   2.600   4.890  0.2306  0.7036  0.1639
 8312SOL    HW136395   2.066   2.603   4.886  0.3566 -0.6141  1.8814
 8312SOL    HW236396   1.951   2.691   4.912  0.6166  0.1376  2.8596
 8313SOL     OW36397   1.476   3.016   2.619 -0.7942  0.3686 -0.1730
 8313SOL    HW136398   1.488   2.952   2.689 -1.6405  0.8590  0.4265
 8313SOL    HW236399   1.382   3.008   2.608 -0.6040 -1.0774 -0.6208
 8314SOL     OW36400   0.739   2.929   7.514 -0.1981  0.2350  0.5677
 8314SOL    HW136401   0.705   2.967   7.433 -0.7952  0.2031  0.8048
 8314SOL    HW236402   0.807   2.994   7.534  1.3265 -1.6499  1.4699
 8315SOL     OW36403   0.844   3.624   1.307 -0.0988  0.1749  0.0562
 8315SOL    HW136404   0.911   3.617   1.238 -1.0520  3.3018 -1.1969
 8315SOL    HW236405   0.877   3.689   1.370 -0.2150 -0.0517  0.3484
 8316SOL     OW36406   0.558   0.216   4.663  0.2090  0.2792  0.1376
 8316SOL    HW136407   0.622   0.287   4.660  0.8868 -0.2477  1.7787
 8316SOL    HW236408   0.523   0.224   4.752 -1.6355  0.4589 -0.6043
 8317SOL     OW36409   4.516   0.608   7.283 -0.6417 -0.0585 -0.0219
 8317SOL    HW136410   4.516   0.519   7.317 -0.6462  0.3149  0.9505
 8317SOL    HW236411   4.432   0.598   7.237 -0.8533  1.4279  0.0379
 8318SOL     OW36412   2.849   2.793   3.289  0.1982  0.4903  0.5808
 8318SOL    HW136413   2.830   2.886   3.274  3.7760  1.1822  0.3288
 8318SOL    HW236414   2.793   2.751   3.223  0.9447 -0.1162  0.3370
 8319SOL     OW36415   1.105   1.655   9.245  0.3019  0.7393 -0.3425
 8319SOL    HW136416   1.034   1.689   9.300 -0.8741 -1.1548 -0.6806
 8319SOL    HW236417   1.133   1.583   9.303 -0.5524  1.3631  0.8637
 8320SOL     OW36418   1.686   0.546   1.215  0.2637  0.4186 -0.5054
 8320SOL    HW136419   1.619   0.481   1.234  0.9441 -0.4187 -0.9769
 8320SOL    HW236420   1.651   0.608   1.279  0.0191 -1.9273  1.6143
 8321SOL     OW36421   2.511   4.564   5.824 -0.2211  0.7296 -0.0065
 8321SOL    HW136422   2.425   4.585   5.861 -0.5003  0.8978 -0.7544
 8321SOL    HW236423   2.487   4.488   5.773 -0.1743  0.4398  0.4058
 8322SOL     OW36424   4.162   2.775   1.101  0.6241  0.1076  0.5876
 8322SOL    HW136425   4.174   2.828   1.023 -2.2620 -0.3449 -0.1847
 8322SOL    HW236426   4.249   2.772   1.140  1.0107  1.1163 -0.2076
 8323SOL     OW36427   2.328   0.734   3.235  0.0699 -0.4994 -0.3546
 8323SOL    HW136428   2.258   0.670   3.221  1.1060 -1.7402  0.1397
 8323SOL    HW236429   2.399   0.685   3.277 -0.1927  1.7126  2.6667
 8324SOL     OW36430   3.445   2.673   7.859  0.2047  0.4123  0.5616
 8324SOL    HW136431   3.396   2.749   7.892  1.5351  1.4903  0.0327
 8324SOL    HW236432   3.372   2.614   7.838  2.0741 -1.5495 -0.3908
 8325SOL     OW36433   1.978   3.122   9.120 -0.5493 -0.2507 -0.0656
 8325SOL    HW136434   1.885   3.104   9.107 -1.8591  4.0095  3.4331
 8325SOL    HW236435   1.975   3.203   9.170  1.2625 -0.1217 -0.1437
 8326SOL     OW36436   1.268   1.372  10.434 -0.3627 -0.0584 -0.4920
 8326SOL    HW136437   1.203   1.420  10.382 -2.4728 -1.1763  1.1328
 8326SOL    HW236438   1.273   1.286  10.393  0.4727  0.7784 -2.1618
 8327SOL     OW36439   3.699   1.247  16.033  0.3057  0.0342  0.7447
 8327SOL    HW136440   3.705   1.338  16.006  0.0599  0.0407  0.7084
 8327SOL    HW236441   3.762   1.241  16.105 -0.3410 -2.1350  1.1489
 8328SOL     OW36442   1.703   3.788   1.881  0.2170  0.4060  0.1527
 8328SOL    HW136443   1.716   3.733   1.804  1.2122 -0.2549  0.7962
 8328SOL    HW236444   1.623   3.837   1.863  0.7428  1.0278 -0.4953
 8329SOL     OW36445   3.154   4.414   6.937  0.0772 -0.3385 -0.0920
 8329SOL    HW136446   3.198   4.442   6.857 -0.2748 -0.2329 -0.2496
 8329SOL    HW236447   3.234   4.400   6.988 -1.1587 -1.2054  1.6354
 8330SOL     OW36448   2.396   0.653  13.886 -0.2468  0.0587  0.0902
 8330SOL    HW136449   2.398   0.672  13.979 -1.1693 -0.3798  0.2093
 8330SOL    HW236450   2.347   0.570  13.885 -1.6706  0.8900  0.8620
 8331SOL     OW36451   0.620   0.583   0.339 -0.2817  0.2371  0.0701
 8331SOL    HW136452   0.652   0.649   0.401 -1.4526 -0.4631  1.4257
 8331SOL    HW236453   0.617   0.506   0.395  0.6802 -0.7920 -1.2889
 8332SOL     OW36454   3.653   0.445   1.578 -0.0729  0.2468  0.6702
 8332SOL    HW136455   3.625   0.525   1.622 -0.1621 -0.0619  1.1694
 8332SOL    HW236456   3.716   0.411   1.640  0.6093  1.5402  0.6982
 8333SOL     OW36457   4.259   0.649   5.221  0.5952 -0.2635  0.1152
 8333SOL    HW136458   4.233   0.741   5.218  0.1712 -0.3754  0.3281
 8333SOL    HW236459   4.298   0.641   5.308 -2.0341  1.1958  1.4195
 8334SOL     OW36460   3.143   1.073   8.519 -0.1836 -0.2859  0.1787
 8334SOL    HW136461   3.066   1.130   8.519  1.1259  1.4796 -0.4113
 8334SOL    HW236462   3.096   0.989   8.518 -0.3966 -0.1533 -0.8970
 8335SOL     OW36463   0.138   0.855   6.657  0.0307  0.1158 -0.0680
 8335SOL    HW136464   0.121   0.818   6.743 -0.5457  2.4084  0.8067
 8335SOL    HW236465   0.063   0.821   6.608  0.1632  0.6756 -0.6663
 8336SOL     OW36466   4.237   2.241  10.398  0.1422 -0.3167 -0.1415
 8336SOL    HW136467   4.257   2.276  10.312  1.5995 -3.0713 -0.9419
 8336SOL    HW236468   4.142   2.231  10.392  0.1767 -1.7143  1.3643
 8337SOL     OW36469   4.418   3.792   2.857  0.3371 -1.1904 -0.3336
 8337SOL    HW136470   4.326   3.798   2.882  0.1537 -0.7849 -1.0913
 8337SOL    HW236471   4.415   3.813   2.763 -0.6185 -1.0031 -0.2597
 8338SOL     OW36472   0.523   1.564   5.853  0.1809 -0.1603 -0.1611
 8338SOL    HW136473   0.478   1.631   5.904  1.1897  0.5188 -0.1503
 8338SOL    HW236474   0.610   1.602   5.867  0.1495 -0.2593  0.2933
 8339SOL     OW36475   3.060   3.024   6.302 -0.2248 -0.4516 -0.1765
 8339SOL    HW136476   3.082   3.093   6.366  0.6115 -1.4580  0.6122
 8339SOL    HW236477   3.078   2.941   6.347  1.8520  0.3785  0.5400
 8340SOL     OW36478   1.231   1.094   9.915 -0.0261 -0.9630 -0.1780
 8340SOL    HW136479   1.174   1.084   9.991 -1.5699  0.7962 -1.1246
 8340SOL    HW236480   1.279   1.011   9.916 -0.4788 -1.2128  1.5366
 8341SOL     OW36481   2.756   2.985   8.138 -0.7443  0.2017 -0.0607
 8341SOL    HW136482   2.793   3.071   8.121  0.1498 -0.1454  0.1257
 8341SOL    HW236483   2.762   2.943   8.053 -0.5532 -0.0127  0.0599
 8342SOL     OW36484   2.493   0.198   5.454 -0.2917 -0.1842  1.0460
 8342SOL    HW136485   2.464   0.205   5.364  2.5293 -1.0502  0.0674
 8342SOL    HW236486   2.454   0.278   5.491 -1.4278  0.4114 -1.4794
 8343SOL     OW36487   3.439   0.714  15.174  0.2021  0.8240  0.3558
 8343SOL    HW136488   3.392   0.692  15.094  1.0183  1.4384 -0.2890
 8343SOL    HW236489   3.366   0.752  15.223 -0.7943 -0.4088 -0.1786
 8344SOL     OW36490   0.609   2.900   8.269 -0.3797  0.1600  0.2310
 8344SOL    HW136491   0.687   2.954   8.278  1.0333 -2.0548  1.1645
 8344SOL    HW236492   0.541   2.967   8.271  0.4288  0.9560  0.6123
 8345SOL     OW36493   1.449   3.899  11.278  0.1414  0.3416  0.3411
 8345SOL    HW136494   1.378   3.834  11.282  0.5202 -0.1830 -1.7189
 8345SOL    HW236495   1.448   3.926  11.370 -0.2573  0.8411  0.1931
 8346SOL     OW36496   2.082   2.361  15.831 -0.0649  0.5601  0.4627
 8346SOL    HW136497   2.035   2.442  15.812  1.9233  1.2354 -1.5499
 8346SOL    HW236498   2.126   2.388  15.911  0.7531  2.6240 -0.7009
 8347SOL     OW36499   3.707   1.383   1.082 -0.0615  0.2072  0.1363
 8347SOL    HW136500   3.801   1.369   1.100  0.0693  1.3437  0.3231
 8347SOL    HW236501   3.706   1.478   1.078 -1.5312  0.2666  2.2108
 8348SOL     OW36502   4.610   0.638   8.539  0.2908  0.6055  0.2316
 8348SOL    HW136503   4.628   0.707   8.603  0.2849  0.8167  0.0033
 8348SOL    HW236504   4.671   0.574   8.576  1.0419  0.7474 -0.7856
 8349SOL     OW36505   4.598   2.976   4.451 -0.2135 -0.0524  0.2632
 8349SOL    HW136506   4.554   2.932   4.524  0.2112  1.0887  1.2011
 8349SOL    HW236507   4.535   3.043   4.424  2.3521  2.7365  1.1895
 8350SOL     OW36508   2.173   0.257   7.746 -0.0727 -0.4548  0.4488
 8350SOL    HW136509   2.130   0.240   7.830  0.1575  0.8834  0.8439
 8350SOL    HW236510   2.135   0.341   7.720 -2.2317 -1.4469  0.4310
 8351SOL     OW36511   4.058   2.832   8.642  0.0901 -0.1084  0.0824
 8351SOL    HW136512   3.986   2.784   8.682  0.3147 -1.0495 -0.6523
 8351SOL    HW236513   4.112   2.850   8.719  0.7536 -0.7710 -0.2230
 8352SOL     OW36514   3.595   4.005   8.532 -0.1292 -0.5557  0.4176
 8352SOL    HW136515   3.609   3.918   8.570 -0.4958 -0.6506  0.3369
 8352SOL    HW236516   3.680   4.048   8.536 -0.1679 -0.6461  2.0497
 8353SOL     OW36517   2.858   2.704   9.392 -0.8757 -0.1650 -0.5432
 8353SOL    HW136518   2.810   2.780   9.361 -1.4482  0.0464  0.8824
 8353SOL    HW236519   2.923   2.742   9.451  0.0649 -2.5463 -0.0219
 8354SOL     OW36520   0.925   0.480   1.736  0.1825 -0.0756  0.1662
 8354SOL    HW136521   0.881   0.486   1.652  0.4694  1.5048  0.1177
 8354SOL    HW236522   0.867   0.536   1.787 -0.2007 -1.4646  1.2516
 8355SOL     OW36523   3.580   1.876  13.975 -0.1989 -0.0309 -0.0037
 8355SOL    HW136524   3.605   1.815  14.045 -2.1649  0.7970  1.4117
 8355SOL    HW236525   3.507   1.831  13.932  1.1977 -1.0221 -1.3255
 8356SOL     OW36526   1.836   0.937   5.356 -0.6228  0.2887 -0.2474
 8356SOL    HW136527   1.794   0.879   5.420 -2.4222 -0.6789 -2.3289
 8356SOL    HW236528   1.795   0.903   5.276 -0.3109  0.0164 -0.2896
 8357SOL     OW36529   3.983   3.222   3.801 -0.3822  0.4013  0.1982
 8357SOL    HW136530   3.991   3.311   3.767 -0.4306 -0.8806 -3.1884
 8357SOL    HW236531   4.075   3.202   3.820 -0.5217  0.1665  0.6230
 8358SOL     OW36532   3.359   4.621   5.562  0.4611  0.2643 -0.2055
 8358SOL    HW136533   3.383   4.665   5.643  0.7956  0.5376 -0.4532
 8358SOL    HW236534   3.367   4.694   5.501 -1.7069  0.4574 -0.2579
 8359SOL     OW36535   0.326   1.327   9.374 -0.0132 -0.7037  0.0385
 8359SOL    HW136536   0.283   1.412   9.386  1.6027  0.3161 -1.4731
 8359SOL    HW236537   0.400   1.327   9.435 -0.5803  0.1100  0.7394
 8360SOL     OW36538   3.625   1.546  16.676  0.8509 -0.1293  0.2348
 8360SOL    HW136539   3.703   1.544  16.732  0.8331  1.6304  0.3003
 8360SOL    HW236540   3.667   1.530  16.591 -0.8721  0.3435 -0.6984
 8361SOL     OW36541   1.948   0.072   8.289  0.5142 -0.2183 -0.4603
 8361SOL    HW136542   1.985   0.150   8.330 -0.9445 -0.8895  2.1199
 8361SOL    HW236543   1.887   0.111   8.227 -0.4561 -0.0136  0.6242
 8362SOL     OW36544   0.618   2.096   0.835 -0.1031  0.7497 -0.2312
 8362SOL    HW136545   0.651   2.135   0.753 -0.8726  0.4034 -0.7052
 8362SOL    HW236546   0.523   2.094   0.823  0.1096  1.0569 -2.0785
 8363SOL     OW36547   4.115   2.650   3.775  0.5764  0.1096 -0.3190
 8363SOL    HW136548   4.021   2.670   3.773  0.3483 -0.9761 -0.0652
 8363SOL    HW236549   4.107   2.557   3.756  0.8025  0.3623 -1.7105
 8364SOL     OW36550   2.359   0.605   8.032 -0.4658  0.8216 -0.2314
 8364SOL    HW136551   2.393   0.594   8.120 -0.1314 -0.1101 -0.4743
 8364SOL    HW236552   2.312   0.688   8.039 -0.4335  0.7032  1.2112
 8365SOL     OW36553   1.792   0.932   3.687 -0.0449 -0.0748  0.0169
 8365SOL    HW136554   1.751   0.849   3.664  0.7154 -0.3185 -0.4678
 8365SOL    HW236555   1.746   0.959   3.767  0.0592 -0.1819  0.1129
 8366SOL     OW36556   4.444   4.228   4.910 -0.0688 -0.5745 -0.3580
 8366SOL    HW136557   4.529   4.213   4.951 -0.3660 -2.3174 -0.3981
 8366SOL    HW236558   4.465   4.296   4.846 -1.3238 -0.5757 -0.7682
 8367SOL     OW36559   2.115   3.517  15.514  0.1522 -0.1360  0.0145
 8367SOL    HW136560   2.208   3.536  15.500  0.0914 -0.6291 -1.0807
 8367SOL    HW236561   2.087   3.508  15.422  1.6618 -1.0458 -0.3520
 8368SOL     OW36562   3.998   1.739   1.407  0.5720  0.1023  0.2690
 8368SOL    HW136563   4.049   1.713   1.483  0.7241 -0.4169 -0.0128
 8368SOL    HW236564   3.927   1.676   1.405  0.1549  0.6677 -2.8931
 8369SOL     OW36565   3.214   0.003   1.450 -0.3018  0.2171 -0.2295
 8369SOL    HW136566   3.261   4.719   1.533  0.3840 -0.7326 -0.7146
 8369SOL    HW236567   3.126   0.030   1.480 -1.2465 -0.5360 -2.3475
 8370SOL     OW36568   1.090   1.983  10.593  0.1849 -0.3263  0.0208
 8370SOL    HW136569   1.085   1.946  10.505 -1.5992  0.0472 -0.0439
 8370SOL    HW236570   1.068   1.908  10.649 -0.9582 -0.4493 -0.5879
 8371SOL     OW36571   0.462   0.980   5.097  0.3498 -0.5369  0.0464
 8371SOL    HW136572   0.406   0.903   5.086 -0.6974  0.0679  1.0349
 8371SOL    HW236573   0.419   1.000   5.180  1.4201  1.3861  0.1427
 8372SOL     OW36574   1.300   0.632   4.053  0.5037  0.1788  0.6592
 8372SOL    HW136575   1.323   0.721   4.028 -2.5794  0.3342 -1.4942
 8372SOL    HW236576   1.387   0.592   4.066  0.0833 -0.9689 -0.0279
 8373SOL     OW36577   2.449   0.270   8.788 -0.7909  0.6888 -0.4035
 8373SOL    HW136578   2.357   0.273   8.762 -1.2475 -2.1319  0.8465
 8373SOL    HW236579   2.479   0.349   8.744  2.4911 -0.2011  0.2668
 8374SOL     OW36580   0.301   0.735  11.572 -0.2380 -0.8245  0.9143
 8374SOL    HW136581   0.222   0.686  11.595 -1.4337  1.5028  1.7370
 8374SOL    HW236582   0.359   0.720  11.646 -0.3801 -2.2416  0.7337
 8375SOL     OW36583   2.830   3.170  13.246  0.1314  0.5610 -0.5108
 8375SOL    HW136584   2.746   3.178  13.290  0.1539  3.2919 -0.9196
 8375SOL    HW236585   2.841   3.264  13.232  2.1616  0.0949 -2.1218
 8376SOL     OW36586   3.337   4.665   7.501 -0.2395 -0.1804 -0.0283
 8376SOL    HW136587   3.352   4.716   7.421 -1.3830  3.5038  2.1398
 8376SOL    HW236588   3.248   4.696   7.518 -0.7525 -0.8478 -1.5028
 8377SOL     OW36589   3.686   0.253  11.093  0.2309  0.9832  0.3439
 8377SOL    HW136590   3.657   0.176  11.142  1.3344 -0.4855 -1.3336
 8377SOL    HW236591   3.733   0.210  11.022 -2.0928  0.0469 -0.6344
 8378SOL     OW36592   1.160   0.211   2.644  0.2080  0.3004  0.0841
 8378SOL    HW136593   1.226   0.195   2.712 -0.5940 -1.3555  0.4698
 8378SOL    HW236594   1.136   0.301   2.664 -1.3815 -0.1984  0.4025
 8379SOL     OW36595   0.750   4.616   2.355  0.3895  0.0521  0.1760
 8379SOL    HW136596   0.721   4.705   2.372  1.0339  0.3550 -0.2969
 8379SOL    HW236597   0.839   4.617   2.320 -0.5872  1.7921 -2.2489
 8380SOL     OW36598   1.314   1.267   2.731  0.1765 -0.4410 -0.0738
 8380SOL    HW136599   1.343   1.341   2.783  0.7279 -0.3306 -0.5388
 8380SOL    HW236600   1.218   1.266   2.739  0.2347  2.6606  0.6694
 8381SOL     OW36601   0.152   4.071   8.563 -0.1504  0.1741  0.3576
 8381SOL    HW136602   0.146   4.165   8.546 -1.8418 -0.1296 -0.6664
 8381SOL    HW236603   0.192   4.069   8.650 -2.1554  0.8775  1.3138
 8382SOL     OW36604   2.059   1.875   3.245 -0.0474 -0.2566  0.2090
 8382SOL    HW136605   2.122   1.805   3.260  0.0128  0.0498  1.3930
 8382SOL    HW236606   2.038   1.903   3.334  0.4616 -0.0959  0.2776
 8383SOL     OW36607   2.125   0.515   7.703 -0.0684  0.3349  0.3157
 8383SOL    HW136608   2.155   0.605   7.719 -1.8491  0.6841  1.6965
 8383SOL    HW236609   2.038   0.536   7.670  0.0232 -0.9622 -0.7413
 8384SOL     OW36610   0.150   2.249   4.584 -0.0412  0.4838 -0.2698
 8384SOL    HW136611   0.105   2.189   4.524  0.5651  1.3533 -1.6110
 8384SOL    HW236612   0.144   2.196   4.664 -1.7624  0.8094 -0.1811
 8385SOL     OW36613   4.387   0.962  13.033 -0.0781  0.3791  0.3226
 8385SOL    HW136614   4.412   0.957  12.940  0.8738 -2.1613  0.6989
 8385SOL    HW236615   4.296   0.989  13.021 -0.8887 -2.1652  0.6706
 8386SOL     OW36616   4.665   2.406  17.494  0.4693 -0.3618  0.3340
 8386SOL    HW136617   0.026   2.364  17.510  0.0857 -0.0034  3.4017
 8386SOL    HW236618   4.674   2.477  17.558 -1.4237  0.5825 -0.4452
 8387SOL     OW36619   2.950   2.001   4.590  0.7055  0.3724  0.1188
 8387SOL    HW136620   2.968   2.071   4.653  0.5127 -0.0796  0.6743
 8387SOL    HW236621   2.976   2.045   4.509 -1.4950 -2.7228 -2.2686
 8388SOL     OW36622   2.302   3.645   7.398  0.4478 -0.1019  0.2703
 8388SOL    HW136623   2.332   3.653   7.489  0.9889 -1.0224  0.1685
 8388SOL    HW236624   2.352   3.572   7.361  1.2482  0.6659 -0.1432
 8389SOL     OW36625   3.444   1.952   6.726 -0.3435  0.2220  0.2947
 8389SOL    HW136626   3.380   1.980   6.660 -1.2518 -0.6802  0.7913
 8389SOL    HW236627   3.449   2.026   6.786  3.9640 -0.3844  0.6716
 8390SOL     OW36628   2.569   1.192   3.225  0.5947  0.0487  0.3367
 8390SOL    HW136629   2.604   1.171   3.139 -0.8382  0.5655 -0.3797
 8390SOL    HW236630   2.649   1.212   3.273  0.9135  0.5387 -0.4062
 8391SOL     OW36631   3.672   4.322   2.557 -0.4597 -0.1139 -0.4406
 8391SOL    HW136632   3.704   4.397   2.507  0.8699 -0.3174  0.0962
 8391SOL    HW236633   3.731   4.307   2.630 -2.2791 -0.1541  1.0118
 8392SOL     OW36634   2.464   1.487  16.216  0.0553 -0.5606 -0.2497
 8392SOL    HW136635   2.491   1.483  16.124 -0.2236  2.2183 -0.4695
 8392SOL    HW236636   2.410   1.408  16.215  0.3979 -0.8071  0.5320
 8393SOL     OW36637   0.028   2.139   0.846 -0.5772 -0.1568  0.7256
 8393SOL    HW136638   0.083   2.095   0.910  2.0228  0.5072 -1.0522
 8393SOL    HW236639   4.659   2.127   0.869 -1.0103 -0.8184 -1.3546
 8394SOL     OW36640   1.297   1.005   8.377  0.4315 -0.7757  0.0373
 8394SOL    HW136641   1.247   0.999   8.458  0.1472  1.3656  0.0133
 8394SOL    HW236642   1.242   0.946   8.325  0.2023  0.2502 -0.8730
 8395SOL     OW36643   2.419   0.606   3.913 -0.1468  0.0742 -0.4608
 8395SOL    HW136644   2.419   0.518   3.949  2.5272  1.1349  2.1482
 8395SOL    HW236645   2.323   0.614   3.914 -0.1852 -0.5491  1.3408
 8396SOL     OW36646   1.064   4.102   5.447 -0.2466 -0.6645  0.1699
 8396SOL    HW136647   0.981   4.096   5.493 -1.2175 -1.7740 -1.7135
 8396SOL    HW236648   1.075   4.197   5.443  2.2434 -0.8756  2.0419
 8397SOL     OW36649   2.412   0.073   4.571  0.1907 -0.1227 -0.2753
 8397SOL    HW136650   2.365   0.089   4.652  0.4588  0.2677 -0.1959
 8397SOL    HW236651   2.350   0.096   4.502 -1.3844 -0.3621  1.0674
 8398SOL     OW36652   0.364   3.185  13.839  0.3744 -0.4768  0.1121
 8398SOL    HW136653   0.365   3.130  13.761  2.1902  0.0494 -0.2387
 8398SOL    HW236654   0.322   3.264  13.804  0.0422 -0.9280 -0.4920
 8399SOL     OW36655   2.381   0.694   5.509 -0.5069  0.0002 -0.0152
 8399SOL    HW136656   2.387   0.768   5.448  0.9428  0.2060  0.3845
 8399SOL    HW236657   2.436   0.733   5.576 -0.0772  0.0615 -0.4039
 8400SOL     OW36658   1.238   0.810   8.907 -0.4565  0.0176  0.1000
 8400SOL    HW136659   1.227   0.716   8.890 -1.6044 -0.0494  1.1813
 8400SOL    HW236660   1.151   0.840   8.878 -0.3919  0.8267  0.7422
 8401SOL     OW36661   3.209   1.293   7.016 -0.1904 -0.1923  0.1878
 8401SOL    HW136662   3.186   1.347   7.092 -0.1930  1.3570 -0.9048
 8401SOL    HW236663   3.193   1.347   6.938 -0.1540  0.8777  0.9288
 8402SOL     OW36664   0.028   4.417  10.843  0.3623  0.1737  0.6503
 8402SOL    HW136665   0.062   4.341  10.797 -1.1480 -0.0334 -0.1447
 8402SOL    HW236666   0.107   4.461  10.873 -0.0567  0.3870  1.4504
 8403SOL     OW36667   2.521   3.586   8.614  0.3231  0.3975  0.3802
 8403SOL    HW136668   2.578   3.577   8.538  1.1292  2.3150  0.7552
 8403SOL    HW236669   2.442   3.539   8.585  0.4588 -0.6286  1.6940
 8404SOL     OW36670   3.457   3.450   2.543  0.0731 -0.3799  0.2684
 8404SOL    HW136671   3.494   3.388   2.480  4.0005  1.7575  0.4686
 8404SOL    HW236672   3.370   3.478   2.514  0.4275  0.5005  0.0275
 8405SOL     OW36673   3.293   4.314  17.263  0.2631  0.2879 -0.1089
 8405SOL    HW136674   3.301   4.223  17.235  0.4054  0.0955  0.5525
 8405SOL    HW236675   3.349   4.355  17.197 -1.7259  2.5114 -0.3958
 8406SOL     OW36676   1.060   3.350   6.259 -0.0566 -0.1489  0.3418
 8406SOL    HW136677   0.996   3.279   6.248 -0.5696  0.3642 -0.0072
 8406SOL    HW236678   1.015   3.418   6.310 -1.5093 -0.7472 -0.1499
 8407SOL     OW36679   2.071   2.651   5.629 -0.2844  0.3621  0.2423
 8407SOL    HW136680   2.155   2.622   5.665 -1.7614 -2.8474  1.1692
 8407SOL    HW236681   2.043   2.566   5.593 -0.1781  0.9186 -1.1570
 8408SOL     OW36682   3.958   0.878   6.209  0.7273  0.2411 -0.2118
 8408SOL    HW136683   3.974   0.861   6.302  2.3746 -1.5242 -0.8283
 8408SOL    HW236684   3.865   0.858   6.212  0.9281 -0.4106  1.7586
 8409SOL     OW36685   3.218   2.246   5.438 -0.7600  0.9536 -0.8454
 8409SOL    HW136686   3.199   2.324   5.386  0.8926  0.8639 -1.5981
 8409SOL    HW236687   3.302   2.268   5.478 -0.7425 -1.1933  0.2920
 8410SOL     OW36688   1.435   3.934  17.541 -0.1891  0.9143  0.4008
 8410SOL    HW136689   1.476   3.985  17.610 -0.1457  0.2653  0.8523
 8410SOL    HW236690   1.468   3.976  17.461 -0.2464 -1.2012 -0.7477
 8411SOL     OW36691   1.804   3.379   4.533 -0.0246  0.4864  0.4434
 8411SOL    HW136692   1.857   3.458   4.550 -0.2270 -0.0880  3.8693
 8411SOL    HW236693   1.800   3.386   4.438 -0.3193 -1.8722  0.2942
 8412SOL     OW36694   4.331   2.100   5.732 -0.2325 -0.7592  0.7792
 8412SOL    HW136695   4.381   2.031   5.688 -1.1140 -0.7650 -0.2246
 8412SOL    HW236696   4.291   2.142   5.656 -0.4257  0.5450  1.6105
 8413SOL     OW36697   1.004   3.488   5.436  0.1748 -0.2246 -0.1907
 8413SOL    HW136698   0.917   3.485   5.476 -0.1568 -0.6550 -0.9539
 8413SOL    HW236699   0.999   3.560   5.373  0.5944  0.6005  0.7069
 8414SOL     OW36700   4.207   0.585   9.100  0.0131  0.7566  0.1208
 8414SOL    HW136701   4.179   0.539   9.179  1.8308 -0.4905  0.0523
 8414SOL    HW236702   4.129   0.571   9.047 -0.7163 -0.0171  1.3848
 8415SOL     OW36703   4.269   3.326   7.751 -0.1215  0.5805  0.5252
 8415SOL    HW136704   4.266   3.419   7.772  1.6750  0.4501  1.3749
 8415SOL    HW236705   4.254   3.333   7.657 -1.8491  0.8087  0.8142
 8416SOL     OW36706   1.216   1.093   5.052 -0.3229 -0.2214 -0.0256
 8416SOL    HW136707   1.207   1.138   5.136  1.2061 -0.8903  0.4848
 8416SOL    HW236708   1.234   1.003   5.078 -1.3897 -0.4739 -0.1511
 8417SOL     OW36709   3.970   2.915   5.339  0.5457 -0.1542  0.2285
 8417SOL    HW136710   3.882   2.937   5.370  0.4315 -0.7540  0.3315
 8417SOL    HW236711   4.016   2.932   5.421 -0.0496 -1.0161  0.7419
 8418SOL     OW36712   4.147   4.651   5.362  0.7395 -0.0352  0.3693
 8418SOL    HW136713   4.084   4.716   5.331  2.1659  1.2661  0.1908
 8418SOL    HW236714   4.154   4.600   5.282  0.6392  0.0673  0.2951
 8419SOL     OW36715   0.695   1.744   6.251  0.5078 -0.8232 -0.0799
 8419SOL    HW136716   0.693   1.649   6.244  2.3958 -0.7181 -2.0476
 8419SOL    HW236717   0.677   1.758   6.344 -0.1141 -2.8623  0.1061
 8420SOL     OW36718   4.225   1.829   5.567  0.3419 -0.0418  0.8341
 8420SOL    HW136719   4.164   1.899   5.539  1.5811 -0.1743 -2.1684
 8420SOL    HW236720   4.157   1.766   5.591 -1.8270  1.7880 -0.4538
 8421SOL     OW36721   1.520   2.110   0.326 -0.0445  0.1476 -0.5955
 8421SOL    HW136722   1.541   2.170   0.254  0.8226 -0.8671 -1.1902
 8421SOL    HW236723   1.545   2.159   0.404 -0.9240  3.0562 -2.1181
 8422SOL     OW36724   0.281   3.938   1.868 -0.3257 -0.6893 -0.5380
 8422SOL    HW136725   0.317   3.868   1.814  1.6441 -0.0227 -0.1054
 8422SOL    HW236726   0.258   3.892   1.949  1.9001 -1.2984 -0.2454
 8423SOL     OW36727   4.184   1.544   6.632 -0.2160 -1.0232  0.0320
 8423SOL    HW136728   4.143   1.573   6.550  1.5556  0.6406 -0.2576
 8423SOL    HW236729   4.225   1.619   6.676  0.3367  0.5257 -3.1675
 8424SOL     OW36730   2.372   0.840   6.851 -0.2030  0.8569  0.3755
 8424SOL    HW136731   2.339   0.888   6.774  1.1215  0.3757 -0.4799
 8424SOL    HW236732   2.304   0.776   6.870  1.3025 -0.8451  0.0253
 8425SOL     OW36733   4.599   0.167   4.355 -0.2717  0.5447 -0.0897
 8425SOL    HW136734   4.596   0.239   4.291  3.0482 -0.2862 -1.1599
 8425SOL    HW236735   4.571   0.099   4.294 -0.8716 -1.1331  2.0491
 8426SOL     OW36736   3.309   0.795   9.397 -0.3580 -0.0986  0.3549
 8426SOL    HW136737   3.399   0.761   9.391  0.0863  1.2003 -0.3924
 8426SOL    HW236738   3.305   0.833   9.484  0.3970 -0.1348  0.4066
 8427SOL     OW36739   2.490   4.701   7.416 -0.1963  0.2522 -0.0777
 8427SOL    HW136740   2.486   0.010   7.326  1.3124  1.0663  0.1558
 8427SOL    HW236741   2.541   0.051   7.450 -1.7292  2.0502 -1.7051
 8428SOL     OW36742   2.363   2.127   3.884 -0.4583  0.5579 -0.4662
 8428SOL    HW136743   2.436   2.065   3.883 -0.7051  0.2900 -1.8607
 8428SOL    HW236744   2.298   2.059   3.865 -2.0150  1.8664  0.2133
 8429SOL     OW36745   1.442   0.750  10.210  0.8918 -0.1726 -0.5336
 8429SOL    HW136746   1.470   0.782  10.124 -0.9915  1.7702 -0.4062
 8429SOL    HW236747   1.377   0.816  10.234  2.1442  1.1997 -0.8593
 8430SOL     OW36748   3.163   0.972   7.935 -0.2267  0.5139  0.2851
 8430SOL    HW136749   3.220   0.970   8.012 -1.1091 -0.9568  0.9046
 8430SOL    HW236750   3.135   0.881   7.941 -1.1097  0.7428 -0.4019
 8431SOL     OW36751   0.399   3.803   4.037 -0.5921  0.6048  0.1398
 8431SOL    HW136752   0.397   3.716   3.997 -0.4408  0.7914 -0.2757
 8431SOL    HW236753   0.335   3.852   3.985  1.0495  1.1281 -1.3896
 8432SOL     OW36754   4.680   3.859   3.031  0.2281 -0.6259  0.4380
 8432SOL    HW136755   4.596   3.852   2.986 -0.3890  2.1842  1.1841
 8432SOL    HW236756   4.654   3.847   3.122 -1.2408  0.5973  0.1819
 8433SOL     OW36757   0.972   2.583   1.135  0.2456 -0.2053  0.2197
 8433SOL    HW136758   1.004   2.663   1.092  2.6766 -2.0626 -1.4034
 8433SOL    HW236759   0.897   2.550   1.087  0.3987 -0.7521  0.3604
 8434SOL     OW36760   2.965   4.324  16.164 -0.2930  0.2413  0.1948
 8434SOL    HW136761   2.935   4.341  16.075 -2.1723  1.5670  1.0861
 8434SOL    HW236762   2.927   4.394  16.218  1.0681  2.7694 -2.1647
 8435SOL     OW36763   3.995   3.140  15.257 -0.2973  0.5994 -0.1832
 8435SOL    HW136764   4.052   3.096  15.194 -1.6716 -1.5157  0.0379
 8435SOL    HW236765   3.995   3.083  15.334  1.1130 -0.1605 -0.7546
 8436SOL     OW36766   2.579   3.727  12.362  0.1560  0.4599  0.5273
 8436SOL    HW136767   2.597   3.821  12.360  2.0406  0.0433 -2.1396
 8436SOL    HW236768   2.483   3.728  12.361  0.1524  0.4373  0.8869
 8437SOL     OW36769   0.457   1.295   3.177  0.0224 -0.1750  0.3316
 8437SOL    HW136770   0.440   1.327   3.265  2.5382 -0.6987  1.0039
 8437SOL    HW236771   0.545   1.325   3.152  0.4898 -2.7356 -1.0508
 8438SOL     OW36772   1.576   3.967   0.860 -0.0450 -0.1108  0.1962
 8438SOL    HW136773   1.669   3.958   0.881  0.5339  0.7126 -2.1088
 8438SOL    HW236774   1.565   4.057   0.888  0.4511  0.3229 -1.0038
 8439SOL     OW36775   3.418   3.604   1.642 -0.3719  0.4965 -0.4034
 8439SOL    HW136776   3.477   3.590   1.716  0.2755 -0.3294 -1.0763
 8439SOL    HW236777   3.342   3.572   1.692  0.9170 -1.2430  0.4218
 8440SOL     OW36778   4.622   0.141   7.874 -0.0481  0.3079  0.2414
 8440SOL    HW136779   4.575   0.224   7.866 -2.2236 -0.7765  2.0172
 8440SOL    HW236780   4.681   0.149   7.799 -0.8397  2.4299 -0.1702
 8441SOL     OW36781   1.816   3.821   0.568 -0.1362  0.0749  0.2606
 8441SOL    HW136782   1.867   3.793   0.491  0.2692  0.7637  0.2853
 8441SOL    HW236783   1.861   3.779   0.641  0.2824  0.7178  0.3734
 8442SOL     OW36784   0.438   1.421   5.105  0.2693 -0.7072  0.0746
 8442SOL    HW136785   0.486   1.392   5.183 -0.9762 -0.9382  0.7475
 8442SOL    HW236786   0.466   1.354   5.042 -1.0488 -0.2571 -0.9722
 8443SOL     OW36787   3.891   0.571   4.232  0.1392  0.6844 -0.6269
 8443SOL    HW136788   3.861   0.483   4.253  0.7561  0.9467  1.4221
 8443SOL    HW236789   3.812   0.623   4.247 -0.0067  0.1911  0.3241
 8444SOL     OW36790   2.968   0.634   2.930  0.0828  0.3183 -0.2080
 8444SOL    HW136791   2.910   0.672   2.864 -1.2894  0.1918  0.9115
 8444SOL    HW236792   2.997   0.546   2.906  1.6797  0.8620 -0.2776
 8445SOL     OW36793   0.106   3.972   7.706 -0.0208  0.8257  0.5108
 8445SOL    HW136794   0.066   3.954   7.791 -1.8294 -1.9890 -0.9359
 8445SOL    HW236795   0.121   3.890   7.659 -0.1249  0.9365  0.2838
 8446SOL     OW36796   1.366   1.136  17.131 -0.1584 -0.1034 -0.5280
 8446SOL    HW136797   1.281   1.152  17.090 -1.1405 -0.5480  1.2938
 8446SOL    HW236798   1.406   1.222  17.119  0.8146 -0.0836  2.7081
 8447SOL     OW36799   1.262   3.083  14.500  0.5182 -0.4021 -0.4456
 8447SOL    HW136800   1.237   3.059  14.589 -0.2552  2.5339  0.1031
 8447SOL    HW236801   1.312   3.161  14.523  0.6547  0.0208 -2.2276
 8448SOL     OW36802   0.069   3.537   6.871  0.0232 -0.2775  0.0023
 8448SOL    HW136803   0.071   3.461   6.814  0.4258  0.1791 -0.5918
 8448SOL    HW236804   4.703   3.564   6.853 -0.3761 -1.4023  0.2803
 8449SOL     OW36805   1.147   0.262   5.159 -0.3870  0.3951 -0.5679
 8449SOL    HW136806   1.112   0.180   5.192 -0.2374  0.6897  0.3249
 8449SOL    HW236807   1.189   0.233   5.078 -2.3197  0.8538 -1.7382
 8450SOL     OW36808   1.251   2.655  13.784 -1.1359 -0.2675  0.5668
 8450SOL    HW136809   1.172   2.619  13.823 -2.3840 -0.1446 -1.7972
 8450SOL    HW236810   1.271   2.588  13.718 -0.6785  0.5737 -0.1567
 8451SOL     OW36811   3.593   2.742   5.396  0.3911 -0.1799  0.2761
 8451SOL    HW136812   3.506   2.782   5.394 -0.2642 -1.7349 -2.0877
 8451SOL    HW236813   3.574   2.670   5.336  2.7247 -1.4639  1.1093
 8452SOL     OW36814   4.451   2.778  15.229  0.5628  0.1695  0.0299
 8452SOL    HW136815   4.382   2.731  15.277 -0.0357  0.7367 -0.2742
 8452SOL    HW236816   4.487   2.824  15.304  1.1109  0.6050 -0.5000
 8453SOL     OW36817   1.884   0.145  15.371  0.2944 -0.5773  0.1991
 8453SOL    HW136818   1.933   0.071  15.334 -1.3515 -1.1523 -0.8337
 8453SOL    HW236819   1.841   0.108  15.448 -1.5272  1.8424  0.3071
 8454SOL     OW36820   2.501   3.824  12.775 -0.1949 -0.2596 -0.2165
 8454SOL    HW136821   2.469   3.899  12.826 -3.3250  0.1244 -2.7019
 8454SOL    HW236822   2.489   3.850  12.684  0.1063 -0.0110 -0.1861
 8455SOL     OW36823   2.736   3.335  12.945  0.0276 -0.5693 -0.1105
 8455SOL    HW136824   2.748   3.411  12.888  1.8818 -0.3746  0.5313
 8455SOL    HW236825   2.735   3.376  13.032  0.5932  0.7994 -0.7480
 8456SOL     OW36826   1.936   4.601   7.957 -0.0134  0.5251 -0.0159
 8456SOL    HW136827   1.903   4.528   8.009 -1.4787 -0.9434 -3.0248
 8456SOL    HW236828   1.857   4.644   7.923  0.4293  1.7554  0.5108
 8457SOL     OW36829   1.817   2.227   6.061  0.0078 -0.3090  0.1814
 8457SOL    HW136830   1.765   2.168   6.006  0.0598 -0.2309  0.0471
 8457SOL    HW236831   1.782   2.202   6.146 -0.9361 -0.1099 -0.1530
 8458SOL     OW36832   2.935   2.242  15.795  0.0038 -0.2257  0.4582
 8458SOL    HW136833   3.021   2.270  15.764  0.0614 -1.3923 -0.4218
 8458SOL    HW236834   2.929   2.162  15.743  0.7915 -0.2799  0.4592
 8459SOL     OW36835   0.433   1.809   4.192  0.1627 -0.4938  0.1981
 8459SOL    HW136836   0.504   1.751   4.217  1.1863  1.0129  0.8108
 8459SOL    HW236837   0.442   1.877   4.259 -3.0394  1.1437 -1.0301
 8460SOL     OW36838   1.957   3.878   7.538  0.1716 -0.7025  0.0850
 8460SOL    HW136839   2.015   3.954   7.546 -0.3983 -0.5254  2.5340
 8460SOL    HW236840   2.005   3.819   7.481 -0.1360 -0.0463 -0.8448
 8461SOL     OW36841   4.173   0.919   4.440  0.9343  0.4858 -0.0901
 8461SOL    HW136842   4.088   0.956   4.421  1.1107 -0.3367 -2.4331
 8461SOL    HW236843   4.162   0.857   4.369  0.2930 -1.3503  1.6128
 8462SOL     OW36844   2.118   3.521   5.273 -0.4061  0.4641  0.3300
 8462SOL    HW136845   2.023   3.511   5.283 -0.9672  3.1431 -2.4197
 8462SOL    HW236846   2.147   3.476   5.353 -2.5113 -0.5606  0.5239
 8463SOL     OW36847   1.853   3.491   7.127  0.2476 -0.5956  0.5277
 8463SOL    HW136848   1.938   3.491   7.084 -0.6391 -0.7302 -1.2127
 8463SOL    HW236849   1.849   3.397   7.146  0.1668 -1.0143 -1.5160
 8464SOL     OW36850   3.600   3.392  13.155  0.1655  0.2787  0.3207
 8464SOL    HW136851   3.555   3.324  13.105 -0.9256  1.2251  0.0093
 8464SOL    HW236852   3.544   3.469  13.146 -2.0982 -1.4103  0.1321
 8465SOL     OW36853   3.691   2.157   2.257 -0.1826  0.0479 -0.3967
 8465SOL    HW136854   3.634   2.231   2.235  0.5880  0.5358 -0.7434
 8465SOL    HW236855   3.743   2.202   2.323  0.5439  0.5937 -1.3407
 8466SOL     OW36856   0.645   2.425  13.890 -0.6152  0.4973 -0.5261
 8466SOL    HW136857   0.681   2.455  13.973 -0.4244 -1.1546 -0.0101
 8466SOL    HW236858   0.706   2.471  13.833  3.3152 -3.8279  0.2024
 8467SOL     OW36859   4.359   1.528   7.894  0.1377 -0.7136 -0.1726
 8467SOL    HW136860   4.440   1.576   7.874 -0.1323  0.1590  0.8519
 8467SOL    HW236861   4.308   1.549   7.815 -0.7932 -1.2920  0.2737
 8468SOL     OW36862   0.867   2.973   6.491  0.3490 -0.0006 -0.1433
 8468SOL    HW136863   0.956   3.006   6.501  1.7569 -4.0558  0.8865
 8468SOL    HW236864   0.830   3.050   6.447  0.0771 -0.2851 -0.4211
 8469SOL     OW36865   4.664   3.169   3.022 -0.9116  0.4568 -0.2315
 8469SOL    HW136866   4.722   3.238   2.989 -0.1350  0.6314  1.4716
 8469SOL    HW236867   4.581   3.188   2.979 -2.0078 -2.8650  0.4408
 8470SOL     OW36868   1.123   2.752  15.327  0.1735  0.4725  0.0625
 8470SOL    HW136869   1.110   2.842  15.359 -0.4880 -0.4566  2.4190
 8470SOL    HW236870   1.093   2.700  15.402  2.9536 -1.0759  0.0828
 8471SOL     OW36871   3.907   1.742   8.109 -0.8027 -0.1381  0.5842
 8471SOL    HW136872   3.972   1.716   8.175  1.3641 -1.1116 -1.9550
 8471SOL    HW236873   3.944   1.701   8.031 -0.9367  1.2471 -0.1925
 8472SOL     OW36874   2.653   3.980   8.317  0.0910 -0.4076 -0.3957
 8472SOL    HW136875   2.707   3.907   8.286  1.8303  0.8103 -0.2307
 8472SOL    HW236876   2.568   3.947   8.287 -0.3861  0.8610 -0.4272
 8473SOL     OW36877   1.802   0.005  15.593  0.3886 -0.1886  0.4789
 8473SOL    HW136878   1.812   0.049  15.677  2.2255 -0.5156  0.4291
 8473SOL    HW236879   1.736   4.668  15.626  2.6497 -2.6555  0.4668
 8474SOL     OW36880   3.824   0.621   3.750  0.2931 -0.4242 -0.1153
 8474SOL    HW136881   3.786   0.705   3.775  2.2875  0.5638 -0.3640
 8474SOL    HW236882   3.812   0.616   3.655 -2.7222  0.1901  0.2488
 8475SOL     OW36883   1.559   0.887   8.334  0.1589  0.3828  0.0396
 8475SOL    HW136884   1.506   0.964   8.354  0.9061  1.0069 -0.3780
 8475SOL    HW236885   1.600   0.882   8.421  1.1827 -1.9251 -0.5919
 8476SOL     OW36886   1.477   0.235   1.680 -0.4557  0.2683 -0.2080
 8476SOL    HW136887   1.447   0.326   1.676 -1.0534  0.1041  0.7012
 8476SOL    HW236888   1.485   0.224   1.585 -2.5896 -2.0455 -0.1143
 8477SOL     OW36889   0.753   1.747   5.332  0.7032 -0.1552  0.1505
 8477SOL    HW136890   0.715   1.796   5.259 -0.1293 -1.6901 -0.4388
 8477SOL    HW236891   0.712   1.661   5.322  1.7278 -0.2224 -3.3054
 8478SOL     OW36892   3.392   4.647  14.814 -0.1456 -0.1674 -0.1395
 8478SOL    HW136893   3.479   4.653  14.853  0.8373  0.6149 -2.4081
 8478SOL    HW236894   3.400   4.677  14.723 -0.6697  1.5320  0.3695
 8479SOL     OW36895   3.990   0.518   1.870 -0.1797  0.4363  0.5604
 8479SOL    HW136896   3.956   0.549   1.954  0.7076  2.2754  0.2371
 8479SOL    HW236897   4.038   0.440   1.898 -1.9672 -0.5235  0.9465
 8480SOL     OW36898   4.088   2.897   4.121  0.7289 -0.6463  0.2435
 8480SOL    HW136899   4.020   2.933   4.064  1.4029 -1.7822 -1.3007
 8480SOL    HW236900   4.152   2.968   4.131 -1.2546  0.7313  3.2447
 8481SOL     OW36901   3.295   3.785  13.947  0.4890 -0.1868 -0.9277
 8481SOL    HW136902   3.215   3.838  13.944  0.1179 -0.6709  0.2725
 8481SOL    HW236903   3.260   3.697  13.963 -0.7225  0.6230  0.9506
 8482SOL     OW36904   2.371   3.539   2.583  0.4191  0.5546 -0.7675
 8482SOL    HW136905   2.422   3.461   2.604 -2.0460 -0.7798  0.2178
 8482SOL    HW236906   2.444   3.598   2.564 -0.8614  3.0303  2.0709
 8483SOL     OW36907   2.330   1.143   7.760 -0.0758 -0.1874 -0.3617
 8483SOL    HW136908   2.387   1.194   7.817  0.2648 -2.4420  1.3180
 8483SOL    HW236909   2.244   1.151   7.801 -1.1281  0.0450 -2.5915
 8484SOL     OW36910   0.888   1.698  14.113  0.3658  0.1008 -0.3476
 8484SOL    HW136911   0.935   1.734  14.038  0.9298  0.7396  0.3082
 8484SOL    HW236912   0.944   1.622  14.127 -1.7198 -1.1867  1.0893
 8485SOL     OW36913   3.983   1.387   6.920 -0.0818  0.3619  0.8772
 8485SOL    HW136914   3.906   1.374   6.974 -2.1030 -0.1779 -2.1622
 8485SOL    HW236915   3.940   1.403   6.836 -1.0874 -2.5148  0.8541
 8486SOL     OW36916   2.036   2.530   9.884  0.1193 -0.0267 -0.0005
 8486SOL    HW136917   2.062   2.599   9.823  1.8046  0.4016  1.2142
 8486SOL    HW236918   2.034   2.450   9.832 -0.2057 -0.0740  0.0843
 8487SOL     OW36919   0.445   3.286   1.105 -0.0445  0.1962 -0.0815
 8487SOL    HW136920   0.512   3.284   1.037 -1.0639 -0.3262 -1.0529
 8487SOL    HW236921   0.387   3.219   1.069  1.1322 -1.3511  0.9067
 8488SOL     OW36922   3.223   2.389  17.294  0.7131 -0.2904  0.3211
 8488SOL    HW136923   3.142   2.348  17.322  1.0420 -1.6844 -0.7879
 8488SOL    HW236924   3.189   2.478  17.293  4.7575  1.2625 -0.1317
 8489SOL     OW36925   2.533   3.100  10.303  0.0253 -0.2447  0.3583
 8489SOL    HW136926   2.507   3.009  10.317 -2.1277  0.2998 -0.1221
 8489SOL    HW236927   2.499   3.145  10.381  2.9611  0.2978  1.3393
 8490SOL     OW36928   0.219   3.563   5.104  0.0453  0.0759  0.5160
 8490SOL    HW136929   0.183   3.474   5.107 -1.3150  0.6270  0.5227
 8490SOL    HW236930   0.169   3.589   5.026  0.4272 -0.9141 -0.0640
 8491SOL     OW36931   4.608   1.662  16.121 -0.0218  0.4776  0.7404
 8491SOL    HW136932   4.591   1.628  16.210 -1.5731 -3.1967 -0.9526
 8491SOL    HW236933   4.535   1.622  16.074 -0.7039  1.2401  1.1487
 8492SOL     OW36934   1.997   2.816   9.402 -0.6249  0.0698 -0.0931
 8492SOL    HW136935   1.935   2.778   9.340  1.8684 -0.5922 -2.1870
 8492SOL    HW236936   1.934   2.832   9.473 -1.2453 -2.2563 -0.1243
 8493SOL     OW36937   4.440   3.271   2.039  0.5176 -0.2709 -0.3837
 8493SOL    HW136938   4.507   3.212   2.006 -0.2649 -1.5514  0.3215
 8493SOL    HW236939   4.456   3.362   2.013  0.5031 -0.3108 -0.5292
 8494SOL     OW36940   1.719   0.816   1.002  0.2920  0.2269 -0.2083
 8494SOL    HW136941   1.690   0.730   1.031 -0.5696  0.7133  0.3796
 8494SOL    HW236942   1.792   0.799   0.943  0.2853  0.7577 -0.3670
 8495SOL     OW36943   4.055   0.379   8.455  0.5031 -0.0979  0.3387
 8495SOL    HW136944   4.140   0.412   8.483 -0.2447 -0.1914  2.6738
 8495SOL    HW236945   4.014   0.465   8.448  0.2803 -0.1869  0.5405
 8496SOL     OW36946   0.166   4.107  16.322 -0.2618 -0.4576 -0.1790
 8496SOL    HW136947   0.237   4.105  16.385 -1.3506  0.2170  1.0697
 8496SOL    HW236948   0.216   4.119  16.241 -1.6050 -1.0456 -1.1058
 8497SOL     OW36949   1.424   1.919   1.740 -0.3355 -0.3346 -0.1835
 8497SOL    HW136950   1.403   1.849   1.678  1.7660 -1.6704  0.6238
 8497SOL    HW236951   1.337   1.930   1.780 -0.1529  3.9269 -1.0057
 8498SOL     OW36952   4.271   2.794   3.945 -0.2584 -0.0673 -0.0307
 8498SOL    HW136953   4.196   2.814   3.999  1.3753  1.9172  1.4945
 8498SOL    HW236954   4.232   2.739   3.877 -1.7370  0.3708  0.4775
 8499SOL     OW36955   0.636   0.484   9.275 -0.3194 -0.5799  0.3545
 8499SOL    HW136956   0.679   0.427   9.211  2.1079  0.8203  0.7565
 8499SOL    HW236957   0.704   0.521   9.331 -0.8831  2.6305 -1.0631
 8500SOL     OW36958   1.026   1.271  12.000  0.0382 -0.2168  0.2517
 8500SOL    HW136959   1.108   1.313  11.976 -0.2701  1.3524  1.9562
 8500SOL    HW236960   0.974   1.304  11.926  0.5260  2.9875  1.3263
 8501SOL     OW36961   0.642   0.791  13.744  0.0171  0.2606  0.4610
 8501SOL    HW136962   0.547   0.780  13.748 -0.0920  0.6874 -1.2121
 8501SOL    HW236963   0.642   0.864  13.684  0.2796 -0.2131 -0.1144
 8502SOL     OW36964   2.260   1.712   0.386  0.3150  0.5965  0.2933
 8502SOL    HW136965   2.192   1.770   0.418  2.4975  3.5399 -0.4276
 8502SOL    HW236966   2.332   1.715   0.449  1.5426 -0.5460 -1.0394
 8503SOL     OW36967   3.795   3.556   6.364  0.5846 -0.3854 -0.2117
 8503SOL    HW136968   3.823   3.495   6.296 -3.3016 -1.9392 -0.3768
 8503SOL    HW236969   3.800   3.647   6.333  1.8697 -0.0039  1.0674
 8504SOL     OW36970   3.254   3.525   8.126 -0.1748  0.3591 -0.3824
 8504SOL    HW136971   3.320   3.486   8.183 -2.8508 -1.7772  1.2676
 8504SOL    HW236972   3.306   3.564   8.056  1.0390  2.2298  1.5887
 8505SOL     OW36973   3.036   1.398   2.938 -0.0540 -0.2040 -0.5973
 8505SOL    HW136974   3.083   1.319   2.965  1.1758  1.7740  3.0191
 8505SOL    HW236975   3.097   1.466   2.910 -0.6771  1.6179  2.4751
 8506SOL     OW36976   3.617   2.136   7.103 -0.1699  0.1932  0.2135
 8506SOL    HW136977   3.672   2.104   7.032  2.3695  3.5690  0.6834
 8506SOL    HW236978   3.623   2.071   7.173 -0.1472 -0.6339 -0.5669
 8507SOL     OW36979   2.820   2.910  14.153  0.0338  0.1762  0.3719
 8507SOL    HW136980   2.796   2.966  14.227  1.7910 -0.2118  1.2308
 8507SOL    HW236981   2.837   2.823  14.191  0.6410  0.6843  1.2593
 8508SOL     OW36982   1.738   2.890   6.637  0.2532 -0.3361  0.3409
 8508SOL    HW136983   1.666   2.847   6.683 -1.9100 -0.2803 -2.9377
 8508SOL    HW236984   1.706   2.871   6.549  0.1922  0.7402  0.1310
 8509SOL     OW36985   2.068   1.551   2.297  0.3792 -0.1056  0.1595
 8509SOL    HW136986   2.135   1.607   2.258  0.1675  0.6232  0.8329
 8509SOL    HW236987   2.070   1.572   2.391 -0.3344 -1.8028  0.5416
 8510SOL     OW36988   1.580   2.292   6.249  0.2463  0.1471 -0.6197
 8510SOL    HW136989   1.553   2.368   6.301  2.0736  0.6342 -0.3835
 8510SOL    HW236990   1.550   2.300   6.159  0.9037  3.2276 -0.5454
 8511SOL     OW36991   4.477   1.249   7.671 -0.2860 -0.5500  1.1118
 8511SOL    HW136992   4.485   1.204   7.587 -0.8215  2.1739 -0.4008
 8511SOL    HW236993   4.492   1.337   7.637 -3.1265  0.2149  1.8954
 8512SOL     OW36994   0.287   1.650   8.137  0.1736 -0.3503 -0.3674
 8512SOL    HW136995   0.337   1.640   8.218 -1.4161 -1.3267  0.5092
 8512SOL    HW236996   0.354   1.684   8.077  0.0948 -1.3087 -0.9855
 8513SOL     OW36997   3.214   3.534  14.001 -0.0879 -0.1933  0.7990
 8513SOL    HW136998   3.139   3.476  14.011  0.8263 -1.6544 -0.8592
 8513SOL    HW236999   3.225   3.569  14.090  0.8615 -1.8476  1.3302
 8514SOL     OW37000   0.598   2.912   5.584 -0.7473  0.4768 -0.1369
 8514SOL    HW137001   0.686   2.948   5.568  0.1898 -1.3323  0.9502
 8514SOL    HW237002   0.623   2.822   5.605  0.1065  0.4510 -1.2631
 8515SOL     OW37003   4.097   0.707   2.955  0.2961  0.1969  0.0674
 8515SOL    HW137004   4.180   0.692   2.909  1.0765  1.9507  0.9232
 8515SOL    HW237005   4.107   0.666   3.041  1.9911  0.6000  0.0511
 8516SOL     OW37006   3.574   3.636   7.278  0.1689 -0.5760 -0.4599
 8516SOL    HW137007   3.556   3.546   7.249 -1.2717 -0.5264  0.2567
 8516SOL    HW237008   3.648   3.612   7.332 -0.0186  0.7830  0.3921
 8517SOL     OW37009   2.613   0.843   9.381  0.4897  0.0239  0.0308
 8517SOL    HW137010   2.633   0.923   9.430 -0.9827  0.6012 -0.3019
 8517SOL    HW237011   2.535   0.873   9.334  0.8219 -2.5891 -2.1929
 8518SOL     OW37012   4.307   3.362   6.849 -0.3399  0.7109 -0.2961
 8518SOL    HW137013   4.394   3.395   6.872  0.2363 -0.4287 -0.8442
 8518SOL    HW237014   4.332   3.273   6.825 -1.7973  0.7878 -2.1642
 8519SOL     OW37015   3.994   0.256  13.111 -0.3457 -0.1922  0.3134
 8519SOL    HW137016   4.061   0.197  13.075 -0.0063  0.4931 -0.1603
 8519SOL    HW237017   4.053   0.291  13.178  1.0234  1.2393 -1.6344
 8520SOL     OW37018   4.293   4.030   7.986  0.1961 -0.3533 -0.6903
 8520SOL    HW137019   4.217   4.086   8.000 -0.8275 -1.7945 -0.5016
 8520SOL    HW237020   4.351   4.093   7.943 -0.6083  0.5595 -0.4074
 8521SOL     OW37021   1.967   2.346  12.578 -0.0997  0.0732  0.9975
 8521SOL    HW137022   1.967   2.317  12.669 -0.6593  2.9998  1.9412
 8521SOL    HW237023   2.057   2.369  12.556 -0.2705  0.0623  0.2909
 8522SOL     OW37024   3.603   4.470   5.596  0.1627 -0.3339 -0.5614
 8522SOL    HW137025   3.526   4.516   5.561 -0.1624 -1.1001 -0.8555
 8522SOL    HW237026   3.610   4.410   5.522 -0.2648 -2.1325  0.8580
 8523SOL     OW37027   3.797   2.017   6.937  0.1343 -0.1215 -0.1305
 8523SOL    HW137028   3.877   2.036   6.888 -0.6588 -2.7167 -2.4552
 8523SOL    HW237029   3.791   1.922   6.925 -1.1723 -0.0118 -0.3615
 8524SOL     OW37030   2.888   0.693   5.126  0.6093 -0.0857 -0.2159
 8524SOL    HW137031   2.862   0.623   5.186 -0.6504  1.2210  0.7571
 8524SOL    HW237032   2.959   0.708   5.189 -0.2243  1.4403  0.3534
 8525SOL     OW37033   4.397   3.474   9.044 -0.3993 -1.0306  0.0820
 8525SOL    HW137034   4.433   3.444   9.127  3.0709  3.8090  0.3070
 8525SOL    HW237035   4.478   3.489   8.995 -0.7227 -1.8432 -0.7021
 8526SOL     OW37036   2.841   3.898  14.203 -0.1095 -0.2669  0.2817
 8526SOL    HW137037   2.878   3.943  14.279  2.9210 -0.2102 -1.2166
 8526SOL    HW237038   2.758   3.946  14.201  0.8087  1.3675  1.6203
 8527SOL     OW37039   3.845   1.336   4.335 -0.4078 -0.2352  0.0540
 8527SOL    HW137040   3.872   1.250   4.368  1.5797  0.2125 -0.4018
 8527SOL    HW237041   3.927   1.384   4.328 -0.7953  0.2220 -1.3666
 8528SOL     OW37042   0.320   1.012   5.617  0.7340 -0.2362  0.4302
 8528SOL    HW137043   0.346   0.960   5.541  0.4788 -0.4339  0.4771
 8528SOL    HW237044   0.273   0.940   5.659 -1.5152  0.4635 -0.9122
 8529SOL     OW37045   1.473   3.598   3.855  0.4576  0.3806 -0.1732
 8529SOL    HW137046   1.383   3.618   3.880  0.2271 -0.8633 -0.0109
 8529SOL    HW237047   1.495   3.665   3.790 -1.0751  0.0722 -1.0132
 8530SOL     OW37048   1.671   1.455  15.206 -0.1453  0.7506  0.1526
 8530SOL    HW137049   1.611   1.381  15.214  0.1694  0.5852  0.9562
 8530SOL    HW237050   1.704   1.456  15.116  0.8426  1.7916  0.5132
 8531SOL     OW37051   0.389   2.798   4.422 -0.0831 -0.5599  0.2511
 8531SOL    HW137052   0.304   2.839   4.403 -0.4917 -2.5327 -2.2067
 8531SOL    HW237053   0.448   2.870   4.445  0.5646 -0.7174 -0.9318
 8532SOL     OW37054   1.256   0.751   8.027  0.0396  0.1108  0.1939
 8532SOL    HW137055   1.282   0.661   8.046  2.2430 -0.1415 -4.0394
 8532SOL    HW237056   1.242   0.737   7.934  2.5447 -1.5115  0.0521
 8533SOL     OW37057   0.097   4.022   3.783  0.5858 -0.2282  0.0049
 8533SOL    HW137058   0.075   4.102   3.735 -3.2652 -1.8059 -0.8243
 8533SOL    HW237059   0.118   4.068   3.864 -0.8940  0.6945 -0.1375
 8534SOL     OW37060   1.523   0.868   7.780 -0.2017 -0.5750  0.6083
 8534SOL    HW137061   1.439   0.909   7.801 -0.2305  0.8572 -2.3576
 8534SOL    HW237062   1.537   0.816   7.859  0.9957  0.0876  0.8285
 8535SOL     OW37063   2.218   1.916   7.449 -0.6884 -0.0635 -0.1454
 8535SOL    HW137064   2.156   1.843   7.447 -1.6914  0.7606  0.2613
 8535SOL    HW237065   2.259   1.899   7.534  2.3047 -0.3069 -1.6568
 8536SOL     OW37066   1.438   2.730  14.986  0.1057  0.0901  0.1467
 8536SOL    HW137067   1.347   2.707  15.000 -0.0957 -0.4231 -2.0554
 8536SOL    HW237068   1.441   2.715  14.891  0.3989  1.0818  0.0006
 8537SOL     OW37069   1.219   2.415   9.909 -0.0861  0.5045  0.6436
 8537SOL    HW137070   1.307   2.451   9.919  0.2041  0.7461 -2.6191
 8537SOL    HW237071   1.224   2.338   9.964 -3.0942  1.9813  2.9800
 8538SOL     OW37072   1.555   1.790   4.314 -0.7468 -0.5811  0.3438
 8538SOL    HW137073   1.499   1.866   4.298 -0.1367 -0.3752 -0.7618
 8538SOL    HW237074   1.590   1.811   4.401 -0.3175 -0.9744  0.2625
 8539SOL     OW37075   0.787   3.448   2.025 -0.0914  0.1092 -0.1292
 8539SOL    HW137076   0.718   3.418   2.084 -0.3659 -0.7181 -0.8679
 8539SOL    HW237077   0.795   3.376   1.962 -1.0329  0.5115 -0.7046
 8540SOL     OW37078   2.881   2.163  15.222  0.1965  0.3874 -0.1196
 8540SOL    HW137079   2.917   2.096  15.164  0.2226 -0.9073  1.3944
 8540SOL    HW237080   2.792   2.170  15.189  0.1558  0.0388 -0.0777
 8541SOL     OW37081   0.393   2.410   6.555  0.1279 -0.4935 -0.3148
 8541SOL    HW137082   0.394   2.497   6.516 -3.4540  1.2588  3.6395
 8541SOL    HW237083   0.299   2.397   6.568 -0.0625  1.5684  0.2680
 8542SOL     OW37084   0.894   3.361   2.680 -0.3722  0.4443 -0.3233
 8542SOL    HW137085   0.906   3.348   2.585  0.6372 -1.8393  0.1008
 8542SOL    HW237086   0.981   3.380   2.713 -0.4565 -1.0918  0.7821
 8543SOL     OW37087   1.561   1.028   6.395  0.0895  0.5094 -0.0171
 8543SOL    HW137088   1.489   0.965   6.389 -0.3118  0.8904  0.7891
 8543SOL    HW237089   1.535   1.093   6.330 -0.1954 -0.4896 -0.9010
 8544SOL     OW37090   0.435   4.086   7.480 -0.5135  0.4086  0.8225
 8544SOL    HW137091   0.343   4.064   7.486 -0.3710  0.8153  4.3937
 8544SOL    HW237092   0.476   4.003   7.505 -0.5808  0.1261 -0.0304
 8545SOL     OW37093   2.261   2.541   2.251 -0.2910 -0.2066  0.2003
 8545SOL    HW137094   2.189   2.492   2.210 -2.0251  1.2830  1.4661
 8545SOL    HW237095   2.227   2.562   2.338 -0.0932  0.1045  0.2028
 8546SOL     OW37096   4.636   4.256   2.946 -0.2776 -0.4820 -0.1194
 8546SOL    HW137097   4.723   4.216   2.949 -0.8213 -1.6536  0.0920
 8546SOL    HW237098   4.608   4.267   3.037  2.5484 -0.0426  0.7179
 8547SOL     OW37099   3.574   4.107   8.825 -0.0935 -0.3077 -0.0404
 8547SOL    HW137100   3.527   4.118   8.742 -2.2905 -0.1206  1.2411
 8547SOL    HW237101   3.509   4.146   8.883  0.4408 -0.3564  0.5889
 8548SOL     OW37102   0.855   1.008   4.238 -0.0054  0.4780 -0.1945
 8548SOL    HW137103   0.889   0.919   4.245  0.0890  0.5695  0.5360
 8548SOL    HW237104   0.917   1.058   4.291 -1.7924 -0.2104  2.5732
 8549SOL     OW37105   3.385   0.110   5.397 -0.6135  0.2798  0.4593
 8549SOL    HW137106   3.324   0.124   5.325  0.0690  0.5719 -0.0635
 8549SOL    HW237107   3.426   0.196   5.388 -0.8565  0.1822 -1.3953
 8550SOL     OW37108   2.206   4.385   2.229 -0.3174 -0.0854 -0.1538
 8550SOL    HW137109   2.204   4.442   2.152 -0.0523  1.2299  0.7976
 8550SOL    HW237110   2.111   4.381   2.243 -0.1411 -1.0991  0.7516
 8551SOL     OW37111   3.320   1.314   3.597  0.1221  0.3019 -0.1482
 8551SOL    HW137112   3.298   1.223   3.578 -2.4623  1.0429 -0.6776
 8551SOL    HW237113   3.295   1.329   3.689 -1.9716 -2.5340 -0.2284
 8552SOL     OW37114   0.410   3.044   2.382  1.1354 -0.0595  0.1292
 8552SOL    HW137115   0.434   2.955   2.355 -1.2741 -0.2972 -1.2789
 8552SOL    HW237116   0.408   3.029   2.476 -0.9598  0.4702  0.1812
 8553SOL     OW37117   3.965   2.364   2.915 -0.2506 -0.3567  0.2891
 8553SOL    HW137118   3.873   2.385   2.903 -0.2838  0.3649  1.7930
 8553SOL    HW237119   3.963   2.332   3.005 -1.7798  0.2198  0.4476
 8554SOL     OW37120   2.029   3.595  12.149  0.0560  0.4393  0.7502
 8554SOL    HW137121   2.083   3.529  12.107  1.7596  1.6698  1.0072
 8554SOL    HW237122   1.975   3.541  12.207 -0.0563 -1.3580 -1.0360
 8555SOL     OW37123   1.433   3.934   2.480 -0.6757 -0.0408  0.5510
 8555SOL    HW137124   1.425   4.018   2.434 -0.7274 -0.7818 -0.7934
 8555SOL    HW237125   1.382   3.956   2.558 -0.6357  1.2949  0.2095
 8556SOL     OW37126   0.924   1.415  16.778 -0.4195  0.0436 -0.4222
 8556SOL    HW137127   0.838   1.452  16.757 -1.3345 -1.3817  0.8177
 8556SOL    HW237128   0.910   1.396  16.870 -2.3933  0.3642 -0.6597
 8557SOL     OW37129   4.335   1.043   1.064  0.7397 -0.3245 -0.0586
 8557SOL    HW137130   4.422   1.047   1.024  2.3927  2.5542  3.8305
 8557SOL    HW237131   4.364   1.027   1.154  1.1480 -2.8100 -0.6524
 8558SOL     OW37132   3.637   0.726  17.025  0.9754 -0.0446 -0.7715
 8558SOL    HW137133   3.667   0.663  17.090 -0.6367 -0.1439 -0.1160
 8558SOL    HW237134   3.567   0.668  16.992  2.0431 -1.6454 -0.2196
 8559SOL     OW37135   2.974   3.316  10.154  0.3077 -0.6694  0.0713
 8559SOL    HW137136   2.963   3.367  10.074 -0.3267 -0.9468 -0.0147
 8559SOL    HW237137   2.909   3.246  10.156 -1.0800  0.5653 -1.3207
 8560SOL     OW37138   3.722   4.091   4.129 -0.6438 -0.4170  0.0473
 8560SOL    HW137139   3.802   4.110   4.178  0.4357 -2.2234 -0.9761
 8560SOL    HW237140   3.669   4.162   4.164  0.0389 -0.5810  1.4281
 8561SOL     OW37141   1.621   0.608   1.486 -0.4575 -0.0381  0.0829
 8561SOL    HW137142   1.589   0.698   1.485 -2.0258 -0.5995  0.8266
 8561SOL    HW237143   1.683   0.611   1.559 -0.4694 -1.0174  0.1316
 8562SOL     OW37144   0.504   1.976   8.030 -0.0985  0.3899 -0.1285
 8562SOL    HW137145   0.448   2.005   7.959 -1.0560 -0.4289  0.2941
 8562SOL    HW237146   0.440   1.975   8.101 -1.5387  0.6677 -1.4236
 8563SOL     OW37147   2.189   2.344   8.695 -0.4565  0.0380  0.3514
 8563SOL    HW137148   2.244   2.394   8.635 -0.8406 -0.6855 -0.5859
 8563SOL    HW237149   2.258   2.299   8.744  0.2469  0.2090 -0.4811
 8564SOL     OW37150   1.613   1.378  16.568  0.3904 -0.4614 -0.0391
 8564SOL    HW137151   1.625   1.467  16.537 -1.7869  1.0635  3.4588
 8564SOL    HW237152   1.626   1.385  16.663 -0.3049 -0.2267  0.0394
 8565SOL     OW37153   4.006   1.449   3.969  0.3088  0.4062  0.1433
 8565SOL    HW137154   3.958   1.525   3.935 -1.0804 -0.2694  0.5780
 8565SOL    HW237155   3.984   1.460   4.062 -0.2208  1.6859 -0.1255
 8566SOL     OW37156   3.405   1.086   1.757 -0.0025 -0.3882 -0.0856
 8566SOL    HW137157   3.369   1.015   1.810 -0.5623  0.5345  0.7577
 8566SOL    HW237158   3.395   1.052   1.668  0.7497  0.7441 -0.6055
 8567SOL     OW37159   2.569   3.202   8.534  0.4084  0.5897 -0.2215
 8567SOL    HW137160   2.557   3.111   8.507  2.8409  0.3070 -0.3214
 8567SOL    HW237161   2.547   3.248   8.453 -0.5977  0.4641 -0.0207
 8568SOL     OW37162   3.548   1.447   3.593 -0.1719  0.0808  0.5735
 8568SOL    HW137163   3.479   1.382   3.600 -0.4864  0.5407  1.8930
 8568SOL    HW237164   3.573   1.434   3.502 -0.1416  3.2378  0.1166
 8569SOL     OW37165   2.025   4.041   5.656 -0.4462  0.7193 -0.4813
 8569SOL    HW137166   2.026   4.133   5.684  2.1811  0.4706  0.2790
 8569SOL    HW237167   1.941   4.014   5.693 -0.0158 -2.0853 -1.5384
 8570SOL     OW37168   1.085   0.444   7.653  0.6507 -0.0633  0.2262
 8570SOL    HW137169   1.039   0.361   7.670 -0.2117  0.8813  2.5081
 8570SOL    HW237170   1.034   0.483   7.582 -1.3053 -0.2066  1.5367
 8571SOL     OW37171   3.958   2.187  10.384 -0.0849 -0.1107 -0.9050
 8571SOL    HW137172   3.942   2.274  10.349  0.5040  0.3083 -0.1448
 8571SOL    HW237173   3.914   2.184  10.469  1.7480 -3.0990 -0.0569
 8572SOL     OW37174   3.727   4.087   0.646 -0.4613  0.3043 -0.2904
 8572SOL    HW137175   3.807   4.135   0.629 -2.4645  2.5656 -3.1456
 8572SOL    HW237176   3.668   4.158   0.671 -2.2906 -1.2293 -0.1779
 8573SOL     OW37177   0.112   2.858  13.935 -0.6981 -0.1382  0.2677
 8573SOL    HW137178   0.109   2.782  13.877 -1.2024  0.2509 -0.2119
 8573SOL    HW237179   0.036   2.905  13.901 -0.8351  0.7710  1.8201
 8574SOL     OW37180   0.665   3.786   6.061  0.5715 -0.0851 -0.1448
 8574SOL    HW137181   0.679   3.862   6.003  0.3905  1.1262  1.3917
 8574SOL    HW237182   0.739   3.772   6.119  2.3516 -1.1897 -2.6607
 8575SOL     OW37183   1.941   0.529  15.107  0.0861 -0.2562 -0.2565
 8575SOL    HW137184   1.907   0.440  15.116  0.6941 -0.8520 -3.6266
 8575SOL    HW237185   1.951   0.564  15.195  2.3054  0.4862 -0.8194
 8576SOL     OW37186   4.098   1.196   8.898  0.0749  0.6743 -0.2711
 8576SOL    HW137187   4.175   1.168   8.848  0.1777 -1.3425  0.9835
 8576SOL    HW237188   4.031   1.135   8.867  0.2425 -0.0574  0.7558
 8577SOL     OW37189   2.720   1.585  11.585  0.2100 -0.4530 -0.1053
 8577SOL    HW137190   2.710   1.680  11.577 -3.5719 -0.9517 -1.3334
 8577SOL    HW237191   2.635   1.557  11.551 -0.2491 -1.3134  1.7745
 8578SOL     OW37192   0.984   4.179   2.004 -0.5616 -0.6059 -0.3271
 8578SOL    HW137193   1.012   4.090   1.986  2.4218 -0.1897  2.3155
 8578SOL    HW237194   0.901   4.180   1.956 -0.1557  1.6965 -1.0085
 8579SOL     OW37195   1.120   3.032   7.823 -0.0669 -0.6409  0.2780
 8579SOL    HW137196   1.045   3.091   7.822 -0.2360 -0.8305  1.7397
 8579SOL    HW237197   1.182   3.072   7.884 -1.3470  0.2776  0.9619
 8580SOL     OW37198   3.558   3.049   4.108  0.0657 -0.0149 -0.3655
 8580SOL    HW137199   3.553   2.963   4.150  0.9711 -1.1985 -2.6781
 8580SOL    HW237200   3.653   3.062   4.103  0.0328  0.4033  0.0747
 8581SOL     OW37201   4.342   4.515  11.011 -0.1888 -0.4252  0.2021
 8581SOL    HW137202   4.351   4.576  10.938  1.0864 -0.5665  0.2321
 8581SOL    HW237203   4.420   4.536  11.063 -1.3735  1.7520  1.0940
 8582SOL     OW37204   2.751   0.758   5.586  0.2798 -0.1080  0.8204
 8582SOL    HW137205   2.727   0.666   5.585  0.4878 -0.1505 -0.2894
 8582SOL    HW237206   2.801   0.755   5.668  0.4879 -1.8352  0.6201
 8583SOL     OW37207   3.759   4.587   6.143  0.2570  0.1162  0.4903
 8583SOL    HW137208   3.693   4.517   6.148  0.5127 -0.4755 -4.6114
 8583SOL    HW237209   3.828   4.549   6.199 -0.5969 -1.0732  0.7345
 8584SOL     OW37210   2.882   3.902   7.025  0.4619 -0.1424 -0.4049
 8584SOL    HW137211   2.876   3.902   6.930  0.4987  2.6356 -0.4187
 8584SOL    HW237212   2.858   3.993   7.040  0.6978 -0.1026 -0.2617
 8585SOL     OW37213   2.350   3.261   4.856 -0.0719  0.6142 -0.0979
 8585SOL    HW137214   2.297   3.339   4.867 -0.1177  0.4240  1.1267
 8585SOL    HW237215   2.285   3.193   4.839  0.4820 -0.3755  1.6475
 8586SOL     OW37216   0.949   3.690   3.340  0.4830  0.2693 -0.2623
 8586SOL    HW137217   1.008   3.631   3.293  3.8150  2.1059  1.6487
 8586SOL    HW237218   1.008   3.764   3.358 -1.2890  1.3876  0.9603
 8587SOL     OW37219   4.533   2.008   5.415 -0.2020 -0.3707 -0.7667
 8587SOL    HW137220   4.600   2.000   5.347 -1.0558 -1.5291 -1.4687
 8587SOL    HW237221   4.486   2.086   5.385 -1.1944 -1.5403 -2.2241
 8588SOL     OW37222   3.802   0.560   4.925  0.2070  0.6785 -0.1534
 8588SOL    HW137223   3.827   0.479   4.969 -1.6682 -1.4105 -2.9106
 8588SOL    HW237224   3.889   0.589   4.897 -0.0083 -0.4946 -2.0478
 8589SOL     OW37225   3.450   1.054   9.315  0.3405 -0.0257 -0.0973
 8589SOL    HW137226   3.468   0.985   9.379  2.4354 -0.5050 -1.2152
 8589SOL    HW237227   3.534   1.076   9.276 -0.3115  3.4684  0.4922
 8590SOL     OW37228   1.549   3.599   6.958  0.2383 -0.0543  0.4344
 8590SOL    HW137229   1.618   3.636   6.903  1.5137 -1.4120  1.1386
 8590SOL    HW237230   1.578   3.627   7.045  0.8810  0.9361 -0.0886
 8591SOL     OW37231   3.704   4.526  15.856 -0.7710 -0.4050  0.0553
 8591SOL    HW137232   3.615   4.509  15.826 -0.9092  1.7424 -0.7791
 8591SOL    HW237233   3.720   4.460  15.923 -0.3135 -2.3889 -2.0014
 8592SOL     OW37234   1.989   0.998   3.980 -0.3287 -0.1471  0.0017
 8592SOL    HW137235   2.072   0.997   3.933  0.4641 -0.5615  1.4004
 8592SOL    HW237236   1.999   1.079   4.030 -1.1753 -0.7840  1.2253
 8593SOL     OW37237   1.078   4.057   4.767  0.1381  0.5599  0.0007
 8593SOL    HW137238   1.005   3.995   4.769  1.7499 -1.3944 -0.9041
 8593SOL    HW237239   1.024   4.135   4.775 -1.9306 -0.6059 -2.3545
 8594SOL     OW37240   1.251   3.725   2.616  0.5856 -0.1721 -0.6123
 8594SOL    HW137241   1.344   3.712   2.634 -0.0945 -2.2684  1.4104
 8594SOL    HW237242   1.250   3.703   2.523 -0.4656 -1.3565 -0.3293
 8595SOL     OW37243   2.257   4.436   8.765 -0.3033 -0.2488 -0.7490
 8595SOL    HW137244   2.164   4.414   8.766 -0.9686  2.5152 -4.9185
 8595SOL    HW237245   2.272   4.407   8.856 -0.2443  0.2066 -0.6141
 8596SOL     OW37246   2.539   4.431   3.117  0.2210  0.2042  0.2215
 8596SOL    HW137247   2.576   4.402   3.201  0.4814 -0.7184 -0.2088
 8596SOL    HW237248   2.539   4.343   3.078  1.0468 -0.2177  1.1700
 8597SOL     OW37249   1.285   0.459   5.347 -0.3676 -0.1249  0.0933
 8597SOL    HW137250   1.241   0.534   5.309 -2.8360 -0.9818  1.2153
 8597SOL    HW237251   1.271   0.391   5.281  0.7812 -0.2565 -0.0113
 8598SOL     OW37252   3.623   1.877   8.406 -0.3156  0.5305  0.4454
 8598SOL    HW137253   3.711   1.892   8.372 -0.3094 -1.9769 -0.6871
 8598SOL    HW237254   3.646   1.816   8.476 -0.3179  0.9504  0.8069
 8599SOL     OW37255   4.013   4.398   4.372 -0.2630  0.1662 -0.5160
 8599SOL    HW137256   4.024   4.329   4.437  0.3462  0.4373 -0.3283
 8599SOL    HW237257   4.103   4.405   4.340  0.0652 -1.4771  0.0522
 8600SOL     OW37258   0.175   1.788   4.155 -0.6502  0.4072  0.0725
 8600SOL    HW137259   0.262   1.798   4.194 -0.3551  0.7045 -0.6689
 8600SOL    HW237260   0.211   1.761   4.070  0.6100  0.7996  0.4800
 8601SOL     OW37261   0.876   2.817   0.982 -0.0289  0.2059 -0.1414
 8601SOL    HW137262   0.791   2.782   0.956 -1.2700  1.9308  1.5189
 8601SOL    HW237263   0.851   2.877   1.052  1.9420  1.4407 -0.5047
 8602SOL     OW37264   1.063   1.202  12.619 -0.0329 -0.3222  0.0268
 8602SOL    HW137265   1.015   1.137  12.671  1.6835 -1.7387 -0.1743
 8602SOL    HW237266   1.081   1.264  12.690  1.2501  0.1510 -0.7088
 8603SOL     OW37267   1.915   0.429   3.018 -0.1043 -0.1220  0.6436
 8603SOL    HW137268   1.888   0.364   3.083  0.8524 -0.2723  0.8920
 8603SOL    HW237269   1.835   0.442   2.967 -0.5811 -1.4101  1.0708
 8604SOL     OW37270   3.021   0.451   4.949  0.2168  0.0083  0.1828
 8604SOL    HW137271   2.972   0.369   4.943  1.9466 -1.0228  0.4002
 8604SOL    HW237272   2.966   0.502   4.888  0.8606 -1.5936 -1.7259
 8605SOL     OW37273   1.576   1.638  16.031 -0.0259 -0.2706 -0.1337
 8605SOL    HW137274   1.484   1.661  16.022  0.6747  2.1312 -1.0367
 8605SOL    HW237275   1.573   1.542  16.032 -1.9685 -0.2210 -1.3376
 8606SOL     OW37276   0.748   0.165   5.355  0.0521  0.0776 -0.2394
 8606SOL    HW137277   0.807   0.237   5.377  1.8665 -1.0421 -1.5271
 8606SOL    HW237278   0.667   0.216   5.352  1.7757  2.8944  0.8002
 8607SOL     OW37279   0.441   2.486   5.484  0.1678  0.6148  0.1606
 8607SOL    HW137280   0.348   2.498   5.466  0.3162 -0.4359 -1.2138
 8607SOL    HW237281   0.479   2.480   5.397  1.4575 -3.3730  0.9835
 8608SOL     OW37282   3.539   0.115   4.991  0.1344  0.3089 -0.3286
 8608SOL    HW137283   3.547   0.038   5.048 -0.5091  0.7174  0.3176
 8608SOL    HW237284   3.554   0.193   5.044  0.1147 -0.5280  0.9135
 8609SOL     OW37285   0.981   2.484   3.272 -0.4979  0.4257  0.2193
 8609SOL    HW137286   0.918   2.415   3.293 -1.0145  0.6661 -0.5293
 8609SOL    HW237287   0.922   2.559   3.260  0.2609  1.5419  3.4557
 8610SOL     OW37288   4.518   4.175   5.755  0.3506  0.2657 -0.7577
 8610SOL    HW137289   4.578   4.212   5.819  0.0101 -2.0825  0.9331
 8610SOL    HW237290   4.448   4.239   5.772  0.3299  0.0615 -0.0963
 8611SOL     OW37291   2.582   2.656  14.970  0.7544  0.2161 -0.1311
 8611SOL    HW137292   2.543   2.616  15.047 -1.6310 -0.6383 -1.7811
 8611SOL    HW237293   2.523   2.728  14.946  0.2540  0.3875  1.5965
 8612SOL     OW37294   2.303   2.853  12.713 -0.4581 -0.5552 -0.5542
 8612SOL    HW137295   2.262   2.767  12.712  0.0076 -0.8171  2.5963
 8612SOL    HW237296   2.251   2.906  12.774 -0.3923 -1.8260  0.5826
 8613SOL     OW37297   4.357   4.284   1.593  0.2448 -0.5093  0.0730
 8613SOL    HW137298   4.320   4.214   1.538 -0.6458  0.3633 -0.4458
 8613SOL    HW237299   4.443   4.300   1.554  0.8805 -2.2037  0.7916
 8614SOL     OW37300   2.894   1.560  11.355  0.1779 -0.1518 -0.1378
 8614SOL    HW137301   2.824   1.506  11.317 -0.9304 -0.1953  1.9792
 8614SOL    HW237302   2.843   1.580  11.433 -3.1024 -3.8240 -1.3362
 8615SOL     OW37303   0.260   0.853   4.118  0.9223 -0.3192 -0.3996
 8615SOL    HW137304   0.288   0.926   4.173  2.7935 -0.7199 -0.8161
 8615SOL    HW237305   0.319   0.852   4.043  0.0604  2.4523 -1.1219
 8616SOL     OW37306   3.579   4.084   2.440  0.4659  0.1352  0.0658
 8616SOL    HW137307   3.622   4.161   2.476 -2.5339  2.3615 -1.1844
 8616SOL    HW237308   3.505   4.077   2.500  1.4091  2.6490  1.5030
 8617SOL     OW37309   3.480   2.338   2.464  0.2639  0.4758 -0.2497
 8617SOL    HW137310   3.470   2.364   2.372 -0.7662 -1.7796 -0.7623
 8617SOL    HW237311   3.538   2.407   2.497  1.8611 -0.8685 -0.2760
 8618SOL     OW37312   1.139   1.160   7.263  0.3734  0.6566  0.3580
 8618SOL    HW137313   1.095   1.076   7.274  0.9308  0.2767 -0.3010
 8618SOL    HW237314   1.163   1.181   7.353 -0.6739  3.2161  0.0479
 8619SOL     OW37315   1.126   1.625   5.308  0.2156  0.0241  0.2988
 8619SOL    HW137316   1.144   1.709   5.266  0.7252 -1.1976 -1.8938
 8619SOL    HW237317   1.158   1.650   5.395  4.0107  0.6216 -1.2722
 8620SOL     OW37318   0.119   2.632   7.859  0.1071  0.0029 -0.1702
 8620SOL    HW137319   0.122   2.725   7.838  0.3965 -0.2188 -1.1210
 8620SOL    HW237320   0.118   2.633   7.955 -0.5260  0.0625 -0.1784
 8621SOL     OW37321   2.778   2.876  16.036  0.2976  0.6923 -0.3339
 8621SOL    HW137322   2.736   2.934  15.973 -0.8586  0.2508  0.0170
 8621SOL    HW237323   2.761   2.790  15.997 -1.4862  1.4608 -1.2700
 8622SOL     OW37324   2.826   1.594   5.378 -0.5454 -0.0597 -0.0253
 8622SOL    HW137325   2.853   1.685   5.364 -2.2561  0.3336 -0.8435
 8622SOL    HW237326   2.803   1.574   5.287 -1.1204 -0.4708  0.2077
 8623SOL     OW37327   4.063   0.117   9.152  0.3462  0.2767 -0.1732
 8623SOL    HW137328   4.121   0.045   9.128  0.3895  0.1767  0.2420
 8623SOL    HW237329   4.029   0.143   9.066  0.8311 -0.0754 -0.4759
 8624SOL     OW37330   4.547   4.258  10.890 -0.1650 -0.3933 -0.7123
 8624SOL    HW137331   4.508   4.299  10.967 -2.2367 -1.2155 -1.3270
 8624SOL    HW237332   4.618   4.318  10.869 -1.1142  0.8585 -0.2891
 8625SOL     OW37333   1.467   3.364   5.469  0.1876  0.2208  0.3422
 8625SOL    HW137334   1.448   3.367   5.563  1.6020 -2.0667  0.7087
 8625SOL    HW237335   1.545   3.308   5.473 -1.0073 -1.4431  0.1609
 8626SOL     OW37336   1.630   1.184   0.115 -1.1023 -0.3924  0.0545
 8626SOL    HW137337   1.660   1.169   0.205  1.7588 -0.5186 -0.9374
 8626SOL    HW237338   1.702   1.149   0.063 -0.7348  1.6540 -0.7925
 8627SOL     OW37339   2.683   2.737   7.558 -0.3392 -0.5010  0.1646
 8627SOL    HW137340   2.764   2.698   7.591  1.0214  0.1555 -2.4417
 8627SOL    HW237341   2.628   2.714   7.633 -1.5755  0.1765 -0.5468
 8628SOL     OW37342   4.269   3.318   7.460  0.1836 -0.0213  0.1841
 8628SOL    HW137343   4.320   3.286   7.386  2.9319 -1.9634  2.8984
 8628SOL    HW237344   4.241   3.405   7.432 -0.5045 -1.6037 -4.0745
 8629SOL     OW37345   0.096   2.020   8.823  0.3934  0.5673  0.3340
 8629SOL    HW137346   0.127   1.955   8.885 -1.2608 -0.3700  0.1888
 8629SOL    HW237347   0.118   2.094   8.879 -0.1304  0.7377  0.3176
 8630SOL     OW37348   2.338   3.767   3.064 -0.0397 -0.3879 -0.5341
 8630SOL    HW137349   2.247   3.784   3.089  0.7726  1.1463  1.3712
 8630SOL    HW237350   2.365   3.851   3.027  2.4206  0.1782  2.4844
 8631SOL     OW37351   3.519   0.010   3.955 -0.2199 -0.2431 -0.2622
 8631SOL    HW137352   3.518   4.654   3.902 -3.6268  0.8439 -1.8479
 8631SOL    HW237353   3.425   0.024   3.962 -0.0891  1.1762 -1.1423
 8632SOL     OW37354   1.714   4.298   6.638 -0.5233  0.0827 -0.0365
 8632SOL    HW137355   1.692   4.209   6.668 -2.5004  0.3096 -0.7874
 8632SOL    HW237356   1.648   4.314   6.570 -2.0724 -0.9010  1.2071
 8633SOL     OW37357   3.037   4.526   8.957  0.0890 -0.0149  0.5625
 8633SOL    HW137358   3.103   4.503   9.022 -0.9222 -0.2408  1.4943
 8633SOL    HW237359   3.035   4.441   8.914 -0.3401  0.5980 -0.6384
 8634SOL     OW37360   0.916   0.558  16.871 -0.1361 -0.2041  0.0867
 8634SOL    HW137361   0.869   0.482  16.837  0.2239 -1.0658  1.5059
 8634SOL    HW237362   1.003   0.567  16.832 -0.7731  0.7230 -1.0884
 8635SOL     OW37363   3.554   1.783  14.355 -0.2569  0.0965 -0.4196
 8635SOL    HW137364   3.491   1.845  14.319 -0.1185 -0.9638 -2.4793
 8635SOL    HW237365   3.565   1.728  14.278  3.1986  0.1470  0.0498
 8636SOL     OW37366   1.223   2.768  14.038 -0.3858  0.1679 -0.2150
 8636SOL    HW137367   1.277   2.734  13.966  0.0694 -0.5640  0.4831
 8636SOL    HW237368   1.152   2.820  14.000 -2.0431 -1.7158  0.3520
 8637SOL     OW37369   3.840   4.660   8.728 -0.2398  0.4683 -0.6846
 8637SOL    HW137370   3.790   4.711   8.792  1.1843  1.6761 -0.5292
 8637SOL    HW237371   3.895   0.005   8.689  0.6013 -0.0215 -0.3607
 8638SOL     OW37372   0.056   4.395   1.100  0.3331 -0.3145 -0.0572
 8638SOL    HW137373   0.110   4.406   1.021 -0.3352 -2.6634 -0.8517
 8638SOL    HW237374   4.710   4.451   1.066  0.7765  1.1230  1.4541
 8639SOL     OW37375   0.065   2.717   5.210 -0.0760  0.4218  0.3584
 8639SOL    HW137376   0.056   2.631   5.169  1.4592  0.2811  0.3161
 8639SOL    HW237377   0.028   2.768   5.138  1.0033 -1.2086 -1.3556
 8640SOL     OW37378   0.668   4.672   6.606  0.1848 -0.4669  0.3429
 8640SOL    HW137379   0.581   4.664   6.566  0.5583 -2.0984 -0.1664
 8640SOL    HW237380   0.709   0.016   6.552 -3.9394  3.6015  2.2520
 8641SOL     OW37381   2.717   3.352   6.111 -0.0771 -0.2607 -0.8381
 8641SOL    HW137382   2.768   3.274   6.133  1.0865  0.4682 -0.9972
 8641SOL    HW237383   2.749   3.417   6.174  1.4365  1.9234 -3.8649
 8642SOL     OW37384   2.097   3.227   5.720  0.1624 -0.1586  0.0229
 8642SOL    HW137385   2.102   3.271   5.805 -4.1207 -1.3871  0.9148
 8642SOL    HW237386   2.003   3.222   5.703  0.6322  1.1564 -2.8555
 8643SOL     OW37387   0.025   1.584   1.120 -0.2713 -0.1866 -0.0588
 8643SOL    HW137388   0.094   1.627   1.069 -1.4063 -0.6421 -1.9834
 8643SOL    HW237389   0.055   1.493   1.120  0.7585  0.1566 -1.9105
 8644SOL     OW37390   4.338   1.871  10.225 -0.0997  0.6922  0.5719
 8644SOL    HW137391   4.374   1.819  10.296  1.4624  0.2532 -0.5271
 8644SOL    HW237392   4.245   1.864  10.242  0.0372  0.7127  1.3220
 8645SOL     OW37393   2.473   4.494   3.776 -0.5886 -0.6999  0.8568
 8645SOL    HW137394   2.474   4.551   3.699  1.8982 -0.1576  1.3003
 8645SOL    HW237395   2.396   4.519   3.827  1.0560  1.8145  2.1405
 8646SOL     OW37396   3.575   0.890   2.071 -0.1968  0.2522 -0.4588
 8646SOL    HW137397   3.601   0.798   2.074  1.6739  0.6960 -2.3579
 8646SOL    HW237398   3.483   0.879   2.047  0.1859 -0.1695 -1.7212
 8647SOL     OW37399   0.113   1.770   3.080  0.2931  0.5726  0.4697
 8647SOL    HW137400   0.108   1.768   3.176  0.9967 -0.4862  0.4920
 8647SOL    HW237401   0.020   1.772   3.058  0.9564  0.0786 -2.3446
 8648SOL     OW37402   4.210   4.011   3.298 -0.1077 -0.1924 -0.0978
 8648SOL    HW137403   4.227   4.051   3.383  0.3116  0.5670 -0.5320
 8648SOL    HW237404   4.146   3.943   3.318  0.1247 -0.3374  0.1431
 8649SOL     OW37405   4.339   4.385  12.424 -0.2516 -0.1115  0.6193
 8649SOL    HW137406   4.319   4.477  12.442  0.7341 -0.2374  2.3853
 8649SOL    HW237407   4.435   4.389  12.422 -0.3279  0.6876 -1.6853
 8650SOL     OW37408   3.099   0.874   3.059  0.1157 -0.1832 -0.1452
 8650SOL    HW137409   3.064   0.803   3.006 -0.8667  2.6689 -3.3413
 8650SOL    HW237410   3.186   0.846   3.088  0.5627  0.8063 -0.5303
 8651SOL     OW37411   0.168   0.516   7.168 -0.1696 -0.1315  0.2660
 8651SOL    HW137412   0.159   0.585   7.233  4.7136  0.5971  0.1907
 8651SOL    HW237413   0.225   0.563   7.107 -0.4322  0.0439  0.1577
 8652SOL     OW37414   1.501   3.119   5.683  0.1226 -0.3298  0.2599
 8652SOL    HW137415   1.464   3.202   5.714 -1.6130 -1.0229  0.0316
 8652SOL    HW237416   1.424   3.065   5.665  0.2280  0.0164 -1.2038
 8653SOL     OW37417   1.680   3.340   2.282 -0.1508 -0.0217  0.3674
 8653SOL    HW137418   1.758   3.285   2.271  0.0094  0.4231 -0.8064
 8653SOL    HW237419   1.610   3.275   2.290 -0.2472 -0.1904 -1.8522
 8654SOL     OW37420   4.576   0.987  11.832  0.3819 -0.4965 -0.2213
 8654SOL    HW137421   4.563   0.897  11.803  0.2710 -0.7598  0.6747
 8654SOL    HW237422   4.487   1.020  11.845 -0.2782 -2.9828  1.4946
 8655SOL     OW37423   1.681   3.470   4.824 -1.0411  0.0268 -0.2600
 8655SOL    HW137424   1.658   3.512   4.741  1.5774  1.7682 -0.1173
 8655SOL    HW237425   1.649   3.527   4.894 -0.2061 -0.7101  0.7261
 8656SOL     OW37426   1.048   1.824   7.374  0.8670  0.2033 -0.6289
 8656SOL    HW137427   0.958   1.831   7.403 -0.0029  0.9327 -3.4853
 8656SOL    HW237428   1.074   1.916   7.368  2.2038 -0.1318 -0.0369
 8657SOL     OW37429   1.292   1.635  10.944  0.4931  0.1281 -0.1872
 8657SOL    HW137430   1.369   1.579  10.949  0.6250  0.5800  2.4233
 8657SOL    HW237431   1.278   1.635  10.849 -0.8836 -2.7207  0.0263
 8658SOL     OW37432   3.397   2.012  14.300 -0.6022  0.1445 -0.1379
 8658SOL    HW137433   3.334   2.072  14.260  0.0266  0.9055  0.0087
 8658SOL    HW237434   3.394   2.042  14.391 -0.5706 -1.5074  0.3989
 8659SOL     OW37435   4.487   3.386   8.459 -0.5119  0.2806 -0.0946
 8659SOL    HW137436   4.421   3.448   8.490 -1.6554 -0.1457 -1.6766
 8659SOL    HW237437   4.443   3.301   8.458 -0.4964  0.2696  0.0707
 8660SOL     OW37438   4.158   3.480  13.204 -0.0687 -0.0182 -0.1996
 8660SOL    HW137439   4.109   3.418  13.258 -0.4197  0.4828  0.0481
 8660SOL    HW237440   4.090   3.508  13.143  0.3908 -1.3646 -1.3277
 8661SOL     OW37441   0.117   0.268  12.441 -0.0543 -0.1292 -0.9667
 8661SOL    HW137442   0.072   0.329  12.382  1.9861  2.0433 -0.3108
 8661SOL    HW237443   0.167   0.329  12.496  1.2115  0.6059 -2.9143
 8662SOL     OW37444   4.570   0.084   2.826  0.9256 -0.4733 -0.2224
 8662SOL    HW137445   4.576   0.007   2.770 -1.5919 -1.5181  0.9757
 8662SOL    HW237446   4.646   0.135   2.798  1.2744 -1.8184 -1.7032
 8663SOL     OW37447   4.062   1.454   2.431  0.4315  0.2007  0.2686
 8663SOL    HW137448   4.016   1.394   2.372 -0.3956 -0.2588  1.3768
 8663SOL    HW237449   4.031   1.413   2.512  1.8211 -2.2987 -0.4746
 8664SOL     OW37450   1.714   0.306   2.004 -0.3111 -0.5355 -0.5971
 8664SOL    HW137451   1.795   0.293   2.053 -0.8176 -1.9027 -0.1061
 8664SOL    HW237452   1.675   0.219   1.992  0.2914 -0.6469 -1.7164
 8665SOL     OW37453   1.428   4.482   8.325  0.0459 -0.7844 -0.6031
 8665SOL    HW137454   1.455   4.434   8.247  2.0935 -1.4333  0.4870
 8665SOL    HW237455   1.407   4.413   8.388  3.6050 -0.5945  0.8451
 8666SOL     OW37456   1.368   1.760   3.444 -0.4399  0.4286 -0.1835
 8666SOL    HW137457   1.402   1.732   3.360 -2.2750  1.5429 -1.2858
 8666SOL    HW237458   1.281   1.721   3.439  1.1376 -3.0328 -1.1124
 8667SOL     OW37459   3.747   0.538   8.028 -0.3923 -0.7633 -0.2349
 8667SOL    HW137460   3.677   0.508   7.970 -1.6705  2.4861 -0.3324
 8667SOL    HW237461   3.693   0.549   8.106  0.6106  2.9307 -0.0870
 8668SOL     OW37462   3.472   0.392   5.384 -0.0120 -0.1413 -0.0023
 8668SOL    HW137463   3.383   0.413   5.355 -0.0855  0.2852  0.5407
 8668SOL    HW237464   3.472   0.420   5.475  1.3434 -1.1747  0.3132
 8669SOL     OW37465   2.043   0.017  10.936  0.5773 -0.6797  0.7829
 8669SOL    HW137466   2.103   0.067  10.881  1.7151 -0.1229  2.5497
 8669SOL    HW237467   1.964   0.045  10.890  1.0525 -0.3356  0.1796
 8670SOL     OW37468   4.561   0.037   0.531 -0.6770  0.0379  0.1301
 8670SOL    HW137469   4.492   4.700   0.505  0.8519 -1.5647 -0.1861
 8670SOL    HW237470   4.602   4.709   0.601 -1.0524 -2.4987 -1.5091
 8671SOL     OW37471   2.961   2.635   5.120  0.0617  0.3917  0.0651
 8671SOL    HW137472   2.883   2.653   5.173  1.5013  0.9985  1.9609
 8671SOL    HW237473   3.023   2.703   5.147 -0.3716  0.5999  0.5306
 8672SOL     OW37474   2.556   4.594   4.460 -0.1511 -0.6766  0.0441
 8672SOL    HW137475   2.563   4.618   4.368 -0.7016 -0.6086  0.0201
 8672SOL    HW237476   2.498   4.656   4.503 -0.4971  0.0456 -1.4914
 8673SOL     OW37477   2.241   0.461  15.635  0.6191  0.4477 -0.4308
 8673SOL    HW137478   2.305   0.401  15.673  0.5456  0.1888 -0.7137
 8673SOL    HW237479   2.294   0.514  15.576 -0.3249  0.6788 -1.0655
 8674SOL     OW37480   3.223   2.027   7.055  0.3039 -0.0924  0.1904
 8674SOL    HW137481   3.164   1.951   7.066  0.8741 -0.3745  1.3057
 8674SOL    HW237482   3.162   2.083   7.007 -0.6309 -2.2323 -1.1293
 8675SOL     OW37483   0.432   4.560  15.874 -0.0584  0.2633  0.0199
 8675SOL    HW137484   0.486   4.618  15.821 -2.5623  1.9272 -0.7110
 8675SOL    HW237485   0.497   4.491  15.880  1.6177  1.8244 -0.0627
 8676SOL     OW37486   1.670   0.816   4.811  0.1179 -0.0393 -0.1143
 8676SOL    HW137487   1.612   0.864   4.752 -0.5817 -0.5769  0.1393
 8676SOL    HW237488   1.688   0.739   4.757  0.3931 -1.2236  1.6572
 8677SOL     OW37489   1.952   2.064   0.256 -0.0256  1.0185  0.0978
 8677SOL    HW137490   2.047   2.060   0.266 -0.4443  0.8440  3.8813
 8677SOL    HW237491   1.929   2.093   0.344  0.5208 -1.5979  1.1064
 8678SOL     OW37492   4.224   3.768   0.113 -0.1739  0.2153  0.1929
 8678SOL    HW137493   4.136   3.786   0.079  1.0244  2.2126 -1.8290
 8678SOL    HW237494   4.264   3.846   0.075  0.7707 -0.6878 -0.6874
 8679SOL     OW37495   3.103   2.848   2.571 -0.1386  0.0942 -0.0498
 8679SOL    HW137496   3.130   2.871   2.482 -0.9750 -1.4961 -0.7158
 8679SOL    HW237497   3.175   2.796   2.606 -1.2124 -1.2240  0.2091
 8680SOL     OW37498   1.939   3.533  15.716 -0.1696 -0.5140  0.0845
 8680SOL    HW137499   1.956   3.628  15.720  1.6456 -0.7811 -1.0286
 8680SOL    HW237500   1.997   3.511  15.643 -0.0973  0.0081 -0.0154
 8681SOL     OW37501   0.225   0.284   7.864  0.5908 -0.0963 -0.1134
 8681SOL    HW137502   0.256   0.262   7.952 -1.7052  0.6085  0.8585
 8681SOL    HW237503   0.313   0.300   7.830  0.0863  1.9226 -0.4599
 8682SOL     OW37504   1.502   2.792   4.461 -0.6010  0.3289  0.1507
 8682SOL    HW137505   1.452   2.767   4.383 -0.0926  1.5619 -0.5684
 8682SOL    HW237506   1.444   2.743   4.520 -0.2693  0.6051  0.7141
 8683SOL     OW37507   1.535   2.233  15.230  0.1212  0.2288  0.4951
 8683SOL    HW137508   1.619   2.210  15.269  0.8273 -0.6587 -1.5406
 8683SOL    HW237509   1.557   2.204  15.141 -1.1832  0.4058  0.1140
 8684SOL     OW37510   1.994   2.442   0.905  0.7930 -0.4919 -0.4974
 8684SOL    HW137511   1.933   2.516   0.911  0.0413 -1.3784  2.7466
 8684SOL    HW237512   2.051   2.467   0.832 -0.5148 -0.2677 -1.4405
 8685SOL     OW37513   3.334   2.862  13.874 -0.2392  0.3707  0.1221
 8685SOL    HW137514   3.369   2.818  13.797 -0.2959  1.3067 -0.4328
 8685SOL    HW237515   3.326   2.952  13.844  2.3581  1.0790  1.5384
 8686SOL     OW37516   3.816   3.913  14.477  0.2808  0.4290  0.3190
 8686SOL    HW137517   3.819   3.949  14.565 -0.0190  2.0213 -0.3232
 8686SOL    HW237518   3.743   3.960  14.436  1.3184  2.0200  0.3139
 8687SOL     OW37519   3.892   0.158   1.594  0.1760  0.0801 -0.3019
 8687SOL    HW137520   3.919   0.208   1.517  1.8836 -1.2333 -0.5538
 8687SOL    HW237521   3.859   0.229   1.649 -1.6264  0.0309 -1.3199
 8688SOL     OW37522   2.999   3.460   5.426 -0.5167 -0.4029 -0.2327
 8688SOL    HW137523   2.984   3.460   5.331  1.2488  0.4618 -0.5235
 8688SOL    HW237524   2.915   3.465   5.472 -0.9604  0.7911 -1.1544
 8689SOL     OW37525   2.336   3.644  12.479 -0.1898 -0.2815  0.3502
 8689SOL    HW137526   2.326   3.671  12.571 -0.9531 -1.9121  0.7450
 8689SOL    HW237527   2.279   3.697  12.424  0.4423  2.0187  1.8645
 8690SOL     OW37528   1.982   1.218   3.411 -0.6195  1.1391 -0.0721
 8690SOL    HW137529   1.977   1.200   3.317 -0.9588 -1.6272  0.4836
 8690SOL    HW237530   1.978   1.128   3.443 -2.1915  1.6814  1.2183
 8691SOL     OW37531   1.043   2.187   0.288 -0.0186  0.1855  0.0594
 8691SOL    HW137532   1.057   2.136   0.208  3.0334  0.7944  0.2179
 8691SOL    HW237533   1.112   2.252   0.272  0.2288  0.8478  3.7742
 8692SOL     OW37534   2.294   0.075   2.504 -0.5492  0.0837 -0.9391
 8692SOL    HW137535   2.247   0.047   2.426 -0.5928  0.5142 -1.0704
 8692SOL    HW237536   2.309   4.714   2.545  0.6634  0.3516 -0.8160
 8693SOL     OW37537   0.388   0.962   2.414  0.3204  0.8175  0.2607
 8693SOL    HW137538   0.366   1.046   2.456 -1.4057  0.1054  0.8049
 8693SOL    HW237539   0.474   0.940   2.451  0.8788 -0.2388 -1.7088
 8694SOL     OW37540   1.379   4.707   1.547 -0.9211 -0.5430 -0.1783
 8694SOL    HW137541   1.469   4.693   1.575 -1.0148 -1.7315 -0.4437
 8694SOL    HW237542   1.333   4.701   1.631 -0.8916 -0.0915 -0.1331
 8695SOL     OW37543   1.759   3.912   7.770 -0.2850 -0.7531 -0.3890
 8695SOL    HW137544   1.755   3.993   7.718 -0.0016 -2.2060 -2.6664
 8695SOL    HW237545   1.838   3.921   7.824 -0.6373 -2.5196  0.3869
 8696SOL     OW37546   0.288   3.719   6.911  1.1669 -0.1478  0.2425
 8696SOL    HW137547   0.204   3.680   6.888  0.8323  1.4531 -1.2428
 8696SOL    HW237548   0.271   3.758   6.996 -1.3114 -2.2751  0.7102
 8697SOL     OW37549   3.397   3.239   6.775 -0.2260 -0.1035  0.4561
 8697SOL    HW137550   3.333   3.181   6.818  0.2744 -0.2420  1.0180
 8697SOL    HW237551   3.390   3.229   6.680  0.7174  0.2537  0.3485
 8698SOL     OW37552   1.283   4.408   1.202 -0.1009 -0.3640 -0.7273
 8698SOL    HW137553   1.248   4.319   1.208  1.4826 -0.9537 -0.2087
 8698SOL    HW237554   1.249   4.434   1.117 -0.3820  0.3557 -0.3992
 8699SOL     OW37555   2.652   3.242   1.898 -0.3579 -0.1087 -0.1560
 8699SOL    HW137556   2.623   3.333   1.890 -3.7265 -1.0502  1.6445
 8699SOL    HW237557   2.740   3.252   1.861 -0.4369 -0.3438 -0.3997
 8700SOL     OW37558   0.748   4.280  15.762 -0.2985 -0.3290 -0.1307
 8700SOL    HW137559   0.706   4.304  15.845 -1.4797 -0.8525 -0.5798
 8700SOL    HW237560   0.678   4.255  15.702  1.4504 -0.6846 -2.0151
 8701SOL     OW37561   4.261   4.613   0.754 -0.2522 -0.3828  0.8087
 8701SOL    HW137562   4.310   4.592   0.674 -0.6963 -0.8968  0.6668
 8701SOL    HW237563   4.299   4.699   0.769 -0.3362 -0.4178  1.2305
 8702SOL     OW37564   0.197   1.193   8.795  0.3090  0.3736 -0.1847
 8702SOL    HW137565   0.193   1.279   8.753 -0.0522  0.5764  0.2641
 8702SOL    HW237566   0.200   1.213   8.888  0.8157  0.6594 -0.2655
 8703SOL     OW37567   3.383   4.136   6.574  0.2973  0.1680  0.3250
 8703SOL    HW137568   3.408   4.154   6.665  2.3676  2.1902 -0.6749
 8703SOL    HW237569   3.306   4.191   6.559  0.1038  0.1735  1.2813
 8704SOL     OW37570   3.547   3.708  15.339  0.2858 -0.0827  0.2699
 8704SOL    HW137571   3.546   3.754  15.423 -1.6978  1.4373 -0.5792
 8704SOL    HW237572   3.641   3.709  15.325  0.2032  1.6832 -0.1390
 8705SOL     OW37573   1.069   2.723   3.761  0.0736 -0.3895  0.3359
 8705SOL    HW137574   1.163   2.704   3.757 -0.0208 -0.9878  0.8952
 8705SOL    HW237575   1.043   2.756   3.675  0.2603  0.4910  0.6228
 8706SOL     OW37576   4.534   1.767   8.133 -0.1023  0.4312 -0.2494
 8706SOL    HW137577   4.619   1.730   8.108 -0.6845  0.3661 -2.1035
 8706SOL    HW237578   4.495   1.690   8.174 -0.7958  1.0814  0.2957
 8707SOL     OW37579   3.930   1.305   1.403 -0.0409 -0.2923  0.6681
 8707SOL    HW137580   3.980   1.223   1.395  0.0043 -0.3022  1.0457
 8707SOL    HW237581   3.953   1.332   1.492 -2.5237 -0.6288  1.4058
 8708SOL     OW37582   2.429   2.735   1.787 -0.3598 -0.1836 -0.0067
 8708SOL    HW137583   2.391   2.648   1.792 -1.2496  0.2519  0.7696
 8708SOL    HW237584   2.510   2.715   1.741  0.5828 -0.1504  1.6286
 8709SOL     OW37585   0.400   1.593   4.815  0.4624 -0.1800 -0.4230
 8709SOL    HW137586   0.405   1.637   4.900  0.0706  3.1320 -2.1245
 8709SOL    HW237587   0.308   1.596   4.790 -0.2691 -1.0556  2.1807
 8710SOL     OW37588   2.111   3.618   5.937  0.2420 -0.0465  0.0974
 8710SOL    HW137589   2.044   3.665   5.889  2.2704  1.8025 -0.9131
 8710SOL    HW237590   2.186   3.641   5.882 -0.7654  2.5726 -0.1699
 8711SOL     OW37591   1.314   3.431   0.597 -0.1508  0.0697  0.1211
 8711SOL    HW137592   1.331   3.502   0.659 -0.4566  0.4163 -0.1943
 8711SOL    HW237593   1.403   3.422   0.562 -0.2126  0.1253 -0.0490
 8712SOL     OW37594   2.791   4.554   0.738  0.0706  0.7388  0.5605
 8712SOL    HW137595   2.845   4.541   0.815 -0.5066  2.2135  1.2260
 8712SOL    HW237596   2.834   4.494   0.677  0.9505  0.8160  1.1100
 8713SOL     OW37597   3.984   0.435   9.227 -0.2519 -0.5324  0.0917
 8713SOL    HW137598   3.939   0.508   9.184 -0.1855 -1.2557 -1.2174
 8713SOL    HW237599   3.911   0.374   9.240 -1.4564  0.8041 -0.4185
 8714SOL     OW37600   2.889   1.722   8.319 -0.0901 -0.2468 -0.2008
 8714SOL    HW137601   2.939   1.799   8.293  0.4813  0.1944  2.2403
 8714SOL    HW237602   2.815   1.761   8.365 -0.5654  0.1910 -1.3363
 8715SOL     OW37603   3.852   0.796   8.060 -0.0813 -0.7963  0.3845
 8715SOL    HW137604   3.918   0.815   8.127 -1.0655 -0.8389  1.3713
 8715SOL    HW237605   3.857   0.700   8.060 -1.3611 -0.8778  0.8651
 8716SOL     OW37606   4.682   4.684   4.626  0.0633  0.8183  0.5173
 8716SOL    HW137607   4.699   4.680   4.720  0.3890  1.1024  0.4679
 8716SOL    HW237608   0.043   4.647   4.601 -0.3304  0.3766 -0.1628
 8717SOL     OW37609   0.433   3.547  16.442 -0.6106  0.1717  0.0204
 8717SOL    HW137610   0.517   3.514  16.476 -1.2369 -2.8769 -1.4235
 8717SOL    HW237611   0.385   3.467  16.424 -0.2602 -0.1439  0.4770
 8718SOL     OW37612   4.463   2.626   0.223 -0.1023 -0.2990 -0.6838
 8718SOL    HW137613   4.497   2.624   0.133  4.2359  1.5829  0.8762
 8718SOL    HW237614   4.420   2.542   0.233  1.7610 -1.0192  1.3139
 8719SOL     OW37615   1.452   0.144  15.643  0.5137  0.3132 -0.0440
 8719SOL    HW137616   1.489   0.076  15.700 -2.3722 -1.5714 -0.4280
 8719SOL    HW237617   1.531   0.160  15.592 -0.2400  0.1299 -1.2773
 8720SOL     OW37618   3.415   1.266  16.068 -0.5576 -0.1113 -0.0652
 8720SOL    HW137619   3.459   1.243  15.986 -0.8097 -2.2916  0.4093
 8720SOL    HW237620   3.475   1.325  16.113  1.5448 -0.4369 -2.4559
 8721SOL     OW37621   4.355   4.542   8.310 -0.0713  0.0454 -0.9561
 8721SOL    HW137622   4.311   4.459   8.291 -0.2818 -0.0070 -0.2395
 8721SOL    HW237623   4.442   4.512   8.282  0.9413  1.9208  0.1929
 8722SOL     OW37624   3.515   0.125   3.636 -0.1093  0.1911 -1.0206
 8722SOL    HW137625   3.580   0.143   3.568 -0.9587  1.4463 -1.4986
 8722SOL    HW237626   3.562   0.160   3.711  0.6138  0.1134 -1.4418
 8723SOL     OW37627   4.000   4.449   5.200 -0.5892 -0.0669 -0.7530
 8723SOL    HW137628   3.962   4.492   5.124 -0.6927 -1.1145 -1.2943
 8723SOL    HW237629   4.072   4.399   5.161 -0.1703 -1.1883  1.4830
 8724SOL     OW37630   3.453   1.653   5.237 -0.3500 -0.2331  0.5489
 8724SOL    HW137631   3.454   1.557   5.237 -0.0620 -0.2317 -0.5757
 8724SOL    HW237632   3.363   1.682   5.251 -0.3392  0.2500 -0.3652
 8725SOL     OW37633   0.807   0.354   2.649 -0.2147 -0.2540  0.6015
 8725SOL    HW137634   0.900   0.375   2.654 -0.0031 -0.4775 -2.2488
 8725SOL    HW237635   0.782   0.385   2.736 -2.0809 -2.2390  0.7725
 8726SOL     OW37636   1.401   4.088   7.299 -0.6240 -0.5728 -0.4928
 8726SOL    HW137637   1.330   4.151   7.293 -0.1575  0.0867  1.0516
 8726SOL    HW237638   1.401   4.075   7.204  1.2847  0.9016 -0.7082
 8727SOL     OW37639   2.210   0.865  17.164 -0.4486 -0.2627 -0.1182
 8727SOL    HW137640   2.144   0.916  17.116  0.6040 -0.6071 -1.9351
 8727SOL    HW237641   2.188   0.887  17.254  2.1494  2.2122 -0.0921
 8728SOL     OW37642   2.705   1.219   8.531  0.0081 -0.2091 -0.0090
 8728SOL    HW137643   2.649   1.203   8.607 -0.9738  1.0144 -0.4695
 8728SOL    HW237644   2.659   1.294   8.492 -0.3122  0.0648  0.9010
 8729SOL     OW37645   0.509   0.750   8.590 -0.6089 -0.0723  0.2931
 8729SOL    HW137646   0.528   0.757   8.684  1.7107  0.5277 -0.2327
 8729SOL    HW237647   0.419   0.717   8.582 -0.7844  0.7689 -1.1020
 8730SOL     OW37648   2.047   2.124  10.462  0.0722  0.5087 -0.8656
 8730SOL    HW137649   2.093   2.188  10.516 -0.7429 -0.0272  0.4389
 8730SOL    HW237650   2.062   2.173  10.381 -0.6325 -1.5940 -2.2699
 8731SOL     OW37651   4.332   1.754   4.034  0.2523 -0.1596  0.3241
 8731SOL    HW137652   4.370   1.742   3.947  0.6542  3.0590  0.0469
 8731SOL    HW237653   4.312   1.665   4.063 -0.3548 -0.3780 -0.7451
 8732SOL     OW37654   0.252   2.155  10.300 -0.2695 -0.4248 -0.0280
 8732SOL    HW137655   0.295   2.176  10.217  1.9617 -1.6972  0.8336
 8732SOL    HW237656   0.284   2.232  10.347  3.1767  0.2310 -3.5028
 8733SOL     OW37657   3.505   3.593   7.963 -0.1407 -0.4150 -0.3343
 8733SOL    HW137658   3.507   3.685   7.937  1.0749  0.1219  1.6033
 8733SOL    HW237659   3.554   3.596   8.046 -2.7368 -3.4669  1.2956
 8734SOL     OW37660   1.506   3.138   2.340  0.0982  0.2430 -0.4416
 8734SOL    HW137661   1.421   3.105   2.310 -0.5216  1.0042  0.4460
 8734SOL    HW237662   1.515   3.087   2.420  3.8540  1.1145 -0.3418
 8735SOL     OW37663   2.034   3.375   7.531  0.1461 -0.0813  0.6700
 8735SOL    HW137664   2.118   3.343   7.565  0.0409 -1.0202  0.0489
 8735SOL    HW237665   2.038   3.470   7.538 -1.5014  0.0475 -0.1812
 8736SOL     OW37666   1.229   0.604  10.751 -0.2544  0.6099 -0.2750
 8736SOL    HW137667   1.269   0.648  10.676 -1.0193  0.4388 -0.7846
 8736SOL    HW237668   1.178   0.541  10.699 -0.3749  0.8071 -0.4000
 8737SOL     OW37669   2.734   2.656  14.758 -0.4274 -0.6597  0.4567
 8737SOL    HW137670   2.682   2.656  14.838 -4.9751 -1.5449 -2.5091
 8737SOL    HW237671   2.785   2.735  14.772 -0.8487 -0.0970 -1.2440
 8738SOL     OW37672   1.219   1.933  14.187  0.2540  0.1829 -0.1824
 8738SOL    HW137673   1.229   1.852  14.238  0.9771  1.1905  1.2970
 8738SOL    HW237674   1.281   1.913  14.117 -0.9086 -2.0220 -0.5922
 8739SOL     OW37675   4.263   2.779   8.826 -0.4683  0.1678 -0.3079
 8739SOL    HW137676   4.303   2.794   8.912  3.5513  1.4469 -2.4256
 8739SOL    HW237677   4.268   2.686   8.804  0.2814  0.3720 -1.0005
 8740SOL     OW37678   3.653   1.963   9.281 -0.8974 -0.3498 -0.9589
 8740SOL    HW137679   3.604   1.937   9.359 -2.3766  1.4946 -1.2585
 8740SOL    HW237680   3.672   2.050   9.317  2.7355 -1.2612 -0.6497
 8741SOL     OW37681   0.359   0.261   4.471 -0.1595 -0.0859  0.0421
 8741SOL    HW137682   0.409   0.241   4.550  1.7428  0.5833 -0.9802
 8741SOL    HW237683   0.384   0.183   4.421 -0.7337 -0.2956  0.0845
 8742SOL     OW37684   0.848   3.360   8.186 -0.1056  0.1799  0.0528
 8742SOL    HW137685   0.843   3.450   8.218 -3.9571  0.8073 -2.2813
 8742SOL    HW237686   0.932   3.367   8.140  0.2276 -0.8522  0.5092
 8743SOL     OW37687   1.917   3.722   5.772  0.3518  0.1305  0.5914
 8743SOL    HW137688   1.845   3.783   5.789  0.6440  0.2839  1.3127
 8743SOL    HW237689   1.931   3.725   5.678  1.0362  3.0366  0.7672
 8744SOL     OW37690   2.798   2.440   3.243 -0.0782 -0.4239  0.2455
 8744SOL    HW137691   2.886   2.472   3.225 -0.3841  0.1219 -0.2426
 8744SOL    HW237692   2.758   2.524   3.261  1.0087  0.3444 -0.9216
 8745SOL     OW37693   0.737   1.459  11.553 -0.0667 -0.4824 -0.3858
 8745SOL    HW137694   0.733   1.534  11.494 -1.9761 -0.1483  0.1649
 8745SOL    HW237695   0.656   1.476  11.600  0.3293  2.1499 -0.6675
 8746SOL     OW37696   4.082   2.064   6.291  0.1122 -0.2317 -0.4280
 8746SOL    HW137697   4.010   2.095   6.346  1.5286  0.1737  1.2032
 8746SOL    HW237698   4.019   2.005   6.250 -0.0527  0.1650 -0.7409
 8747SOL     OW37699   2.291   3.146   6.300  0.1180  0.4154 -0.0039
 8747SOL    HW137700   2.296   3.067   6.246  0.3862  0.8086 -0.5589
 8747SOL    HW237701   2.204   3.132   6.338  0.0947  0.4310 -0.0522
 8748SOL     OW37702   2.687   4.452   0.397  0.0144  0.5220 -0.2145
 8748SOL    HW137703   2.765   4.408   0.431  0.5681  0.6076 -1.3613
 8748SOL    HW237704   2.620   4.456   0.465 -0.5034  0.0254 -0.6952
 8749SOL     OW37705   1.792   0.953   7.710  0.3413  0.3218 -0.5918
 8749SOL    HW137706   1.778   1.009   7.634  0.1550  0.0563 -0.7530
 8749SOL    HW237707   1.701   0.931   7.733  0.1446  2.5598  0.8673
 8750SOL     OW37708   0.122   3.648   8.434 -0.0569 -0.3816  0.0018
 8750SOL    HW137709   0.200   3.704   8.428  0.4341 -1.2200 -1.3507
 8750SOL    HW237710   0.156   3.562   8.409  0.9904  0.6278 -2.0026
 8751SOL     OW37711   1.125   3.584  16.753 -0.0763 -0.2425 -0.2382
 8751SOL    HW137712   1.122   3.654  16.818 -1.5612  0.8126 -1.4444
 8751SOL    HW237713   1.149   3.508  16.806 -1.1175 -0.8931 -0.6962
 8752SOL     OW37714   4.273   0.319   6.577 -0.1513 -0.0476  0.3548
 8752SOL    HW137715   4.292   0.304   6.670 -2.0252 -0.5144  0.6582
 8752SOL    HW237716   4.178   0.322   6.569 -0.0648 -0.0542 -0.6583
 8753SOL     OW37717   0.227   3.746   3.516  0.2390  0.5399  0.3722
 8753SOL    HW137718   0.299   3.759   3.455  0.7793  0.7753  1.0533
 8753SOL    HW237719   0.158   3.709   3.461  1.0156 -3.0980  1.8177
 8754SOL     OW37720   0.025   0.219  12.118 -0.2972  0.1456 -0.4291
 8754SOL    HW137721   0.067   0.303  12.137 -0.1679  0.6216 -2.7137
 8754SOL    HW237722   0.102   0.163  12.117  0.0883  0.6487  1.5796
 8755SOL     OW37723   1.544   4.684  15.406 -0.2938 -0.3312  0.0274
 8755SOL    HW137724   1.495   4.602  15.397 -3.3101  1.3316  1.4216
 8755SOL    HW237725   1.593   4.665  15.485  0.4913  1.4242 -0.0376
 8756SOL     OW37726   1.304   0.267   9.004  0.2731  0.9330 -1.1087
 8756SOL    HW137727   1.299   0.351   9.049 -3.5275  1.0087 -1.6997
 8756SOL    HW237728   1.337   0.204   9.068 -1.5841  1.3146  0.2088
 8757SOL     OW37729   4.430   1.498   7.540 -0.2949 -0.2705 -0.6185
 8757SOL    HW137730   4.413   1.543   7.457 -0.8713 -1.5059 -1.1737
 8757SOL    HW237731   4.347   1.524   7.579  0.5700  1.0890  0.3337
 8758SOL     OW37732   1.576   1.136  11.566  0.3066 -0.4107  0.3764
 8758SOL    HW137733   1.602   1.124  11.474 -0.3217  1.1788 -0.0108
 8758SOL    HW237734   1.591   1.230  11.563 -3.0763  0.1139 -0.6138
 8759SOL     OW37735   2.085   1.440   9.962 -0.1688 -0.2295 -0.5957
 8759SOL    HW137736   2.091   1.526  10.003  1.1097 -0.8682  0.6069
 8759SOL    HW237737   2.056   1.380  10.031  0.5303  0.3945  0.2415
 8760SOL     OW37738   2.999   0.268   6.647 -0.6557 -0.0004  0.2048
 8760SOL    HW137739   2.934   0.274   6.577  0.5886 -0.7890 -1.0138
 8760SOL    HW237740   3.028   0.358   6.658 -0.9353  0.1709 -0.5033
 8761SOL     OW37741   1.932   1.711  11.090  0.0716 -0.1206 -0.6522
 8761SOL    HW137742   1.980   1.665  11.159 -0.6428  2.6569  1.7104
 8761SOL    HW237743   1.884   1.634  11.059  0.4105 -0.4040 -0.4766
 8762SOL     OW37744   1.839   0.677   2.744 -0.2277 -0.5172  0.2605
 8762SOL    HW137745   1.772   0.628   2.697 -0.8970  0.0563  0.6071
 8762SOL    HW237746   1.906   0.611   2.758  1.9562  1.1104 -2.6059
 8763SOL     OW37747   1.721   1.182   8.777  0.0388 -0.0461 -0.3718
 8763SOL    HW137748   1.766   1.249   8.725 -0.5067 -3.1731 -4.8781
 8763SOL    HW237749   1.684   1.124   8.711  0.2768 -0.9855  0.3164
 8764SOL     OW37750   2.432   4.223   1.726 -0.2465  0.1772 -0.2387
 8764SOL    HW137751   2.351   4.243   1.679  1.2760  1.1873 -2.4594
 8764SOL    HW237752   2.401   4.195   1.812  1.2043  1.2901  0.6417
 8765SOL     OW37753   3.122   1.743   7.043  0.2310  0.4200  0.2964
 8765SOL    HW137754   3.172   1.684   6.986 -1.0300 -0.2343 -0.1196
 8765SOL    HW237755   3.186   1.763   7.111  0.9802 -0.9603  0.0145
 8766SOL     OW37756   3.442   4.206   3.739 -0.6557 -0.4162  0.1242
 8766SOL    HW137757   3.524   4.175   3.779  0.8259  0.6140 -2.1364
 8766SOL    HW237758   3.394   4.167   3.813 -0.2384  0.7029  0.9887
 8767SOL     OW37759   0.598   3.395  12.649  0.1708  0.0531 -0.0068
 8767SOL    HW137760   0.558   3.308  12.648  2.3097 -0.9507  0.5381
 8767SOL    HW237761   0.642   3.390  12.734  0.7879 -1.0052 -0.3778
 8768SOL     OW37762   2.774   4.184   5.055  0.1514 -0.1768 -0.5240
 8768SOL    HW137763   2.791   4.258   4.997 -1.8109 -0.0022 -0.8753
 8768SOL    HW237764   2.720   4.130   4.997 -0.9946 -0.0077  0.3787
 8769SOL     OW37765   0.440   2.924  16.605 -0.1303 -0.5089 -0.2370
 8769SOL    HW137766   0.524   2.941  16.647 -0.3900  0.0665  0.0535
 8769SOL    HW237767   0.460   2.884  16.521 -1.7736 -1.0327 -0.3746
 8770SOL     OW37768   3.051   0.919   4.240 -0.2342 -0.5940 -0.9246
 8770SOL    HW137769   3.112   0.959   4.302  0.4831  1.8810 -3.2479
 8770SOL    HW237770   2.998   0.862   4.296  0.4889  0.4705  0.8577
 8771SOL     OW37771   0.110   0.869  11.909 -0.1004  0.0126  0.7633
 8771SOL    HW137772   0.039   0.929  11.885 -1.2902 -1.0160  1.7325
 8771SOL    HW237773   0.171   0.937  11.939  0.1635  0.7377 -1.3995
 8772SOL     OW37774   4.000   4.180   4.534  0.0841 -0.5284  0.3174
 8772SOL    HW137775   4.038   4.118   4.596  1.6888  2.0260  1.8973
 8772SOL    HW237776   3.934   4.133   4.483 -1.2789  1.8628 -0.1031
 8773SOL     OW37777   0.033   3.519  15.534  0.0396 -0.0190 -0.0097
 8773SOL    HW137778   0.075   3.563  15.460 -1.2404  0.7016 -0.3141
 8773SOL    HW237779   4.716   3.589  15.585  2.2066  0.2959  1.2787
 8774SOL     OW37780   1.316   1.804  11.287  0.2349 -0.1728  0.1015
 8774SOL    HW137781   1.341   1.891  11.320 -1.0244  0.3298 -0.2625
 8774SOL    HW237782   1.222   1.812  11.273  0.3990 -1.5106 -1.7646
 8775SOL     OW37783   4.564   3.880   5.157 -0.1822 -0.2127 -0.0824
 8775SOL    HW137784   4.560   3.799   5.208  0.0153 -1.0521 -1.4331
 8775SOL    HW237785   4.526   3.929   5.230 -0.6831  1.7809 -1.6983
 8776SOL     OW37786   0.630   2.686  14.053  0.3659  0.4810  0.6878
 8776SOL    HW137787   0.698   2.727  14.000  1.2579 -0.0735  1.4051
 8776SOL    HW237788   0.606   2.761  14.107 -0.5586  0.9887 -0.4337
 8777SOL     OW37789   4.633   2.591   0.874  0.0577  0.1590 -0.3878
 8777SOL    HW137790   4.616   2.668   0.820 -1.6105 -0.3139 -0.5545
 8777SOL    HW237791   4.620   2.631   0.960  0.0659 -1.2795  0.2885
 8778SOL     OW37792   3.666   3.657  10.579  0.4682 -0.6308 -0.0679
 8778SOL    HW137793   3.639   3.692  10.494 -0.5480 -1.2334 -0.0039
 8778SOL    HW237794   3.583   3.676  10.623  0.7224 -1.2014  0.6506
 8779SOL     OW37795   1.002   3.708   5.272 -0.4341 -0.2843  0.3082
 8779SOL    HW137796   1.031   3.718   5.181 -0.7295  2.5575  0.5114
 8779SOL    HW237797   0.923   3.761   5.279 -0.6201 -0.9453  3.1290
 8780SOL     OW37798   2.900   2.019   0.577  0.0845 -0.2330  0.0238
 8780SOL    HW137799   2.830   1.972   0.624 -1.3466  1.1191 -0.7565
 8780SOL    HW237800   2.955   1.956   0.531 -0.1746  0.1727 -0.8460
 8781SOL     OW37801   3.708   3.663   2.233 -0.1037 -0.0701  0.1586
 8781SOL    HW137802   3.781   3.691   2.289  0.0017  0.2938 -0.1587
 8781SOL    HW237803   3.626   3.684   2.278 -1.3237  0.1042 -2.1754
 8782SOL     OW37804   4.252   3.687   5.554  0.1638  0.2753 -0.4482
 8782SOL    HW137805   4.170   3.736   5.545 -1.3235 -1.7840  1.9789
 8782SOL    HW237806   4.232   3.594   5.565 -0.0481  0.2799 -0.7937
 8783SOL     OW37807   1.721   4.721  17.218 -0.0309  0.1017 -0.4052
 8783SOL    HW137808   1.657   0.048  17.267  0.8271  0.8132 -0.0073
 8783SOL    HW237809   1.805   0.039  17.240 -0.2151  0.0053  0.4710
 8784SOL     OW37810   4.388   0.938   6.819  0.4955 -0.5362  0.0087
 8784SOL    HW137811   4.440   1.013   6.790  0.5815  0.4425  2.7307
 8784SOL    HW237812   4.331   0.962   6.891 -1.6540 -1.3016 -1.4533
 8785SOL     OW37813   4.319   0.607   2.805 -0.3706  0.3643  0.2542
 8785SOL    HW137814   4.368   0.678   2.846  1.4507 -0.9084  0.3086
 8785SOL    HW237815   4.377   0.533   2.824 -0.9193 -0.2515 -0.4620
 8786SOL     OW37816   0.696   3.305   3.538 -0.1359  0.2154  0.2514
 8786SOL    HW137817   0.730   3.365   3.472  1.2138 -0.8922 -0.0536
 8786SOL    HW237818   0.601   3.313   3.527  0.1494  3.1374 -0.0539
 8787SOL     OW37819   1.648   3.525   3.610  0.0123  0.1997 -0.0990
 8787SOL    HW137820   1.619   3.496   3.697 -2.1747  2.3646 -0.1279
 8787SOL    HW237821   1.711   3.455   3.593  1.1877  1.2687 -0.0794
 8788SOL     OW37822   3.861   4.468  12.808 -0.2752 -0.0362  0.3402
 8788SOL    HW137823   3.909   4.525  12.868  1.1290 -2.5729  1.6539
 8788SOL    HW237824   3.847   4.527  12.734  1.4330 -0.6012 -0.4263
 8789SOL     OW37825   2.505   4.128  16.013 -0.4391  0.2585 -0.2880
 8789SOL    HW137826   2.422   4.169  15.989 -1.3496 -0.7452  1.1394
 8789SOL    HW237827   2.521   4.083  15.930 -0.6517 -2.8334  1.3339
 8790SOL     OW37828   1.417   3.285   3.999  0.7228 -0.3651  1.0815
 8790SOL    HW137829   1.364   3.214   4.033  0.1487 -0.0365  0.8798
 8790SOL    HW237830   1.397   3.352   4.065  1.5160  0.1570  0.7995
 8791SOL     OW37831   4.160   2.399   4.950 -0.1228  0.3753 -0.0170
 8791SOL    HW137832   4.189   2.448   5.026 -0.5051 -0.8898  0.9480
 8791SOL    HW237833   4.183   2.455   4.876  2.2575 -1.1723 -0.4676
 8792SOL     OW37834   4.326   3.532   2.296  0.2163 -0.0234  0.0713
 8792SOL    HW137835   4.258   3.521   2.229  0.1956 -2.0282  0.4181
 8792SOL    HW237836   4.279   3.564   2.373 -1.5939 -1.8058 -0.3147
 8793SOL     OW37837   0.502   0.044   2.541  0.4691  0.4641  0.0740
 8793SOL    HW137838   0.590   0.078   2.525 -0.1064  0.8423 -2.2468
 8793SOL    HW237839   0.511   0.010   2.631  0.0415  0.9806  0.3159
 8794SOL     OW37840   4.411   3.152   9.826 -0.6762  0.0307 -0.1373
 8794SOL    HW137841   4.400   3.168   9.920 -0.0585 -0.3436 -0.0012
 8794SOL    HW237842   4.433   3.240   9.795 -0.9849  0.4027  0.7148
 8795SOL     OW37843   2.628   2.472  13.541  0.3448 -0.0615  0.2186
 8795SOL    HW137844   2.676   2.419  13.477  0.2256 -0.3769  0.3927
 8795SOL    HW237845   2.600   2.531  13.471  0.5346  0.5805  0.6891
 8796SOL     OW37846   0.336   3.374   3.528  0.1752 -0.2280 -0.4454
 8796SOL    HW137847   0.293   3.375   3.613  0.5933 -0.1187 -0.2374
 8796SOL    HW237848   0.264   3.405   3.471 -0.7617 -2.2807 -0.3763
 8797SOL     OW37849   0.399   2.769   3.833  0.2833  0.4624 -0.2620
 8797SOL    HW137850   0.450   2.689   3.847  0.1531  0.2147 -1.2327
 8797SOL    HW237851   0.393   2.784   3.739  2.2466  0.4145 -0.3987
 8798SOL     OW37852   2.003   2.848   9.032 -0.0549 -0.1571  1.0444
 8798SOL    HW137853   1.994   2.937   9.066  3.4903  0.4674  0.3392
 8798SOL    HW237854   2.055   2.855   8.952 -1.9925  2.5375  0.0491
 8799SOL     OW37855   4.484   0.864   0.764  0.2258 -0.8540 -0.0165
 8799SOL    HW137856   4.409   0.838   0.817 -0.0937  1.8886  0.9241
 8799SOL    HW237857   4.435   0.891   0.686  1.0839 -1.4814 -0.7721
 8800SOL     OW37858   2.959   4.556   6.854 -0.0959 -0.0005  0.0337
 8800SOL    HW137859   3.014   4.632   6.837  0.2135  0.1170  1.5897
 8800SOL    HW237860   3.024   4.492   6.882  0.5950 -0.1088 -1.7652
 8801SOL     OW37861   0.576   1.568   5.508 -0.4365  0.2920  0.5257
 8801SOL    HW137862   0.492   1.582   5.552 -0.9649  1.3074 -0.8091
 8801SOL    HW237863   0.639   1.616   5.562 -1.9764 -0.9406  3.3874
 8802SOL     OW37864   4.391   3.129   7.890  0.1122 -0.6549 -0.0920
 8802SOL    HW137865   4.335   3.134   7.967  0.3733  1.4676 -0.0333
 8802SOL    HW237866   4.347   3.205   7.850 -0.0528 -0.2766  0.8049
 8803SOL     OW37867   2.350   1.319   4.186 -0.1478  0.3011  0.0443
 8803SOL    HW137868   2.436   1.282   4.207  0.3735  0.7810 -1.2561
 8803SOL    HW237869   2.285   1.272   4.239  0.5037  1.5602  1.9717
 8804SOL     OW37870   2.542   1.381   5.874 -0.2667 -0.3036  0.1503
 8804SOL    HW137871   2.511   1.470   5.888 -0.6659 -0.1349 -1.8570
 8804SOL    HW237872   2.634   1.396   5.896 -0.4122  0.8961 -0.0970
 8805SOL     OW37873   1.013   3.319   4.031  0.7771 -0.8546  0.4557
 8805SOL    HW137874   0.994   3.385   3.965 -1.4397 -0.4755  1.4552
 8805SOL    HW237875   0.974   3.245   3.983  1.0183 -0.3202 -0.5426
 8806SOL     OW37876   3.850   0.562   7.363 -0.2854  0.0074 -0.2202
 8806SOL    HW137877   3.755   0.578   7.362  0.0269  1.7433 -1.3593
 8806SOL    HW237878   3.876   0.572   7.454 -0.5825 -2.4729  0.1398
 8807SOL     OW37879   3.400   0.994  12.829  0.5024  0.0315 -0.0833
 8807SOL    HW137880   3.354   0.954  12.903 -1.8050 -0.0894 -1.5505
 8807SOL    HW237881   3.370   0.946  12.752  0.6409  0.3087 -0.3120
 8808SOL     OW37882   4.138   0.722   4.233  0.6260  0.1298 -0.4593
 8808SOL    HW137883   4.182   0.658   4.176 -0.8799 -1.2549 -0.0612
 8808SOL    HW237884   4.053   0.677   4.236  0.3220  0.7749  0.3026
 8809SOL     OW37885   2.591   1.805  13.495  0.0623 -0.6744  0.1147
 8809SOL    HW137886   2.662   1.818  13.558 -0.1154  0.6514  0.0578
 8809SOL    HW237887   2.527   1.866  13.533 -2.2884 -1.7408 -2.1324
 8810SOL     OW37888   2.975   2.603  16.158 -0.5196  0.1074  0.1346
 8810SOL    HW137889   2.889   2.638  16.136 -0.4697  1.3069  1.8840
 8810SOL    HW237890   2.996   2.570  16.071  0.1941  1.8895 -0.3652
 8811SOL     OW37891   3.840   4.178  15.822 -0.6517  0.8379  0.0471
 8811SOL    HW137892   3.746   4.184  15.836 -1.1738 -0.8537 -2.7545
 8811SOL    HW237893   3.863   4.265  15.788 -0.2170  1.2110  1.2836
 8812SOL     OW37894   1.000   1.605   1.459  0.1027  0.3489  0.1049
 8812SOL    HW137895   0.994   1.687   1.508  1.5478  0.0953  0.6832
 8812SOL    HW237896   0.907   1.580   1.467  0.3140 -0.6545 -0.5523
 8813SOL     OW37897   0.811   2.499  11.357  0.6214 -0.1240 -0.2059
 8813SOL    HW137898   0.791   2.410  11.385 -1.1922  0.2472 -0.3151
 8813SOL    HW237899   0.846   2.533  11.440 -0.6566 -0.2522  0.3950
 8814SOL     OW37900   1.038   0.723  10.196 -0.3300 -0.0653  0.3347
 8814SOL    HW137901   0.985   0.790  10.153  0.7557  0.4756 -0.1834
 8814SOL    HW237902   1.029   0.742  10.290 -2.6513 -1.0631  0.2964
 8815SOL     OW37903   0.106   1.069  16.900  0.3386  0.2775  0.5087
 8815SOL    HW137904   0.031   1.124  16.924 -0.0433 -0.4800  1.0695
 8815SOL    HW237905   0.171   1.089  16.968 -0.6614  1.3094  1.1598
 8816SOL     OW37906   1.408   1.934   7.898 -0.0039  0.1418  0.0233
 8816SOL    HW137907   1.386   2.001   7.834  1.0637  0.9788  0.5403
 8816SOL    HW237908   1.501   1.951   7.915  0.4057 -0.6245 -1.4940
 8817SOL     OW37909   3.598   0.555   0.599 -0.9572 -0.0383  0.4558
 8817SOL    HW137910   3.540   0.630   0.589 -1.0656 -0.2513 -0.4786
 8817SOL    HW237911   3.607   0.534   0.506 -0.6541 -0.5554  0.6022
 8818SOL     OW37912   0.174   2.277   8.158 -0.7726  0.2764  0.4626
 8818SOL    HW137913   0.155   2.284   8.064  1.6628  2.1012  0.0894
 8818SOL    HW237914   0.230   2.355   8.164  0.9658 -0.8301 -1.2748
 8819SOL     OW37915   2.375   2.166   9.822  0.0559 -0.1511 -0.1087
 8819SOL    HW137916   2.470   2.172   9.833  0.3351 -2.2197 -1.3821
 8819SOL    HW237917   2.352   2.258   9.811  0.6356  0.2511  2.0025
 8820SOL     OW37918   0.560   0.222   7.532 -0.0086  0.3719  0.7970
 8820SOL    HW137919   0.498   0.271   7.586 -0.5866  0.6654 -0.1472
 8820SOL    HW237920   0.521   0.219   7.445  0.9170  0.1955  0.3972
 8821SOL     OW37921   3.491   2.057  16.057  0.4395  0.4464  0.0828
 8821SOL    HW137922   3.397   2.068  16.066  0.2550 -0.6312 -0.4783
 8821SOL    HW237923   3.513   2.099  15.973  0.2320  2.4093  1.0170
 8822SOL     OW37924   2.723   3.146   5.365  0.3622 -0.0693 -0.3248
 8822SOL    HW137925   2.735   3.133   5.459 -2.4528  0.6927  0.1526
 8822SOL    HW237926   2.699   3.059   5.333 -0.2896 -0.4489  1.2153
 8823SOL     OW37927   0.977   4.529  13.036  0.0443  0.2189 -0.3343
 8823SOL    HW137928   1.057   4.557  13.080  1.0586 -0.9168 -1.4413
 8823SOL    HW237929   1.024   4.485  12.965 -0.0509 -0.6737  0.1577
 8824SOL     OW37930   1.071   1.737   3.719 -1.1034  0.1152  0.4341
 8824SOL    HW137931   1.100   1.655   3.678 -0.5876 -0.2876  1.6061
 8824SOL    HW237932   0.993   1.764   3.670  0.1835 -0.3174 -1.8453
 8825SOL     OW37933   2.643   2.888  16.333  0.0301 -0.0379 -0.1987
 8825SOL    HW137934   2.575   2.952  16.313  1.8400  1.2780 -2.1166
 8825SOL    HW237935   2.715   2.914  16.275  1.1381 -0.9613  0.7581
 8826SOL     OW37936   3.317   3.730   6.996 -0.3060  0.4880  0.4251
 8826SOL    HW137937   3.333   3.640   6.967 -0.5230  0.7701 -0.5822
 8826SOL    HW237938   3.273   3.773   6.922  1.8884 -1.5941 -2.0707
 8827SOL     OW37939   4.354   4.437   2.894  0.3719  0.2612  0.8561
 8827SOL    HW137940   4.319   4.526   2.899  0.6197  0.4337 -0.3817
 8827SOL    HW237941   4.444   4.445   2.864 -0.0481  0.4151 -0.3901
 8828SOL     OW37942   3.000   1.263  16.673 -0.0773  0.1063  0.2520
 8828SOL    HW137943   2.987   1.340  16.729  1.3050  0.1781  0.4721
 8828SOL    HW237944   3.078   1.284  16.622 -0.0824 -0.1905  0.1263
 8829SOL     OW37945   4.100   1.104   9.152  0.2644 -0.5797  0.2675
 8829SOL    HW137946   4.127   1.163   9.082 -3.3361  0.5201 -0.1761
 8829SOL    HW237947   4.118   1.019   9.112 -1.8871 -1.0685  0.3270
 8830SOL     OW37948   3.251   0.426   3.084 -0.2480  0.2892  1.1590
 8830SOL    HW137949   3.187   0.416   3.013  0.0341 -2.4790  1.3215
 8830SOL    HW237950   3.250   0.519   3.108  1.2070  1.2733 -2.4811
 8831SOL     OW37951   4.079   3.659   7.663 -0.1007 -0.2645 -0.0643
 8831SOL    HW137952   4.169   3.635   7.643 -0.6923 -1.2784 -1.5185
 8831SOL    HW237953   4.081   3.754   7.653  1.3603 -0.5023 -1.9337
 8832SOL     OW37954   3.777   2.364  14.213  0.3145  0.5541  0.1388
 8832SOL    HW137955   3.711   2.328  14.272  0.8837  4.4535  3.1588
 8832SOL    HW237956   3.729   2.444  14.190 -1.9036 -0.8223 -0.1109
 8833SOL     OW37957   2.746   0.231   4.484 -0.1202 -1.0213 -0.3515
 8833SOL    HW137958   2.795   0.159   4.445 -0.9185 -0.9945 -1.4006
 8833SOL    HW237959   2.703   0.265   4.406  1.3749 -0.4821 -0.9231
 8834SOL     OW37960   2.194   1.083   2.763 -0.6526  0.0567 -0.0328
 8834SOL    HW137961   2.248   1.155   2.730 -0.2332  0.9274  2.5041
 8834SOL    HW237962   2.253   1.008   2.768  2.4582  2.6497  2.8679
 8835SOL     OW37963   3.668   0.568  10.349 -0.0966 -0.0042  0.1924
 8835SOL    HW137964   3.577   0.555  10.375 -0.6515 -1.8973 -2.6818
 8835SOL    HW237965   3.669   0.515  10.269 -1.4105  0.7976 -0.3562
 8836SOL     OW37966   0.637   1.740  10.955 -0.0443 -0.4208 -0.1494
 8836SOL    HW137967   0.639   1.812  11.018  0.2408 -0.6668  0.1240
 8836SOL    HW237968   0.668   1.670  11.013  1.0858 -0.7173 -1.1011
 8837SOL     OW37969   0.750   1.691   5.914 -0.4181 -0.3394 -0.9562
 8837SOL    HW137970   0.828   1.642   5.938  0.0416  1.1574  0.6028
 8837SOL    HW237971   0.760   1.769   5.969 -3.4985  0.1223 -1.0118
 8838SOL     OW37972   0.756   4.064   4.082  0.0469 -0.2896 -1.1643
 8838SOL    HW137973   0.735   4.133   4.145  0.7278  1.0662 -2.4183
 8838SOL    HW237974   0.677   4.065   4.028 -0.7856 -2.8199  0.0187
 8839SOL     OW37975   2.258   2.269   0.465  0.2014 -0.1062 -0.1079
 8839SOL    HW137976   2.289   2.187   0.504  1.4257 -0.1390 -1.1654
 8839SOL    HW237977   2.167   2.272   0.497  0.0962 -2.1369 -0.2141
 8840SOL     OW37978   0.896   1.248  16.359 -0.6311  0.0062 -0.1181
 8840SOL    HW137979   0.805   1.218  16.356 -1.4666  2.4849  0.9924
 8840SOL    HW237980   0.885   1.342  16.365 -0.9410 -0.1957  2.3339
 8841SOL     OW37981   1.673   4.699   3.771  0.2231 -0.6004 -0.1075
 8841SOL    HW137982   1.599   0.009   3.720  0.0127 -2.2615 -0.8864
 8841SOL    HW237983   1.672   0.019   3.856 -2.8385 -3.0088  1.0635
 8842SOL     OW37984   1.276   4.010   4.967  0.3874 -0.1093 -0.1831
 8842SOL    HW137985   1.199   4.035   4.916  0.6204  1.0127  0.0269
 8842SOL    HW237986   1.298   4.094   5.007  0.8950  0.3486 -1.4161
 8843SOL     OW37987   2.806   3.335   8.595  0.0177 -0.1041 -0.3212
 8843SOL    HW137988   2.718   3.300   8.582  0.5726 -2.4952  2.2212
 8843SOL    HW237989   2.832   3.353   8.505 -0.8396  0.6516 -0.4201
 8844SOL     OW37990   0.193   4.486  15.463 -0.0291  0.3959 -0.0430
 8844SOL    HW137991   0.107   4.455  15.436 -0.1396  1.1731 -0.5670
 8844SOL    HW237992   0.172   4.520  15.550  0.1401  2.3025 -0.7595
 8845SOL     OW37993   2.260   1.353  14.390  0.0719  0.2716 -0.1589
 8845SOL    HW137994   2.332   1.380  14.333 -1.4001  0.6509 -1.8372
 8845SOL    HW237995   2.217   1.289  14.334 -0.5081 -1.0960  1.8547
 8846SOL     OW37996   2.304   3.697   9.953 -0.3608  0.7317 -0.1968
 8846SOL    HW137997   2.305   3.747  10.035  1.2955  1.3604 -0.5951
 8846SOL    HW237998   2.398   3.681   9.941 -0.8089 -2.3638  0.5250
 8847SOL     OW37999   2.137   4.052  12.366 -0.1891 -0.5244  0.3310
 8847SOL    HW138000   2.124   4.097  12.450 -0.4467  2.7144 -1.4518
 8847SOL    HW238001   2.089   4.108  12.305  0.9772  0.2872  0.1708
 8848SOL     OW38002   0.293   4.513   5.094 -0.1262  0.1432  0.3702
 8848SOL    HW138003   0.309   4.424   5.124  0.6759  0.1141 -0.1546
 8848SOL    HW238004   0.212   4.540   5.136  0.1530  0.9560  0.3819
 8849SOL     OW38005   2.120   2.087  15.762  0.3760  0.0959  0.1778
 8849SOL    HW138006   2.105   2.101  15.669  0.0056  1.3414  0.4242
 8849SOL    HW238007   2.121   2.176  15.798  1.1079  0.1925 -0.0799
 8850SOL     OW38008   1.222   4.436   3.623 -0.1959 -0.0897 -0.8658
 8850SOL    HW138009   1.219   4.340   3.615 -1.0702 -0.0684 -0.8202
 8850SOL    HW238010   1.281   4.463   3.552  0.4318  0.0344 -0.2916
 8851SOL     OW38011   2.837   1.112   2.622  0.0175  0.0282  0.1915
 8851SOL    HW138012   2.765   1.170   2.645 -0.3684 -1.6191  3.2132
 8851SOL    HW238013   2.805   1.072   2.541 -0.0098 -1.2407  0.8187
 8852SOL     OW38014   1.339   2.465  11.355  0.2272 -0.2795  0.4954
 8852SOL    HW138015   1.380   2.534  11.303 -2.2547  0.8938  0.1044
 8852SOL    HW238016   1.327   2.502  11.442  0.9602  0.7718  0.1473
 8853SOL     OW38017   0.452   4.052   4.098  0.1040 -0.5837 -0.3599
 8853SOL    HW138018   0.435   3.958   4.100 -2.4039 -0.1648 -0.8565
 8853SOL    HW238019   0.435   4.070   4.190 -0.2836  1.3907 -0.8091
 8854SOL     OW38020   2.245   4.361   6.858 -0.7385 -0.7747 -0.0494
 8854SOL    HW138021   2.226   4.347   6.951 -0.4939 -0.8388 -0.0093
 8854SOL    HW238022   2.194   4.433   6.820  2.9845  0.2428 -3.1651
 8855SOL     OW38023   3.260   1.796  10.072  0.0620  0.2718  0.2537
 8855SOL    HW138024   3.340   1.825  10.028 -1.3065 -0.8740 -2.9584
 8855SOL    HW238025   3.298   1.733  10.134  0.2242  1.1112  1.0151
 8856SOL     OW38026   1.005   3.873   2.417  0.3389 -0.1514  0.1546
 8856SOL    HW138027   0.944   3.947   2.419 -0.3929 -0.7255 -1.2138
 8856SOL    HW238028   1.013   3.835   2.504  4.7679  0.5743  0.0656
 8857SOL     OW38029   3.209   2.955   7.229  0.6696 -0.5538 -0.4783
 8857SOL    HW138030   3.254   3.033   7.262  0.0837  0.7854 -2.8554
 8857SOL    HW238031   3.264   2.931   7.155  0.4363  0.3106 -0.9325
 8858SOL     OW38032   1.867   2.495   8.973  0.5303  0.5113  0.8479
 8858SOL    HW138033   1.960   2.475   8.961  1.1301  3.3995  0.5809
 8858SOL    HW238034   1.844   2.555   8.902  0.4361  2.2318  2.3317
 8859SOL     OW38035   0.223   3.215   6.641  0.3951  0.2457 -0.1162
 8859SOL    HW138036   0.314   3.241   6.656  0.7273 -2.5430  2.5767
 8859SOL    HW238037   0.234   3.128   6.680  0.2186 -0.4316 -1.5966
 8860SOL     OW38038   1.796   3.351   0.270  0.6227 -0.4135  0.3014
 8860SOL    HW138039   1.741   3.294   0.324 -1.2967 -0.5846 -1.8631
 8860SOL    HW238040   1.823   3.418   0.333 -0.0232  0.5976 -0.5032
 8861SOL     OW38041   3.828   0.989   8.424 -0.1231 -0.3250  0.5747
 8861SOL    HW138042   3.903   0.968   8.368 -1.0974 -1.7549 -0.1908
 8861SOL    HW238043   3.842   1.084   8.433 -2.8481 -0.1180  2.4950
 8862SOL     OW38044   1.608   0.358  12.260 -0.3715  0.9046  0.4509
 8862SOL    HW138045   1.634   0.386  12.172 -1.6500  0.0007 -0.2200
 8862SOL    HW238046   1.540   0.297  12.232 -1.2643  1.2109  2.0189
 8863SOL     OW38047   1.050   1.867  16.380  0.4462  0.1411 -0.0335
 8863SOL    HW138048   1.083   1.893  16.466 -3.5397  1.9968  0.9587
 8863SOL    HW238049   1.074   1.775  16.372 -2.7984 -0.7131 -0.0377
 8864SOL     OW38050   0.482   2.655  12.380 -0.1794  0.3388 -0.3721
 8864SOL    HW138051   0.449   2.586  12.323 -1.1334  0.4178  0.0920
 8864SOL    HW238052   0.537   2.695  12.312 -0.0010  3.6154  1.7264
 8865SOL     OW38053   4.708   0.874   4.067  0.1611 -0.2709 -0.5066
 8865SOL    HW138054   4.706   0.969   4.057  0.6106 -0.1464  0.5657
 8865SOL    HW238055   0.079   0.865   4.070 -0.0520 -1.9951  0.6358
 8866SOL     OW38056   1.920   2.897  16.932 -0.6668 -0.1350  0.6592
 8866SOL    HW138057   1.912   2.806  16.960 -0.0910 -1.1126 -2.3559
 8866SOL    HW238058   1.989   2.883  16.867 -0.6297  0.4451  0.5723
 8867SOL     OW38059   4.618   3.794   3.275  0.3408 -1.1314 -0.5891
 8867SOL    HW138060   4.574   3.879   3.271  2.0077 -0.1700  1.9348
 8867SOL    HW238061   4.557   3.730   3.313  1.3472 -2.3449 -1.0016
 8868SOL     OW38062   0.264   4.675   2.416 -0.3530  0.2047  0.0770
 8868SOL    HW138063   0.319   0.008   2.470 -2.0637  1.1969  0.7541
 8868SOL    HW238064   0.300   4.593   2.451 -0.8610 -0.7149 -1.5365
 8869SOL     OW38065   0.024   1.414   0.190  0.3463  0.5987  0.0909
 8869SOL    HW138066   4.682   1.451   0.130  0.5046 -0.0053 -0.4558
 8869SOL    HW238067   0.028   1.329   0.147 -5.2492  0.6671 -0.5608
 8870SOL     OW38068   3.005   4.447   1.495 -0.1999 -0.0413  0.6498
 8870SOL    HW138069   2.970   4.506   1.562  1.2960  1.6748 -0.0801
 8870SOL    HW238070   3.065   4.391   1.544 -0.6747 -0.2873  0.9460
 8871SOL     OW38071   1.253   2.152   1.056  0.4138  0.1892 -0.1578
 8871SOL    HW138072   1.236   2.187   0.968 -0.0898  1.1291  0.3093
 8871SOL    HW238073   1.258   2.057   1.044 -2.4265  0.1050 -0.7584
 8872SOL     OW38074   0.774   2.588   8.062 -0.1947 -1.0774  0.0673
 8872SOL    HW138075   0.831   2.663   8.049 -3.6845  1.5189 -0.3128
 8872SOL    HW238076   0.765   2.561   7.970  0.8865 -1.7266  0.1511
 8873SOL     OW38077   0.808   1.723  16.016  0.4792  0.0769  0.2598
 8873SOL    HW138078   0.737   1.758  15.963 -0.9996  1.1362  2.9391
 8873SOL    HW238079   0.774   1.749  16.101 -0.3548 -0.9675  0.2380
 8874SOL     OW38080   4.715   0.614   2.742 -0.8923 -0.1430  0.0229
 8874SOL    HW138081   4.656   0.683   2.773 -1.7198 -1.8970  2.3517
 8874SOL    HW238082   4.663   0.545   2.701 -0.6577 -0.5858  0.4727
 8875SOL     OW38083   1.238   2.532  11.606 -0.1463 -0.5528  0.4065
 8875SOL    HW138084   1.146   2.541  11.580  0.4086  0.4123 -1.1778
 8875SOL    HW238085   1.255   2.624  11.626  2.2485 -0.5385 -1.8854
 8876SOL     OW38086   0.358   4.320  11.412  0.0219  0.2753 -0.4144
 8876SOL    HW138087   0.420   4.253  11.385 -1.0266 -0.6245 -0.5693
 8876SOL    HW238088   0.277   4.270  11.399  0.6520 -0.8151 -0.1405
 8877SOL     OW38089   1.408   1.102   8.980  0.5409 -0.1985  0.0030
 8877SOL    HW138090   1.413   1.079   8.888 -2.3050 -0.2382 -0.1660
 8877SOL    HW238091   1.440   1.192   8.982 -1.1585  0.3716  2.2256
 8878SOL     OW38092   2.558   2.238  13.696  0.1598  0.1907  0.1635
 8878SOL    HW138093   2.598   2.312  13.650 -0.2562 -0.8680 -1.9168
 8878SOL    HW238094   2.638   2.216  13.743  1.5051  0.2053 -2.0890
 8879SOL     OW38095   3.627   1.003  14.383  0.0409  0.2542  0.0573
 8879SOL    HW138096   3.639   1.087  14.338 -0.1070  0.6835  0.8363
 8879SOL    HW238097   3.570   0.965  14.316  0.2270 -0.2899  0.2135
 8880SOL     OW38098   4.043   0.453   5.958 -0.4045  0.5603 -0.3095
 8880SOL    HW138099   4.013   0.543   5.944 -1.1494  0.0560 -1.9141
 8880SOL    HW238100   4.008   0.405   5.883 -0.2677  0.5919 -0.3936
 8881SOL     OW38101   0.945   1.517   3.589  0.5946 -0.6768 -0.0216
 8881SOL    HW138102   0.888   1.594   3.584 -2.7051 -3.1199 -0.1906
 8881SOL    HW238103   0.889   1.440   3.580  0.8195 -0.7298 -0.9647
 8882SOL     OW38104   1.664   4.044   2.016  0.4600 -0.5418 -0.6819
 8882SOL    HW138105   1.670   4.073   1.925  1.0313  0.4998 -0.3166
 8882SOL    HW238106   1.732   3.977   2.024  0.7005 -0.0608  1.3360
 8883SOL     OW38107   1.282   1.473  15.906 -0.1709  0.1984  0.2567
 8883SOL    HW138108   1.238   1.511  15.830 -1.2875  0.3400  0.9813
 8883SOL    HW238109   1.320   1.550  15.948  0.1882 -0.0546  0.3939
 8884SOL     OW38110   0.348   0.478   4.146 -0.2721  0.3475 -0.3864
 8884SOL    HW138111   0.286   0.408   4.167  2.3306 -1.7476  0.1963
 8884SOL    HW238112   0.427   0.435   4.114  0.7994  0.2102  2.4719
 8885SOL     OW38113   2.227   1.903  13.142  0.8269 -0.2318  0.1861
 8885SOL    HW138114   2.314   1.885  13.179  1.3094  1.5990 -0.0146
 8885SOL    HW238115   2.222   1.996  13.120 -1.5005 -0.1899  0.8947
 8886SOL     OW38116   0.189   0.816  16.656  0.1651 -0.3379  0.6551
 8886SOL    HW138117   0.103   0.815  16.699 -0.1537 -1.6587 -0.0109
 8886SOL    HW238118   0.249   0.842  16.725  2.4426 -2.8962 -0.3548
 8887SOL     OW38119   1.998   4.182   8.497  0.4319  0.3278 -0.1284
 8887SOL    HW138120   1.943   4.260   8.494 -2.0099 -1.3732  0.1913
 8887SOL    HW238121   2.037   4.190   8.584 -1.7974 -0.9388  1.0164
 8888SOL     OW38122   4.268   0.398  16.393  0.2295 -0.0131 -0.2288
 8888SOL    HW138123   4.173   0.411  16.389 -0.0108 -1.5136  0.6636
 8888SOL    HW238124   4.287   0.411  16.485 -0.0605  1.8202 -0.4394
 8889SOL     OW38125   4.179   3.987   4.991  0.6102 -0.5936 -0.1567
 8889SOL    HW138126   4.267   4.023   4.979  0.0474  0.3690 -1.3742
 8889SOL    HW238127   4.155   4.031   5.072  2.6770  2.7189 -1.3432
 8890SOL     OW38128   2.523   3.588  17.562  0.1176  0.1638 -0.1290
 8890SOL    HW138129   2.573   3.578  17.643 -0.4475 -1.3697  0.0419
 8890SOL    HW238130   2.545   3.680  17.554  2.0132 -0.1611  1.2564
 8891SOL     OW38131   3.811   2.956   6.233 -0.3603  0.2343 -0.5881
 8891SOL    HW138132   3.852   3.042   6.238 -0.1010  0.2343 -2.4392
 8891SOL    HW238133   3.721   2.974   6.209  0.1194 -0.2475 -2.7883
 8892SOL     OW38134   3.197   4.032   0.096  0.4338 -0.1271 -0.2707
 8892SOL    HW138135   3.231   4.120   0.109  0.3040 -0.1203  0.0170
 8892SOL    HW238136   3.120   4.016   0.151  0.2394 -0.7719 -0.7278
 8893SOL     OW38137   3.737   2.437   1.138  0.2065  0.3263  0.7344
 8893SOL    HW138138   3.676   2.458   1.209  0.5492 -1.6825  1.6158
 8893SOL    HW238139   3.811   2.498   1.140 -0.5541  1.2619  0.5988
 8894SOL     OW38140   0.230   0.893   1.118 -0.4840  0.2201  0.1026
 8894SOL    HW138141   0.139   0.902   1.147 -0.4137  0.7165  0.1679
 8894SOL    HW238142   0.277   0.880   1.201  0.3940  0.2459 -0.3899
 8895SOL     OW38143   1.313   1.697  16.063  0.0221  0.1577  0.1643
 8895SOL    HW138144   1.313   1.793  16.066  0.7584  0.1671 -0.3102
 8895SOL    HW238145   1.218   1.691  16.055 -0.0384  0.9481  0.2535
 8896SOL     OW38146   3.275   1.233   2.929 -0.0510  0.0371 -0.1507
 8896SOL    HW138147   3.225   1.151   2.933 -0.4327  0.3857  2.0327
 8896SOL    HW238148   3.253   1.257   3.019  1.8053  1.8073 -0.1789
 8897SOL     OW38149   0.087   2.527  10.527  0.3999 -0.3476 -0.2436
 8897SOL    HW138150   0.012   2.478  10.560 -0.0727  1.2406  1.0163
 8897SOL    HW238151   0.112   2.583  10.600  1.0227  0.0045 -0.7193
 8898SOL     OW38152   3.735   2.638   5.626 -0.0947 -0.3683 -0.0747
 8898SOL    HW138153   3.706   2.684   5.547 -0.3520 -2.1769 -1.0366
 8898SOL    HW238154   3.720   2.709   5.688  1.4192  0.7486 -0.9804
 8899SOL     OW38155   4.401   2.437   1.309  0.4991  0.6383  0.1429
 8899SOL    HW138156   4.321   2.425   1.259  0.2831 -1.1472  0.8885
 8899SOL    HW238157   4.371   2.510   1.363 -1.9839 -0.1931 -0.1321
 8900SOL     OW38158   2.406   4.378   8.066 -0.2830 -0.3654 -0.1516
 8900SOL    HW138159   2.453   4.300   8.095 -0.1170  0.3703  1.5407
 8900SOL    HW238160   2.484   4.400   8.014 -0.2983 -2.3090 -1.0047
 8901SOL     OW38161   1.431   1.558   5.470  0.2493  0.3260  0.4162
 8901SOL    HW138162   1.403   1.634   5.419 -0.7110 -1.4097 -1.6148
 8901SOL    HW238163   1.516   1.536   5.432  0.2236 -0.7055  0.9445
 8902SOL     OW38164   3.339   3.935  16.285  0.4131  0.5791 -0.0001
 8902SOL    HW138165   3.335   4.030  16.286  1.7353  0.6286 -0.0511
 8902SOL    HW238166   3.337   3.916  16.191 -1.1562 -0.2971  0.2079
 8903SOL     OW38167   0.350   1.274   8.055 -0.5148 -0.3715 -0.7839
 8903SOL    HW138168   0.285   1.280   8.125  0.1321 -1.5164 -0.0885
 8903SOL    HW238169   0.417   1.236   8.112 -0.2564  1.3038  0.0575
 8904SOL     OW38170   4.088   1.011   0.932  0.4198  0.3894  0.1950
 8904SOL    HW138171   4.053   1.099   0.917 -0.3658  0.4815  2.5785
 8904SOL    HW238172   4.167   1.031   0.982  0.8427  1.0762 -0.7333
 8905SOL     OW38173   2.481   2.675   7.346  0.4244  0.3127  0.8059
 8905SOL    HW138174   2.539   2.711   7.413 -0.3676  2.1966  0.4786
 8905SOL    HW238175   2.542   2.656   7.275  0.5728 -0.1991  1.0769
 8906SOL     OW38176   0.525   0.231   0.096  0.3882 -1.0324 -0.5246
 8906SOL    HW138177   0.581   0.302   0.066 -0.1985  0.4837  1.9790
 8906SOL    HW238178   0.532   0.234   0.191  3.6324  0.5988 -0.8210
 8907SOL     OW38179   2.760   4.170   2.424  0.0657 -0.7784 -0.0382
 8907SOL    HW138180   2.726   4.093   2.471 -0.7364  0.1329  0.8774
 8907SOL    HW238181   2.853   4.152   2.436  0.4232  2.0236  1.4361
 8908SOL     OW38182   1.079   0.860   6.896 -0.1312  0.1686 -0.0867
 8908SOL    HW138183   1.085   0.808   6.976  1.6221 -0.8560 -0.8834
 8908SOL    HW238184   1.037   0.792   6.844  1.4323 -0.3854 -0.6200
 8909SOL     OW38185   4.569   1.943   1.862  0.0764  0.6035  0.5759
 8909SOL    HW138186   4.479   1.975   1.854 -0.0728  0.1586  0.4720
 8909SOL    HW238187   4.564   1.885   1.938 -0.6833  1.1855  0.9662
 8910SOL     OW38188   1.910   3.579   9.445  0.7018  0.2184 -0.5541
 8910SOL    HW138189   1.889   3.584   9.538  3.1962  0.5551 -0.0127
 8910SOL    HW238190   1.997   3.621   9.446  0.8148 -0.0268 -0.2044
 8911SOL     OW38191   0.115   4.124   4.586  0.0876 -0.0241 -0.2426
 8911SOL    HW138192   0.133   4.165   4.670 -0.4755  0.8886 -0.5718
 8911SOL    HW238193   0.024   4.150   4.575 -0.1299 -0.1201  1.3518
 8912SOL     OW38194   3.092   2.626   4.149 -0.1546  0.2490 -0.3161
 8912SOL    HW138195   3.078   2.648   4.057 -0.3380  1.9712  0.1321
 8912SOL    HW238196   3.025   2.685   4.184  0.6347  1.7011 -1.2740
 8913SOL     OW38197   4.022   1.041   6.720 -0.3260 -0.1805 -0.6558
 8913SOL    HW138198   4.078   1.053   6.797 -0.6553  0.5165 -0.5197
 8913SOL    HW238199   4.096   1.055   6.661 -0.0675 -0.2444 -0.3491
 8914SOL     OW38200   4.526   1.052   4.882  0.4211  0.2300  0.4420
 8914SOL    HW138201   4.598   1.045   4.943 -1.1871 -0.2713  2.2720
 8914SOL    HW238202   4.548   0.978   4.825 -1.7832 -0.7435  0.8260
 8915SOL     OW38203   1.523   3.202   8.573  0.6028 -0.5768  0.5322
 8915SOL    HW138204   1.585   3.134   8.599  0.0962 -0.9699  0.7134
 8915SOL    HW238205   1.442   3.174   8.615 -0.0231  1.5161  0.7515
 8916SOL     OW38206   4.102   4.722   2.665 -0.3632 -0.4260  0.2763
 8916SOL    HW138207   4.019   4.674   2.658  0.6271 -2.0429 -0.3190
 8916SOL    HW238208   4.068   0.087   2.649 -0.0441 -0.4146 -0.3147
 8917SOL     OW38209   0.873   4.360  13.765 -0.0431  0.3183 -0.0678
 8917SOL    HW138210   0.953   4.307  13.761 -0.2886 -0.0115 -0.5471
 8917SOL    HW238211   0.889   4.414  13.688 -0.7718  0.5469 -0.0521
 8918SOL     OW38212   2.678   2.608   6.817  0.4788 -0.2728  0.3546
 8918SOL    HW138213   2.601   2.602   6.761  0.4681 -1.3926  0.5012
 8918SOL    HW238214   2.706   2.700   6.814 -1.1622  0.2708  1.3672
 8919SOL     OW38215   3.536   1.793  16.765 -0.4369  0.4445  0.0423
 8919SOL    HW138216   3.509   1.773  16.855 -0.4945 -1.7363 -0.4506
 8919SOL    HW238217   3.546   1.712  16.716 -1.6594  0.5106 -0.3149
 8920SOL     OW38218   0.455   3.133   3.957  0.0740  0.3285  0.4905
 8920SOL    HW138219   0.496   3.097   4.035  1.3845 -2.1041 -1.3268
 8920SOL    HW238220   0.485   3.224   3.963 -2.3699  1.1292  0.6107
 8921SOL     OW38221   2.326   1.704   4.628  0.1476  0.0489 -0.0399
 8921SOL    HW138222   2.313   1.609   4.631 -1.9682  0.3121 -0.7732
 8921SOL    HW238223   2.382   1.721   4.553  1.1686  0.6056  0.8498
 8922SOL     OW38224   3.344   3.579   4.582 -0.3993 -0.2100  0.4263
 8922SOL    HW138225   3.308   3.589   4.494 -1.3108  0.2020  0.8585
 8922SOL    HW238226   3.438   3.597   4.577 -0.4372 -0.6161 -1.6885
 8923SOL     OW38227   2.866   4.234   3.222 -0.0740  0.3547 -0.0356
 8923SOL    HW138228   2.872   4.310   3.165 -0.4024  0.0222 -0.5243
 8923SOL    HW238229   2.959   4.212   3.220 -0.0418  0.3642  1.8189
 8924SOL     OW38230   4.687   3.789  12.957 -0.3041 -0.2104 -0.1966
 8924SOL    HW138231   0.039   3.781  13.015 -1.5498 -0.8942  1.3297
 8924SOL    HW238232   4.630   3.723  12.997 -1.1181  1.5631  1.5395
 8925SOL     OW38233   1.055   1.842  10.373  0.0206 -0.0800  0.5251
 8925SOL    HW138234   1.023   1.898  10.303  0.8764  0.3670  0.4806
 8925SOL    HW238235   1.128   1.793  10.336 -0.3661  0.0747 -0.4279
 8926SOL     OW38236   2.148   3.546   4.312  0.2072  0.5032 -0.0525
 8926SOL    HW138237   2.126   3.466   4.264  0.5646  0.2939  0.1317
 8926SOL    HW238238   2.122   3.611   4.247 -0.6743 -1.7399 -1.9748
 8927SOL     OW38239   0.002   4.641   8.363 -0.7540 -0.0615 -0.3918
 8927SOL    HW138240   4.704   4.563   8.311 -1.6309 -0.0474 -0.0519
 8927SOL    HW238241   4.680   4.710   8.314  0.8350  1.2145 -0.0562
 8928SOL     OW38242   1.224   0.077   5.976  0.5056  0.6439  0.0560
 8928SOL    HW138243   1.183   0.053   5.892 -2.0465  2.0781  0.9001
 8928SOL    HW238244   1.286   0.006   5.993 -0.0537  0.4407  1.2378
 8929SOL     OW38245   0.371   2.938   5.407  0.5427  0.5243  0.3792
 8929SOL    HW138246   0.445   2.930   5.468  1.8023 -0.3199 -1.2592
 8929SOL    HW238247   0.309   2.877   5.445 -0.1762  0.1391 -1.4030
 8930SOL     OW38248   3.310   3.585   6.328  0.7606 -0.3008  0.3847
 8930SOL    HW138249   3.240   3.613   6.387 -0.4837 -0.7699 -0.8837
 8930SOL    HW238250   3.377   3.547   6.385  0.5000  0.0904  0.9501
 8931SOL     OW38251   2.812   1.000  11.511 -0.3972  0.2162  0.2841
 8931SOL    HW138252   2.825   0.911  11.479  1.2069  0.2284  0.9260
 8931SOL    HW238253   2.884   1.017  11.570 -0.4116  0.7398  0.1556
 8932SOL     OW38254   2.778   4.117  16.017  0.2574  0.6034  0.2749
 8932SOL    HW138255   2.684   4.130  16.033  0.1743  0.1248  0.1852
 8932SOL    HW238256   2.798   4.200  15.974  1.3716  0.8651  1.3060
 8933SOL     OW38257   3.362   4.226   1.925  0.2103 -0.4185  0.7737
 8933SOL    HW138258   3.405   4.293   1.978  0.7312 -0.0885 -0.0724
 8933SOL    HW238259   3.277   4.215   1.967  0.5597  0.2139  1.6466
 8934SOL     OW38260   4.618   1.865   3.700  0.3338 -0.2437  0.5097
 8934SOL    HW138261   4.697   1.833   3.745 -0.8775  0.1433  2.9242
 8934SOL    HW238262   4.559   1.791   3.717 -0.0608 -0.0214  0.0925
 8935SOL     OW38263   4.026   3.556   3.421  0.2265 -0.2586 -0.7374
 8935SOL    HW138264   3.949   3.609   3.442  2.7402  2.6100  1.2958
 8935SOL    HW238265   4.001   3.472   3.459 -0.0053  0.6469  1.1118
 8936SOL     OW38266   4.279   4.245   6.819 -0.3696  0.4237 -0.0560
 8936SOL    HW138267   4.214   4.244   6.888 -1.1178 -0.6429 -0.7701
 8936SOL    HW238268   4.252   4.177   6.756  0.6942 -1.3060  1.3696
 8937SOL     OW38269   1.069   0.378  14.472 -0.4904  0.1068 -0.0550
 8937SOL    HW138270   1.163   0.396  14.467 -0.3632 -0.8383 -0.9740
 8937SOL    HW238271   1.038   0.455  14.520 -0.0144  0.0459  0.3554
 8938SOL     OW38272   2.161   4.148   9.394  1.3083  0.5136  0.3348
 8938SOL    HW138273   2.101   4.088   9.348  2.4041  1.3317 -2.1604
 8938SOL    HW238274   2.098   4.194   9.449  2.0793 -1.0580  2.5235
 8939SOL     OW38275   4.159   2.731   0.503 -0.7677 -0.8490 -0.6472
 8939SOL    HW138276   4.111   2.753   0.423 -0.1432  1.5471 -0.3592
 8939SOL    HW238277   4.214   2.809   0.514 -2.9254  0.6978 -0.7106
 8940SOL     OW38278   3.450   1.133   6.582 -0.3220  0.1876  0.1998
 8940SOL    HW138279   3.356   1.127   6.564  0.1062 -0.3152 -1.8358
 8940SOL    HW238280   3.460   1.226   6.558 -1.4423 -0.5055 -3.0450
 8941SOL     OW38281   0.815   2.670   7.575 -0.1851  0.0223  0.0660
 8941SOL    HW138282   0.781   2.753   7.611 -2.1145 -1.9508  2.8060
 8941SOL    HW238283   0.805   2.705   7.486 -1.7541 -1.0343 -0.1629
 8942SOL     OW38284   0.233   0.994   7.128  0.0415  0.2775 -0.1138
 8942SOL    HW138285   0.207   0.905   7.105  2.2540  0.0217 -1.6022
 8942SOL    HW238286   0.169   1.050   7.085 -1.6056 -1.6118 -0.1340
 8943SOL     OW38287   1.581   0.851   9.531  0.6631 -0.4335  0.0282
 8943SOL    HW138288   1.537   0.932   9.554  0.7289 -0.4825  0.3335
 8943SOL    HW238289   1.669   0.883   9.552 -1.0156  4.0535  0.1931
 8944SOL     OW38290   3.102   2.718   7.223 -0.2280  0.2596 -0.3512
 8944SOL    HW138291   3.021   2.769   7.215 -1.7410 -2.0032  0.2979
 8944SOL    HW238292   3.164   2.790   7.229 -0.2127  0.0879  1.6301
 8945SOL     OW38293   4.337   4.272  12.974  0.0772 -0.0533 -0.0113
 8945SOL    HW138294   4.389   4.236  13.046 -2.6143  2.2338  3.0781
 8945SOL    HW238295   4.407   4.287  12.910  0.3809  3.8825  1.2717
 8946SOL     OW38296   2.749   1.864  13.706  0.1029  0.6917 -0.3534
 8946SOL    HW138297   2.735   1.924  13.779  0.6453 -0.1943  0.4826
 8946SOL    HW238298   2.763   1.785  13.758  3.6451  1.5000 -0.0921
 8947SOL     OW38299   3.089   2.344   6.208  0.7162 -0.5639 -0.1331
 8947SOL    HW138300   3.011   2.376   6.252 -0.2167 -2.7044 -0.2467
 8947SOL    HW238301   3.113   2.421   6.155 -1.4773 -1.2033 -2.0154
 8948SOL     OW38302   2.772   3.116  15.881  0.0567 -0.1559 -0.7978
 8948SOL    HW138303   2.791   3.131  15.973  0.3653  2.5522 -1.2959
 8948SOL    HW238304   2.852   3.153  15.842  0.2814  1.3277  1.0892
 8949SOL     OW38305   0.964   1.149   6.908  0.0627 -0.1931 -0.0731
 8949SOL    HW138306   1.048   1.116   6.940 -0.1003  0.1653  0.7250
 8949SOL    HW238307   0.992   1.241   6.914 -1.5295  0.3333 -0.8021
 8950SOL     OW38308   0.212   0.502   3.218  0.4035 -0.2906 -0.3980
 8950SOL    HW138309   0.210   0.520   3.124 -0.6845 -1.0797 -0.5336
 8950SOL    HW238310   0.174   0.585   3.250 -4.3368 -2.7070  0.3307
 8951SOL     OW38311   0.833   4.029   2.926 -0.0410  0.2697 -0.4569
 8951SOL    HW138312   0.777   4.036   3.003  0.9785 -0.1435  0.3202
 8951SOL    HW238313   0.888   4.102   2.954 -0.0422  0.4256 -0.8615
 8952SOL     OW38314   2.941   3.189  16.082 -0.1677 -0.2281  0.5846
 8952SOL    HW138315   2.999   3.122  16.044 -1.1735 -0.9703  0.3369
 8952SOL    HW238316   2.928   3.178  16.176  1.3317  0.7362  0.9037
 8953SOL     OW38317   4.659   2.356   1.199  0.3128 -0.5323 -0.2854
 8953SOL    HW138318   4.653   2.268   1.237  0.1376  1.2360  3.8001
 8953SOL    HW238319   4.583   2.392   1.243  1.1925  1.2715 -0.2655
 8954SOL     OW38320   3.768   0.355   2.269 -0.8512  0.5488 -0.2358
 8954SOL    HW138321   3.680   0.381   2.243 -0.0632  2.5302 -0.9265
 8954SOL    HW238322   3.763   0.261   2.248  1.5060  0.3956 -0.1284
 8955SOL     OW38323   0.195   2.951  10.930 -0.0991 -0.3006 -0.1783
 8955SOL    HW138324   0.198   2.991  10.843 -1.2330  0.5106  0.1676
 8955SOL    HW238325   0.132   3.005  10.977  1.1844  0.9211  0.1156
 8956SOL     OW38326   3.624   0.465   3.255 -0.4211  0.0623  0.1508
 8956SOL    HW138327   3.705   0.502   3.220 -1.0847 -0.6938 -2.1936
 8956SOL    HW238328   3.606   0.534   3.319  0.6427 -1.1658  1.7344
 8957SOL     OW38329   1.481   3.557   8.611 -0.3116 -0.4156  0.1430
 8957SOL    HW138330   1.429   3.603   8.678  0.4809 -2.2885  2.0672
 8957SOL    HW238331   1.571   3.570   8.638 -1.0783 -0.5276  2.7974
 8958SOL     OW38332   0.226   3.819   2.745 -0.0999 -0.6114 -0.3351
 8958SOL    HW138333   0.316   3.843   2.769  0.4695 -1.4393 -1.6525
 8958SOL    HW238334   0.226   3.866   2.662  3.3529 -0.3499 -0.1950
 8959SOL     OW38335   4.380   4.075  10.072 -0.1651  0.1591  0.0764
 8959SOL    HW138336   4.326   4.097   9.996  3.4224 -0.7321 -2.7126
 8959SOL    HW238337   4.413   3.987  10.055  2.1220  1.2277 -0.8894
 8960SOL     OW38338   4.341   0.688  15.761 -0.0052 -0.0315 -0.1043
 8960SOL    HW138339   4.357   0.739  15.840 -0.8535 -0.3508  0.2659
 8960SOL    HW238340   4.325   0.603  15.801  0.4487 -0.6011 -1.1205
 8961SOL     OW38341   3.383   0.899   3.786 -0.2452 -0.7748  0.0411
 8961SOL    HW138342   3.323   0.961   3.744 -1.9226 -0.6202  2.6372
 8961SOL    HW238343   3.381   0.946   3.870  2.9019  0.5936 -0.6546
 8962SOL     OW38344   1.673   1.342   7.903  0.1573  0.6218 -0.2659
 8962SOL    HW138345   1.655   1.249   7.914  0.8386  0.2114 -2.4878
 8962SOL    HW238346   1.677   1.336   7.807  1.3102  0.7532 -0.2290
 8963SOL     OW38347   0.167   1.766   5.835  0.5308 -0.0581  0.1382
 8963SOL    HW138348   0.216   1.731   5.761  1.4170 -1.5462  1.4174
 8963SOL    HW238349   0.106   1.695   5.855 -0.3988  0.8365  0.4319
 8964SOL     OW38350   3.959   0.900   2.150 -0.0973 -0.4983  0.5222
 8964SOL    HW138351   3.909   0.819   2.146  0.2379 -0.7498  1.4820
 8964SOL    HW238352   3.953   0.936   2.061 -0.0816 -4.1336 -0.9414
 8965SOL     OW38353   2.249   0.679   0.247 -0.0404  0.0777 -0.7491
 8965SOL    HW138354   2.236   0.767   0.282 -1.2616 -0.0854 -0.7973
 8965SOL    HW238355   2.343   0.698   0.243  0.1677 -1.3300 -2.7533
 8966SOL     OW38356   2.428   1.374  16.759 -0.4623 -0.2038 -0.1407
 8966SOL    HW138357   2.428   1.282  16.788  3.8344  0.0311  0.5445
 8966SOL    HW238358   2.433   1.365  16.664  1.7040 -2.6344  0.1783
 8967SOL     OW38359   1.826   1.693   2.282  0.1001  0.1502  0.2588
 8967SOL    HW138360   1.824   1.740   2.199 -0.2214 -0.0323  0.1611
 8967SOL    HW238361   1.885   1.621   2.263  1.0681  0.3026  2.6597
 8968SOL     OW38362   4.358   1.471   4.155 -0.1900  0.5495  0.0145
 8968SOL    HW138363   4.351   1.409   4.083  1.9884 -1.5112  1.6041
 8968SOL    HW238364   4.440   1.436   4.190  0.0931  0.4514 -0.7671
 8969SOL     OW38365   1.043   2.637   7.826 -0.1038 -0.1260 -1.1370
 8969SOL    HW138366   0.978   2.695   7.786 -0.3309  0.4554  0.0474
 8969SOL    HW238367   1.126   2.685   7.830 -0.7481  0.9368 -0.6184
 8970SOL     OW38368   3.568   0.278   6.013  0.0554 -0.1332  0.4163
 8970SOL    HW138369   3.597   0.312   6.098 -1.6573 -2.0709  1.7780
 8970SOL    HW238370   3.622   0.199   6.004 -0.7965 -0.4939 -1.4443
 8971SOL     OW38371   1.423   3.528  11.431 -0.0630  0.1302  0.5851
 8971SOL    HW138372   1.466   3.546  11.515  0.6768  1.5679 -0.0991
 8971SOL    HW238373   1.463   3.454  11.385 -1.9104 -0.7035  0.3321
 8972SOL     OW38374   1.282   0.859   4.320  0.7144 -0.2312 -0.2715
 8972SOL    HW138375   1.375   0.878   4.333  1.1301 -1.0565 -2.0357
 8972SOL    HW238376   1.255   0.825   4.405 -1.1067  1.8844 -0.0071
 8973SOL     OW38377   4.038   1.736   9.406 -0.4434 -0.1013  0.2341
 8973SOL    HW138378   4.006   1.809   9.353  0.6614  0.7961  0.8138
 8973SOL    HW238379   3.967   1.673   9.394 -0.7632  0.3140 -0.0489
 8974SOL     OW38380   0.991   3.243   4.689  0.1098  0.6875 -0.1084
 8974SOL    HW138381   0.958   3.257   4.778 -0.2304  0.3647 -0.1811
 8974SOL    HW238382   1.020   3.331   4.669 -0.2387  0.2860 -2.3246
 8975SOL     OW38383   2.177   3.603   9.051 -0.4748 -0.5113  0.7560
 8975SOL    HW138384   2.082   3.602   9.064 -0.5106  1.2396  0.5934
 8975SOL    HW238385   2.189   3.557   8.968 -0.5199  0.3404  0.2850
 8976SOL     OW38386   2.882   0.181   4.988  0.1164 -0.5949  0.4262
 8976SOL    HW138387   2.828   0.116   4.943 -0.7487 -0.4474  1.2445
 8976SOL    HW238388   2.971   0.147   4.994 -0.2579 -1.8555 -1.2267
 8977SOL     OW38389   3.769   1.598   7.140  0.2355  0.4864  0.4187
 8977SOL    HW138390   3.764   1.580   7.234  3.3853  2.3308  0.9268
 8977SOL    HW238391   3.767   1.510   7.102  0.1683  0.3005  0.8560
 8978SOL     OW38392   3.103   4.713   3.128  0.0560  0.1979 -0.3754
 8978SOL    HW138393   3.094   0.082   3.152 -1.5095 -0.5698  2.0332
 8978SOL    HW238394   3.112   4.714   3.033  0.6463 -0.3506 -0.3173
 8979SOL     OW38395   0.171   2.644   1.860 -0.2091 -0.4088  0.1143
 8979SOL    HW138396   0.156   2.598   1.777 -0.5734  1.3201 -0.7803
 8979SOL    HW238397   0.164   2.737   1.838  0.9141 -0.0783  1.1355
 8980SOL     OW38398   3.334   3.659  10.400  0.2320  0.3415 -0.5735
 8980SOL    HW138399   3.429   3.662  10.386  0.1023 -2.0845 -2.0271
 8980SOL    HW238400   3.328   3.602  10.476  0.2292 -0.2082 -0.9853
 8981SOL     OW38401   1.880   3.967   2.943  0.2780  0.1709 -0.0855
 8981SOL    HW138402   1.805   3.913   2.966 -0.6813  1.6266  0.1833
 8981SOL    HW238403   1.844   4.055   2.950  1.9340  0.8043  0.3714
 8982SOL     OW38404   3.175   0.088   1.898  0.2205 -0.1694 -0.2019
 8982SOL    HW138405   3.155   4.719   1.913 -1.8170  0.5155  1.1294
 8982SOL    HW238406   3.221   0.100   1.981  1.3641 -0.2082 -0.8295
 8983SOL     OW38407   1.138   1.775  14.525  0.1609  0.4153  0.1938
 8983SOL    HW138408   1.143   1.864  14.560 -2.7932  0.9828 -0.8451
 8983SOL    HW238409   1.210   1.759  14.464 -1.2414 -0.1103 -1.3299
 8984SOL     OW38410   1.859   1.477   2.695 -0.4413 -0.0051 -0.9892
 8984SOL    HW138411   1.951   1.474   2.670 -0.5138 -1.3094 -1.1197
 8984SOL    HW238412   1.858   1.423   2.774  1.4600  3.1656  1.2042
 8985SOL     OW38413   2.301   2.405   3.471  0.8419 -0.4345  0.5840
 8985SOL    HW138414   2.206   2.416   3.475  0.7169 -0.2202 -2.5637
 8985SOL    HW238415   2.325   2.389   3.562 -0.9047  0.7201  1.2532
 8986SOL     OW38416   2.441   2.743   5.040 -0.4797 -0.1857 -0.1081
 8986SOL    HW138417   2.463   2.699   5.122  0.7684  1.0484  0.2187
 8986SOL    HW238418   2.520   2.795   5.026 -0.8648  0.0520 -1.3519
 8987SOL     OW38419   2.445   2.528   7.999 -0.2277 -0.0441 -0.7664
 8987SOL    HW138420   2.473   2.603   7.946 -1.7636  1.1581  0.1222
 8987SOL    HW238421   2.357   2.512   7.964  1.1954 -0.3496 -4.2500
 8988SOL     OW38422   2.776   3.904  10.860  0.1504  0.0676  0.2886
 8988SOL    HW138423   2.799   3.815  10.834 -2.7817 -0.8100  0.6258
 8988SOL    HW238424   2.833   3.953  10.802 -0.2501 -0.5149 -0.6117
 8989SOL     OW38425   2.631   2.923   4.989 -0.0395 -0.0690 -0.1993
 8989SOL    HW138426   2.724   2.906   4.975 -0.1239 -0.5842 -0.1462
 8989SOL    HW238427   2.625   3.003   4.938  0.4799  0.8028  1.1146
 8990SOL     OW38428   3.402   3.731   2.304 -0.1877 -0.2657  0.1015
 8990SOL    HW138429   3.374   3.788   2.232  2.2356 -0.3106 -0.8636
 8990SOL    HW238430   3.334   3.666   2.318 -1.0501  0.6594  0.2345
 8991SOL     OW38431   4.359   0.723  15.037 -0.2838  0.2199  0.5680
 8991SOL    HW138432   4.278   0.672  15.035  0.3221 -0.6740 -1.9898
 8991SOL    HW238433   4.330   0.813  15.029 -1.5864 -0.3955 -1.8727
 8992SOL     OW38434   2.433   2.616   4.682 -0.4889  0.3681 -0.1416
 8992SOL    HW138435   2.451   2.571   4.600 -1.7950  2.0405 -1.3486
 8992SOL    HW238436   2.520   2.633   4.719 -0.7176  0.9221  0.1489
 8993SOL     OW38437   0.816   1.449  10.693  0.4443 -0.1136 -0.0424
 8993SOL    HW138438   0.856   1.512  10.633 -1.0687  2.1985  1.3546
 8993SOL    HW238439   0.723   1.471  10.693  0.3910 -0.3353 -0.6029
 8994SOL     OW38440   2.782   4.046  10.273 -0.4786  0.1892 -0.5391
 8994SOL    HW138441   2.714   4.112  10.258 -0.5023  0.5899  1.4032
 8994SOL    HW238442   2.727   3.982  10.317  1.1712 -2.5254 -2.4690
 8995SOL     OW38443   2.894   4.620   9.170 -0.0737  0.2791 -0.2345
 8995SOL    HW138444   2.914   4.589   9.082  0.0732 -1.9040  0.5649
 8995SOL    HW238445   2.945   4.701   9.165  0.2223  0.0525 -0.8009
 8996SOL     OW38446   2.113   2.951   5.847  0.7252  0.0242 -0.7009
 8996SOL    HW138447   2.137   3.040   5.822  0.7905  0.0602 -0.5132
 8996SOL    HW238448   2.203   2.927   5.869 -0.0854  0.1740  2.8699
 8997SOL     OW38449   3.847   2.132  14.840  0.6636 -0.6614  0.3146
 8997SOL    HW138450   3.891   2.073  14.902 -2.6979 -1.6755  1.7569
 8997SOL    HW238451   3.923   2.183  14.813  0.7931 -1.2925 -0.5193
 8998SOL     OW38452   0.249   3.383  14.092 -0.2613  0.4799 -0.0380
 8998SOL    HW138453   0.268   3.364  14.184  0.4638  0.4608 -0.1931
 8998SOL    HW238454   0.332   3.429  14.077  0.7114 -0.9103  1.1540
 8999SOL     OW38455   3.665   1.834   2.060 -0.6910 -0.6805 -0.0132
 8999SOL    HW138456   3.750   1.836   2.016 -0.6358  0.6552  0.1402
 8999SOL    HW238457   3.677   1.917   2.107  0.5899  1.2743 -3.8742
 9000SOL     OW38458   1.251   0.388  17.552  0.0510  0.5428  0.5004
 9000SOL    HW138459   1.295   0.330  17.614 -0.5437  0.4028  0.7857
 9000SOL    HW238460   1.299   0.471  17.556  0.6651  0.2288 -0.4098
 9001SOL     OW38461   1.869   2.207   0.471  0.3103  0.4698 -0.2534
 9001SOL    HW138462   1.826   2.186   0.554 -0.0268  0.4036 -0.4468
 9001SOL    HW238463   1.940   2.259   0.508 -0.2409  0.4544  0.8090
 9002SOL     OW38464   0.438   3.612   3.111  0.0225 -0.0671  0.7125
 9002SOL    HW138465   0.372   3.585   3.175 -1.8648 -0.0695 -1.2382
 9002SOL    HW238466   0.384   3.606   3.032  2.4236  0.6668 -1.0014
 9003SOL     OW38467   0.738   3.512   3.376 -0.3804  0.0064  1.1690
 9003SOL    HW138468   0.668   3.574   3.356 -1.1856 -1.4003 -0.3671
 9003SOL    HW238469   0.817   3.565   3.379 -0.8271  0.6766  1.0544
 9004SOL     OW38470   0.076   0.355   4.826 -0.0130  0.0759 -0.6025
 9004SOL    HW138471   0.020   0.392   4.758 -0.1389  1.6777  0.3765
 9004SOL    HW238472   0.011   0.292   4.858 -1.1738  0.5255 -2.0947
 9005SOL     OW38473   2.861   4.364  11.647 -0.0912 -0.5486  0.2720
 9005SOL    HW138474   2.774   4.403  11.652  1.3047  2.5592 -0.0248
 9005SOL    HW238475   2.911   4.437  11.611 -0.1720  0.0223  1.3094
 9006SOL     OW38476   0.325   4.207  15.491  0.0063 -0.2286 -0.0208
 9006SOL    HW138477   0.244   4.157  15.485 -0.2699  0.1982  0.1560
 9006SOL    HW238478   0.293   4.296  15.477  0.3544  0.0801  1.1279
 9007SOL     OW38479   3.494   2.811   6.050 -0.1417 -0.4296  0.2978
 9007SOL    HW138480   3.514   2.751   5.978  1.8110  1.6989 -0.9380
 9007SOL    HW238481   3.543   2.760   6.114 -1.8783 -0.6348  1.4903
 9008SOL     OW38482   0.211   3.118  10.676 -0.1088  0.3949 -0.5012
 9008SOL    HW138483   0.290   3.153  10.717  0.5916  0.4571 -1.9188
 9008SOL    HW238484   0.237   3.103  10.585 -0.9750 -0.8221 -0.5469
 9009SOL     OW38485   3.419   1.135   5.443  0.6468  0.2738 -0.5588
 9009SOL    HW138486   3.488   1.163   5.503 -0.8335  1.5051  0.5889
 9009SOL    HW238487   3.471   1.098   5.372  1.2777  2.1065 -1.0574
 9010SOL     OW38488   1.306   1.176   8.017  0.6346 -0.0754 -0.5680
 9010SOL    HW138489   1.287   1.234   7.943 -0.6424 -0.7842 -0.7971
 9010SOL    HW238490   1.221   1.136   8.037  0.9427 -1.9740 -3.1092
 9011SOL     OW38491   4.685   4.170   5.251  0.3539  0.1471  0.6577
 9011SOL    HW138492   4.663   4.152   5.343 -1.1769 -2.7508 -0.2758
 9011SOL    HW238493   4.648   4.258   5.242  0.5329  0.4710  3.0006
 9012SOL     OW38494   4.631   2.564   5.549 -0.3279  0.0526 -0.5337
 9012SOL    HW138495   4.608   2.472   5.536  0.9850 -0.0992 -1.8515
 9012SOL    HW238496   4.640   2.545   5.642 -0.2000  0.3195 -0.4927
 9013SOL     OW38497   0.827   4.125   7.223 -0.1282  0.7311  0.3901
 9013SOL    HW138498   0.795   4.190   7.285 -2.7052 -0.4667  0.3387
 9013SOL    HW238499   0.819   4.047   7.277 -2.6878  0.2161 -0.7163
 9014SOL     OW38500   4.587   4.716   2.551  0.5328 -0.0256  0.3223
 9014SOL    HW138501   4.533   0.071   2.559 -1.9547 -1.8713  1.6972
 9014SOL    HW238502   4.664   0.025   2.505  1.3630 -1.4345  0.7327
 9015SOL     OW38503   4.510   1.721   9.416 -0.2316 -0.2133 -0.0731
 9015SOL    HW138504   4.462   1.753   9.339 -0.6064 -2.0120 -0.5734
 9015SOL    HW238505   4.527   1.805   9.458 -1.6737  0.6496 -1.2174
 9016SOL     OW38506   2.253   1.152   9.193  0.5966 -0.1411 -0.2598
 9016SOL    HW138507   2.175   1.099   9.208  1.9729 -1.6197  1.7278
 9016SOL    HW238508   2.236   1.219   9.260 -1.2080 -0.1284 -0.7288
 9017SOL     OW38509   1.591   0.090   9.797 -0.0010  0.6338  0.2470
 9017SOL    HW138510   1.565   0.173   9.837  0.7627  0.9036  0.1628
 9017SOL    HW238511   1.611   0.041   9.877  1.2276  0.9994  0.1522
 9018SOL     OW38512   4.288   4.497  17.480  0.0574 -0.5949 -0.1474
 9018SOL    HW138513   4.271   4.430  17.546  1.1851 -2.2638 -1.5503
 9018SOL    HW238514   4.248   4.578  17.512 -1.2567 -1.6306  0.8199
 9019SOL     OW38515   2.754   2.834   6.096  0.4128  0.1136 -0.6787
 9019SOL    HW138516   2.820   2.775   6.061  0.0789  0.4908 -1.9288
 9019SOL    HW238517   2.712   2.773   6.157  0.6215  1.5143  0.8591
 9020SOL     OW38518   4.145   0.480   5.028  0.3249 -0.1735  0.2398
 9020SOL    HW138519   4.102   0.413   5.082 -0.3502  0.2694  0.2574
 9020SOL    HW238520   4.180   0.528   5.103  1.5433  0.9368 -1.0574
 9021SOL     OW38521   2.129   1.573   2.587 -0.0846  0.6304  0.2357
 9021SOL    HW138522   2.212   1.608   2.555 -0.7647  0.8923 -1.2588
 9021SOL    HW238523   2.110   1.610   2.673  1.3419 -1.1136  1.2948
 9022SOL     OW38524   2.539   4.431   0.158  0.0690 -0.7651 -0.2011
 9022SOL    HW138525   2.593   4.455   0.233  0.1776 -3.0356  0.4278
 9022SOL    HW238526   2.552   4.337   0.144  1.6981 -0.4532 -0.7836
 9023SOL     OW38527   4.194   1.737  13.906  0.1370 -0.4860 -0.0665
 9023SOL    HW138528   4.151   1.821  13.889 -0.4637 -0.6295  0.7543
 9023SOL    HW238529   4.199   1.698  13.819 -0.4288 -0.2067 -0.2250
 9024SOL     OW38530   2.049   2.510   3.497  0.1933  0.2005 -0.2561
 9024SOL    HW138531   2.008   2.454   3.562  1.4911  1.3607  1.5658
 9024SOL    HW238532   1.993   2.586   3.484 -0.9978 -0.3187  1.8976
 9025SOL     OW38533   1.644   1.352  13.366 -0.5059  0.0265 -0.7960
 9025SOL    HW138534   1.731   1.334  13.401 -0.1963  1.8057 -0.6244
 9025SOL    HW238535   1.609   1.264  13.352  1.0563 -1.0247  1.8575
 9026SOL     OW38536   1.927   2.881   9.936  0.1791  0.0402 -0.0025
 9026SOL    HW138537   1.960   2.803   9.981  1.4947  0.6811  0.1389
 9026SOL    HW238538   2.007   2.904   9.890  0.8495 -0.3425  0.9626
 9027SOL     OW38539   1.717   1.556   4.456 -0.3015 -0.2019 -0.0523
 9027SOL    HW138540   1.700   1.466   4.483  0.0168 -0.5364 -0.9784
 9027SOL    HW238541   1.715   1.534   4.363 -0.1943  1.8830 -0.5583
 9028SOL     OW38542   2.740   1.348   2.111 -0.1853 -0.4181  0.5858
 9028SOL    HW138543   2.669   1.401   2.146 -1.2901 -0.1583 -2.0138
 9028SOL    HW238544   2.811   1.396   2.155 -0.5446  0.6165  0.0388
 9029SOL     OW38545   2.208   0.368   5.376  0.5380  0.1600 -0.1186
 9029SOL    HW138546   2.252   0.287   5.350 -0.0491 -0.6872  1.5610
 9029SOL    HW238547   2.239   0.428   5.307  0.8668  1.4683  1.1478
 9030SOL     OW38548   1.340   1.719   0.445  0.1271 -0.2521 -0.2704
 9030SOL    HW138549   1.423   1.722   0.493 -0.5453  0.4104  0.8658
 9030SOL    HW238550   1.352   1.782   0.374 -0.6970  1.1790  0.8625
 9031SOL     OW38551   1.595   3.683   2.626 -0.0614 -0.1299  0.1934
 9031SOL    HW138552   1.540   3.698   2.703 -1.2796  1.0663 -0.9021
 9031SOL    HW238553   1.680   3.663   2.667  0.3092  2.0759  0.4926
 9032SOL     OW38554   3.964   2.411  14.451 -0.0701 -0.5702  0.1783
 9032SOL    HW138555   3.946   2.505  14.461 -1.1416 -1.0949  3.3803
 9032SOL    HW238556   3.908   2.398  14.375 -0.6786 -2.6077  0.9732
 9033SOL     OW38557   1.248   4.693   6.674  0.1565  0.1940 -0.2985
 9033SOL    HW138558   1.165   0.005   6.641 -1.2550 -0.4619  2.5503
 9033SOL    HW238559   1.311   0.026   6.630  0.9661 -1.2464 -0.9678
 9034SOL     OW38560   3.026   0.023  15.342 -0.2000  0.4752  0.2835
 9034SOL    HW138561   3.076   0.104  15.342 -0.3966  0.6006 -0.0531
 9034SOL    HW238562   2.944   0.068  15.361 -0.1236  0.5095  0.5252
 9035SOL     OW38563   3.854   4.355  11.570 -0.1380 -0.1166 -0.1653
 9035SOL    HW138564   3.864   4.287  11.637 -0.0787 -0.5854 -0.6503
 9035SOL    HW238565   3.875   4.438  11.611 -2.4088  1.0447 -1.3260
 9036SOL     OW38566   4.385   3.663   0.303  0.2039 -0.2415  0.1475
 9036SOL    HW138567   4.332   3.699   0.232 -3.3219 -3.0497  1.3366
 9036SOL    HW238568   4.314   3.646   0.365 -1.4489 -1.1337 -2.0027
 9037SOL     OW38569   0.735   3.442   1.486  0.6176  0.1856 -0.2417
 9037SOL    HW138570   0.653   3.404   1.454 -0.7801  2.4422  0.6455
 9037SOL    HW238571   0.761   3.476   1.401 -2.0859  2.2909 -0.2465
 9038SOL     OW38572   1.251   4.610   3.316  0.0301  0.4680 -0.6883
 9038SOL    HW138573   1.188   4.599   3.245  1.3746 -1.2755 -1.6272
 9038SOL    HW238574   1.286   4.696   3.294 -1.0420  1.4902  1.6219
 9039SOL     OW38575   3.804   4.360   9.393 -0.0909 -0.4720  0.4824
 9039SOL    HW138576   3.788   4.323   9.480 -1.2044 -2.3296 -0.5120
 9039SOL    HW238577   3.745   4.435   9.395  1.5235  0.8489 -2.0946
 9040SOL     OW38578   2.710   2.563   4.082 -0.0103  0.3646 -0.1050
 9040SOL    HW138579   2.649   2.638   4.085  0.8539  1.1238 -1.3441
 9040SOL    HW238580   2.781   2.618   4.049  1.2054 -1.3871 -0.3765
 9041SOL     OW38581   0.945   1.369   6.407  0.1240 -0.0653 -0.4627
 9041SOL    HW138582   0.911   1.379   6.496  1.3437 -0.5963  0.0545
 9041SOL    HW238583   0.875   1.401   6.349  0.4459  0.3224 -0.6401
 9042SOL     OW38584   0.757   2.457   8.297  0.2364  0.0920 -0.3646
 9042SOL    HW138585   0.765   2.493   8.209 -1.6766  2.0988  0.2822
 9042SOL    HW238586   0.739   2.367   8.268  0.8675  0.6788 -2.5653
 9043SOL     OW38587   2.087   2.971   7.237  0.0093 -0.1032  0.2385
 9043SOL    HW138588   2.145   2.899   7.264 -1.0493 -1.0258  0.0371
 9043SOL    HW238589   2.137   3.009   7.165  1.9904 -3.7078 -0.2967
 9044SOL     OW38590   2.848   0.648   4.865  0.4736 -0.0577  0.0759
 9044SOL    HW138591   2.874   0.661   4.957 -0.3186 -0.4462  0.3564
 9044SOL    HW238592   2.754   0.646   4.885  0.8509  0.3561  1.9389
 9045SOL     OW38593   0.273   0.067   7.124  0.1130  0.2352  0.2804
 9045SOL    HW138594   0.281   0.115   7.042  0.3976  0.9856  0.7462
 9045SOL    HW238595   0.186   0.027   7.125 -0.6874  1.9392 -0.4814
 9046SOL     OW38596   3.824   2.335   0.171  0.4590  0.9043  0.0524
 9046SOL    HW138597   3.910   2.357   0.204  0.3880 -1.9536  2.1342
 9046SOL    HW238598   3.847   2.278   0.098  1.8783  2.2233 -0.5225
 9047SOL     OW38599   4.255   2.890   3.381  0.5291 -0.4321  0.0637
 9047SOL    HW138600   4.265   2.849   3.295  0.8103 -0.1797 -0.0225
 9047SOL    HW238601   4.313   2.964   3.365 -0.7667  0.3321 -1.1526
 9048SOL     OW38602   4.653   4.425   9.544  0.1377  0.4057  0.1136
 9048SOL    HW138603   4.659   4.396   9.635 -0.0413 -1.4682 -0.4870
 9048SOL    HW238604   0.015   4.469   9.534 -0.8095  2.1856 -0.1603
 9049SOL     OW38605   2.467   1.868   3.910  0.2553 -0.6317 -0.2418
 9049SOL    HW138606   2.531   1.873   3.839 -3.0719  1.0496 -3.0915
 9049SOL    HW238607   2.406   1.805   3.872 -0.3217 -0.1813 -0.0573
 9050SOL     OW38608   2.831   1.370  11.678  0.4730 -0.2014 -0.2382
 9050SOL    HW138609   2.792   1.313  11.612  0.4989 -1.3023  0.7090
 9050SOL    HW238610   2.791   1.456  11.659  0.9618  0.1717  0.4276
 9051SOL     OW38611   3.722   2.680  11.075 -0.0395 -0.2056 -0.3996
 9051SOL    HW138612   3.652   2.718  11.128  2.4193  1.4338  1.6540
 9051SOL    HW238613   3.682   2.594  11.062 -2.2961  0.5531  1.4334
 9052SOL     OW38614   2.144   2.444   8.992  0.1602  0.1914  0.6857
 9052SOL    HW138615   2.147   2.491   9.075 -1.9491  0.5251  0.5877
 9052SOL    HW238616   2.238   2.453   8.976  0.2285 -1.4864  0.0970
 9053SOL     OW38617   3.260   3.278   3.770 -0.1493  0.0531  0.0735
 9053SOL    HW138618   3.265   3.202   3.712 -2.8646  0.3889 -0.5914
 9053SOL    HW238619   3.253   3.239   3.857 -0.9152  2.2821  1.0257
 9054SOL     OW38620   0.781   2.666   3.269  0.4894 -0.2859  0.2185
 9054SOL    HW138621   0.760   2.677   3.176 -0.0464 -0.4499  0.3163
 9054SOL    HW238622   0.723   2.731   3.309  1.1727 -0.3739  1.3562
 9055SOL     OW38623   2.472   4.367   6.724  0.0162 -0.0130 -0.0789
 9055SOL    HW138624   2.387   4.363   6.768 -0.6650 -1.1099 -1.4790
 9055SOL    HW238625   2.517   4.447   6.750 -0.9379  0.7940 -0.9109
 9056SOL     OW38626   1.868   2.784  14.940  0.3444 -0.0731 -0.0056
 9056SOL    HW138627   1.921   2.709  14.915 -1.0529 -0.0266 -3.1530
 9056SOL    HW238628   1.780   2.747  14.936  0.9245 -1.3959 -0.3715
 9057SOL     OW38629   2.277   4.600   4.179  0.2776 -0.5299  0.5302
 9057SOL    HW138630   2.305   4.514   4.209  0.5662 -0.7014 -0.2353
 9057SOL    HW238631   2.341   4.663   4.214  0.6778 -0.8366  0.3571
 9058SOL     OW38632   1.085   0.964  11.083  0.1478  0.0002  0.1511
 9058SOL    HW138633   1.010   0.982  11.025 -0.0648  1.3339  0.8312
 9058SOL    HW238634   1.099   0.870  11.069 -0.3089  0.0540 -0.7170
 9059SOL     OW38635   0.010   1.379   8.113 -0.1949  0.6055 -0.1496
 9059SOL    HW138636   0.057   1.313   8.164 -0.3394 -0.3730 -1.2774
 9059SOL    HW238637   4.712   1.330   8.034 -0.7338 -0.4959  0.6695
 9060SOL     OW38638   3.654   4.442   3.173 -0.2244  0.4753 -0.4425
 9060SOL    HW138639   3.707   4.508   3.127  2.5901  1.4572  4.2529
 9060SOL    HW238640   3.567   4.482   3.177 -1.2474 -2.0879  2.5094
 9061SOL     OW38641   3.185   1.643  11.643 -0.5442 -0.2070 -0.9661
 9061SOL    HW138642   3.096   1.676  11.640 -1.2943 -2.2353 -1.3958
 9061SOL    HW238643   3.232   1.726  11.645 -0.8324 -0.0343 -1.3174
 9062SOL     OW38644   0.532   1.020   8.552  0.4716  0.1967  0.3206
 9062SOL    HW138645   0.542   0.924   8.554  4.0451  0.5701  0.9445
 9062SOL    HW238646   0.620   1.035   8.518  0.1833 -0.2013 -0.5992
 9063SOL     OW38647   3.507   3.071   2.465  0.1378 -0.6099  0.6518
 9063SOL    HW138648   3.547   3.152   2.435  0.0660 -0.7486  0.1813
 9063SOL    HW238649   3.579   3.013   2.439 -0.2282  0.0285 -1.8203
 9064SOL     OW38650   1.707   2.772   4.233  0.4033 -0.5981  0.4145
 9064SOL    HW138651   1.790   2.800   4.193  0.5787 -1.6925  0.0125
 9064SOL    HW238652   1.724   2.779   4.327  1.0060  0.0156  0.2611
 9065SOL     OW38653   3.828   2.327   8.390 -0.2690 -0.5222 -0.6808
 9065SOL    HW138654   3.813   2.394   8.456  0.5683 -0.6414 -0.3581
 9065SOL    HW238655   3.755   2.343   8.331 -1.1738 -0.5954  0.4371
 9066SOL     OW38656   3.708   2.725   0.422  0.2281 -0.6444  0.3560
 9066SOL    HW138657   3.789   2.768   0.450  0.9986  0.1951 -3.1519
 9066SOL    HW238658   3.701   2.650   0.481  0.6646 -0.4920  0.6048
 9067SOL     OW38659   3.253   1.691   1.482 -0.0896  0.5862 -0.3494
 9067SOL    HW138660   3.213   1.776   1.464 -1.8293 -0.1933 -0.0971
 9067SOL    HW238661   3.202   1.661   1.557  0.9503  3.8787  1.6443
 9068SOL     OW38662   4.216   1.941   5.201 -0.3328 -0.3385  0.1020
 9068SOL    HW138663   4.122   1.952   5.186 -0.0053 -0.9795 -2.4781
 9068SOL    HW238664   4.226   1.846   5.188 -0.1399 -0.0291 -2.0204
 9069SOL     OW38665   4.546   4.524  16.711  0.1537  0.0528  0.0150
 9069SOL    HW138666   4.482   4.489  16.774 -1.5360  0.8596 -1.2694
 9069SOL    HW238667   4.544   4.619  16.704 -2.3212 -0.1542 -1.7977
 9070SOL     OW38668   2.647   4.228   5.308  0.2634 -0.8495  0.0897
 9070SOL    HW138669   2.567   4.266   5.273  0.4294 -0.1928  0.4031
 9070SOL    HW238670   2.697   4.217   5.228  2.1764  2.0424  0.8549
 9071SOL     OW38671   0.824   2.479   4.234 -0.3342 -0.2914  0.3595
 9071SOL    HW138672   0.733   2.503   4.215 -0.1127 -0.2807 -0.6741
 9071SOL    HW238673   0.868   2.475   4.149 -0.7743 -0.3279  0.1368
 9072SOL     OW38674   2.601   0.635   1.606  0.6994 -0.2610 -0.2213
 9072SOL    HW138675   2.629   0.670   1.522  1.3541  0.2248  0.1969
 9072SOL    HW238676   2.507   0.644   1.592  0.6619 -1.5292 -0.7943
 9073SOL     OW38677   4.358   2.748  14.264 -0.1560 -0.2290 -0.0504
 9073SOL    HW138678   4.426   2.742  14.197  0.8302 -5.0400  1.4005
 9073SOL    HW238679   4.386   2.670  14.310  0.1885 -0.1164 -0.0667
 9074SOL     OW38680   3.072   2.539   8.043 -0.1281 -0.2200 -0.5356
 9074SOL    HW138681   3.118   2.577   8.118 -1.4369 -0.6524  0.4954
 9074SOL    HW238682   3.004   2.494   8.093  1.2531  0.3794  1.9280
 9075SOL     OW38683   0.443   0.201  15.683 -0.2698  0.6629  0.7706
 9075SOL    HW138684   0.430   0.245  15.768  0.6506  0.7771  0.8465
 9075SOL    HW238685   0.498   0.127  15.706 -1.7829 -0.8563 -0.5365
 9076SOL     OW38686   2.861   1.279  13.403 -0.1048  0.2748  0.3917
 9076SOL    HW138687   2.809   1.203  13.427  0.7528 -0.1901  0.7922
 9076SOL    HW238688   2.941   1.260  13.453  0.3129 -0.0577 -0.4113
 9077SOL     OW38689   3.648   1.657   3.776  0.3645  0.3857 -0.2949
 9077SOL    HW138690   3.573   1.714   3.792  0.3658  0.8548 -1.9139
 9077SOL    HW238691   3.644   1.632   3.684 -0.0621 -0.2909 -0.0874
 9078SOL     OW38692   2.162   0.771   9.132  0.3029  0.3907 -0.1170
 9078SOL    HW138693   2.252   0.786   9.162 -0.8031  2.9634  1.9887
 9078SOL    HW238694   2.101   0.836   9.166  0.2253  0.6165 -0.6920
 9079SOL     OW38695   2.343   1.383  14.644  0.3190  0.2444  0.2145
 9079SOL    HW138696   2.310   1.333  14.570 -0.3919  0.6560  0.2569
 9079SOL    HW238697   2.389   1.458  14.606  1.9439 -1.8816 -1.9917
 9080SOL     OW38698   2.934   4.247  12.861 -0.3290 -0.8204 -0.1818
 9080SOL    HW138699   2.911   4.292  12.779 -0.2857 -0.6194 -0.0838
 9080SOL    HW238700   2.858   4.189  12.871 -0.3427 -0.8646 -0.5412
 9081SOL     OW38701   0.661   0.399   0.554 -0.7390  0.2452  0.2180
 9081SOL    HW138702   0.597   0.412   0.623 -0.8136 -0.7940  0.3418
 9081SOL    HW238703   0.740   0.410   0.608 -1.4293  1.3547  1.0127
 9082SOL     OW38704   1.758   1.835   0.945 -0.0289 -0.2980  0.2650
 9082SOL    HW138705   1.690   1.768   0.953  0.7330 -1.0831  0.1052
 9082SOL    HW238706   1.710   1.917   0.931 -0.5373 -0.9504 -1.8425
 9083SOL     OW38707   2.441   3.270   9.828 -0.0186  0.0158 -0.0486
 9083SOL    HW138708   2.378   3.243   9.894  2.3492 -0.6337  1.9503
 9083SOL    HW238709   2.435   3.195   9.769 -0.0323  0.4366 -0.5837
 9084SOL     OW38710   0.061   3.926   1.667  0.5208 -0.0180 -0.4797
 9084SOL    HW138711   0.118   3.940   1.742  0.2599 -0.1457 -0.2587
 9084SOL    HW238712   0.119   3.944   1.593  2.7195 -0.0885  1.2492
 9085SOL     OW38713   0.051   0.966   7.761 -0.3200  0.0202  0.4914
 9085SOL    HW138714   0.113   0.897   7.738  1.2402  2.4212 -2.4161
 9085SOL    HW238715   0.041   1.005   7.674 -0.5578 -0.2498  0.3972
 9086SOL     OW38716   4.457   0.142   6.126  0.2692 -0.0868 -0.4880
 9086SOL    HW138717   4.416   0.058   6.107 -0.3917 -0.0078  0.5846
 9086SOL    HW238718   4.549   0.130   6.148  0.3201 -1.4407 -1.4327
 9087SOL     OW38719   0.621   2.860   4.974  0.5441 -0.0060 -0.2734
 9087SOL    HW138720   0.544   2.804   4.982  0.1139  0.7910  1.1570
 9087SOL    HW238721   0.587   2.949   4.977 -1.6392 -0.8949  1.5178
 9088SOL     OW38722   2.774   3.622  10.760 -0.0287  0.0647  0.4580
 9088SOL    HW138723   2.824   3.561  10.705 -1.7276 -0.3856 -0.5708
 9088SOL    HW238724   2.702   3.570  10.796 -0.4308 -0.5684 -1.2518
 9089SOL     OW38725   2.590   0.850  13.782 -0.1963 -0.0917 -0.4216
 9089SOL    HW138726   2.670   0.803  13.757 -1.3137 -2.0626 -0.2268
 9089SOL    HW238727   2.531   0.787  13.824 -0.1268 -0.2295 -0.5288
 9090SOL     OW38728   2.271   2.682   2.801 -0.0769  0.2205 -0.4843
 9090SOL    HW138729   2.289   2.702   2.893 -1.5593  0.9294 -0.3488
 9090SOL    HW238730   2.324   2.744   2.752  2.9589 -1.2425  0.9236
 9091SOL     OW38731   2.356   0.514   3.014 -0.9318 -0.2468 -0.2384
 9091SOL    HW138732   2.387   0.439   2.963 -0.0484  0.7710 -1.1862
 9091SOL    HW238733   2.349   0.474   3.101 -1.1437 -0.0585 -0.1687
 9092SOL     OW38734   0.156   2.542   3.183 -0.3771  0.2846 -0.7079
 9092SOL    HW138735   0.122   2.585   3.105  0.0085  1.7056 -0.0890
 9092SOL    HW238736   0.109   2.459   3.190 -0.1031  0.3737  2.1153
 9093SOL     OW38737   3.503   4.089   6.344 -0.4841 -0.0145 -0.7530
 9093SOL    HW138738   3.468   4.091   6.433 -1.2240  1.1750 -1.0784
 9093SOL    HW238739   3.566   4.159   6.331 -0.1566  0.1318  1.6661
 9094SOL     OW38740   4.075   3.988   7.358 -0.4411  0.3398 -0.1176
 9094SOL    HW138741   4.020   4.066   7.359 -0.8980 -0.0042  1.6571
 9094SOL    HW238742   4.086   3.988   7.262 -1.4222 -0.5901 -0.2317
 9095SOL     OW38743   1.906   3.198   2.248 -0.0565  0.7337  0.2161
 9095SOL    HW138744   1.995   3.233   2.244  0.0120  0.3759 -1.3237
 9095SOL    HW238745   1.916   3.136   2.321 -1.4433 -0.9513 -1.0211
 9096SOL     OW38746   3.688   0.806   6.524  0.2196 -0.4315  0.1047
 9096SOL    HW138747   3.770   0.768   6.492 -0.5686 -2.1731  0.1555
 9096SOL    HW238748   3.690   0.888   6.475 -0.6146  0.4058  1.4860
 9097SOL     OW38749   4.601   4.457   4.413 -0.1883  0.5970  0.4891
 9097SOL    HW138750   4.583   4.518   4.484 -2.4567  0.9928 -0.4174
 9097SOL    HW238751   4.564   4.506   4.340 -3.2196  1.7987  2.8477
 9098SOL     OW38752   1.247   0.630  14.789 -0.3450 -0.4130 -0.1456
 9098SOL    HW138753   1.253   0.571  14.864 -0.9988  0.1148  0.3147
 9098SOL    HW238754   1.184   0.689  14.831 -1.2136 -1.7924  0.4644
 9099SOL     OW38755   1.885   0.824  16.850  0.7195  0.6527 -0.3046
 9099SOL    HW138756   1.869   0.736  16.816  0.3607 -0.0233  1.6450
 9099SOL    HW238757   1.831   0.869  16.785 -1.1509 -1.6343 -0.3405
 9100SOL     OW38758   3.009   0.189   6.246 -1.1726  0.2581 -0.1112
 9100SOL    HW138759   2.958   0.108   6.242  1.6737 -1.4099 -2.5567
 9100SOL    HW238760   2.987   0.230   6.162  1.9333 -0.2535 -1.1543
 9101SOL     OW38761   2.172   1.463   6.909  0.0193  0.2877 -0.4002
 9101SOL    HW138762   2.085   1.442   6.875  0.1157 -1.6865  0.6082
 9101SOL    HW238763   2.193   1.532   6.845  0.1752  0.6091 -0.0049
 9102SOL     OW38764   3.516   0.763   3.138 -0.2026  0.0335  0.1155
 9102SOL    HW138765   3.543   0.806   3.219  1.0202 -1.3611  0.4499
 9102SOL    HW238766   3.425   0.736   3.147 -0.3513  0.5812  0.2849
 9103SOL     OW38767   2.116   0.619   5.518  0.1791 -0.3455  0.3725
 9103SOL    HW138768   2.205   0.646   5.541 -0.3722  1.8727 -0.1043
 9103SOL    HW238769   2.083   0.570   5.593 -1.4934 -1.1893 -0.9079
 9104SOL     OW38770   4.558   3.933   3.700 -0.4018  0.4084 -0.3451
 9104SOL    HW138771   4.519   3.953   3.786 -0.0665  2.7077 -0.7343
 9104SOL    HW238772   4.653   3.933   3.712 -0.3698 -2.3499 -0.5656
 9105SOL     OW38773   2.785   1.516   8.518 -0.6128  0.3315 -0.1921
 9105SOL    HW138774   2.833   1.549   8.442  3.6108 -0.7150  2.0285
 9105SOL    HW238775   2.700   1.499   8.479  0.1740 -1.9559 -0.8897
 9106SOL     OW38776   0.970   4.225   3.019  0.2757  0.2935 -0.1078
 9106SOL    HW138777   1.007   4.287   2.956  0.4646 -0.2200 -0.5026
 9106SOL    HW238778   0.947   4.285   3.090 -0.9807  0.2220 -0.4655
 9107SOL     OW38779   1.978   1.199  17.181  0.0635  0.2095  0.3623
 9107SOL    HW138780   1.932   1.201  17.097  2.2734  0.2906 -0.8227
 9107SOL    HW238781   1.939   1.122  17.223  0.7982 -1.7660 -2.6277
 9108SOL     OW38782   0.556   1.056   3.070  0.3566 -0.5214  0.3638
 9108SOL    HW138783   0.531   1.130   3.125 -0.8676 -0.1407 -0.7215
 9108SOL    HW238784   0.474   1.013   3.047 -0.8891  1.7272  0.6537
 9109SOL     OW38785   3.469   2.092  13.864 -0.4029 -0.1943  0.2335
 9109SOL    HW138786   3.382   2.068  13.895 -1.1374 -0.9639 -2.4391
 9109SOL    HW238787   3.508   2.014  13.903  0.5749  0.0671 -0.2286
 9110SOL     OW38788   2.694   3.752  12.958 -0.1406  0.3325  0.1009
 9110SOL    HW138789   2.624   3.770  12.895 -3.0842 -0.8133  3.0557
 9110SOL    HW238790   2.737   3.679  12.915 -2.5847 -0.2343 -1.3868
 9111SOL     OW38791   3.394   2.374   0.014 -0.1455  0.7936 -0.4741
 9111SOL    HW138792   3.311   2.402  17.671 -1.8677 -0.5777  2.2398
 9111SOL    HW238793   3.379   2.418   0.098  1.4397 -1.7495  1.1302
 9112SOL     OW38794   2.678   4.288   6.530  0.5064  0.1628 -0.0775
 9112SOL    HW138795   2.712   4.377   6.528  1.4854 -0.2059  0.2470
 9112SOL    HW238796   2.596   4.304   6.576  0.6635 -1.2512  0.6903
 9113SOL     OW38797   1.897   4.644   4.117  0.3628  0.1758 -0.0921
 9113SOL    HW138798   1.931   4.568   4.164  0.9733 -0.4487 -1.5252
 9113SOL    HW238799   1.958   4.714   4.142  1.7652 -1.9458  2.3766
 9114SOL     OW38800   2.754   1.605   3.946  0.5529 -0.4887  0.2295
 9114SOL    HW138801   2.741   1.700   3.952 -3.6157 -1.0603 -0.1357
 9114SOL    HW238802   2.683   1.572   4.000 -0.4267  1.5961  0.2090
 9115SOL     OW38803   1.019   4.483   9.768 -0.3709 -0.7041 -0.5624
 9115SOL    HW138804   1.038   4.395   9.735 -0.3617 -1.0940  0.4955
 9115SOL    HW238805   1.057   4.488   9.856 -0.4581 -0.9234 -0.5120
 9116SOL     OW38806   4.176   3.310  14.659  0.0773  0.3993 -0.1978
 9116SOL    HW138807   4.260   3.314  14.615 -1.1203  0.7066 -2.4650
 9116SOL    HW238808   4.182   3.391  14.709 -0.3625  0.0588  0.4205
 9117SOL     OW38809   0.703   3.240   2.802 -0.2939 -0.6838  0.5346
 9117SOL    HW138810   0.715   3.145   2.803  1.6875 -0.4402  0.0988
 9117SOL    HW238811   0.774   3.277   2.750 -0.8152 -0.2157  0.1469
 9118SOL     OW38812   1.475   0.728   9.290 -0.2110  0.0147  0.0288
 9118SOL    HW138813   1.506   0.784   9.361 -2.2041  0.5220  0.4891
 9118SOL    HW238814   1.435   0.783   9.223  0.3908 -0.6091 -0.8367
 9119SOL     OW38815   0.793   2.518  16.214 -0.4059 -0.2093  0.2084
 9119SOL    HW138816   0.793   2.445  16.276 -0.0838 -2.5142 -2.5039
 9119SOL    HW238817   0.810   2.483  16.126 -0.3903  2.7155 -0.9729
 9120SOL     OW38818   2.657   4.584  10.839 -0.2756 -0.5499 -0.3461
 9120SOL    HW138819   2.722   4.522  10.872 -0.3692  0.5214  1.8707
 9120SOL    HW238820   2.591   4.525  10.803  0.0071 -1.4102  0.5165
 9121SOL     OW38821   2.618   3.962  10.008  0.5888  0.6864  0.9546
 9121SOL    HW138822   2.642   4.054  10.002 -2.7094  1.3961 -1.2148
 9121SOL    HW238823   2.563   3.956  10.086 -0.3371 -0.8770  0.1843
 9122SOL     OW38824   1.954   2.094  14.669  0.2911  0.4711 -0.2135
 9122SOL    HW138825   2.004   2.065  14.745  0.6984  1.6951 -0.0238
 9122SOL    HW238826   1.946   2.010  14.622 -1.8875  1.2168 -1.1732
 9123SOL     OW38827   2.900   0.391   8.347  0.0096  0.2557 -0.6944
 9123SOL    HW138828   2.874   0.478   8.318  0.4992  0.4962 -0.4198
 9123SOL    HW238829   2.843   0.331   8.298 -1.2774  0.4087  0.6383
 9124SOL     OW38830   2.533   3.329  15.100 -0.1958  0.0047 -0.4218
 9124SOL    HW138831   2.488   3.398  15.148  1.8516 -0.3941  2.0904
 9124SOL    HW238832   2.459   3.301  15.046 -0.8681  0.7260  0.1267
 9125SOL     OW38833   4.526   3.900  16.370  0.4167 -0.4625  0.3981
 9125SOL    HW138834   4.598   3.837  16.363 -0.0404 -0.8606 -0.8289
 9125SOL    HW238835   4.569   3.974  16.412 -0.9090 -0.5424  1.8735
 9126SOL     OW38836   0.387   0.999   4.762  0.1666 -0.2877  0.3436
 9126SOL    HW138837   0.349   0.922   4.805  0.0784  0.2120  1.1770
 9126SOL    HW238838   0.308   1.052   4.775 -1.6133 -2.6611 -0.7609
 9127SOL     OW38839   3.129   3.954   1.119 -0.3715  0.0248  0.9649
 9127SOL    HW138840   3.183   3.907   1.182  1.5509 -0.0023 -0.6952
 9127SOL    HW238841   3.196   3.991   1.061  0.1595 -1.8494  0.3883
 9128SOL     OW38842   1.314   2.087   5.371  0.1929 -0.2774  0.1520
 9128SOL    HW138843   1.285   1.999   5.349 -0.0027  0.3938 -2.2657
 9128SOL    HW238844   1.284   2.141   5.298 -0.0066 -0.6324 -0.0301
 9129SOL     OW38845   0.644   1.895  14.092 -0.0705 -0.0866  0.0306
 9129SOL    HW138846   0.566   1.950  14.098  0.4441  0.3516  2.7742
 9129SOL    HW238847   0.616   1.819  14.142 -2.5304  1.3666  0.8895
 9130SOL     OW38848   4.538   2.170   7.448 -0.6715 -0.0801  0.0914
 9130SOL    HW138849   4.573   2.118   7.375  0.3979 -0.3140  0.7740
 9130SOL    HW238850   4.445   2.178   7.425 -0.7890  0.6065  0.8233
 9131SOL     OW38851   2.617   2.188   6.863  0.5736 -0.3783 -0.4383
 9131SOL    HW138852   2.666   2.266   6.890 -0.1531 -0.6565  1.7198
 9131SOL    HW238853   2.560   2.172   6.938 -0.7527 -2.0325 -1.8274
 9132SOL     OW38854   3.562   2.691   3.543 -1.0472  0.0477 -0.2079
 9132SOL    HW138855   3.485   2.701   3.487 -0.5354  0.7585 -0.7754
 9132SOL    HW238856   3.532   2.689   3.634  0.9004 -0.6119  0.4243
 9133SOL     OW38857   1.589   2.426   7.474 -0.2032 -0.2570  0.2604
 9133SOL    HW138858   1.588   2.485   7.549 -2.7078 -0.8894  0.7547
 9133SOL    HW238859   1.587   2.493   7.406  0.5308 -1.7719 -1.2682
 9134SOL     OW38860   0.820   1.529  16.325  0.3031 -0.7134 -0.1193
 9134SOL    HW138861   0.726   1.531  16.309 -0.2959 -0.2811  3.3079
 9134SOL    HW238862   0.853   1.511  16.237  0.6450  2.2546 -0.5684
 9135SOL     OW38863   3.767   1.095   4.856  0.1397  0.1245 -0.2644
 9135SOL    HW138864   3.745   1.011   4.816  0.1851  1.4936 -3.1560
 9135SOL    HW238865   3.801   1.062   4.939  1.7563 -0.3629 -1.1207
 9136SOL     OW38866   1.828   1.466  11.081  0.0326  0.5233 -0.0423
 9136SOL    HW138867   1.860   1.404  11.146 -0.9099  0.6610  0.5553
 9136SOL    HW238868   1.787   1.407  11.017 -1.4411  0.4963  0.9235
 9137SOL     OW38869   3.691   2.582   3.301  0.1595 -0.0625  0.0206
 9137SOL    HW138870   3.710   2.490   3.283  1.4960  0.3356 -0.5927
 9137SOL    HW238871   3.677   2.597   3.395  0.0305  2.8851 -0.4861
 9138SOL     OW38872   3.358   2.734   3.390 -0.4077  0.0653 -0.2123
 9138SOL    HW138873   3.268   2.757   3.366 -1.5918 -1.5050  2.8567
 9138SOL    HW238874   3.396   2.757   3.304  0.1096  2.4227  0.6428
 9139SOL     OW38875   1.269   0.681   6.507 -0.0578 -0.1509 -0.3568
 9139SOL    HW138876   1.278   0.652   6.598 -0.0504  0.2394 -0.2353
 9139SOL    HW238877   1.212   0.616   6.465  0.4788 -1.8729  1.6055
 9140SOL     OW38878   2.674   3.585   2.793 -0.4207 -0.1487  0.3958
 9140SOL    HW138879   2.755   3.553   2.832 -0.2841 -0.5761 -0.2295
 9140SOL    HW238880   2.619   3.585   2.871  0.4497  1.0195  1.0149
 9141SOL     OW38881   0.551   0.079   4.372  0.2753 -0.1984  0.2521
 9141SOL    HW138882   0.613   0.139   4.415 -0.9612  0.4913  1.0733
 9141SOL    HW238883   0.574   0.085   4.279  2.8711 -0.5822  0.8566
 9142SOL     OW38884   4.424   1.749   0.524  0.4614 -0.4128 -0.0100
 9142SOL    HW138885   4.359   1.816   0.504 -0.0663 -1.2663 -1.1619
 9142SOL    HW238886   4.374   1.683   0.572  0.7878 -0.0228  0.8637
 9143SOL     OW38887   4.150   1.335   7.311  0.5934  0.3339  0.0588
 9143SOL    HW138888   4.130   1.355   7.403  0.2722 -2.5546  0.6264
 9143SOL    HW238889   4.113   1.411   7.267 -2.0556 -1.2701 -0.5388
 9144SOL     OW38890   0.972   2.448  15.138 -0.0469  0.2393  0.1962
 9144SOL    HW138891   0.893   2.465  15.189 -0.0418  0.3233  0.1757
 9144SOL    HW238892   0.951   2.465  15.047  1.2484  1.9284  0.2237
 9145SOL     OW38893   0.342   1.613   0.016  0.0007 -0.3292 -0.8263
 9145SOL    HW138894   0.383   1.543  17.661  1.0000 -0.5929  0.3571
 9145SOL    HW238895   0.355   1.584   0.106  0.1288  2.0166 -0.0799
 9146SOL     OW38896   0.767   0.280  13.534  0.2407  0.1521  0.1922
 9146SOL    HW138897   0.729   0.289  13.621 -1.3537 -1.3566 -0.3661
 9146SOL    HW238898   0.716   0.213  13.489 -0.9889  1.2550 -0.0401
 9147SOL     OW38899   1.918   2.221   4.269  0.3491  0.1076 -0.5986
 9147SOL    HW138900   1.910   2.163   4.193 -0.8493 -0.4357 -0.0494
 9147SOL    HW238901   1.875   2.173   4.340  0.4810 -1.4112 -1.5360
 9148SOL     OW38902   4.542   4.256   9.384 -0.1925 -0.1718 -0.5171
 9148SOL    HW138903   4.576   4.322   9.444 -0.0865  0.5613 -1.3869
 9148SOL    HW238904   4.466   4.221   9.431 -2.0223  2.6981 -1.3514
 9149SOL     OW38905   3.429   2.569   3.984 -0.3043 -0.0155  0.0604
 9149SOL    HW138906   3.435   2.473   3.981 -2.6481 -0.1822  0.7153
 9149SOL    HW238907   3.524   2.573   3.990 -0.2846  0.0892 -0.3436
 9150SOL     OW38908   2.857   0.736  12.281  0.1373 -1.0258 -0.6848
 9150SOL    HW138909   2.762   0.732  12.279  0.1070 -1.9516  3.2323
 9150SOL    HW238910   2.868   0.822  12.241  2.0339 -1.1591 -0.4881
 9151SOL     OW38911   4.105   3.952   7.628 -0.0222 -0.4213  0.1549
 9151SOL    HW138912   4.068   3.957   7.540 -1.3141 -0.8870  0.6675
 9151SOL    HW238913   4.112   4.047   7.640 -0.8149 -0.1408 -1.5882
 9152SOL     OW38914   3.200   2.163  14.179 -0.5929 -0.0150 -0.5276
 9152SOL    HW138915   3.182   2.145  14.087 -0.2704 -1.5615 -0.2923
 9152SOL    HW238916   3.108   2.179  14.203 -0.5848 -2.0861  0.9010
 9153SOL     OW38917   4.520   1.140   8.082 -0.2740  0.2760  0.1529
 9153SOL    HW138918   4.519   1.058   8.032  2.2805 -0.3170  1.0803
 9153SOL    HW238919   4.513   1.108   8.172 -1.1908  0.0578  0.0038
 9154SOL     OW38920   2.733   2.317  15.985 -0.0725 -0.0685 -0.1245
 9154SOL    HW138921   2.681   2.238  15.988  1.2790 -1.1054 -3.2307
 9154SOL    HW238922   2.800   2.309  15.916 -1.2134  0.9412 -1.3672
 9155SOL     OW38923   0.137   3.176   1.747  0.3707 -0.1831  0.1241
 9155SOL    HW138924   0.159   3.229   1.824 -0.2956  0.2040  0.0526
 9155SOL    HW238925   0.047   3.199   1.725  0.7314 -1.1986 -2.3912
 9156SOL     OW38926   4.158   2.641   6.428  0.4185 -0.0513  0.3795
 9156SOL    HW138927   4.081   2.594   6.458 -0.7076  1.1195 -0.6852
 9156SOL    HW238928   4.173   2.678   6.515  0.5043  0.8794 -0.0272
 9157SOL     OW38929   0.302   1.611  11.388  0.3831 -0.1190  0.2200
 9157SOL    HW138930   0.344   1.687  11.430 -1.2645  0.4203  0.9044
 9157SOL    HW238931   0.232   1.659  11.343 -0.8601 -2.8336 -0.7253
 9158SOL     OW38932   3.937   2.470   5.251  0.2487  0.4941  0.6512
 9158SOL    HW138933   3.983   2.393   5.284  1.7450 -0.8390 -4.5316
 9158SOL    HW238934   3.853   2.461   5.295  1.1030 -1.2531  1.9644
 9159SOL     OW38935   3.273   0.828   7.418 -0.2680  0.0553 -0.9862
 9159SOL    HW138936   3.242   0.855   7.505  0.6502  3.9822 -1.8616
 9159SOL    HW238937   3.336   0.761   7.444 -0.1454 -0.4758 -2.6761
 9160SOL     OW38938   1.062   3.446   0.953 -0.2537  0.1676 -0.3520
 9160SOL    HW138939   1.070   3.443   1.049 -1.2245 -1.3998 -0.3225
 9160SOL    HW238940   1.041   3.537   0.933 -2.9716 -0.3314  0.2894
 9161SOL     OW38941   1.248   0.201   3.585 -0.1720 -0.1242  0.2388
 9161SOL    HW138942   1.339   0.176   3.599  0.0565  0.3253 -0.4671
 9161SOL    HW238943   1.210   0.162   3.663 -0.9388 -1.4958 -0.8061
 9162SOL     OW38944   1.500   1.212   8.509 -0.2898  0.4957  0.3216
 9162SOL    HW138945   1.459   1.253   8.433 -0.7681  1.6969  1.2335
 9162SOL    HW238946   1.509   1.292   8.561  1.8338 -0.8825  2.0969
 9163SOL     OW38947   3.688   4.063  15.505 -0.4441 -0.2849  0.1557
 9163SOL    HW138948   3.645   4.110  15.577  1.0454  1.4938 -0.1104
 9163SOL    HW238949   3.663   3.976  15.536 -0.9620  0.3537  1.5166
 9164SOL     OW38950   4.644   0.114   8.153  0.0991 -0.2913  0.3646
 9164SOL    HW138951   4.653   0.110   8.058  0.6539 -2.3839  0.5126
 9164SOL    HW238952   4.584   0.189   8.160  0.0946 -0.4037  1.5993
 9165SOL     OW38953   1.433   2.590   3.440  0.2686  0.8206 -0.2050
 9165SOL    HW138954   1.338   2.581   3.441  0.4268 -0.7570  0.1570
 9165SOL    HW238955   1.457   2.532   3.369 -1.4684 -1.3034  0.9378
 9166SOL     OW38956   3.131   1.854   8.287 -0.7254 -0.1838  0.3728
 9166SOL    HW138957   3.212   1.900   8.312 -0.2143 -0.1967 -1.2389
 9166SOL    HW238958   3.126   1.867   8.193 -1.8176 -0.3840  0.4080
 9167SOL     OW38959   2.684   3.816   3.555 -0.2122 -0.0118 -0.4597
 9167SOL    HW138960   2.651   3.822   3.466 -5.8092  1.5940  1.7452
 9167SOL    HW238961   2.762   3.760   3.553 -0.1648 -0.0590  2.2280
 9168SOL     OW38962   0.996   1.907   5.443 -0.4973  0.4539  0.1981
 9168SOL    HW138963   1.041   1.915   5.359 -0.5867  1.1404  0.2143
 9168SOL    HW238964   0.973   1.996   5.469 -0.2795  0.5528  0.0541
 9169SOL     OW38965   4.547   2.033   8.814  0.4547  0.1269 -0.0567
 9169SOL    HW138966   4.545   2.100   8.883  1.4183 -1.1200  1.1811
 9169SOL    HW238967   4.637   2.001   8.811  0.4085 -0.1648  1.6572
 9170SOL     OW38968   2.757   1.873   7.982 -0.0704  0.2041 -0.2264
 9170SOL    HW138969   2.679   1.903   8.028  0.2135 -0.3999  0.6428
 9170SOL    HW238970   2.828   1.918   8.030 -2.7213  3.3738  0.7533
 9171SOL     OW38971   3.784   4.465  10.217 -0.0768 -0.6121 -0.3408
 9171SOL    HW138972   3.720   4.394  10.226  0.1861 -0.4581  2.7745
 9171SOL    HW238973   3.861   4.411  10.201 -0.2997 -0.5433 -1.6057
 9172SOL     OW38974   1.402   2.153   3.313  0.3797  0.5621 -0.1447
 9172SOL    HW138975   1.423   2.115   3.398  1.6182 -1.8932 -1.5626
 9172SOL    HW238976   1.437   2.243   3.311 -0.6348  0.9733  0.3893
 9173SOL     OW38977   2.839   1.365   2.741 -0.6441  0.6755  0.3554
 9173SOL    HW138978   2.912   1.382   2.802 -1.6779  0.2867  1.6918
 9173SOL    HW238979   2.883   1.301   2.685 -0.4933 -0.5629  1.9117
 9174SOL     OW38980   0.678   0.554   4.453  0.2253 -0.0231  0.7511
 9174SOL    HW138981   0.659   0.566   4.360  0.5780  0.8873  0.7930
 9174SOL    HW238982   0.612   0.599   4.505 -1.3034  0.9624 -2.0180
 9175SOL     OW38983   1.935   1.224  10.541  0.3794 -0.0951 -0.2483
 9175SOL    HW138984   1.978   1.139  10.549  0.2776 -0.3406 -2.3472
 9175SOL    HW238985   1.860   1.209  10.599  0.4983 -0.7939 -0.2726
 9176SOL     OW38986   3.841   2.743   8.764  0.5502 -0.1214 -0.2314
 9176SOL    HW138987   3.787   2.809   8.809 -2.2121 -1.7477 -1.1495
 9176SOL    HW238988   3.871   2.686   8.835  2.2860  0.1435 -0.7626
 9177SOL     OW38989   0.732   0.303   4.384 -0.1017 -0.6539  0.0024
 9177SOL    HW138990   0.742   0.382   4.437  1.4754  0.0495 -1.3252
 9177SOL    HW238991   0.672   0.345   4.322  1.4834  0.0320 -1.0612
 9178SOL     OW38992   1.800   0.115  12.929 -0.4497  0.0875  0.2940
 9178SOL    HW138993   1.734   0.184  12.924 -0.1551  0.4769  1.7612
 9178SOL    HW238994   1.768   0.065  13.004 -3.8715 -1.3155 -2.0917
 9179SOL     OW38995   1.346   3.370  13.897 -0.9553  0.1362  0.3642
 9179SOL    HW138996   1.308   3.282  13.892  0.9108 -0.4278 -4.1316
 9179SOL    HW238997   1.415   3.355  13.832 -0.9354 -2.1239  0.9049
 9180SOL     OW38998   1.585   1.942   1.263 -0.6170  0.3079  0.1281
 9180SOL    HW138999   1.670   1.926   1.221 -0.1358  0.8714  0.8940
 9180SOL    HW239000   1.550   1.853   1.260 -3.0656  1.2395  1.4000
 9181SOL     OW39001   1.958   2.374   7.903 -0.0206  0.2087  0.4766
 9181SOL    HW139002   1.928   2.399   7.990 -1.4580 -0.4515  0.1646
 9181SOL    HW239003   1.878   2.364   7.852 -1.6978  0.2603  3.1075
 9182SOL     OW39004   0.902   3.178   7.889  0.4553 -0.3232  0.1692
 9182SOL    HW139005   0.864   3.258   7.927  1.1000 -0.6325  1.4828
 9182SOL    HW239006   0.920   3.135   7.972  1.6503  3.5175  1.9329
 9183SOL     OW39007   2.594   0.334  15.980  0.3632  0.2082  0.1795
 9183SOL    HW139008   2.662   0.393  16.013 -1.5755  2.2050  0.5818
 9183SOL    HW239009   2.536   0.313  16.053 -0.4279 -0.1938 -0.5648
 9184SOL     OW39010   1.050   2.531  13.959  0.4747 -0.4959 -0.4578
 9184SOL    HW139011   0.970   2.501  14.003 -0.9511 -0.7038 -3.2001
 9184SOL    HW239012   1.109   2.459  13.981  0.7286  1.0849  4.1598
 9185SOL     OW39013   1.606   0.605   9.639  0.3038  0.0861 -0.4392
 9185SOL    HW139014   1.559   0.684   9.610 -2.4015 -0.9195  1.2742
 9185SOL    HW239015   1.556   0.538   9.594 -1.5847  0.9521  0.3844
 9186SOL     OW39016   2.170   4.112  15.184  0.3603  0.2453 -0.0660
 9186SOL    HW139017   2.234   4.132  15.116 -0.3058  0.9211 -0.4935
 9186SOL    HW239018   2.213   4.037  15.225  2.4693  0.4939 -1.8514
 9187SOL     OW39019   4.707   2.943  14.868 -0.1633 -0.0702 -0.2819
 9187SOL    HW139020   4.670   2.984  14.946 -1.0920 -0.8768 -0.2912
 9187SOL    HW239021   0.064   2.994  14.869 -1.3031  1.7523 -1.7929
 9188SOL     OW39022   1.725   3.617   3.002 -0.5319  0.4563  0.0078
 9188SOL    HW139023   1.650   3.602   2.944 -0.7801  0.3882  0.3434
 9188SOL    HW239024   1.740   3.527   3.029  0.8061  0.5241 -0.5300
 9189SOL     OW39025   1.534   3.867   3.364  0.3242 -0.2741 -0.6507
 9189SOL    HW139026   1.576   3.921   3.431 -0.9065 -0.7970  0.5295
 9189SOL    HW239027   1.610   3.834   3.315 -0.9227 -0.5629 -2.3696
 9190SOL     OW39028   4.074   3.533   2.558  1.1183  0.2622  0.0731
 9190SOL    HW139029   4.032   3.617   2.572  1.2860  0.4707 -0.6795
 9190SOL    HW239030   4.022   3.496   2.487  2.1715 -0.4176 -0.3514
 9191SOL     OW39031   3.913   0.376  15.071  0.0350 -0.3011  0.2770
 9191SOL    HW139032   3.884   0.297  15.025 -0.9874 -1.0840  2.2657
 9191SOL    HW239033   3.939   0.428  14.995 -0.3305  0.7040  0.8489
 9192SOL     OW39034   3.362   0.465   1.455 -0.0762 -0.1486 -0.5727
 9192SOL    HW139035   3.371   0.560   1.470  0.4669 -0.1667 -0.7938
 9192SOL    HW239036   3.447   0.422   1.456  0.4991  0.9960 -0.3514
 9193SOL     OW39037   1.868   3.705  11.938 -0.0590  0.3440 -0.5610
 9193SOL    HW139038   1.850   3.617  11.905 -1.5080  0.5339 -0.2864
 9193SOL    HW239039   1.925   3.685  12.013 -0.7412 -1.5034 -0.5141
 9194SOL     OW39040   2.656   1.801  11.240  0.4779 -0.2442 -0.2224
 9194SOL    HW139041   2.656   1.717  11.195  1.4380 -0.1476 -0.4047
 9194SOL    HW239042   2.678   1.862  11.168  2.9609 -0.3694  0.4311
 9195SOL     OW39043   0.114   2.932   3.025 -0.6160 -0.0553  1.0003
 9195SOL    HW139044   0.036   2.879   3.037 -1.1873  1.0990  2.3645
 9195SOL    HW239045   0.084   3.023   3.030  1.2449  0.7870 -2.7588
 9196SOL     OW39046   0.614   0.893  10.337 -0.1062 -0.3541  0.1059
 9196SOL    HW139047   0.674   0.818  10.336  1.6014  1.0058  0.2863
 9196SOL    HW239048   0.635   0.943  10.416 -0.9843  2.5061 -1.4873
 9197SOL     OW39049   2.483   3.413  13.398  0.1945  0.3248  0.3781
 9197SOL    HW139050   2.426   3.345  13.435 -1.2423  1.2249 -0.1902
 9197SOL    HW239051   2.508   3.465  13.474 -1.1599 -0.1305  1.1327
 9198SOL     OW39052   2.778   3.543   9.391 -0.3111  0.1144 -0.4675
 9198SOL    HW139053   2.719   3.499   9.329 -0.1286  0.1580 -0.6746
 9198SOL    HW239054   2.737   3.625   9.418  1.1512  1.0707 -1.1172
 9199SOL     OW39055   3.048   1.454   6.836 -0.6476  0.4937  0.1924
 9199SOL    HW139056   3.033   1.533   6.783 -2.7013  0.0861  0.1355
 9199SOL    HW239057   2.966   1.455   6.885  1.2666 -0.4390  3.3571
 9200SOL     OW39058   0.114   1.348   5.627 -0.1542 -0.1260 -0.0923
 9200SOL    HW139059   0.080   1.353   5.716  0.2073  0.5021  0.0065
 9200SOL    HW239060   0.046   1.293   5.587  0.2427 -0.6226 -0.0907
 9201SOL     OW39061   1.939   2.876   6.052  0.3044 -0.3115  0.7784
 9201SOL    HW139062   2.000   2.898   5.982 -0.0258  4.6606  2.0210
 9201SOL    HW239063   1.914   2.787   6.027 -0.0840 -1.0057  3.6348
 9202SOL     OW39064   1.480   2.240   8.044  0.1218  0.9207  0.0547
 9202SOL    HW139065   1.470   2.213   8.135 -1.1692  2.1812  0.2700
 9202SOL    HW239066   1.560   2.198   8.012 -0.0883 -0.3535  1.2147
 9203SOL     OW39067   4.503   4.339   4.019 -0.4884 -0.1980  0.1626
 9203SOL    HW139068   4.409   4.352   4.029 -0.6387 -1.4634  0.3920
 9203SOL    HW239069   4.519   4.365   3.928  1.6350 -1.4546  0.1697
 9204SOL     OW39070   2.169   4.194   4.214 -0.3653 -0.8592  0.1592
 9204SOL    HW139071   2.232   4.127   4.187 -2.0323 -2.0173 -0.8611
 9204SOL    HW239072   2.091   4.144   4.238 -0.1538 -0.4813  1.6154
 9205SOL     OW39073   1.037   3.503   2.028 -0.0591  0.4636  0.1308
 9205SOL    HW139074   1.008   3.582   2.075 -1.9083 -0.4680  0.5557
 9205SOL    HW239075   0.950   3.472   2.002 -0.2808  2.0685 -1.0437
 9206SOL     OW39076   0.389   0.659   4.352 -0.4818 -0.2586 -0.0128
 9206SOL    HW139077   0.394   0.621   4.264 -0.5385 -0.8394  0.2324
 9206SOL    HW239078   0.339   0.594   4.401 -2.2405  0.9209 -0.2645
 9207SOL     OW39079   1.658   3.464   4.014 -0.3842 -0.0856  0.0813
 9207SOL    HW139080   1.724   3.530   3.991 -0.3943 -0.9441 -2.4382
 9207SOL    HW239081   1.584   3.507   3.971  0.1775  0.7469 -0.0505
 9208SOL     OW39082   1.476   0.142   7.176 -0.4486 -0.2804 -0.7166
 9208SOL    HW139083   1.528   0.081   7.124 -0.5135 -3.0887  2.5214
 9208SOL    HW239084   1.389   0.104   7.166 -0.1316 -0.8297 -1.4094
 9209SOL     OW39085   0.353   3.566   2.813 -0.1664 -0.2061  0.2266
 9209SOL    HW139086   0.413   3.508   2.767 -1.7885  0.8292 -3.2213
 9209SOL    HW239087   0.319   3.622   2.742 -1.6114 -2.2739 -0.7078
 9210SOL     OW39088   2.652   4.534  13.230  0.4511 -0.0102 -0.1509
 9210SOL    HW139089   2.622   4.447  13.256 -1.1668  0.2205 -1.2152
 9210SOL    HW239090   2.672   4.525  13.136 -0.0505 -1.4168 -0.1235
 9211SOL     OW39091   3.968   1.844   5.891  0.0337 -0.5627  0.9950
 9211SOL    HW139092   3.975   1.895   5.810 -0.4390  1.9251  2.5295
 9211SOL    HW239093   3.907   1.901   5.938 -0.6791 -1.1516  0.7946
 9212SOL     OW39094   3.470   2.583  17.432 -0.4889  0.0000 -0.1340
 9212SOL    HW139095   3.539   2.631  17.386  1.7957 -2.4137  0.8200
 9212SOL    HW239096   3.386   2.586  17.385 -1.3457  0.4163  1.4297
 9213SOL     OW39097   3.029   2.149   3.425  0.3933 -0.3235  0.3748
 9213SOL    HW139098   2.942   2.187   3.414  0.1759 -1.1770 -0.8405
 9213SOL    HW239099   3.007   2.063   3.460 -0.1169  0.0332  0.9249
 9214SOL     OW39100   0.415   0.112   5.734 -0.0751  0.0939  0.9045
 9214SOL    HW139101   0.343   0.096   5.794 -1.4399 -2.2973 -1.3615
 9214SOL    HW239102   0.398   0.201   5.702  1.1347  0.0617  0.1881
 9215SOL     OW39103   2.660   2.827  12.109  0.1603 -0.0572 -0.3038
 9215SOL    HW139104   2.653   2.911  12.154  0.4936 -0.5652  0.6967
 9215SOL    HW239105   2.689   2.767  12.178 -3.5532 -0.7915  0.6535
 9216SOL     OW39106   3.720   2.568  14.001 -0.4505 -0.2505 -0.0927
 9216SOL    HW139107   3.806   2.608  14.014  0.0676 -0.8614 -1.7015
 9216SOL    HW239108   3.657   2.640  14.000 -1.0461 -0.7575  0.5979
 9217SOL     OW39109   1.260   1.518   4.562  0.0557 -0.3044 -0.3909
 9217SOL    HW139110   1.324   1.535   4.494  1.1700 -1.6125  0.3428
 9217SOL    HW239111   1.306   1.576   4.624 -2.2158  0.4764  0.5704
 9218SOL     OW39112   1.540   1.627   3.174 -0.4172  0.2546  0.0903
 9218SOL    HW139113   1.565   1.704   3.122 -0.1258  1.3659  1.8461
 9218SOL    HW239114   1.620   1.578   3.194 -0.4975  0.3310  0.6086
 9219SOL     OW39115   4.655   1.174   4.098  0.0750 -0.3559 -0.0775
 9219SOL    HW139116   4.628   1.228   4.173  2.7260  2.0166 -0.8171
 9219SOL    HW239117   0.002   1.218   4.050  1.1461  0.4147  2.2008
 9220SOL     OW39118   1.893   2.911  10.784 -1.0493 -0.7332  0.4664
 9220SOL    HW139119   1.869   2.997  10.750 -0.5223 -0.3845  0.9814
 9220SOL    HW239120   1.845   2.907  10.867 -0.4559 -1.7093  0.7667
 9221SOL     OW39121   0.111   3.606   7.768 -0.0023  0.5751 -0.2372
 9221SOL    HW139122   0.190   3.553   7.753  1.7715  3.3534 -0.7597
 9221SOL    HW239123   0.054   3.535   7.797 -0.9778  0.7226 -1.7940
 9222SOL     OW39124   4.341   1.689   5.347 -0.5507  0.1464  0.6982
 9222SOL    HW139125   4.268   1.640   5.308  0.3209 -1.3743  0.9832
 9222SOL    HW239126   4.303   1.735   5.422 -1.6730  0.5114 -0.0877
 9223SOL     OW39127   2.047   4.178   9.991  0.7729 -0.1862  0.7088
 9223SOL    HW139128   2.129   4.143   9.957 -0.7883  0.1242 -3.2857
 9223SOL    HW239129   1.988   4.103   9.990  1.4751 -0.7571  1.9367
 9224SOL     OW39130   4.693   4.321   1.626 -0.0945  0.0265  0.2248
 9224SOL    HW139131   4.675   4.269   1.704 -0.6509  3.0625  2.1288
 9224SOL    HW239132   4.648   4.404   1.643 -0.3704 -0.1118  0.1743
 9225SOL     OW39133   0.386   4.048   4.387 -0.1871  0.3281 -0.3694
 9225SOL    HW139134   0.411   4.007   4.470 -1.3258 -1.6700 -1.0115
 9225SOL    HW239135   0.350   4.133   4.414 -1.6656 -0.4024 -0.0101
 9226SOL     OW39136   3.458   2.175   9.492 -0.0929 -0.6497  0.4301
 9226SOL    HW139137   3.444   2.084   9.467 -0.7871 -0.4130 -0.0557
 9226SOL    HW239138   3.444   2.215   9.406 -0.9917  2.0253  1.8255
 9227SOL     OW39139   1.391   1.398   8.910 -0.0452  0.3236  0.2425
 9227SOL    HW139140   1.474   1.379   8.953 -1.5606 -1.5495  2.3182
 9227SOL    HW239141   1.355   1.449   8.983  0.1347 -0.6805  1.0328
 9228SOL     OW39142   2.817   4.130  16.298  0.4702 -1.1037  0.0485
 9228SOL    HW139143   2.856   4.218  16.301 -1.3378 -0.2697 -1.3323
 9228SOL    HW239144   2.797   4.126  16.205 -0.1796  0.6388  0.1002
 9229SOL     OW39145   0.230   1.960  15.126  0.1599 -0.5467  0.4595
 9229SOL    HW139146   0.142   1.929  15.108 -0.8456  1.9984  0.9185
 9229SOL    HW239147   0.263   1.874  15.153  2.9524  0.1093 -0.8253
 9230SOL     OW39148   2.919   3.354  11.469 -0.2086 -0.9311 -0.1078
 9230SOL    HW139149   2.968   3.277  11.442  1.6866  0.7428 -1.4496
 9230SOL    HW239150   2.983   3.399  11.525 -0.4957 -0.8152  0.1270
 9231SOL     OW39151   1.136   3.869   7.296  0.2005 -0.1153  0.3304
 9231SOL    HW139152   1.113   3.940   7.355  1.1989 -1.2065  2.0576
 9231SOL    HW239153   1.074   3.797   7.307  2.8301 -2.5024 -0.5445
 9232SOL     OW39154   3.299   2.968   9.895 -0.3633 -0.1574 -0.7821
 9232SOL    HW139155   3.346   2.912   9.957  0.2852  3.1044  1.6255
 9232SOL    HW239156   3.270   3.040   9.951  0.2370  0.7934 -1.6990
 9233SOL     OW39157   3.954   1.189   3.930  0.3895  1.2675 -0.9886
 9233SOL    HW139158   3.979   1.276   3.960 -0.0576  0.3484  2.0218
 9233SOL    HW239159   3.862   1.204   3.907 -0.9360 -3.4728  1.2646
 9234SOL     OW39160   4.478   2.277  13.476  0.2595  0.0955 -0.6198
 9234SOL    HW139161   4.424   2.220  13.531  0.6122  1.0645  0.7387
 9234SOL    HW239162   4.410   2.332  13.437 -0.7828 -0.7416  0.0203
 9235SOL     OW39163   0.586   1.540  13.169  0.1259  0.1519  0.5202
 9235SOL    HW139164   0.557   1.554  13.259 -0.9528 -0.6657  0.2948
 9235SOL    HW239165   0.659   1.482  13.188 -0.4638  0.6046  4.2417
 9236SOL     OW39166   1.292   2.198   7.758 -0.3479  0.4385 -0.0847
 9236SOL    HW139167   1.198   2.195   7.776 -0.8078  0.3762 -2.4774
 9236SOL    HW239168   1.299   2.293   7.748 -0.7701  0.4389 -0.3942
 9237SOL     OW39169   2.928   1.194   8.771 -0.2967 -0.1638 -0.3187
 9237SOL    HW139170   2.936   1.228   8.682  1.8420  0.3215  0.0643
 9237SOL    HW239171   2.838   1.161   8.767 -0.4392  0.1253  0.4672
 9238SOL     OW39172   3.283   3.264  16.052 -0.2647 -0.6386  0.7446
 9238SOL    HW139173   3.343   3.239  16.122  2.2432  0.0405 -1.1708
 9238SOL    HW239174   3.271   3.175  16.018  2.3509 -1.0557  0.8527
 9239SOL     OW39175   2.471   4.212   8.676  0.2424  0.4725 -0.3998
 9239SOL    HW139176   2.385   4.253   8.676 -0.0055 -0.0619  0.1994
 9239SOL    HW239177   2.458   4.118   8.687  1.6813  0.3372  0.1943
 9240SOL     OW39178   3.719   2.612   4.756  0.1346 -0.4105  0.3013
 9240SOL    HW139179   3.735   2.556   4.831  0.7988  1.5131  1.6143
 9240SOL    HW239180   3.623   2.609   4.756  0.1305 -0.4062  1.4575
 9241SOL     OW39181   3.677   0.657   2.026 -0.4527  0.1479 -0.2868
 9241SOL    HW139182   3.633   0.580   2.063 -0.4182 -0.4296 -1.4606
 9241SOL    HW239183   3.760   0.640   2.071 -0.5788  0.4780  0.0685
 9242SOL     OW39184   2.161   1.560  11.915 -0.0321 -0.7129 -0.5059
 9242SOL    HW139185   2.086   1.611  11.944  1.8191  2.1779 -0.7711
 9242SOL    HW239186   2.227   1.580  11.982 -0.1140  0.7603 -0.8573
 9243SOL     OW39187   1.790   4.453   5.299  0.2107 -0.1762 -0.0192
 9243SOL    HW139188   1.797   4.541   5.336 -0.7282  0.0161 -0.2952
 9243SOL    HW239189   1.764   4.396   5.371 -0.8116  0.4631  0.1112
 9244SOL     OW39190   4.624   2.495   4.581 -0.2165 -0.2269  0.1511
 9244SOL    HW139191   4.694   2.543   4.539 -0.0301 -0.3660  0.3017
 9244SOL    HW239192   4.576   2.465   4.503  1.3266 -1.0916 -0.4632
 9245SOL     OW39193   4.181   4.211  16.942 -0.0528  0.2397 -0.6354
 9245SOL    HW139194   4.129   4.291  16.934 -0.3920 -0.0069 -0.9073
 9245SOL    HW239195   4.123   4.157  16.996 -0.2180 -1.8291 -2.8887
 9246SOL     OW39196   0.918   0.049   2.648 -0.2566  0.3732  0.0084
 9246SOL    HW139197   0.995   0.084   2.604 -0.2757 -0.2505 -0.5125
 9246SOL    HW239198   0.858   0.118   2.618  0.3708  0.8066 -0.2383
 9247SOL     OW39199   3.843   2.501   6.949 -0.0711 -0.5547  0.3599
 9247SOL    HW139200   3.800   2.450   7.018 -1.2159 -0.0358  0.0275
 9247SOL    HW239201   3.896   2.552   7.010  0.4370  1.3599 -1.6824
 9248SOL     OW39202   0.573   0.270   0.930 -1.0302 -0.0290  0.3880
 9248SOL    HW139203   0.591   0.251   1.022  0.5140 -0.6359 -0.0384
 9248SOL    HW239204   0.493   0.320   0.944  0.6713  3.0227 -0.7383
 9249SOL     OW39205   4.313   2.877   3.623 -0.4221 -0.4110 -0.3264
 9249SOL    HW139206   4.253   2.806   3.647 -1.0567  0.7033  1.4026
 9249SOL    HW239207   4.276   2.897   3.537 -0.4202  1.7597  0.1744
 9250SOL     OW39208   1.330   4.286   3.242 -0.4556 -0.1329 -0.1854
 9250SOL    HW139209   1.342   4.197   3.273 -3.1147 -0.4500 -0.0623
 9250SOL    HW239210   1.266   4.319   3.305 -0.2241 -1.7640  0.8993
 9251SOL     OW39211   0.243   3.795   4.782  0.5814  0.3029 -0.3139
 9251SOL    HW139212   0.314   3.764   4.726  0.7822  0.9404 -0.4169
 9251SOL    HW239213   0.200   3.715   4.814  0.7224  0.5701  0.5399
 9252SOL     OW39214   4.664   0.799   7.472 -0.1180  0.3871 -0.2446
 9252SOL    HW139215   4.609   0.787   7.549 -1.3613  0.6580 -1.0955
 9252SOL    HW239216   4.612   0.761   7.401 -1.6159 -0.3855  1.2667
 9253SOL     OW39217   0.464   0.715   6.799 -0.4634 -0.5986 -0.1524
 9253SOL    HW139218   0.547   0.713   6.847 -0.9272  1.8007  0.7627
 9253SOL    HW239219   0.469   0.806   6.770  0.7913  0.1733  2.5063
 9254SOL     OW39220   4.692   1.064   8.568  0.3787 -0.4219  0.0189
 9254SOL    HW139221   0.020   1.029   8.495  1.0885 -0.4082  0.5076
 9254SOL    HW239222   4.704   1.156   8.544 -0.7073 -0.2928 -0.0399
 9255SOL     OW39223   2.163   0.005   4.709  0.0266 -0.7007 -0.5229
 9255SOL    HW139224   2.174   0.082   4.765  0.0525 -1.9154  1.1271
 9255SOL    HW239225   2.158   4.654   4.768 -1.0492  0.6664  1.0913
 9256SOL     OW39226   0.453   4.152   2.392 -0.1474 -0.5797  0.0292
 9256SOL    HW139227   0.520   4.219   2.380 -0.3627 -0.5812 -1.2343
 9256SOL    HW239228   0.416   4.158   2.304  3.1828  1.8407 -1.1870
 9257SOL     OW39229   1.665   3.686   7.165 -0.3107 -0.0101 -0.1422
 9257SOL    HW139230   1.740   3.628   7.169 -1.5135 -1.6082 -0.8174
 9257SOL    HW239231   1.682   3.748   7.236 -0.6173 -0.5550  0.4000
 9258SOL     OW39232   2.770   4.210  11.910 -0.0069  0.1240 -0.1810
 9258SOL    HW139233   2.827   4.146  11.868  0.9676 -0.0388  1.3738
 9258SOL    HW239234   2.716   4.224  11.833  0.6805 -0.6054 -0.7896
 9259SOL     OW39235   3.809   4.113  13.712  0.0988 -0.0489  0.3522
 9259SOL    HW139236   3.826   4.206  13.698  2.3257 -0.9765 -3.0805
 9259SOL    HW239237   3.744   4.115  13.783  0.2898 -2.7550  0.6009
 9260SOL     OW39238   1.594   0.111  15.177  0.0313 -0.6383 -0.1294
 9260SOL    HW139239   1.524   0.086  15.118  1.1961 -2.4172 -0.7827
 9260SOL    HW239240   1.570   0.073  15.262 -0.6775 -1.5838 -0.7597
 9261SOL     OW39241   2.995   0.020   5.738  0.4841 -0.4322  0.0646
 9261SOL    HW139242   3.047   0.100   5.727  0.9158 -0.7550 -0.2723
 9261SOL    HW239243   2.907   0.044   5.765  0.2823 -2.4528  1.2128
 9262SOL     OW39244   1.218   1.150   3.416  0.4168 -0.2616 -0.6828
 9262SOL    HW139245   1.219   1.056   3.433 -0.8133 -0.0263  0.7039
 9262SOL    HW239246   1.148   1.170   3.479  1.1408 -1.3677  0.4760
 9263SOL     OW39247   1.308   3.023  14.951  0.0395 -0.0198  0.2011
 9263SOL    HW139248   1.335   2.944  14.998  2.0907  0.1976 -0.6081
 9263SOL    HW239249   1.381   3.035  14.891 -0.2522  0.9573  0.0413
 9264SOL     OW39250   3.157   1.493   8.040 -0.1648  0.8588  0.1227
 9264SOL    HW139251   3.160   1.464   8.131  1.1716 -1.0518 -0.5347
 9264SOL    HW239252   3.185   1.584   8.045  1.6959  0.4978 -4.0926
 9265SOL     OW39253   3.542   4.314   3.411  0.4186 -0.3036 -0.1662
 9265SOL    HW139254   3.590   4.348   3.336  0.7275 -2.7541 -1.0689
 9265SOL    HW239255   3.489   4.392   3.430  0.3409 -0.6962  1.2945
 9266SOL     OW39256   3.365   2.154  17.215  0.0651  0.1278 -0.7716
 9266SOL    HW139257   3.439   2.166  17.275  2.2333 -1.6641 -3.0746
 9266SOL    HW239258   3.311   2.231  17.232  0.7236  0.3950  0.1328
 9267SOL     OW39259   0.536   2.480   6.820  0.0047 -0.5219 -0.6295
 9267SOL    HW139260   0.532   2.420   6.746 -2.5632  0.7359 -1.5101
 9267SOL    HW239261   0.559   2.560   6.772 -0.0311  1.0504  1.9714
 9268SOL     OW39262   1.984   1.041   5.001  0.2202 -0.2988  0.2031
 9268SOL    HW139263   2.027   0.969   5.047  0.0041 -0.1932  0.5665
 9268SOL    HW239264   2.062   1.092   4.980  0.1065  0.1706  0.9289
 9269SOL     OW39265   3.522   4.315   7.752  0.2822  0.0028  0.6139
 9269SOL    HW139266   3.594   4.355   7.800 -0.4127  1.6371  0.2915
 9269SOL    HW239267   3.470   4.394   7.740 -2.3540 -1.7029  0.7000
 9270SOL     OW39268   0.659   1.041   7.891  0.6806  0.5437 -0.1992
 9270SOL    HW139269   0.635   1.064   7.802 -0.4350  2.3106  0.5526
 9270SOL    HW239270   0.751   1.069   7.900  0.8759  0.0592 -0.7489
 9271SOL     OW39271   2.935   3.982   8.062  0.4880  0.0952  0.3791
 9271SOL    HW139272   2.936   4.034   8.141  0.3666 -1.9106  1.7082
 9271SOL    HW239273   3.009   3.923   8.075  1.2086  0.8478 -0.2991
 9272SOL     OW39274   4.585   3.819   1.885 -0.8801 -0.0023 -0.0335
 9272SOL    HW139275   4.636   3.893   1.851 -2.9772  0.1277 -2.8989
 9272SOL    HW239276   4.632   3.745   1.848 -2.9211 -1.3186  0.0194
 9273SOL     OW39277   3.181   3.878   4.567  0.3220  0.1633 -0.2026
 9273SOL    HW139278   3.138   3.793   4.562 -1.1437  1.0007 -1.4956
 9273SOL    HW239279   3.126   3.933   4.622  0.2691 -0.0266 -0.0629
 9274SOL     OW39280   3.135   3.775   8.099 -0.6555  0.2875  0.3893
 9274SOL    HW139281   3.184   3.819   8.029 -0.0854  0.7625  1.0856
 9274SOL    HW239282   3.169   3.685   8.093 -0.7809  0.3884 -1.9535
 9275SOL     OW39283   4.679   2.126   3.806 -0.1628  0.1621  0.2065
 9275SOL    HW139284   0.040   2.088   3.831  0.7188  2.4667  0.6717
 9275SOL    HW239285   4.637   2.047   3.773 -0.7694  0.5094  0.1627
 9276SOL     OW39286   2.728   0.397   6.760  0.7630 -0.3591 -0.3173
 9276SOL    HW139287   2.681   0.466   6.807  0.5424 -1.2281  0.7255
 9276SOL    HW239288   2.795   0.437   6.704 -0.4334  2.1890  0.0617
 9277SOL     OW39289   2.839   1.185   6.846 -0.3727 -0.4181  0.5701
 9277SOL    HW139290   2.803   1.267   6.880 -2.2821 -0.4773 -1.3265
 9277SOL    HW239291   2.925   1.189   6.887 -0.2255 -0.9955  0.3262
 9278SOL     OW39292   0.943   0.587   2.052 -0.2197  0.2843 -0.0025
 9278SOL    HW139293   0.883   0.662   2.045 -1.2536 -0.6178 -0.7488
 9278SOL    HW239294   0.882   0.514   2.063 -2.3716  2.0855  0.0272
 9279SOL     OW39295   0.856   2.037  13.983  0.0797 -1.1236  0.3294
 9279SOL    HW139296   0.777   2.005  14.027 -1.7112  0.5262 -1.6761
 9279SOL    HW239297   0.889   1.955  13.947  2.2687  0.2920 -0.8918
 9280SOL     OW39298   3.358   3.293   5.359  0.0682  0.5929 -0.0229
 9280SOL    HW139299   3.407   3.212   5.375  2.0060  1.4829 -1.4465
 9280SOL    HW239300   3.285   3.259   5.307 -0.1966 -1.0591  1.4235
 9281SOL     OW39301   0.580   1.385  12.890 -0.9682 -0.0329  0.0388
 9281SOL    HW139302   0.667   1.346  12.889 -1.4622 -1.1745  1.7169
 9281SOL    HW239303   0.532   1.314  12.847  0.9874 -0.5200 -1.3082
 9282SOL     OW39304   1.675   2.066   5.903  0.0027  0.1783  0.1981
 9282SOL    HW139305   1.582   2.047   5.918 -0.0957  0.1500 -0.4387
 9282SOL    HW239306   1.674   2.070   5.808  0.0495  1.4508  0.2413
 9283SOL     OW39307   1.331   1.093   6.859  0.7890 -0.0726  0.8849
 9283SOL    HW139308   1.344   1.024   6.925 -0.8555 -1.2461 -0.0039
 9283SOL    HW239309   1.268   1.055   6.797  1.5459 -1.5331  1.0187
 9284SOL     OW39310   0.851   0.101  13.264 -0.2019  0.0325  0.1681
 9284SOL    HW139311   0.781   0.166  13.274  0.7930  1.0707  0.3235
 9284SOL    HW239312   0.878   0.120  13.174 -2.2139  2.5940  0.0973
 9285SOL     OW39313   2.830   2.730   2.495  0.4753  0.4057 -0.0188
 9285SOL    HW139314   2.902   2.791   2.484  0.2357  0.4881 -1.1118
 9285SOL    HW239315   2.827   2.709   2.401 -0.4922  0.6989 -0.0594
 9286SOL     OW39316   4.232   2.677   7.988 -0.2574  0.1891 -0.1654
 9286SOL    HW139317   4.152   2.626   7.976 -1.5363  2.4174 -1.0808
 9286SOL    HW239318   4.292   2.602   7.995  3.3260  3.0236 -0.3325
 9287SOL     OW39319   4.693   3.902   6.912  0.0409 -0.1288  0.4986
 9287SOL    HW139320   4.663   3.813   6.896 -0.9658  0.2862  0.0447
 9287SOL    HW239321   4.610   3.950   6.904 -0.9486 -1.6947  1.3973
 9288SOL     OW39322   1.997   1.285  15.600 -0.7447  0.1331  0.2793
 9288SOL    HW139323   1.993   1.202  15.552 -1.9511  0.3521  0.0195
 9288SOL    HW239324   1.972   1.258  15.688  1.2418  2.0993  1.4523
 9289SOL     OW39325   1.732   3.854   4.191  0.5716  0.3798  0.3916
 9289SOL    HW139326   1.644   3.818   4.197 -0.0930  2.0722  0.8218
 9289SOL    HW239327   1.760   3.808   4.112  1.6340  0.2443  0.8379
 9290SOL     OW39328   2.915   1.858   1.219 -0.4930 -0.0496 -0.5682
 9290SOL    HW139329   2.890   1.778   1.265 -0.2766  0.6353  0.7553
 9290SOL    HW239330   2.850   1.917   1.256 -0.3580  0.3591 -0.9853
 9291SOL     OW39331   4.146   3.866  12.042  0.4798  0.1364  0.1635
 9291SOL    HW139332   4.194   3.939  12.004  1.4430 -0.6936 -0.1854
 9291SOL    HW239333   4.127   3.900  12.130  2.9983 -0.2430  0.8427
 9292SOL     OW39334   3.537   0.161   9.356  0.8908  0.4187 -0.1710
 9292SOL    HW139335   3.518   0.172   9.449  0.6079  1.0758 -0.3068
 9292SOL    HW239336   3.448   0.140   9.326  0.5241  1.5038  0.1809
 9293SOL     OW39337   2.439   3.074   7.286  0.0280 -0.1359 -0.2775
 9293SOL    HW139338   2.480   3.011   7.345  2.8679  1.4232 -0.5938
 9293SOL    HW239339   2.518   3.123   7.263 -0.6460  0.7880 -0.6353
 9294SOL     OW39340   2.815   1.069   9.291  0.5265  0.0483  0.5124
 9294SOL    HW139341   2.822   1.037   9.201 -0.8162 -0.1972  0.4949
 9294SOL    HW239342   2.745   1.133   9.279 -0.2825 -0.5694  1.8871
 9295SOL     OW39343   0.455   1.560   9.608 -0.5867  0.1044  0.5766
 9295SOL    HW139344   0.460   1.595   9.697  1.8122  0.5255  0.2896
 9295SOL    HW239345   0.442   1.467   9.629 -0.9253  0.2774  1.1155
 9296SOL     OW39346   1.372   2.563  17.588  0.1459  0.2186  0.0815
 9296SOL    HW139347   1.295   2.611  17.559 -0.0557  0.8369  1.6350
 9296SOL    HW239348   1.385   2.492  17.526 -0.3073 -2.5379  3.1581
 9297SOL     OW39349   2.292   3.231  17.565 -0.1057  0.0073 -0.0888
 9297SOL    HW139350   2.239   3.276  17.630 -1.1327 -3.5775  1.5822
 9297SOL    HW239351   2.264   3.279  17.487  0.6669 -0.1367 -0.4495
 9298SOL     OW39352   2.948   3.823   3.220  0.0961  0.0346 -0.2440
 9298SOL    HW139353   2.914   3.858   3.302  0.4005  0.7509 -0.4170
 9298SOL    HW239354   2.879   3.767   3.184  0.7606  0.2580 -1.8696
 9299SOL     OW39355   2.250   1.376   5.467  0.5984  0.2637  0.0001
 9299SOL    HW139356   2.166   1.347   5.501  1.0106 -1.2378 -0.2681
 9299SOL    HW239357   2.316   1.332   5.521  1.3109  2.5632  0.9812
 9300SOL     OW39358   1.329   3.979  15.251  0.0905  0.0570 -0.3079
 9300SOL    HW139359   1.327   4.068  15.215 -3.2155  0.0024 -0.2768
 9300SOL    HW239360   1.421   3.963  15.271 -0.8651 -1.6029  2.8274
 9301SOL     OW39361   1.612   3.633   5.743  0.1909  0.0170 -0.0098
 9301SOL    HW139362   1.574   3.681   5.669 -0.8327  1.9859  1.8069
 9301SOL    HW239363   1.657   3.565   5.692  1.0789  0.8946 -0.3841
 9302SOL     OW39364   0.030   2.001   8.035 -0.7157 -0.2390 -0.2356
 9302SOL    HW139365   0.006   1.949   8.111  0.6445 -3.3325 -1.9481
 9302SOL    HW239366   4.669   1.994   7.991 -2.0937  1.0058  2.1802
 9303SOL     OW39367   1.122   4.377   2.160  0.7515 -0.2094 -0.5508
 9303SOL    HW139368   1.196   4.367   2.099  2.7350  0.7620  1.7259
 9303SOL    HW239369   1.060   4.320   2.113 -0.8594  0.4243  0.8402
 9304SOL     OW39370   3.241   3.568   4.050  0.4773  0.1125 -0.0885
 9304SOL    HW139371   3.335   3.566   4.033  0.2856 -0.1458 -1.1203
 9304SOL    HW239372   3.213   3.602   3.965 -1.5709  0.7595  0.8358
 9305SOL     OW39373   4.372   1.594  10.040 -0.2472  0.3500  0.6693
 9305SOL    HW139374   4.434   1.636  10.099 -0.9048  0.8925  0.9799
 9305SOL    HW239375   4.406   1.628   9.957 -0.2048  1.3321  1.0932
 9306SOL     OW39376   2.852   3.340   4.701  0.1438 -0.2749 -0.1869
 9306SOL    HW139377   2.918   3.336   4.770  1.8048 -1.2092 -1.8122
 9306SOL    HW239378   2.776   3.372   4.749  1.6515 -1.0114  2.6726
 9307SOL     OW39379   4.294   3.401   6.381  0.2589 -0.4532  0.5432
 9307SOL    HW139380   4.302   3.306   6.376  0.6334 -0.4726  1.5943
 9307SOL    HW239381   4.279   3.424   6.289  1.8023 -0.9111  0.1799
 9308SOL     OW39382   4.211   4.233   7.689  0.0075  0.3704 -0.3974
 9308SOL    HW139383   4.130   4.283   7.683  0.7390  1.5129 -0.7940
 9308SOL    HW239384   4.261   4.286   7.751  0.9410 -2.5874  1.4289
 9309SOL     OW39385   0.719   1.163   7.407  0.4068  0.2444  0.1964
 9309SOL    HW139386   0.676   1.246   7.386  0.1610 -0.1644 -0.9096
 9309SOL    HW239387   0.705   1.106   7.331  0.3580  0.8791 -0.2650
 9310SOL     OW39388   0.530   2.771   0.905 -0.5019 -0.4157  0.3594
 9310SOL    HW139389   0.447   2.794   0.946  0.7036  0.2219  2.4449
 9310SOL    HW239390   0.501   2.687   0.869 -2.5206  0.4081  0.0757
 9311SOL     OW39391   0.158   0.883   9.270  0.1800  0.0311 -0.0336
 9311SOL    HW139392   0.208   0.866   9.190 -0.7545 -0.9804 -0.3983
 9311SOL    HW239393   0.226   0.897   9.335  1.2619 -1.3739 -0.8714
 9312SOL     OW39394   2.374   2.904  11.803  0.0858  0.3440 -0.1525
 9312SOL    HW139395   2.384   2.868  11.891  1.0328  0.5433 -0.1828
 9312SOL    HW239396   2.468   2.916  11.789 -0.3293  1.0962 -2.4267
 9313SOL     OW39397   3.459   2.876  11.783 -0.0750 -0.1357  0.1421
 9313SOL    HW139398   3.467   2.965  11.816 -1.6766 -0.2845  0.9636
 9313SOL    HW239399   3.483   2.887  11.691 -0.7841 -2.7301 -0.3783
 9314SOL     OW39400   0.348   0.170  15.441  0.3291  0.7868  0.3949
 9314SOL    HW139401   0.374   0.224  15.515 -0.3272 -1.3975  2.2382
 9314SOL    HW239402   0.385   0.084  15.462 -0.6054  0.3231  0.1654
 9315SOL     OW39403   0.163   4.321   4.804 -0.4220 -0.4263 -0.2397
 9315SOL    HW139404   0.118   4.367   4.733 -0.7474  1.6289  1.2751
 9315SOL    HW239405   0.242   4.375   4.811  0.3143 -1.6453  0.9095
 9316SOL     OW39406   3.659   3.949   3.357 -0.3352  0.5631 -0.3143
 9316SOL    HW139407   3.664   4.030   3.305 -0.5744  1.9417  1.8179
 9316SOL    HW239408   3.590   3.967   3.421 -1.2695 -0.5662 -0.9987
 9317SOL     OW39409   1.894   2.636  12.094 -0.3492  0.3807  0.3654
 9317SOL    HW139410   1.938   2.626  12.179 -0.3744  1.4098  0.4981
 9317SOL    HW239411   1.923   2.558  12.048 -0.4962 -0.2400  1.3256
 9318SOL     OW39412   3.340   2.669  10.606  0.3065  0.2345  0.2260
 9318SOL    HW139413   3.400   2.688  10.678 -0.9461  0.0679  1.3168
 9318SOL    HW239414   3.374   2.595  10.556  0.2412 -0.1966  0.8231
 9319SOL     OW39415   0.698   2.291   5.356 -0.3115  0.0160 -0.0777
 9319SOL    HW139416   0.727   2.382   5.356  1.4449 -0.5431  0.1903
 9319SOL    HW239417   0.640   2.287   5.432  3.2192 -1.7593  2.5292
 9320SOL     OW39418   2.118   4.396  15.236 -0.1322 -0.5370  0.2324
 9320SOL    HW139419   2.091   4.354  15.154  0.0195 -2.0067  0.9194
 9320SOL    HW239420   2.140   4.485  15.212  0.2808 -0.2158  1.8096
 9321SOL     OW39421   0.752   2.270   0.330  0.5320  0.4296 -0.2832
 9321SOL    HW139422   0.711   2.348   0.292  3.8421  0.6467 -3.3224
 9321SOL    HW239423   0.840   2.274   0.294  0.4031 -1.5519 -0.8109
 9322SOL     OW39424   4.174   0.549  10.530 -0.4600  0.1529  0.2569
 9322SOL    HW139425   4.258   0.520  10.493  1.1764  0.7189  3.5274
 9322SOL    HW239426   4.201   0.561  10.621 -0.5139 -0.2070  0.3181
 9323SOL     OW39427   3.616   4.049  14.348  0.1843 -0.3972 -0.6551
 9323SOL    HW139428   3.570   4.120  14.303  0.1295  0.1865  0.3145
 9323SOL    HW239429   3.604   3.986  14.277  1.2923  0.5138 -1.6461
 9324SOL     OW39430   4.346   1.367   8.130 -0.2418 -0.1917  0.0406
 9324SOL    HW139431   4.368   1.423   8.056  0.4469  2.9290  2.5713
 9324SOL    HW239432   4.415   1.303   8.112  1.5161  1.3801  1.1722
 9325SOL     OW39433   3.869   3.635   7.098  0.2716 -0.2169 -0.3005
 9325SOL    HW139434   3.811   3.667   7.029  1.1430  1.9048 -0.0271
 9325SOL    HW239435   3.807   3.586   7.152  0.8155 -1.3163 -0.6665
 9326SOL     OW39436   1.594   3.630   0.439  0.0182 -0.1210 -0.3276
 9326SOL    HW139437   1.608   3.543   0.475  3.5102  0.3485 -0.4840
 9326SOL    HW239438   1.555   3.668   0.517  0.7282 -1.2309  0.5618
 9327SOL     OW39439   3.963   3.435   5.524  0.1954 -0.0075  0.6881
 9327SOL    HW139440   3.981   3.528   5.508  0.3967 -0.3864 -1.3106
 9327SOL    HW239441   3.958   3.412   5.431  1.2876  0.2824  0.5562
 9328SOL     OW39442   0.293   3.324   2.491  0.6472 -0.2827 -0.7573
 9328SOL    HW139443   0.343   3.250   2.456  0.5370 -1.1409  0.8750
 9328SOL    HW239444   0.206   3.293   2.518  0.4809  0.8871  0.0402
 9329SOL     OW39445   2.317   2.398  17.467 -0.3147  0.5433 -0.2942
 9329SOL    HW139446   2.409   2.386  17.491  0.3905 -1.8582 -4.2365
 9329SOL    HW239447   2.286   2.308  17.466  0.4262  0.2923 -1.3092
 9330SOL     OW39448   0.703   2.060   6.252  0.1325 -0.1576 -0.0732
 9330SOL    HW139449   0.749   2.129   6.300 -1.0951  0.6445 -0.0573
 9330SOL    HW239450   0.734   1.979   6.292 -3.3174 -2.2418 -1.6115
 9331SOL     OW39451   2.145   2.147   3.591  0.3085 -0.0429 -0.1132
 9331SOL    HW139452   2.107   2.059   3.589  0.7855 -0.2862  2.3456
 9331SOL    HW239453   2.070   2.202   3.613 -0.4380 -1.7851  1.6867
 9332SOL     OW39454   1.660   0.940  15.587  0.1314  0.7523  0.2570
 9332SOL    HW139455   1.616   0.975  15.664 -0.0144  0.3458  0.3595
 9332SOL    HW239456   1.734   0.900  15.632 -0.0900  0.6915  0.5659
 9333SOL     OW39457   4.062   2.007   2.939 -1.0699 -0.0675 -0.2169
 9333SOL    HW139458   4.041   1.940   2.874 -4.3942  0.5911  0.1961
 9333SOL    HW239459   3.975   2.026   2.973  0.5239  0.7732  3.3809
 9334SOL     OW39460   2.993   3.834   7.287 -0.2485  0.3196  0.3684
 9334SOL    HW139461   2.970   3.896   7.357 -0.7202  0.4019  0.1388
 9334SOL    HW239462   2.961   3.881   7.210 -1.5203 -0.2208  0.5648
 9335SOL     OW39463   3.068   1.530   4.207 -0.1577 -0.1351 -0.0362
 9335SOL    HW139464   3.022   1.601   4.251  0.2156  0.3237 -0.3857
 9335SOL    HW239465   3.157   1.559   4.227 -0.3905  2.2825 -2.4954
 9336SOL     OW39466   1.844   0.634   4.460  0.1569  0.1875 -0.6583
 9336SOL    HW139467   1.831   0.713   4.408  0.0880 -0.2865 -1.3608
 9336SOL    HW239468   1.779   0.650   4.529 -0.3505  0.5821 -1.2331
 9337SOL     OW39469   3.827   4.235  13.261 -0.7260 -0.5665 -0.1614
 9337SOL    HW139470   3.752   4.262  13.313 -0.1944 -0.9543  0.8122
 9337SOL    HW239471   3.802   4.255  13.171  1.7832 -0.0462 -0.7418
 9338SOL     OW39472   3.680   2.405   0.819  0.5213 -0.6397 -0.4817
 9338SOL    HW139473   3.762   2.405   0.868 -0.4013  2.8800  1.1206
 9338SOL    HW239474   3.668   2.314   0.793 -0.8957 -1.1024  1.7734
 9339SOL     OW39475   4.293   4.103  13.577  1.1289  0.1030 -0.1286
 9339SOL    HW139476   4.261   4.193  13.569 -0.5065 -0.7121 -2.7200
 9339SOL    HW239477   4.225   4.064  13.631  1.9187 -2.3413 -0.9292
 9340SOL     OW39478   4.451   4.338   8.591  0.0756 -0.0127 -0.2130
 9340SOL    HW139479   4.452   4.431   8.615  0.7581 -0.4708  1.6069
 9340SOL    HW239480   4.371   4.329   8.541 -0.1258 -1.4000  0.3500
 9341SOL     OW39481   0.459   0.028  10.994  0.5095 -0.6771 -0.0606
 9341SOL    HW139482   0.505   0.112  10.991 -0.8597  0.0263 -0.9263
 9341SOL    HW239483   0.453   0.015  11.089  2.0361 -0.5611  0.0523
 9342SOL     OW39484   3.208   2.512   7.822 -0.2233  0.3455 -0.0080
 9342SOL    HW139485   3.166   2.508   7.907  0.2153 -0.9535  0.1390
 9342SOL    HW239486   3.150   2.446   7.787 -0.3099  1.2681 -1.6070
 9343SOL     OW39487   3.195   1.267   8.709  0.7217 -0.2853  0.0768
 9343SOL    HW139488   3.201   1.183   8.664 -0.9525  0.0834 -0.8514
 9343SOL    HW239489   3.128   1.242   8.772 -0.4903  1.4427 -0.5207
 9344SOL     OW39490   0.591   1.567   3.052  0.4204 -0.0815  0.3953
 9344SOL    HW139491   0.662   1.632   3.054 -0.3432  0.6980  2.8978
 9344SOL    HW239492   0.566   1.576   3.144  0.1646 -1.5329  0.4701
 9345SOL     OW39493   1.882   3.394  12.283 -0.2377 -0.1089  0.0272
 9345SOL    HW139494   1.812   3.329  12.293  1.3424 -1.6359  1.1837
 9345SOL    HW239495   1.897   3.420  12.374 -0.0835  0.1011 -0.0568
 9346SOL     OW39496   0.384   2.253   2.020 -0.4351 -0.1925  0.1346
 9346SOL    HW139497   0.395   2.320   2.088 -0.2963 -0.9412  0.8431
 9346SOL    HW239498   0.295   2.275   1.992 -0.2357 -2.1281 -2.0171
 9347SOL     OW39499   3.458   4.299  16.786  0.4987  0.4649 -0.5653
 9347SOL    HW139500   3.473   4.393  16.792 -1.7333  0.6711  2.0806
 9347SOL    HW239501   3.458   4.283  16.691 -0.3657 -1.0938 -0.3163
 9348SOL     OW39502   1.849   2.661   2.685  0.4596 -0.2954 -0.4671
 9348SOL    HW139503   1.874   2.659   2.593  0.6770 -0.7048 -0.3994
 9348SOL    HW239504   1.793   2.585   2.696 -1.6416  0.9624 -2.5393
 9349SOL     OW39505   2.137   1.781   6.184  0.0198  0.6260  0.0445
 9349SOL    HW139506   2.130   1.699   6.136  1.6126  0.6132 -0.1524
 9349SOL    HW239507   2.142   1.841   6.109 -0.8981  1.8158  0.9302
 9350SOL     OW39508   3.116   0.208  12.202  0.1554 -0.1232  0.0685
 9350SOL    HW139509   3.169   0.130  12.187 -0.2754 -0.1215 -1.4563
 9350SOL    HW239510   3.087   0.187  12.290 -0.8187 -1.9337 -0.6957
 9351SOL     OW39511   1.737   0.939   6.760  0.4203  0.5605  0.0365
 9351SOL    HW139512   1.726   0.905   6.848  0.4425  0.2949 -0.0652
 9351SOL    HW239513   1.697   0.867   6.711  0.3169  0.1631  0.7210
 9352SOL     OW39514   1.797   0.287  15.150  0.5081 -0.2381  0.1359
 9352SOL    HW139515   1.721   0.229  15.150  0.0389  0.3748  1.1500
 9352SOL    HW239516   1.849   0.241  15.217 -0.8495  1.1739  2.1597
 9353SOL     OW39517   1.390   3.629  14.408 -0.5633 -0.3720  0.0113
 9353SOL    HW139518   1.367   3.570  14.337 -0.8400  1.3734 -1.3534
 9353SOL    HW239519   1.349   3.709  14.376  1.3271  1.2839  1.6687
 9354SOL     OW39520   0.499   2.414   9.605 -0.2516  0.3849  1.3100
 9354SOL    HW139521   0.573   2.458   9.564  0.1327  0.7325  2.4032
 9354SOL    HW239522   0.441   2.489   9.618 -0.3815  0.6130 -0.5256
 9355SOL     OW39523   4.040   0.241   3.679 -0.0738 -0.7175 -0.0861
 9355SOL    HW139524   4.124   0.197   3.666  1.4294  2.2716 -0.6135
 9355SOL    HW239525   4.068   0.324   3.718  0.8477 -2.7045  3.4361
 9356SOL     OW39526   3.067   3.958   5.880 -0.5788  0.8616  0.8556
 9356SOL    HW139527   3.047   3.993   5.967 -1.7126 -1.5699  1.5832
 9356SOL    HW239528   2.988   3.907   5.857  0.5100 -0.8465  0.8874
 9357SOL     OW39529   0.348   4.385   5.928 -0.5880  0.1626  0.5150
 9357SOL    HW139530   0.365   4.303   5.976 -0.8498 -0.8709 -1.1570
 9357SOL    HW239531   0.279   4.362   5.866  1.0245 -0.2537 -1.1158
 9358SOL     OW39532   2.951   3.574   6.350  0.2034 -0.0660 -0.0108
 9358SOL    HW139533   2.983   3.637   6.415 -0.7675 -0.4977  0.8806
 9358SOL    HW239534   2.897   3.512   6.399 -0.4535  1.6117  1.4282
 9359SOL     OW39535   0.650   2.656   4.658  0.0696 -0.0560  0.1826
 9359SOL    HW139536   0.685   2.617   4.578 -1.3123  0.6952 -0.7884
 9359SOL    HW239537   0.575   2.598   4.668 -0.0042  0.0618  0.3174
 9360SOL     OW39538   2.762   0.278   5.222  0.0627  0.1193 -0.0633
 9360SOL    HW139539   2.801   0.245   5.140 -1.1908  0.0454 -0.6305
 9360SOL    HW239540   2.708   0.204   5.250 -1.0161  1.3659  1.1305
 9361SOL     OW39541   4.117   3.354   1.432  0.1114 -0.4628 -0.3249
 9361SOL    HW139542   4.074   3.284   1.482 -1.2596  0.5632 -0.0427
 9361SOL    HW239543   4.069   3.436   1.448 -0.5561 -1.0909  0.8775
 9362SOL     OW39544   4.425   1.639   4.386  0.0141 -0.0819 -0.1004
 9362SOL    HW139545   4.477   1.676   4.315 -1.3091 -1.7121 -1.9211
 9362SOL    HW239546   4.344   1.610   4.344 -0.1005 -0.4046  0.3480
 9363SOL     OW39547   0.210   4.518   3.822 -0.4446  0.8690 -0.0943
 9363SOL    HW139548   0.183   4.603   3.787  0.4868  0.6249 -1.3920
 9363SOL    HW239549   0.269   4.486   3.753 -1.0357  1.1383 -0.7291
 9364SOL     OW39550   2.849   4.227   7.659  0.4119  0.3426 -0.5300
 9364SOL    HW139551   2.922   4.190   7.709  1.6148  1.8986 -1.1000
 9364SOL    HW239552   2.784   4.231   7.729 -0.5462 -2.6763 -1.2535
 9365SOL     OW39553   0.888   1.638   1.846 -0.2885  0.5835  0.4853
 9365SOL    HW139554   0.807   1.603   1.882  0.5655 -1.3972  0.4750
 9365SOL    HW239555   0.922   1.676   1.926  3.1086 -1.0555 -0.1905
 9366SOL     OW39556   4.174   3.840   1.492  0.7914  0.3501 -0.5600
 9366SOL    HW139557   4.133   3.787   1.423 -0.3884 -0.4504  0.7603
 9366SOL    HW239558   4.135   3.798   1.569  0.4452 -0.4540 -1.1699
 9367SOL     OW39559   3.223   2.642  13.983 -0.1501  0.1354 -0.4266
 9367SOL    HW139560   3.301   2.593  13.957  0.2450  0.5594 -0.0439
 9367SOL    HW239561   3.248   2.726  13.945  0.0210  0.7379  1.0118
 9368SOL     OW39562   1.761   3.987   8.303  0.3496  0.0809  0.1248
 9368SOL    HW139563   1.769   4.057   8.368  2.4198  1.0644 -1.2162
 9368SOL    HW239564   1.716   3.924   8.359 -1.3523 -0.9674 -2.4734
 9369SOL     OW39565   3.477   0.292  16.053 -0.0776 -0.1769  0.0513
 9369SOL    HW139566   3.526   0.226  16.003 -0.8931 -0.1140 -0.8155
 9369SOL    HW239567   3.491   0.368  15.998 -0.7147  1.1328  1.7020
 9370SOL     OW39568   4.650   4.424   5.296  0.3856  0.3705 -0.0431
 9370SOL    HW139569   4.577   4.473   5.334  0.2623  0.4318 -0.3580
 9370SOL    HW239570   0.004   4.481   5.290  0.3028  0.7417  2.3151
 9371SOL     OW39571   1.426   2.003   2.398  0.4697 -0.1814 -0.2903
 9371SOL    HW139572   1.423   1.915   2.360  0.4690  0.2374 -1.2480
 9371SOL    HW239573   1.340   2.033   2.367 -0.3826 -0.7257  1.5090
 9372SOL     OW39574   2.797   3.684  17.004  0.2460  0.2405 -0.0246
 9372SOL    HW139575   2.837   3.607  16.964 -0.6612  0.3817 -1.1984
 9372SOL    HW239576   2.855   3.759  16.987  0.1671  0.1331 -0.7391
 9373SOL     OW39577   2.832   1.108  16.538 -0.0207  0.1493 -0.1471
 9373SOL    HW139578   2.819   1.175  16.471  1.8004  0.2576 -0.3915
 9373SOL    HW239579   2.895   1.161  16.587 -0.8651  0.4991  0.5571
 9374SOL     OW39580   1.904   4.675  16.455 -0.0507  0.1891  0.3076
 9374SOL    HW139581   1.815   4.642  16.448 -0.4465  1.2033  0.5650
 9374SOL    HW239582   1.881   0.044  16.443  0.6203  0.4306  0.8483
 9375SOL     OW39583   0.669   1.333  11.304  0.0362  0.1767 -0.1166
 9375SOL    HW139584   0.680   1.238  11.309 -1.9182  0.0073  1.1638
 9375SOL    HW239585   0.676   1.365  11.394  0.7156  0.5305 -0.3012
 9376SOL     OW39586   0.713   3.815   7.024 -0.5491 -0.2428 -0.2095
 9376SOL    HW139587   0.706   3.738   6.969 -2.8657 -1.2095  1.4186
 9376SOL    HW239588   0.626   3.821   7.062 -0.7464 -0.5624 -0.6150
 9377SOL     OW39589   0.546   3.856   2.066 -0.6753  0.0047 -0.2678
 9377SOL    HW139590   0.518   3.850   2.157 -0.1217 -0.1415 -0.1037
 9377SOL    HW239591   0.540   3.763   2.048 -3.0895  0.0188  0.4801
 9378SOL     OW39592   4.217   3.649   4.906 -0.0435 -0.1992 -0.0165
 9378SOL    HW139593   4.289   3.709   4.924 -0.9784  0.9049  0.0959
 9378SOL    HW239594   4.248   3.563   4.935 -0.7770  0.1498  1.8574
 9379SOL     OW39595   3.350   2.413   9.368  0.4584  0.3142 -0.1103
 9379SOL    HW139596   3.303   2.347   9.420 -0.7165  0.4958 -0.9478
 9379SOL    HW239597   3.278   2.461   9.328 -0.2164  0.3840  1.1862
 9380SOL     OW39598   1.216   3.855   4.024 -0.4019  0.0849 -0.2565
 9380SOL    HW139599   1.151   3.923   4.037  0.5631  1.1786 -1.1333
 9380SOL    HW239600   1.264   3.889   3.948  1.0846 -1.8645 -0.2056
 9381SOL     OW39601   2.889   2.355  16.213 -0.1294 -0.2395  0.1014
 9381SOL    HW139602   2.812   2.338  16.159  0.4458 -1.5805 -0.2824
 9381SOL    HW239603   2.898   2.451  16.208 -1.5397 -0.2255 -2.3439
 9382SOL     OW39604   1.665   0.348   9.052 -0.3055  0.4807  0.2498
 9382SOL    HW139605   1.644   0.329   9.143  1.1840  0.3315  0.5631
 9382SOL    HW239606   1.668   0.443   9.060  1.0830  0.5187 -0.7718
 9383SOL     OW39607   1.210   0.084   3.823  0.2588 -0.0875 -0.0216
 9383SOL    HW139608   1.281   0.026   3.848 -0.7073 -0.7674  1.1576
 9383SOL    HW239609   1.243   0.158   3.873 -0.7967 -0.6827  1.5505
 9384SOL     OW39610   2.466   3.899   2.253  0.2298  0.1041  0.2963
 9384SOL    HW139611   2.375   3.904   2.282 -0.4587 -1.0735 -1.6658
 9384SOL    HW239612   2.469   3.950   2.172  0.3227 -1.8003 -0.8961
 9385SOL     OW39613   1.605   1.368   6.834  0.1460 -0.3225 -0.0081
 9385SOL    HW139614   1.532   1.329   6.786  0.7915 -1.6128  0.0746
 9385SOL    HW239615   1.561   1.447   6.866 -0.5370 -0.7470  0.0810
 9386SOL     OW39616   2.955   2.868   6.572  0.8627  0.0920 -0.6893
 9386SOL    HW139617   2.881   2.912   6.531 -0.1133 -0.8063  0.1076
 9386SOL    HW239618   2.911   2.845   6.654  3.4949 -1.1028  0.3739
 9387SOL     OW39619   4.128   2.117  14.122 -0.1972  0.7415 -0.3758
 9387SOL    HW139620   4.067   2.044  14.114 -0.5698  0.9906  0.2441
 9387SOL    HW239621   4.187   2.101  14.196 -2.1103  0.4264  1.0740
 9388SOL     OW39622   2.799   0.977  13.541  0.2703 -0.3022 -0.1237
 9388SOL    HW139623   2.822   0.898  13.492  0.3106  0.2671 -1.0199
 9388SOL    HW239624   2.816   0.939  13.628  0.1222 -0.8956 -0.3533
 9389SOL     OW39625   2.981   1.440   3.688 -0.0521  0.5708  0.0975
 9389SOL    HW139626   3.011   1.432   3.779  0.2910 -0.0948 -0.0677
 9389SOL    HW239627   3.027   1.368   3.645 -1.0867  0.5781 -1.0329
 9390SOL     OW39628   2.870   2.055   5.859  0.3992 -0.0134 -0.1265
 9390SOL    HW139629   2.953   2.041   5.905  0.7869  0.8845 -0.5538
 9390SOL    HW239630   2.865   1.965   5.826 -1.1328  0.5127 -1.3393
 9391SOL     OW39631   2.589   2.345   4.151  0.2902 -0.1642  0.4489
 9391SOL    HW139632   2.639   2.410   4.103  3.3962 -2.7896  0.1085
 9391SOL    HW239633   2.654   2.322   4.217 -2.0908 -0.1040  2.8419
 9392SOL     OW39634   3.789   0.330   8.700  0.1852  0.1073  0.0563
 9392SOL    HW139635   3.829   0.385   8.633 -2.0504  1.9201  0.1742
 9392SOL    HW239636   3.847   0.254   8.704 -1.6606 -1.3496 -1.0266
 9393SOL     OW39637   4.354   3.411   1.564  0.6545 -0.3220  0.5348
 9393SOL    HW139638   4.264   3.403   1.534  1.6265 -3.2588 -1.7273
 9393SOL    HW239639   4.362   3.318   1.586 -0.2996 -0.8332 -1.2962
 9394SOL     OW39640   2.845   3.015  12.800  0.1224 -0.6236  0.7857
 9394SOL    HW139641   2.860   2.936  12.852 -2.5364 -1.2675  0.5536
 9394SOL    HW239642   2.872   2.981  12.715  1.4756  1.1044  0.5200
 9395SOL     OW39643   1.862   4.445  13.124 -0.2570 -0.1213 -0.2849
 9395SOL    HW139644   1.937   4.405  13.081  0.7849 -0.4430  1.7984
 9395SOL    HW239645   1.874   4.414  13.214 -0.3955 -1.0141 -0.5729
 9396SOL     OW39646   1.742   4.272   2.309  0.3093 -0.1658 -0.3385
 9396SOL    HW139647   1.765   4.365   2.309  1.9812 -0.5612 -0.8791
 9396SOL    HW239648   1.652   4.277   2.277  0.7239 -0.9435 -1.6185
 9397SOL     OW39649   0.957   2.890   3.582 -0.2728 -0.0863  0.8447
 9397SOL    HW139650   0.916   2.973   3.607  0.2734  0.1307  1.0237
 9397SOL    HW239651   0.926   2.884   3.492  0.3118 -0.5480  0.6713
 9398SOL     OW39652   0.048   4.239   8.082  0.2278  0.2018  0.2408
 9398SOL    HW139653   0.138   4.218   8.109  0.1038 -0.0412  0.4738
 9398SOL    HW239654   0.015   4.279   8.162 -0.1721 -0.2308  0.2933
 9399SOL     OW39655   3.423   0.324   4.853 -0.6321  0.0100  0.6398
 9399SOL    HW139656   3.361   0.319   4.781  0.8966  2.3811 -0.8406
 9399SOL    HW239657   3.429   0.233   4.883 -3.6213  0.4922  2.7040
 9400SOL     OW39658   0.198   1.233   1.660  0.0980  0.0671  0.0427
 9400SOL    HW139659   0.285   1.259   1.631 -0.8167  2.6604 -0.4140
 9400SOL    HW239660   0.203   1.248   1.754  1.1976 -0.6946  0.0954
 9401SOL     OW39661   0.310   2.474   7.443 -0.1975  0.9491 -0.0372
 9401SOL    HW139662   0.313   2.562   7.481  1.0571  0.9055 -0.0189
 9401SOL    HW239663   0.237   2.429   7.486  0.9143 -0.4518  0.3912
 9402SOL     OW39664   3.919   2.597   7.214 -0.3602  0.3130 -0.0564
 9402SOL    HW139665   3.876   2.522   7.255 -0.0779 -0.0741 -0.4577
 9402SOL    HW239666   3.999   2.618   7.262  0.0992 -0.3909 -0.5063
 9403SOL     OW39667   1.332   1.388   2.197 -0.2413  0.5623  0.2243
 9403SOL    HW139668   1.334   1.358   2.288 -0.3114  1.1304  0.4158
 9403SOL    HW239669   1.412   1.341   2.175 -1.7377 -1.9898  0.1648
 9404SOL     OW39670   0.419   1.460   7.854  0.3227  0.1100  0.2181
 9404SOL    HW139671   0.401   1.406   7.931 -0.8184  1.1447  0.6880
 9404SOL    HW239672   0.434   1.546   7.894 -0.6964 -0.2050  1.2790
 9405SOL     OW39673   2.294   1.701   8.466 -0.2814 -1.0277 -0.0555
 9405SOL    HW139674   2.273   1.788   8.433 -0.3855 -2.0674 -2.6860
 9405SOL    HW239675   2.285   1.656   8.382 -1.6751 -1.3510  0.2676
 9406SOL     OW39676   0.258   3.108  16.879  0.3540  0.1744  0.0185
 9406SOL    HW139677   0.325   3.117  16.811  1.5091 -1.8463  0.9173
 9406SOL    HW239678   0.307   3.134  16.956  2.6986 -0.5227 -1.2441
 9407SOL     OW39679   3.649   4.334  16.056  0.4686 -0.4648 -0.4543
 9407SOL    HW139680   3.704   4.280  16.114 -0.6841 -0.5539  0.5608
 9407SOL    HW239681   3.565   4.288  16.055 -1.0335  2.2655 -0.9251
 9408SOL     OW39682   0.815   3.778   6.618 -0.0468  0.1943  0.4439
 9408SOL    HW139683   0.824   3.863   6.662  1.3717  1.2302 -1.8083
 9408SOL    HW239684   0.783   3.815   6.535 -1.4539 -0.0124  0.8950
 9409SOL     OW39685   1.968   1.351  15.301 -0.1197 -0.1665  0.0842
 9409SOL    HW139686   1.918   1.294  15.242  0.4830  1.5731 -2.1150
 9409SOL    HW239687   1.910   1.363  15.376 -1.9136  1.8015 -1.6213
 9410SOL     OW39688   4.202   0.116   5.012 -0.0310 -0.6671  0.1782
 9410SOL    HW139689   4.246   0.167   4.944 -0.2474  0.6562  1.0525
 9410SOL    HW239690   4.124   0.084   4.966 -0.8458  1.7647 -0.0931
 9411SOL     OW39691   0.486   0.812   0.155  0.0407 -0.3429 -0.0918
 9411SOL    HW139692   0.485   0.775   0.067 -1.4557 -1.6937  0.4980
 9411SOL    HW239693   0.561   0.872   0.154 -0.7621  0.7080  2.2681
 9412SOL     OW39694   4.498   1.288   9.710  0.1463 -0.4110 -0.0276
 9412SOL    HW139695   4.553   1.312   9.635 -0.1317 -0.0022 -0.1021
 9412SOL    HW239696   4.557   1.275   9.783 -1.9310  0.3080  1.7827
 9413SOL     OW39697   1.879   3.345   6.460  0.2657 -0.2823 -0.8064
 9413SOL    HW139698   1.837   3.430   6.444  2.6534  0.9093 -0.6939
 9413SOL    HW239699   1.806   3.293   6.494 -0.4566 -1.0325 -3.5776
 9414SOL     OW39700   0.309   0.760   2.866  0.2941 -0.0433  0.1033
 9414SOL    HW139701   0.391   0.713   2.853  1.1150  0.5597  2.9500
 9414SOL    HW239702   0.338   0.848   2.892  0.4308 -0.1285  0.2368
 9415SOL     OW39703   0.105   3.963   5.168  0.6620 -0.0401 -0.2967
 9415SOL    HW139704   0.029   3.910   5.143  1.4168 -1.3299  0.1202
 9415SOL    HW239705   0.057   4.045   5.163  1.0293  0.1591 -0.5348
 9416SOL     OW39706   1.423   2.513   8.012 -0.1134 -0.6212  0.1907
 9416SOL    HW139707   1.337   2.494   8.050 -0.3575  0.7465  0.2931
 9416SOL    HW239708   1.454   2.423   8.002 -0.4455 -0.7119 -0.0068
 9417SOL     OW39709   2.334   2.123   6.105 -0.1273 -0.1396 -0.2047
 9417SOL    HW139710   2.239   2.118   6.110 -0.2749  0.4697 -2.3193
 9417SOL    HW239711   2.348   2.211   6.069  1.5097 -0.7443 -1.0840
 9418SOL     OW39712   3.001   2.908   7.417  0.4109 -0.2089 -0.0438
 9418SOL    HW139713   3.072   2.929   7.356  1.4756  1.7875  1.8833
 9418SOL    HW239714   3.031   2.952   7.497  1.1857 -0.4487 -0.2031
 9419SOL     OW39715   2.828   1.486   5.940  0.4709 -0.1834  0.0849
 9419SOL    HW139716   2.789   1.567   5.908 -0.0718 -1.4613 -2.5410
 9419SOL    HW239717   2.881   1.457   5.865  0.1674 -0.1978 -0.1239
 9420SOL     OW39718   4.570   2.790   9.368 -0.3167 -0.0226 -0.3491
 9420SOL    HW139719   4.610   2.793   9.281  0.5416 -0.5985  0.0255
 9420SOL    HW239720   4.477   2.809   9.356 -0.3489 -0.1063 -0.2318
 9421SOL     OW39721   2.743   2.395   6.987 -0.0906  0.0965  0.5205
 9421SOL    HW139722   2.829   2.418   7.023 -0.9433  3.0951  0.7014
 9421SOL    HW239723   2.732   2.463   6.920 -0.6375 -0.2025  0.3118
 9422SOL     OW39724   0.479   0.981   6.764  0.1965  0.3726 -0.7231
 9422SOL    HW139725   0.545   1.038   6.724  0.6186  0.5022  0.1505
 9422SOL    HW239726   0.463   1.029   6.845  0.5307 -2.2207  0.8867
 9423SOL     OW39727   2.118   2.691   9.671  0.0539 -0.2911  0.0305
 9423SOL    HW139728   2.197   2.675   9.619  2.1902  1.8303  2.6522
 9423SOL    HW239729   2.073   2.745   9.606  0.5298 -2.0888 -1.7803
 9424SOL     OW39730   3.451   0.669  17.651 -0.3287 -0.5051  0.1732
 9424SOL    HW139731   3.471   0.732   0.026  0.1727 -0.3706 -0.0910
 9424SOL    HW239732   3.430   0.732  17.582 -0.7292  1.0170  1.6781
 9425SOL     OW39733   4.350   0.333   7.734  0.0423 -0.0249 -0.4852
 9425SOL    HW139734   4.306   0.313   7.817  0.2104 -2.1850 -0.9304
 9425SOL    HW239735   4.343   0.429   7.735  2.7040  0.1460  2.8477
 9426SOL     OW39736   1.424   1.486   2.841  0.2250  0.8966 -0.4424
 9426SOL    HW139737   1.482   1.486   2.765 -0.9538 -1.8982 -1.3289
 9426SOL    HW239738   1.412   1.580   2.850 -0.9010  0.6460  0.6554
 9427SOL     OW39739   2.916   4.613   4.119  0.4248 -0.2749  0.1978
 9427SOL    HW139740   2.942   4.605   4.027  1.0564  1.2646  0.2506
 9427SOL    HW239741   2.962   4.539   4.158 -0.3429 -1.0656 -0.4064
 9428SOL     OW39742   3.769   3.154   6.708 -0.5488 -0.4034 -0.0258
 9428SOL    HW139743   3.847   3.125   6.755 -2.5698 -1.8378  2.4329
 9428SOL    HW239744   3.808   3.231   6.667 -2.7360  0.1649 -1.0472
 9429SOL     OW39745   2.155   4.569   5.221 -0.0458 -0.1057  0.3873
 9429SOL    HW139746   2.223   4.510   5.256 -1.2744 -1.2134  0.9350
 9429SOL    HW239747   2.082   4.521   5.259 -0.1574 -0.6186 -0.4825
 9430SOL     OW39748   3.895   1.948   5.415  0.3480 -0.3587 -0.3105
 9430SOL    HW139749   3.922   2.017   5.354 -0.8856  0.8445  0.4849
 9430SOL    HW239750   3.800   1.944   5.399  0.4912 -0.8800 -1.0283
 9431SOL     OW39751   1.216   3.532   2.828 -0.1088  0.2058  0.1371
 9431SOL    HW139752   1.305   3.509   2.800  0.1590  0.1169  1.0768
 9431SOL    HW239753   1.183   3.442   2.834 -0.1798  0.3724  1.9925
 9432SOL     OW39754   0.216   2.060   3.209 -0.0201  0.5150  0.3118
 9432SOL    HW139755   0.292   2.057   3.150 -0.8694  1.7849 -0.8424
 9432SOL    HW239756   0.144   2.045   3.148 -0.1348  3.3170 -0.2075
 9433SOL     OW39757   3.777   3.350   5.691  0.3249 -0.3044 -0.0981
 9433SOL    HW139758   3.705   3.320   5.636  0.4272  1.8285 -1.4261
 9433SOL    HW239759   3.829   3.387   5.619  0.0553  0.3953  0.0696
 9434SOL     OW39760   2.573   3.829   4.787 -0.6879  0.0565 -0.1225
 9434SOL    HW139761   2.626   3.762   4.744 -1.5043 -1.0577  0.6211
 9434SOL    HW239762   2.482   3.801   4.777 -0.9418  0.7010  0.3610
 9435SOL     OW39763   4.015   4.139   6.310 -0.5358  0.2266  0.0123
 9435SOL    HW139764   4.055   4.147   6.224  1.0516 -0.1076  0.7104
 9435SOL    HW239765   4.067   4.065   6.339 -1.6400 -0.3563  0.5140
 9436SOL     OW39766   2.863   1.945  17.670  0.4997 -0.5202 -0.0090
 9436SOL    HW139767   2.888   1.972   0.062 -1.0132 -3.4873  1.3553
 9436SOL    HW239768   2.860   1.850  17.681  0.9400 -0.6375 -0.8624
 9437SOL     OW39769   3.492   0.391   7.190  0.1750 -0.0092 -0.2093
 9437SOL    HW139770   3.568   0.423   7.142 -1.0800  0.6844 -1.7750
 9437SOL    HW239771   3.430   0.406   7.118 -1.2742  0.4716  1.1535
 9438SOL     OW39772   1.968   0.116  17.270  0.3119  0.0486 -0.0693
 9438SOL    HW139773   1.974   0.208  17.243  0.3349  0.3648  1.0172
 9438SOL    HW239774   2.062   0.094  17.270  0.7524  1.8740  3.8653
 9439SOL     OW39775   1.821   1.793   4.755 -0.5993  0.2345 -0.2698
 9439SOL    HW139776   1.915   1.800   4.737 -0.6832  0.2927 -0.6960
 9439SOL    HW239777   1.802   1.875   4.801  1.4661  1.5704 -1.7551
 9440SOL     OW39778   1.079   4.213   6.810  0.5391  0.5327 -0.1724
 9440SOL    HW139779   1.001   4.173   6.773  0.5771  0.4092 -0.1183
 9440SOL    HW239780   1.068   4.196   6.904  1.0364  1.9416  0.1381
 9441SOL     OW39781   4.686   1.160  12.975 -0.1852 -0.0344  0.2291
 9441SOL    HW139782   4.655   1.226  12.914 -0.0885  0.7514  1.0268
 9441SOL    HW239783   4.718   1.093  12.916 -0.5274 -0.6392  0.7219
 9442SOL     OW39784   1.448   3.171   6.912  0.4495 -0.3150 -0.5292
 9442SOL    HW139785   1.424   3.223   6.988 -0.0511  1.6879 -2.0732
 9442SOL    HW239786   1.483   3.088   6.946  2.2847  1.4715  1.8939
 9443SOL     OW39787   3.809   0.669   9.508  0.1194  0.6210  0.3555
 9443SOL    HW139788   3.897   0.681   9.542 -0.4230 -1.6025  2.4697
 9443SOL    HW239789   3.792   0.580   9.537 -0.9051  1.1617  1.3901
 9444SOL     OW39790   0.776   2.841  14.366 -0.1646  0.0180 -0.0713
 9444SOL    HW139791   0.707   2.865  14.305 -0.6552 -2.2376 -0.4247
 9444SOL    HW239792   0.831   2.782  14.314 -0.6972 -0.2295 -0.3553
 9445SOL     OW39793   4.255   3.936  11.591  0.1934  0.0718 -0.1979
 9445SOL    HW139794   4.267   3.906  11.681  2.0080  1.6108  0.0675
 9445SOL    HW239795   4.180   3.994  11.583  0.7128  0.7043 -0.5183
 9446SOL     OW39796   3.251   4.327   4.541 -0.1464 -0.8154 -0.3194
 9446SOL    HW139797   3.331   4.376   4.560 -0.4700 -0.5330  0.2879
 9446SOL    HW239798   3.251   4.263   4.612 -0.7271 -1.8322 -1.2311
 9447SOL     OW39799   0.804   4.545  13.264 -0.3452 -0.3315  0.3906
 9447SOL    HW139800   0.797   4.640  13.273 -2.3181 -0.4228 -0.2307
 9447SOL    HW239801   0.871   4.548  13.196 -1.0137 -1.4326 -0.3355
 9448SOL     OW39802   3.005   2.474   2.463  0.0241 -0.3168 -0.1410
 9448SOL    HW139803   2.937   2.463   2.397 -0.2655 -2.4369  0.5299
 9448SOL    HW239804   2.953   2.522   2.529  2.2709 -1.9970  2.8671
 9449SOL     OW39805   0.344   2.633   3.549 -0.1179 -0.4430 -0.4429
 9449SOL    HW139806   0.335   2.586   3.633 -2.5878 -0.1374 -0.5572
 9449SOL    HW239807   0.255   2.657   3.524  0.3153  0.6014 -0.9587
 9450SOL     OW39808   1.835   2.517  16.751 -0.0391 -0.4953 -0.4622
 9450SOL    HW139809   1.847   2.565  16.669 -1.4189 -0.5876 -0.7173
 9450SOL    HW239810   1.918   2.528  16.798  0.1620 -0.6395 -0.7846
 9451SOL     OW39811   4.369   1.246   7.177  0.3042  0.2388  1.0026
 9451SOL    HW139812   4.403   1.321   7.129 -2.7192 -0.7619 -2.7124
 9451SOL    HW239813   4.283   1.272   7.207 -0.6290 -1.0845 -0.4950
 9452SOL     OW39814   2.980   3.454   4.012 -0.2196  0.2524  0.5337
 9452SOL    HW139815   3.073   3.463   4.031 -0.5308  3.6826  0.4751
 9452SOL    HW239816   2.967   3.367   3.975  1.8250 -1.3089  3.4994
 9453SOL     OW39817   4.593   1.043   0.964  0.3710 -1.0232 -0.2441
 9453SOL    HW139818   4.663   1.095   0.924 -1.6379  3.3939  2.0205
 9453SOL    HW239819   4.564   0.987   0.892 -0.2727 -1.3744  0.2826
 9454SOL     OW39820   3.933   3.737  14.818 -0.3347  0.0559 -0.1086
 9454SOL    HW139821   3.916   3.687  14.738  0.9534  0.2217 -0.4918
 9454SOL    HW239822   3.889   3.817  14.791  0.2237 -0.2606 -1.9542
 9455SOL     OW39823   1.989   2.625  15.781  0.2289 -0.1308 -0.1162
 9455SOL    HW139824   2.045   2.697  15.809 -4.3897  2.9621  1.1511
 9455SOL    HW239825   1.907   2.665  15.752  1.1903  1.3271 -0.8195
 9456SOL     OW39826   4.060   1.894  17.378 -0.2339  0.0989  0.1567
 9456SOL    HW139827   4.020   1.940  17.303  0.0458 -0.8087 -0.5360
 9456SOL    HW239828   4.090   1.818  17.329  2.3344  1.7123 -0.7657
 9457SOL     OW39829   1.940   4.530   7.328 -0.5494 -0.4910  0.0134
 9457SOL    HW139830   2.015   4.589   7.326  1.8457 -3.5930 -1.0259
 9457SOL    HW239831   1.972   4.462   7.269 -2.0678  0.1807 -1.5944
 9458SOL     OW39832   4.137   4.251   8.057  0.2668  0.7276  0.1525
 9458SOL    HW139833   4.072   4.229   8.123 -0.8530 -3.6683 -2.4126
 9458SOL    HW239834   4.072   4.273   7.990  2.5985  1.2948 -1.9189
 9459SOL     OW39835   0.525   4.079   1.371  0.0782 -0.0538  0.3789
 9459SOL    HW139836   0.490   4.168   1.375 -1.1663 -0.4744 -1.2698
 9459SOL    HW239837   0.493   4.054   1.285 -0.0850 -1.9757  0.9999
 9460SOL     OW39838   3.477   1.916  10.007 -0.5219 -0.8629 -0.0767
 9460SOL    HW139839   3.557   1.871   9.982  0.2787 -0.8436  2.3877
 9460SOL    HW239840   3.510   1.953  10.089 -0.4469 -1.7759  0.3029
 9461SOL     OW39841   1.169   3.193  12.221  0.0350  0.6148  0.0023
 9461SOL    HW139842   1.200   3.103  12.234  2.5015  1.1011 -2.4547
 9461SOL    HW239843   1.238   3.240  12.175 -1.0314  0.8478 -1.3271
 9462SOL     OW39844   3.578   2.927   0.262  0.4069 -0.7311 -0.1173
 9462SOL    HW139845   3.490   2.889   0.270  0.6608 -1.4324 -0.6603
 9462SOL    HW239846   3.627   2.884   0.332  1.9265  0.2828 -0.5728
 9463SOL     OW39847   1.520   3.256   6.148  0.7505  0.0653 -0.1181
 9463SOL    HW139848   1.606   3.214   6.155  0.8057 -0.1039 -1.8197
 9463SOL    HW239849   1.541   3.319   6.079 -1.7371  1.8426  0.7572
 9464SOL     OW39850   4.248   4.018   2.155  0.0902  0.0150 -0.4100
 9464SOL    HW139851   4.256   4.070   2.236 -1.1243 -0.5980  0.0975
 9464SOL    HW239852   4.155   3.998   2.158  0.1838 -0.0977  2.2012
 9465SOL     OW39853   2.738   0.399   2.456  0.3721  0.1892  0.0328
 9465SOL    HW139854   2.763   0.308   2.472  0.4096 -0.0262 -1.2123
 9465SOL    HW239855   2.655   0.389   2.409  0.5312 -2.6447  0.3205
 9466SOL     OW39856   2.309   1.280   7.519  0.3347  0.0862  0.1588
 9466SOL    HW139857   2.311   1.267   7.614  0.0928 -0.1929  0.1241
 9466SOL    HW239858   2.387   1.237   7.484 -0.4181  0.6983 -2.2772
 9467SOL     OW39859   2.084   0.553   1.031 -0.5026 -0.1382  0.0792
 9467SOL    HW139860   2.054   0.546   1.121 -0.9913 -0.1128 -0.0806
 9467SOL    HW239861   2.175   0.581   1.038 -0.4797 -0.4732  1.0700
 9468SOL     OW39862   3.145   2.900   7.812  0.1152 -0.1234 -0.7024
 9468SOL    HW139863   3.059   2.940   7.799  0.6951  2.2095  2.5901
 9468SOL    HW239864   3.202   2.977   7.823 -0.0562 -0.0062 -0.6270
 9469SOL     OW39865   0.313   3.472   7.339  0.0949 -0.0498 -0.0833
 9469SOL    HW139866   0.278   3.452   7.251 -0.8881  3.2213 -0.4168
 9469SOL    HW239867   0.234   3.433   7.378  0.4027 -0.3281  0.2551
 9470SOL     OW39868   4.347   2.277   8.374  0.1732 -0.0982 -0.1843
 9470SOL    HW139869   4.435   2.312   8.390  0.1228  0.2830 -0.7278
 9470SOL    HW239870   4.296   2.324   8.440  0.8752 -0.6039  0.7030
 9471SOL     OW39871   1.016   0.770   5.335 -0.2471  0.1223  0.1020
 9471SOL    HW139872   0.977   0.857   5.341 -1.3191 -0.3999  0.5395
 9471SOL    HW239873   1.029   0.753   5.428  0.5957  0.0338 -0.0265
 9472SOL     OW39874   4.448   4.516  14.673 -0.3312  0.2538 -0.0130
 9472SOL    HW139875   4.448   4.596  14.726  0.2291 -0.0516  0.4428
 9472SOL    HW239876   4.384   4.462  14.719  2.5024 -1.6502  1.6281
 9473SOL     OW39877   3.897   0.894  12.734  0.0284 -0.4367 -0.2507
 9473SOL    HW139878   3.831   0.962  12.750  0.4657 -0.0346 -0.1541
 9473SOL    HW239879   3.966   0.923  12.794  0.3654  1.2545 -1.4505
 9474SOL     OW39880   2.352   3.914   9.531  0.1778 -0.0006  0.7422
 9474SOL    HW139881   2.296   3.990   9.513 -0.3031 -0.1381  1.6524
 9474SOL    HW239882   2.439   3.948   9.551  1.2999 -2.1854 -0.3765
 9475SOL     OW39883   3.129   1.956   6.285  0.4491  0.4493  0.4241
 9475SOL    HW139884   3.067   1.890   6.315 -0.9870  1.0129 -1.3376
 9475SOL    HW239885   3.134   2.015   6.360 -1.0157 -0.1390  0.9897
 9476SOL     OW39886   2.154   1.321   5.897 -0.3488  0.0174 -0.0775
 9476SOL    HW139887   2.222   1.265   5.936 -1.3847  0.9298  3.0484
 9476SOL    HW239888   2.079   1.263   5.908 -1.4317  1.2414 -1.1080
 9477SOL     OW39889   1.290   0.997   5.462  0.0303  0.3462 -0.5831
 9477SOL    HW139890   1.356   1.008   5.531  1.1164 -1.7735 -1.3017
 9477SOL    HW239891   1.231   1.064   5.498 -1.4196 -1.3948  0.2646
 9478SOL     OW39892   1.320   4.527   7.399 -0.3446 -0.6213 -0.6500
 9478SOL    HW139893   1.341   4.484   7.316  0.4670  1.1913 -1.3824
 9478SOL    HW239894   1.226   4.542   7.388 -0.1362  2.1832  1.3152
 9479SOL     OW39895   2.916   4.496   3.186 -0.4686 -0.4434  0.0246
 9479SOL    HW139896   2.990   4.531   3.236 -0.1614 -1.4534  0.2791
 9479SOL    HW239897   2.854   4.568   3.202 -0.1896 -0.5371  1.5654
 9480SOL     OW39898   1.010   4.081   1.582  0.1076  0.8130  0.1204
 9480SOL    HW139899   1.053   4.071   1.668 -0.1456  0.4722  0.2053
 9480SOL    HW239900   0.997   4.176   1.581  0.0559  0.7779 -2.1782
 9481SOL     OW39901   1.392   2.767  14.406 -0.3305 -0.6822 -0.9810
 9481SOL    HW139902   1.463   2.704  14.420  0.8947  0.0726 -3.8355
 9481SOL    HW239903   1.436   2.852  14.413 -0.4543 -0.5971 -1.2212
 9482SOL     OW39904   0.391   4.323  14.247  0.3895 -0.1067  0.0620
 9482SOL    HW139905   0.369   4.392  14.310  1.7686 -0.6321  1.1085
 9482SOL    HW239906   0.302   4.305  14.217  0.2485  0.6010  0.0543
 9483SOL     OW39907   2.054   2.151   3.054 -1.3064  0.5959  0.0483
 9483SOL    HW139908   1.966   2.185   3.038 -0.7528  1.4648 -1.0726
 9483SOL    HW239909   2.043   2.059   3.029  1.7044 -0.3260  2.0847
 9484SOL     OW39910   1.312   0.093  10.343 -0.0076  0.4790 -0.2790
 9484SOL    HW139911   1.284   0.042  10.266  0.9602 -2.6448  1.4213
 9484SOL    HW239912   1.246   0.149  10.383  0.0663  0.2528  0.1521
 9485SOL     OW39913   4.469   3.202   5.919  0.0659  0.0217  0.1055
 9485SOL    HW139914   4.389   3.170   5.962  1.2209  0.8933  2.8830
 9485SOL    HW239915   4.451   3.296   5.914 -0.5411  0.0023  1.7620
 9486SOL     OW39916   4.047   1.851   7.439 -0.5192 -0.3220 -0.0805
 9486SOL    HW139917   3.999   1.900   7.372 -1.9729 -0.1568  1.0860
 9486SOL    HW239918   4.047   1.921   7.503 -1.2028 -1.1064  0.7810
 9487SOL     OW39919   1.611   4.448   6.146  0.1930  0.0126  0.1682
 9487SOL    HW139920   1.699   4.430   6.179  0.0997  0.5920  0.7234
 9487SOL    HW239921   1.551   4.443   6.221 -2.0253 -0.2170 -1.6158
 9488SOL     OW39922   1.307   1.774   5.729  0.2581  0.2948 -0.0260
 9488SOL    HW139923   1.398   1.760   5.756  0.2271 -2.3972 -1.2508
 9488SOL    HW239924   1.273   1.825   5.802  0.4737  0.3229  0.0547
 9489SOL     OW39925   1.631   3.231   2.896  0.1015 -0.1801  0.1399
 9489SOL    HW139926   1.719   3.241   2.858  1.4049 -1.5458  2.8398
 9489SOL    HW239927   1.655   3.251   2.986  0.4197  1.4597 -0.3017
 9490SOL     OW39928   3.599   3.378  10.882 -0.1137 -0.9752 -0.3908
 9490SOL    HW139929   3.647   3.296  10.880 -0.6389 -1.3372  1.7702
 9490SOL    HW239930   3.555   3.370  10.967  0.5351 -2.0060 -0.1594
 9491SOL     OW39931   3.368   3.805   9.751 -0.1234  0.3080  0.5567
 9491SOL    HW139932   3.373   3.877   9.688  0.6941 -0.8883 -0.7490
 9491SOL    HW239933   3.282   3.771   9.726  0.7914 -1.4708 -0.1744
 9492SOL     OW39934   4.461   1.403   6.893 -0.5123 -0.1458 -0.0413
 9492SOL    HW139935   4.372   1.372   6.878 -0.4994 -0.0083 -0.3974
 9492SOL    HW239936   4.470   1.485   6.843 -0.3654  1.4500  2.5929
 9493SOL     OW39937   4.527   0.725  13.491 -0.4066 -0.0426 -0.0743
 9493SOL    HW139938   4.544   0.786  13.420  2.2967 -0.0874  0.5409
 9493SOL    HW239939   4.440   0.695  13.467  0.2533 -2.4046  0.4294
 9494SOL     OW39940   4.462   2.152   6.760 -0.2675  0.0178 -0.9440
 9494SOL    HW139941   4.461   2.084   6.693 -2.7049  2.5286 -3.4467
 9494SOL    HW239942   4.491   2.229   6.712  0.7430 -0.8988 -1.8099
 9495SOL     OW39943   2.136   4.534   4.929 -0.0411 -0.1574  0.3832
 9495SOL    HW139944   2.146   4.442   4.954 -0.6041  0.3153  2.3651
 9495SOL    HW239945   2.114   4.568   5.015  1.6135  0.4373  0.5700
 9496SOL     OW39946   3.101   4.196   0.422 -0.1811  0.8987  0.6809
 9496SOL    HW139947   3.113   4.109   0.384 -0.5639  2.2680 -2.6078
 9496SOL    HW239948   3.050   4.239   0.354  0.1809  1.6171  0.8678
 9497SOL     OW39949   4.238   3.769   4.672 -0.6795  0.0562 -0.4938
 9497SOL    HW139950   4.222   3.707   4.743 -0.6966  2.4118  1.5724
 9497SOL    HW239951   4.196   3.733   4.594 -3.3060  0.1411  0.8797
 9498SOL     OW39952   0.736   0.153   2.461 -0.2996 -0.6024 -0.3976
 9498SOL    HW139953   0.737   0.192   2.374  0.0664 -0.5870 -0.3866
 9498SOL    HW239954   0.751   0.228   2.519 -1.0339 -0.1850 -0.7531
 9499SOL     OW39955   0.698   4.232   2.124  0.0626  0.7512 -0.0813
 9499SOL    HW139956   0.720   4.145   2.090  2.0748  1.0965  0.2912
 9499SOL    HW239957   0.603   4.238   2.115 -0.1233 -1.2345  0.6312
 9500SOL     OW39958   2.211   1.319  15.173 -0.1665  0.2209  0.8631
 9500SOL    HW139959   2.161   1.308  15.092  0.0778 -0.5991  0.8244
 9500SOL    HW239960   2.139   1.330  15.235 -2.0387  0.6196 -1.3426
 9501SOL     OW39961   0.081   0.423  17.197 -0.6986 -0.0644 -0.0540
 9501SOL    HW139962   0.133   0.378  17.264 -0.0194 -0.5220 -0.8791
 9501SOL    HW239963   0.004   0.450  17.246 -1.4801  0.3468 -1.5111
 9502SOL     OW39964   2.910   1.191   3.904  0.1292  0.0321  0.8744
 9502SOL    HW139965   2.941   1.269   3.951  0.1740  1.4012 -1.4540
 9502SOL    HW239966   2.910   1.121   3.970 -0.3400  1.2027  2.1318
 9503SOL     OW39967   4.368   3.148   3.364 -0.5803 -0.5029 -0.5058
 9503SOL    HW139968   4.354   3.196   3.282 -1.5037  0.4814  0.2334
 9503SOL    HW239969   4.421   3.218   3.401 -1.8995 -1.2449  2.7841
 9504SOL     OW39970   4.405   3.941   0.916 -0.4386  0.4330 -0.6783
 9504SOL    HW139971   4.369   3.881   0.981  2.5133 -1.3351 -0.6754
 9504SOL    HW239972   4.416   3.883   0.841  0.2036 -1.4434  0.8585
 9505SOL     OW39973   4.495   0.213  12.213 -0.2496  0.1132  0.0181
 9505SOL    HW139974   4.581   0.241  12.180 -1.0009  0.9694 -1.2089
 9505SOL    HW239975   4.517   0.184  12.302  1.1717  0.8967 -0.0753
 9506SOL     OW39976   2.729   4.282   1.970  0.0377 -0.2999  0.3088
 9506SOL    HW139977   2.711   4.290   1.876  0.5878  0.9145  0.3122
 9506SOL    HW239978   2.636   4.286   1.993  0.4128  0.2899  1.7245
 9507SOL     OW39979   1.406   1.747   2.865 -0.1591  0.7937 -0.3108
 9507SOL    HW139980   1.389   1.814   2.932  0.9391  1.3626 -0.5868
 9507SOL    HW239981   1.476   1.787   2.814  0.8991  2.5548  2.4918
 9508SOL     OW39982   2.715   2.207   3.301  0.0944 -0.2949 -0.2728
 9508SOL    HW139983   2.757   2.288   3.275 -2.5800  0.9912 -0.6075
 9508SOL    HW239984   2.624   2.234   3.285  0.8079  1.1659 -1.8759
 9509SOL     OW39985   2.972   2.907  16.484  0.5728 -0.4190  0.2104
 9509SOL    HW139986   3.039   2.969  16.455 -1.5492  1.2286 -1.1994
 9509SOL    HW239987   3.017   2.825  16.464 -0.3300 -0.8081 -0.2205
 9510SOL     OW39988   1.843   1.829   5.434  0.5107 -0.1955  0.1579
 9510SOL    HW139989   1.880   1.746   5.463  0.4712  0.0177  0.8337
 9510SOL    HW239990   1.749   1.820   5.451  0.1536  0.1574 -1.6375
 9511SOL     OW39991   3.748   0.980   6.911  0.3352 -0.2900  0.1083
 9511SOL    HW139992   3.822   0.920   6.899 -0.4641 -0.7875 -2.3914
 9511SOL    HW239993   3.791   1.058   6.878  0.5155 -0.7090 -0.6506
 9512SOL     OW39994   3.559   0.017   3.029  0.8347 -0.0705 -0.2565
 9512SOL    HW139995   3.599   0.104   3.033 -0.2504  0.4248 -0.2220
 9512SOL    HW239996   3.597   4.692   2.957 -0.5848 -1.7025  0.1039
 9513SOL     OW39997   0.117   4.060   7.411 -0.1029  0.2147  0.4250
 9513SOL    HW139998   0.072   4.109   7.479  0.1539 -0.6646  1.2222
 9513SOL    HW239999   0.055   3.990   7.390 -0.0019 -0.3129  1.9418
 9514SOL     OW40000   3.917   4.506  12.418 -0.3591  0.7456  0.2853
 9514SOL    HW140001   3.887   4.564  12.348 -1.3652 -0.7263 -0.5026
 9514SOL    HW240002   3.911   4.567  12.492 -2.8642 -0.5431  1.1390
 9515SOL     OW40003   4.716   2.823   5.835  0.1531  0.6549 -0.1311
 9515SOL    HW140004   4.707   2.808   5.740  1.8364  0.4607 -0.2620
 9515SOL    HW240005   4.713   2.734   5.870  4.5780  1.1810  1.6600
 9516SOL     OW40006   4.460   4.323  11.646  0.5756  0.2283  0.1170
 9516SOL    HW140007   4.461   4.270  11.726 -1.0359 -0.6518 -0.4380
 9516SOL    HW240008   4.554   4.337  11.635 -0.2444  4.0575 -1.7482
 9517SOL     OW40009   3.017   0.326   8.830 -0.2649  0.3587  0.1991
 9517SOL    HW140010   3.041   0.383   8.757 -1.1353  1.1648  0.5412
 9517SOL    HW240011   2.923   0.340   8.837 -0.5260 -1.4909  0.4344
 9518SOL     OW40012   2.497   1.171   2.476 -0.0035  0.1972  0.1287
 9518SOL    HW140013   2.433   1.237   2.448  0.0633 -0.7690 -2.2770
 9518SOL    HW240014   2.480   1.176   2.570 -2.0072  0.1393 -0.2232
 9519SOL     OW40015   0.682   1.956   1.140 -0.5331  0.1363 -0.1284
 9519SOL    HW140016   0.703   1.881   1.084  2.5428  0.5549  0.4870
 9519SOL    HW240017   0.745   1.941   1.210 -0.5127 -1.8275 -0.5614
 9520SOL     OW40018   0.008   0.745   0.695  0.3818 -0.2121  0.1141
 9520SOL    HW140019   4.652   0.791   0.722  0.1460  1.2990 -3.2080
 9520SOL    HW240020   4.699   0.657   0.679 -1.8539  0.6301  0.0772
 9521SOL     OW40021   0.042   2.920   5.032 -0.6098  0.4561  0.2699
 9521SOL    HW140022   0.123   2.937   5.079 -0.2831  0.5406 -0.3245
 9521SOL    HW240023   4.721   3.001   5.058 -2.5388 -0.4497 -0.2184
 9522SOL     OW40024   4.427   1.672  12.805 -0.0624 -0.1569 -0.2671
 9522SOL    HW140025   4.388   1.752  12.771 -0.0647  0.0320  0.1852
 9522SOL    HW240026   4.353   1.640  12.857 -0.5532 -0.8527 -1.3812
 9523SOL     OW40027   1.342   1.968  13.108 -0.5039 -0.1680 -0.2877
 9523SOL    HW140028   1.253   1.985  13.138 -0.5146  1.6244 -1.3064
 9523SOL    HW240029   1.374   1.892  13.157 -1.0122 -0.1900  0.0065
 9524SOL     OW40030   2.985   1.372   5.007 -0.7118 -0.1208 -0.3316
 9524SOL    HW140031   2.891   1.355   5.009 -0.2411 -2.2070  2.2203
 9524SOL    HW240032   2.987   1.465   5.031 -2.0641 -0.5894  1.5731
 9525SOL     OW40033   0.674   1.816   0.893 -0.2115 -0.6913 -0.5431
 9525SOL    HW140034   0.765   1.804   0.867  0.6032  1.2316  1.3597
 9525SOL    HW240035   0.665   1.906   0.862  3.0851  0.5233  2.0504
 9526SOL     OW40036   3.445   3.802   3.650 -0.2234 -0.3856  0.5383
 9526SOL    HW140037   3.525   3.831   3.606 -1.3187 -0.0860 -1.2641
 9526SOL    HW240038   3.391   3.778   3.575  2.7537  0.2327 -1.7979
 9527SOL     OW40039   0.605   1.594   6.600 -0.2446 -0.2484  0.1972
 9527SOL    HW140040   0.618   1.682   6.564  0.1216 -0.4513 -0.1605
 9527SOL    HW240041   0.580   1.625   6.687 -0.3149 -0.0151  0.0952
 9528SOL     OW40042   3.843   1.263   7.484 -0.7581  0.4327 -0.0172
 9528SOL    HW140043   3.788   1.313   7.423 -1.5919  1.0088  1.1939
 9528SOL    HW240044   3.774   1.247   7.548 -0.0314  1.3388  0.9923
 9529SOL     OW40045   4.649   2.982  10.173  0.4285 -0.4901 -0.0382
 9529SOL    HW140046   4.650   2.899  10.219  2.9634 -0.0693  0.6804
 9529SOL    HW240047   4.660   3.043  10.246 -2.3864 -0.1224  0.0733
 9530SOL     OW40048   0.805   3.093   6.846 -0.7820 -0.3628  0.7259
 9530SOL    HW140049   0.809   3.018   6.785 -0.0540  1.1131 -1.0380
 9530SOL    HW240050   0.827   3.162   6.784  1.7629 -1.2328  0.6702
 9531SOL     OW40051   2.861   0.732  13.039 -0.4169  0.1001 -0.5752
 9531SOL    HW140052   2.820   0.812  13.007 -0.6951 -0.2890 -1.2071
 9531SOL    HW240053   2.827   0.740  13.128  0.3597 -1.7760 -0.0995
 9532SOL     OW40054   2.144   1.642   3.443  0.1630 -0.0718  0.0580
 9532SOL    HW140055   2.180   1.561   3.405  1.4304  0.0016  1.0735
 9532SOL    HW240056   2.214   1.658   3.506  1.9064 -0.3053 -1.8044
 9533SOL     OW40057   0.420   2.627   6.388 -0.2375 -0.0815  0.3110
 9533SOL    HW140058   0.446   2.715   6.413  3.5893 -0.8123 -1.0710
 9533SOL    HW240059   0.329   2.638   6.414 -1.0081 -1.6633 -1.7337
 9534SOL     OW40060   4.573   4.241   4.615 -0.6724 -0.1482  0.4416
 9534SOL    HW140061   4.591   4.309   4.550  2.0393  1.7836  3.2114
 9534SOL    HW240062   4.486   4.218   4.582 -1.8306 -1.3484  4.3970
 9535SOL     OW40063   0.795   2.747   2.372 -0.0355 -0.0926 -0.7995
 9535SOL    HW140064   0.729   2.733   2.304  0.3119  3.9252 -1.9458
 9535SOL    HW240065   0.763   2.835   2.390 -0.5020 -0.1959 -1.1233
 9536SOL     OW40066   1.011   3.610  16.499  0.0733 -0.1821  0.3012
 9536SOL    HW140067   1.002   3.704  16.510  0.2880 -0.0514 -0.6842
 9536SOL    HW240068   1.065   3.575  16.570  0.7352 -0.7867 -0.4975
 9537SOL     OW40069   4.364   0.464   8.069 -0.0368  0.5072  0.3122
 9537SOL    HW140070   4.455   0.436   8.061 -0.1902 -0.2254  1.0541
 9537SOL    HW240071   4.311   0.385   8.057 -1.4822  1.6303 -0.6561
 9538SOL     OW40072   3.976   3.082   7.841  0.4784  0.4146  0.1500
 9538SOL    HW140073   4.058   3.062   7.886  1.2505 -0.1661 -1.5402
 9538SOL    HW240074   4.015   3.104   7.757  0.7186  0.6060  0.3118
 9539SOL     OW40075   2.403   4.090   2.738  0.5994  0.3166 -0.4746
 9539SOL    HW140076   2.462   4.023   2.772  0.0233  1.7257  3.4187
 9539SOL    HW240077   2.434   4.103   2.649  1.5866  1.2226  0.0097
 9540SOL     OW40078   0.910   4.372   5.201  0.0868 -0.3956  0.1071
 9540SOL    HW140079   0.982   4.414   5.248  0.0188  1.3960 -1.3743
 9540SOL    HW240080   0.847   4.429   5.245  0.9924 -0.3806  1.3836
 9541SOL     OW40081   1.556   4.389   2.584  0.1280  0.1297 -0.0553
 9541SOL    HW140082   1.515   4.324   2.527  0.5352  0.8505 -1.1873
 9541SOL    HW240083   1.533   4.346   2.666 -1.8943 -0.4610 -0.9393
 9542SOL     OW40084   0.202   1.559   9.229  0.4135  0.5086  0.1799
 9542SOL    HW140085   0.269   1.519   9.173  0.7415  1.7677 -0.3360
 9542SOL    HW240086   0.263   1.610   9.282  1.0929 -0.4668  0.3178
 9543SOL     OW40087   3.613   1.991   8.144 -0.1174  0.4783  0.1214
 9543SOL    HW140088   3.622   1.896   8.132 -0.5733  0.1613  2.4090
 9543SOL    HW240089   3.588   2.008   8.235 -1.7206 -1.5653  0.0745
 9544SOL     OW40090   3.282   1.631  12.784  0.0260  0.3815  0.0222
 9544SOL    HW140091   3.232   1.670  12.856 -0.3319  0.8430 -0.4759
 9544SOL    HW240092   3.226   1.558  12.759 -1.2283  0.9425  1.2262
 9545SOL     OW40093   2.314   3.742   4.777 -0.2964  0.5976  0.6072
 9545SOL    HW140094   2.228   3.707   4.801 -0.3268  0.0691 -0.2590
 9545SOL    HW240095   2.366   3.661   4.786  0.1542  0.8765  0.5271
 9546SOL     OW40096   2.648   4.003   3.152 -0.3986  0.0395 -0.0377
 9546SOL    HW140097   2.704   4.077   3.175  1.5157 -0.9657 -1.5158
 9546SOL    HW240098   2.578   4.061   3.121  0.9976 -0.1170 -3.5061
 9547SOL     OW40099   0.574   2.426   1.796  0.6239  0.5916 -0.1104
 9547SOL    HW140100   0.552   2.390   1.710 -1.4106 -0.7039  0.9545
 9547SOL    HW240101   0.537   2.361   1.856 -2.1268  3.1800  0.9884
 9548SOL     OW40102   4.549   0.283   5.853  0.1572  0.0165  0.6245
 9548SOL    HW140103   4.508   0.208   5.897 -0.4407 -0.7745 -1.3034
 9548SOL    HW240104   4.561   0.349   5.921  0.0289  0.0102  0.6531
 9549SOL     OW40105   0.496   3.084   4.989 -0.5422 -0.7340 -0.0585
 9549SOL    HW140106   0.457   3.112   4.906  2.2381 -0.3978 -1.2701
 9549SOL    HW240107   0.556   3.158   5.003 -2.2426  0.2509  2.0728
 9550SOL     OW40108   0.241   4.459   0.913 -0.5499 -0.1105 -0.0591
 9550SOL    HW140109   0.247   4.483   0.820  1.8770  0.7202  0.2942
 9550SOL    HW240110   0.299   4.532   0.935 -0.6018 -0.3652  0.9154
 9551SOL     OW40111   3.260   3.118   1.888 -0.2478 -0.4553  0.1906
 9551SOL    HW140112   3.171   3.106   1.921 -1.4702  0.6247 -2.6690
 9551SOL    HW240113   3.252   3.079   1.801  0.0592  0.1521 -0.1184
 9552SOL     OW40114   3.826   0.451  10.859 -0.6112  0.4451  0.2148
 9552SOL    HW140115   3.892   0.465  10.927 -1.6320  0.2643  1.2450
 9552SOL    HW240116   3.875   0.388  10.807 -1.4750 -0.0661  0.0101
 9553SOL     OW40117   1.850   2.678   3.402 -0.1188 -0.1580 -0.1881
 9553SOL    HW140118   1.784   2.666   3.470 -0.3916  1.1682 -0.2103
 9553SOL    HW240119   1.813   2.752   3.354 -2.0199 -1.5103 -0.8000
 9554SOL     OW40120   4.279   0.743   6.268  0.1251  0.2844 -0.2433
 9554SOL    HW140121   4.227   0.682   6.320  0.2833  0.6352  0.3209
 9554SOL    HW240122   4.293   0.690   6.189 -0.1391  0.8520 -0.6731
 9555SOL     OW40123   4.505   0.088   6.559 -0.0039 -0.0724  0.1633
 9555SOL    HW140124   4.441   0.028   6.521  0.6266 -0.8877  0.3883
 9555SOL    HW240125   4.439   0.124   6.618  0.1384 -1.4436  1.1597
 9556SOL     OW40126   2.316   0.470   4.379  0.2724 -0.1274  0.5269
 9556SOL    HW140127   2.249   0.506   4.320  0.4669  1.5742  1.3648
 9556SOL    HW240128   2.264   0.483   4.458  0.5283  0.6720  0.5662
 9557SOL     OW40129   3.196   3.167  15.020 -0.1863  0.3857 -0.4477
 9557SOL    HW140130   3.247   3.247  15.035 -0.3202  0.2549  0.7538
 9557SOL    HW240131   3.225   3.146  14.932  0.6050 -0.8338  0.1080
 9558SOL     OW40132   3.850   0.950   0.749  0.4630 -0.1812  0.0048
 9558SOL    HW140133   3.781   0.973   0.811  0.6760 -0.4609  0.3397
 9558SOL    HW240134   3.925   0.957   0.807  0.3379 -0.0319  0.1471
 9559SOL     OW40135   0.916   1.143   7.876  0.1407 -0.0502 -0.5443
 9559SOL    HW140136   0.913   1.109   7.787 -0.7699 -1.6121  0.0925
 9559SOL    HW240137   0.970   1.221   7.862  0.7859 -0.3006  0.5681
 9560SOL     OW40138   1.279   1.484  16.740  0.0019 -0.4678 -0.4108
 9560SOL    HW140139   1.229   1.539  16.801  1.9528  0.6193  0.2320
 9560SOL    HW240140   1.205   1.430  16.713 -1.2906  0.2850  1.6321
 9561SOL     OW40141   1.026   1.823  17.180 -0.5124  0.9673 -0.3908
 9561SOL    HW140142   0.992   1.733  17.182 -1.2066  1.2687  0.9759
 9561SOL    HW240143   1.120   1.810  17.193 -0.9326 -2.0072 -0.3541
 9562SOL     OW40144   3.752   4.042   7.203  0.0028  0.3423  0.1126
 9562SOL    HW140145   3.797   4.107   7.257 -1.8144  0.7436  1.1330
 9562SOL    HW240146   3.676   4.018   7.255  1.2539  0.2006  1.8742
 9563SOL     OW40147   1.486   3.616   8.285  0.1271 -0.1243 -0.0845
 9563SOL    HW140148   1.421   3.673   8.245 -0.5529  0.0209  1.2101
 9563SOL    HW240149   1.532   3.587   8.206  0.8518 -1.1526  0.7127
 9564SOL     OW40150   1.044   0.669  14.568  0.5412 -0.0677 -0.1925
 9564SOL    HW140151   1.093   0.728  14.626 -0.7165 -0.1525  0.9399
 9564SOL    HW240152   1.043   0.709  14.481  0.3665 -1.7240 -0.9484
 9565SOL     OW40153   2.443   2.961   0.951  0.0345 -0.6052 -0.0606
 9565SOL    HW140154   2.376   2.915   1.002  1.2205 -1.0857  1.0982
 9565SOL    HW240155   2.388   3.016   0.896  1.1294  0.4457 -0.1083
   4.72344   4.72344  17.69559
